Generated by trjconv : CNT in water t= 332.00000
33518
    1C        C    1   2.845   2.771   4.749
    1C        C    2   2.899   2.722   4.870
    1C        C    3   2.848   2.778   4.987
    1C        C    4   2.850   2.778   4.260
    1C        C    5   2.906   2.737   4.383
    1C        C    6   2.849   2.779   4.505
    1C        C    7   3.017   2.647   4.627
    1C        C    8   2.902   2.730   4.627
    1C        C    9   3.077   2.605   4.748
    1C        C   10   3.012   2.637   4.870
    1C        C   11   3.181   2.485   4.972
    1C        C   12   3.064   2.563   4.977
    1C        C   13   2.846   2.770   3.773
    1C        C   14   2.901   2.725   3.895
    1C        C   15   2.848   2.775   4.016
    1C        C   16   3.016   2.647   4.140
    1C        C   17   2.901   2.729   4.138
    1C        C   18   3.083   2.622   4.262
    1C        C   19   3.021   2.656   4.384
    1C        C   20   3.209   2.556   4.502
    1C        C   21   3.080   2.613   4.506
    1C        C   22   3.277   2.534   4.624
    1C        C   23   3.209   2.554   4.747
    1C        C   24   3.413   2.479   4.863
    1C        C   25   3.272   2.500   4.863
    1C        C   26   3.487   2.479   4.982
    1C        C   27   2.849   2.768   3.283
    1C        C   28   2.903   2.724   3.405
    1C        C   29   2.852   2.772   3.528
    1C        C   30   3.018   2.643   3.651
    1C        C   31   2.901   2.723   3.651
    1C        C   32   3.078   2.605   3.773
    1C        C   33   3.017   2.644   3.895
    1C        C   34   3.208   2.556   4.019
    1C        C   35   3.078   2.611   4.018
    1C        C   36   3.278   2.535   4.140
    1C        C   37   3.213   2.566   4.261
    1C        C   38   3.417   2.504   4.379
    1C        C   39   3.279   2.534   4.382
    1C        C   40   3.487   2.502   4.502
    1C        C   41   3.414   2.500   4.623
    1C        C   42   3.629   2.482   4.742
    1C        C   43   3.487   2.477   4.741
    1C        C   44   3.702   2.490   4.863
    1C        C   45   3.626   2.476   4.979
    1C        C   46   2.836   2.750   2.797
    1C        C   47   2.896   2.712   2.919
    1C        C   48   2.849   2.769   3.040
    1C        C   49   3.016   2.635   3.164
    1C        C   50   2.905   2.722   3.161
    1C        C   51   3.079   2.604   3.286
    1C        C   52   3.017   2.640   3.408
    1C        C   53   3.206   2.542   3.529
    1C        C   54   3.080   2.605   3.530
    1C        C   55   3.275   2.523   3.651
    1C        C   56   3.209   2.553   3.773
    1C        C   57   3.412   2.503   3.892
    1C        C   58   3.274   2.534   3.897
    1C        C   59   3.486   2.502   4.013
    1C        C   60   3.417   2.505   4.136
    1C        C   61   3.628   2.498   4.259
    1C        C   62   3.487   2.492   4.257
    1C        C   63   3.699   2.510   4.381
    1C        C   64   3.628   2.507   4.503
    1C        C   65   3.837   2.544   4.624
    1C        C   66   3.701   2.504   4.623
    1C        C   67   3.906   2.560   4.747
    1C        C   68   3.839   2.523   4.866
    1C        C   69   4.049   2.585   4.977
    1C        C   70   3.920   2.532   4.980
    1C        C   71   2.830   2.740   2.309
    1C        C   72   2.886   2.695   2.431
    1C        C   73   2.830   2.742   2.552
    1C        C   74   3.003   2.623   2.673
    1C        C   75   2.883   2.697   2.675
    1C        C   76   3.070   2.595   2.794
    1C        C   77   3.017   2.639   2.918
    1C        C   78   3.205   2.544   3.039
    1C        C   79   3.076   2.602   3.041
    1C        C   80   3.273   2.523   3.161
    1C        C   81   3.208   2.546   3.284
    1C        C   82   3.414   2.499   3.406
    1C        C   83   3.275   2.524   3.407
    1C        C   84   3.484   2.493   3.528
    1C        C   85   3.414   2.500   3.651
    1C        C   86   3.626   2.498   3.770
    1C        C   87   3.485   2.489   3.772
    1C        C   88   3.696   2.513   3.892
    1C        C   89   3.627   2.509   4.015
    1C        C   90   3.834   2.553   4.138
    1C        C   91   3.698   2.516   4.137
    1C        C   92   3.902   2.579   4.259
    1C        C   93   3.835   2.547   4.379
    1C        C   94   4.026   2.638   4.500
    1C        C   95   3.902   2.569   4.502
    1C        C   96   4.089   2.673   4.621
    1C        C   97   4.031   2.628   4.742
    1C        C   98   4.192   2.766   4.862
    1C        C   99   4.098   2.658   4.863
    1C        C  100   4.206   2.844   4.977
    1C        C  101   2.825   2.732   2.074
    1C        C  102   2.994   2.592   2.191
    1C        C  103   2.882   2.680   2.191
    1C        C  104   3.065   2.574   2.313
    1C        C  105   3.005   2.619   2.433
    1C        C  106   3.200   2.531   2.553
    1C        C  107   3.071   2.589   2.554
    1C        C  108   3.269   2.512   2.676
    1C        C  109   3.199   2.539   2.796
    1C        C  110   3.409   2.493   2.917
    1C        C  111   3.269   2.515   2.916
    1C        C  112   3.481   2.487   3.038
    1C        C  113   3.413   2.500   3.161
    1C        C  114   3.624   2.501   3.280
    1C        C  115   3.483   2.494   3.283
    1C        C  116   3.692   2.515   3.403
    1C        C  117   3.625   2.503   3.527
    1C        C  118   3.834   2.541   3.647
    1C        C  119   3.697   2.508   3.648
    1C        C  120   3.898   2.574   3.770
    1C        C  121   3.833   2.548   3.893
    1C        C  122   4.026   2.637   4.012
    1C        C  123   3.900   2.573   4.014
    1C        C  124   4.088   2.676   4.133
    1C        C  125   4.031   2.637   4.256
    1C        C  126   4.192   2.770   4.377
    1C        C  127   4.089   2.673   4.379
    1C        C  128   4.240   2.823   4.499
    1C        C  129   4.196   2.765   4.620
    1C        C  130   4.327   2.934   4.739
    1C        C  131   4.244   2.819   4.741
    1C        C  132   4.359   3.000   4.860
    1C        C  133   4.284   2.960   4.971
    1C        C  134   3.174   2.472   2.081
    1C        C  135   3.039   2.508   2.084
    1C        C  136   3.260   2.480   2.191
    1C        C  137   3.196   2.518   2.311
    1C        C  138   3.406   2.479   2.431
    1C        C  139   3.266   2.502   2.432
    1C        C  140   3.479   2.479   2.552
    1C        C  141   3.408   2.488   2.674
    1C        C  142   3.621   2.495   2.794
    1C        C  143   3.480   2.492   2.795
    1C        C  144   3.694   2.503   2.914
    1C        C  145   3.622   2.497   3.036
    1C        C  146   3.829   2.548   3.156
    1C        C  147   3.694   2.506   3.157
    1C        C  148   3.893   2.576   3.279
    1C        C  149   3.830   2.546   3.402
    1C        C  150   4.024   2.630   3.523
    1C        C  151   3.898   2.566   3.524
    1C        C  152   4.081   2.673   3.645
    1C        C  153   4.020   2.644   3.769
    1C        C  154   4.192   2.769   3.887
    1C        C  155   4.084   2.677   3.890
    1C        C  156   4.241   2.819   4.010
    1C        C  157   4.197   2.766   4.133
    1C        C  158   4.337   2.925   4.252
    1C        C  159   4.248   2.816   4.255
    1C        C  160   4.373   2.989   4.373
    1C        C  161   4.327   2.935   4.495
    1C        C  162   4.438   3.115   4.616
    1C        C  163   4.372   2.990   4.617
    1C        C  164   4.468   3.182   4.736
    1C        C  165   4.431   3.122   4.859
    1C        C  166   4.509   3.324   4.971
    1C        C  167   4.474   3.189   4.974
    1C        C  168   3.474   2.437   2.072
    1C        C  169   3.400   2.459   2.189
    1C        C  170   3.617   2.468   2.310
    1C        C  171   3.475   2.467   2.309
    1C        C  172   3.691   2.482   2.429
    1C        C  173   3.620   2.483   2.551
    1C        C  174   3.828   2.537   2.666
    1C        C  175   3.692   2.498   2.672
    1C        C  176   3.894   2.565   2.788
    1C        C  177   3.830   2.543   2.911
    1C        C  178   4.023   2.632   3.032
    1C        C  179   3.895   2.572   3.033
    1C        C  180   4.083   2.667   3.155
    1C        C  181   4.021   2.635   3.278
    1C        C  182   4.197   2.753   3.397
    1C        C  183   4.085   2.667   3.400
    1C        C  184   4.244   2.805   3.519
    1C        C  185   4.191   2.761   3.643
    1C        C  186   4.335   2.921   3.764
    1C        C  187   4.244   2.812   3.764
    1C        C  188   4.378   2.979   3.886
    1C        C  189   4.333   2.926   4.009
    1C        C  190   4.448   3.106   4.129
    1C        C  191   4.378   2.983   4.130
    1C        C  192   4.470   3.176   4.249
    1C        C  193   4.441   3.113   4.372
    1C        C  194   4.509   3.314   4.491
    1C        C  195   4.466   3.180   4.494
    1C        C  196   4.527   3.387   4.611
    1C        C  197   4.509   3.318   4.733
    1C        C  198   4.552   3.535   4.851
    1C        C  199   4.525   3.395   4.851
    1C        C  200   4.580   3.620   4.963
    1C        C  201   3.613   2.420   2.075
    1C        C  202   3.823   2.514   2.185
    1C        C  203   3.689   2.463   2.188
    1C        C  204   3.899   2.539   2.303
    1C        C  205   3.828   2.516   2.423
    1C        C  206   4.021   2.615   2.544
    1C        C  207   3.894   2.554   2.543
    1C        C  208   4.084   2.656   2.664
    1C        C  209   4.022   2.625   2.787
    1C        C  210   4.196   2.750   2.907
    1C        C  211   4.083   2.665   2.908
    1C        C  212   4.247   2.800   3.028
    1C        C  213   4.194   2.754   3.151
    1C        C  214   4.333   2.913   3.272
    1C        C  215   4.244   2.804   3.273
    1C        C  216   4.371   2.972   3.394
    1C        C  217   4.331   2.916   3.517
    1C        C  218   4.433   3.102   3.637
    1C        C  219   4.372   2.975   3.639
    1C        C  220   4.466   3.167   3.759
    1C        C  221   4.444   3.104   3.884
    1C        C  222   4.509   3.307   4.004
    1C        C  223   4.474   3.170   4.005
    1C        C  224   4.524   3.380   4.124
    1C        C  225   4.511   3.311   4.247
    1C        C  226   4.519   3.525   4.365
    1C        C  227   4.513   3.384   4.368
    1C        C  228   4.521   3.599   4.485
    1C        C  229   4.527   3.528   4.607
    1C        C  230   4.504   3.742   4.724
    1C        C  231   4.532   3.602   4.727
    1C        C  232   4.499   3.819   4.843
    1C        C  233   4.546   3.756   4.958
    1C        C  234   4.016   2.612   2.063
    1C        C  235   3.892   2.549   2.069
    1C        C  236   4.085   2.647   2.180
    1C        C  237   4.022   2.610   2.301
    1C        C  238   4.198   2.734   2.421
    1C        C  239   4.082   2.650   2.422
    1C        C  240   4.247   2.790   2.541
    1C        C  241   4.196   2.743   2.664
    1C        C  242   4.341   2.902   2.783
    1C        C  243   4.249   2.795   2.784
    1C        C  244   4.383   2.961   2.904
    1C        C  245   4.341   2.906   3.027
    1C        C  246   4.440   3.093   3.147
    1C        C  247   4.381   2.965   3.149
    1C        C  248   4.459   3.162   3.270
    1C        C  249   4.434   3.099   3.394
    1C        C  250   4.499   3.303   3.513
    1C        C  251   4.461   3.167   3.515
    1C        C  252   4.510   3.372   3.635
    1C        C  253   4.501   3.303   3.759
    1C        C  254   4.520   3.515   3.877
    1C        C  255   4.514   3.374   3.880
    1C        C  256   4.521   3.590   3.997
    1C        C  257   4.525   3.522   4.120
    1C        C  258   4.493   3.733   4.240
    1C        C  259   4.517   3.594   4.242
    1C        C  260   4.472   3.804   4.361
    1C        C  261   4.489   3.737   4.484
    1C        C  262   4.425   3.942   4.603
    1C        C  263   4.477   3.811   4.604
    1C        C  264   4.400   4.011   4.724
    1C        C  265   4.438   3.946   4.844
    1C        C  266   4.323   4.135   4.961
    1C        C  267   4.396   4.016   4.958
    1C        C  268   4.258   2.774   2.060
    1C        C  269   4.194   2.737   2.179
    1C        C  270   4.343   2.892   2.297
    1C        C  271   4.251   2.783   2.300
    1C        C  272   4.383   2.953   2.418
    1C        C  273   4.342   2.895   2.539
    1C        C  274   4.451   3.081   2.661
    1C        C  275   4.379   2.960   2.659
    1C        C  276   4.484   3.149   2.780
    1C        C  277   4.454   3.083   2.901
    1C        C  278   4.505   3.290   3.022
    1C        C  279   4.472   3.152   3.023
    1C        C  280   4.516   3.362   3.143
    1C        C  281   4.496   3.298   3.268
    1C        C  282   4.518   3.510   3.388
    1C        C  283   4.512   3.369   3.389
    1C        C  284   4.518   3.581   3.510
    1C        C  285   4.518   3.513   3.634
    1C        C  286   4.488   3.725   3.754
    1C        C  287   4.516   3.586   3.755
    1C        C  288   4.474   3.796   3.875
    1C        C  289   4.492   3.728   3.998
    1C        C  290   4.427   3.933   4.115
    1C        C  291   4.477   3.801   4.118
    1C        C  292   4.398   4.000   4.237
    1C        C  293   4.425   3.937   4.360
    1C        C  294   4.327   4.129   4.480
    1C        C  295   4.392   4.004   4.480
    1C        C  296   4.283   4.189   4.600
    1C        C  297   4.327   4.132   4.722
    1C        C  298   4.202   4.314   4.838
    1C        C  299   4.285   4.197   4.841
    1C        C  300   4.165   4.397   4.949
    1C        C  301   4.349   2.878   2.064
    1C        C  302   4.467   3.069   2.172
    1C        C  303   4.400   2.943   2.178
    1C        C  304   4.483   3.142   2.293
    1C        C  305   4.454   3.076   2.414
    1C        C  306   4.508   3.279   2.534
    1C        C  307   4.483   3.140   2.536
    1C        C  308   4.517   3.355   2.652
    1C        C  309   4.503   3.289   2.777
    1C        C  310   4.514   3.500   2.895
    1C        C  311   4.509   3.359   2.899
    1C        C  312   4.514   3.571   3.018
    1C        C  313   4.519   3.503   3.141
    1C        C  314   4.487   3.715   3.263
    1C        C  315   4.512   3.576   3.263
    1C        C  316   4.471   3.784   3.386
    1C        C  317   4.492   3.720   3.510
    1C        C  318   4.422   3.923   3.626
    1C        C  319   4.468   3.790   3.630
    1C        C  320   4.390   3.988   3.747
    1C        C  321   4.424   3.928   3.871
    1C        C  322   4.315   4.111   3.990
    1C        C  323   4.396   3.995   3.992
    1C        C  324   4.276   4.169   4.112
    1C        C  325   4.319   4.117   4.236
    1C        C  326   4.183   4.282   4.354
    1C        C  327   4.281   4.180   4.356
    1C        C  328   4.130   4.333   4.475
    1C        C  329   4.185   4.290   4.598
    1C        C  330   4.023   4.433   4.715
    1C        C  331   4.141   4.355   4.716
    1C        C  332   3.967   4.488   4.833
    1C        C  333   4.057   4.485   4.941
    1C        C  334   4.554   3.268   2.060
    1C        C  335   4.532   3.130   2.060
    1C        C  336   4.541   3.352   2.172
    1C        C  337   4.513   3.281   2.290
    1C        C  338   4.521   3.492   2.407
    1C        C  339   4.520   3.351   2.413
    1C        C  340   4.514   3.567   2.527
    1C        C  341   4.519   3.497   2.649
    1C        C  342   4.486   3.707   2.773
    1C        C  343   4.509   3.567   2.771
    1C        C  344   4.474   3.778   2.895
    1C        C  345   4.492   3.711   3.018
    1C        C  346   4.420   3.912   3.137
    1C        C  347   4.467   3.779   3.139
    1C        C  348   4.392   3.979   3.258
    1C        C  349   4.423   3.917   3.381
    1C        C  350   4.315   4.102   3.501
    1C        C  351   4.393   3.984   3.502
    1C        C  352   4.272   4.163   3.621
    1C        C  353   4.317   4.109   3.744
    1C        C  354   4.173   4.265   3.867
    1C        C  355   4.273   4.165   3.866
    1C        C  356   4.121   4.316   3.988
    1C        C  357   4.178   4.271   4.110
    1C        C  358   4.012   4.403   4.228
    1C        C  359   4.129   4.324   4.231
    1C        C  360   3.952   4.444   4.350
    1C        C  361   4.018   4.419   4.472
    1C        C  362   3.827   4.513   4.595
    1C        C  363   3.959   4.463   4.593
    1C        C  364   3.763   4.547   4.716
    1C        C  365   3.838   4.543   4.836
    1C        C  366   3.625   4.590   4.952
    1C        C  367   3.763   4.574   4.950
    1C        C  368   4.506   3.565   2.050
    1C        C  369   4.526   3.493   2.168
    1C        C  370   4.508   3.708   2.286
    1C        C  371   4.525   3.568   2.288
    1C        C  372   4.488   3.780   2.406
    1C        C  373   4.497   3.707   2.527
    1C        C  374   4.417   3.903   2.648
    1C        C  375   4.475   3.774   2.650
    1C        C  376   4.386   3.969   2.769
    1C        C  377   4.424   3.910   2.892
    1C        C  378   4.314   4.093   3.010
    1C        C  379   4.388   3.972   3.013
    1C        C  380   4.271   4.151   3.132
    1C        C  381   4.311   4.095   3.255
    1C        C  382   4.173   4.255   3.376
    1C        C  383   4.271   4.154   3.377
    1C        C  384   4.122   4.309   3.497
    1C        C  385   4.174   4.265   3.621
    1C        C  386   4.008   4.395   3.740
    1C        C  387   4.122   4.311   3.744
    1C        C  388   3.947   4.435   3.860
    1C        C  389   4.004   4.395   3.983
    1C        C  390   3.819   4.493   4.108
    1C        C  391   3.948   4.434   4.106
    1C        C  392   3.750   4.512   4.230
    1C        C  393   3.821   4.495   4.351
    1C        C  394   3.616   4.544   4.472
    1C        C  395   3.756   4.524   4.473
    1C        C  396   3.549   4.557   4.596
    1C        C  397   3.622   4.563   4.717
    1C        C  398   3.409   4.545   4.840
    1C        C  399   3.548   4.573   4.836
    1C        C  400   3.339   4.519   4.959
    1C        C  401   4.496   3.704   2.047
    1C        C  402   4.453   3.915   2.165
    1C        C  403   4.492   3.779   2.165
    1C        C  404   4.410   3.979   2.284
    1C        C  405   4.434   3.910   2.405
    1C        C  406   4.322   4.092   2.523
    1C        C  407   4.399   3.973   2.527
    1C        C  408   4.275   4.147   2.644
    1C        C  409   4.313   4.090   2.767
    1C        C  410   4.174   4.252   2.889
    1C        C  411   4.272   4.150   2.888
    1C        C  412   4.123   4.300   3.012
    1C        C  413   4.173   4.253   3.135
    1C        C  414   3.997   4.377   3.252
    1C        C  415   4.116   4.301   3.255
    1C        C  416   3.942   4.419   3.376
    1C        C  417   4.004   4.387   3.498
    1C        C  418   3.812   4.481   3.618
    1C        C  419   3.942   4.428   3.619
    1C        C  420   3.747   4.507   3.741
    1C        C  421   3.816   4.489   3.863
    1C        C  422   3.612   4.541   3.985
    1C        C  423   3.750   4.509   3.986
    1C        C  424   3.543   4.542   4.109
    1C        C  425   3.611   4.537   4.232
    1C        C  426   3.398   4.550   4.356
    1C        C  427   3.539   4.552   4.354
    1C        C  428   3.331   4.548   4.480
    1C        C  429   3.408   4.555   4.599
    1C        C  430   3.197   4.511   4.723
    1C        C  431   3.337   4.538   4.720
    1C        C  432   3.125   4.490   4.844
    1C        C  433   3.203   4.491   4.960
    1C        C  434   4.384   4.121   2.049
    1C        C  435   4.449   3.997   2.052
    1C        C  436   4.300   4.160   2.159
    1C        C  437   4.332   4.097   2.282
    1C        C  438   4.179   4.250   2.402
    1C        C  439   4.280   4.151   2.402
    1C        C  440   4.126   4.300   2.523
    1C        C  441   4.179   4.251   2.644
    1C        C  442   4.009   4.379   2.765
    1C        C  443   4.126   4.300   2.766
    1C        C  444   3.947   4.419   2.885
    1C        C  445   4.005   4.378   3.006
    1C        C  446   3.812   4.470   3.128
    1C        C  447   3.941   4.411   3.128
    1C        C  448   3.747   4.500   3.250
    1C        C  449   3.813   4.478   3.373
    1C        C  450   3.607   4.529   3.497
    1C        C  451   3.745   4.497   3.495
    1C        C  452   3.540   4.540   3.621
    1C        C  453   3.609   4.539   3.744
    1C        C  454   3.398   4.547   3.865
    1C        C  455   3.539   4.553   3.865
    1C        C  456   3.330   4.535   3.989
    1C        C  457   3.402   4.544   4.111
    1C        C  458   3.194   4.497   4.233
    1C        C  459   3.331   4.532   4.233
    1C        C  460   3.129   4.480   4.358
    1C        C  461   3.194   4.512   4.479
    1C        C  462   3.000   4.428   4.603
    1C        C  463   3.130   4.484   4.602
    1C        C  464   2.929   4.400   4.723
    1C        C  465   2.990   4.440   4.845
    1C        C  466   2.803   4.338   4.957
    1C        C  467   2.908   4.430   4.961
    1C        C  468   4.127   4.294   2.039
    1C        C  469   4.188   4.249   2.156
    1C        C  470   4.007   4.368   2.277
    1C        C  471   4.126   4.290   2.277
    1C        C  472   3.944   4.410   2.397
    1C        C  473   4.009   4.379   2.518
    1C        C  474   3.816   4.464   2.643
    1C        C  475   3.945   4.408   2.641
    1C        C  476   3.748   4.494   2.763
    1C        C  477   3.817   4.475   2.886
    1C        C  478   3.608   4.526   3.008
    1C        C  479   3.747   4.497   3.006
    1C        C  480   3.538   4.534   3.130
    1C        C  481   3.609   4.528   3.252
    1C        C  482   3.397   4.541   3.377
    1C        C  483   3.538   4.539   3.374
    1C        C  484   3.327   4.533   3.500
    1C        C  485   3.398   4.543   3.621
    1C        C  486   3.192   4.497   3.741
    1C        C  487   3.328   4.537   3.743
    1C        C  488   3.130   4.476   3.867
    1C        C  489   3.193   4.502   3.990
    1C        C  490   2.999   4.414   4.115
    1C        C  491   3.125   4.477   4.112
    1C        C  492   2.938   4.383   4.239
    1C        C  493   3.001   4.422   4.359
    1C        C  494   2.832   4.296   4.482
    1C        C  495   2.941   4.386   4.482
    1C        C  496   2.777   4.251   4.604
    1C        C  497   2.816   4.314   4.724
    1C        C  498   2.659   4.168   4.846
    1C        C  499   2.751   4.275   4.843
    1C        C  500   2.593   4.119   4.959
    1C        C  501   4.003   4.357   2.042
    1C        C  502   3.813   4.466   2.152
    1C        C  503   3.941   4.405   2.158
    1C        C  504   3.746   4.484   2.275
    1C        C  505   3.812   4.459   2.397
    1C        C  506   3.610   4.514   2.520
    1C        C  507   3.748   4.481   2.521
    1C        C  508   3.537   4.520   2.641
    1C        C  509   3.609   4.518   2.762
    1C        C  510   3.398   4.519   2.884
    1C        C  511   3.539   4.529   2.884
    1C        C  512   3.327   4.520   3.006
    1C        C  513   3.397   4.533   3.128
    1C        C  514   3.194   4.492   3.253
    1C        C  515   3.330   4.530   3.253
    1C        C  516   3.128   4.464   3.375
    1C        C  517   3.190   4.497   3.497
    1C        C  518   2.999   4.409   3.622
    1C        C  519   3.123   4.477   3.620
    1C        C  520   2.945   4.373   3.747
    1C        C  521   3.004   4.413   3.869
    1C        C  522   2.837   4.282   3.993
    1C        C  523   2.944   4.374   3.992
    1C        C  524   2.788   4.233   4.117
    1C        C  525   2.831   4.291   4.238
    1C        C  526   2.693   4.131   4.364
    1C        C  527   2.782   4.242   4.361
    1C        C  528   2.649   4.079   4.487
    1C        C  529   2.688   4.141   4.607
    1C        C  530   2.579   3.962   4.733
    1C        C  531   2.638   4.092   4.729
    1C        C  532   2.539   3.902   4.855
    1C        C  533   2.526   3.996   4.962
    1C        C  534   3.614   4.552   2.038
    1C        C  535   3.746   4.505   2.036
    1C        C  536   3.535   4.532   2.156
    1C        C  537   3.607   4.515   2.277
    1C        C  538   3.395   4.514   2.397
    1C        C  539   3.536   4.522   2.399
    1C        C  540   3.325   4.506   2.519
    1C        C  541   3.396   4.512   2.641
    1C        C  542   3.187   4.483   2.767
    1C        C  543   3.326   4.511   2.763
    1C        C  544   3.120   4.460   2.890
    1C        C  545   3.191   4.483   3.010
    1C        C  546   2.999   4.399   3.136
    1C        C  547   3.124   4.465   3.133
    1C        C  548   2.939   4.363   3.258
    1C        C  549   3.001   4.402   3.378
    1C        C  550   2.833   4.273   3.504
    1C        C  551   2.942   4.364   3.501
    1C        C  552   2.785   4.227   3.628
    1C        C  553   2.837   4.281   3.747
    1C        C  554   2.700   4.122   3.874
    1C        C  555   2.791   4.230   3.870
    1C        C  556   2.659   4.064   3.996
    1C        C  557   2.700   4.123   4.118
    1C        C  558   2.601   3.940   4.244
    1C        C  559   2.661   4.067   4.242
    1C        C  560   2.566   3.882   4.369
    1C        C  561   2.585   3.953   4.490
    1C        C  562   2.523   3.752   4.612
    1C        C  563   2.559   3.889   4.613
    1C        C  564   2.510   3.685   4.735
    1C        C  565   2.522   3.760   4.855
    1C        C  566   2.528   3.547   4.978
    1C        C  567   2.520   3.686   4.974
    1C        C  568   3.326   4.474   2.040
    1C        C  569   3.394   4.513   2.156
    1C        C  570   3.181   4.477   2.279
    1C        C  571   3.320   4.506   2.277
    1C        C  572   3.118   4.454   2.404
    1C        C  573   3.187   4.477   2.525
    1C        C  574   2.990   4.398   2.647
    1C        C  575   3.118   4.459   2.647
    1C        C  576   2.933   4.356   2.769
    1C        C  577   2.994   4.396   2.890
    1C        C  578   2.828   4.273   3.015
    1C        C  579   2.936   4.364   3.014
    1C        C  580   2.778   4.225   3.138
    1C        C  581   2.828   4.275   3.260
    1C        C  582   2.695   4.111   3.385
    1C        C  583   2.780   4.224   3.383
    1C        C  584   2.659   4.053   3.509
    1C        C  585   2.695   4.117   3.629
    1C        C  586   2.592   3.936   3.757
    1C        C  587   2.661   4.059   3.753
    1C        C  588   2.568   3.871   3.880
    1C        C  589   2.597   3.937   4.001
    1C        C  590   2.524   3.739   4.124
    1C        C  591   2.571   3.872   4.124
    1C        C  592   2.517   3.673   4.249
    1C        C  593   2.527   3.747   4.369
    1C        C  594   2.504   3.538   4.500
    1C        C  595   2.516   3.678   4.492
    1C        C  596   2.504   3.465   4.621
    1C        C  597   2.509   3.542   4.740
    1C        C  598   2.531   3.330   4.865
    1C        C  599   2.520   3.470   4.861
    1C        C  600   2.535   3.254   4.982
    1C        C  601   3.192   4.442   2.041
    1C        C  602   2.981   4.394   2.161
    1C        C  603   3.113   4.449   2.157
    1C        C  604   2.921   4.361   2.285
    1C        C  605   2.987   4.400   2.404
    1C        C  606   2.818   4.273   2.528
    1C        C  607   2.928   4.362   2.526
    1C        C  608   2.768   4.218   2.648
    1C        C  609   2.823   4.267   2.769
    1C        C  610   2.687   4.112   2.895
    1C        C  611   2.773   4.223   2.894
    1C        C  612   2.657   4.050   3.019
    1C        C  613   2.690   4.114   3.141
    1C        C  614   2.592   3.926   3.265
    1C        C  615   2.652   4.054   3.263
    1C        C  616   2.564   3.865   3.389
    1C        C  617   2.591   3.929   3.512
    1C        C  618   2.526   3.731   3.640
    1C        C  619   2.568   3.865   3.636
    1C        C  620   2.513   3.661   3.763
    1C        C  621   2.532   3.734   3.882
    1C        C  622   2.506   3.525   4.011
    1C        C  623   2.513   3.666   4.004
    1C        C  624   2.515   3.458   4.135
    1C        C  625   2.510   3.532   4.256
    1C        C  626   2.532   3.324   4.378
    1C        C  627   2.516   3.464   4.380
    1C        C  628   2.551   3.256   4.501
    1C        C  629   2.531   3.327   4.622
    1C        C  630   2.599   3.125   4.745
    1C        C  631   2.550   3.258   4.744
    1C        C  632   2.619   3.051   4.864
    1C        C  633   2.562   3.117   4.978
    1C        C  634   2.780   4.302   2.053
    1C        C  635   2.893   4.385   2.048
    1C        C  636   2.747   4.230   2.168
    1C        C  637   2.808   4.274   2.287
    1C        C  638   2.677   4.109   2.411
    1C        C  639   2.763   4.221   2.409
    1C        C  640   2.637   4.047   2.532
    1C        C  641   2.682   4.107   2.652
    1C        C  642   2.583   3.922   2.777
    1C        C  643   2.645   4.049   2.775
    1C        C  644   2.563   3.855   2.899
    1C        C  645   2.597   3.922   3.018
    1C        C  646   2.523   3.728   3.150
    1C        C  647   2.567   3.862   3.142
    1C        C  648   2.511   3.658   3.272
    1C        C  649   2.529   3.728   3.393
    1C        C  650   2.502   3.521   3.521
    1C        C  651   2.513   3.662   3.517
    1C        C  652   2.504   3.449   3.642
    1C        C  653   2.505   3.520   3.765
    1C        C  654   2.521   3.312   3.891
    1C        C  655   2.506   3.453   3.889
    1C        C  656   2.545   3.246   4.014
    1C        C  657   2.537   3.319   4.135
    1C        C  658   2.608   3.122   4.259
    1C        C  659   2.552   3.252   4.258
    1C        C  660   2.637   3.060   4.382
    1C        C  661   2.605   3.126   4.503
    1C        C  662   2.710   2.941   4.628
    1C        C  663   2.634   3.060   4.625
    1C        C  664   2.754   2.880   4.748
    1C        C  665   2.699   2.933   4.868
    1C        C  666   2.746   2.873   4.986
    1C        C  667   2.684   4.026   2.057
    1C        C  668   2.680   4.106   2.172
    1C        C  669   2.583   3.912   2.291
    1C        C  670   2.640   4.042   2.292
    1C        C  671   2.553   3.849   2.414
    1C        C  672   2.577   3.920   2.534
    1C        C  673   2.514   3.717   2.661
    1C        C  674   2.556   3.852   2.657
    1C        C  675   2.499   3.648   2.783
    1C        C  676   2.519   3.720   2.903
    1C        C  677   2.509   3.515   3.031
    1C        C  678   2.510   3.656   3.028
    1C        C  679   2.506   3.444   3.153
    1C        C  680   2.503   3.516   3.274
    1C        C  681   2.529   3.311   3.402
    1C        C  682   2.504   3.450   3.399
    1C        C  683   2.546   3.242   3.525
    1C        C  684   2.527   3.309   3.648
    1C        C  685   2.596   3.112   3.771
    1C        C  686   2.537   3.240   3.770
    1C        C  687   2.619   3.048   3.895
    1C        C  688   2.587   3.111   4.018
    1C        C  689   2.707   2.932   4.139
    1C        C  690   2.635   3.053   4.138
    1C        C  691   2.750   2.879   4.263
    1C        C  692   2.711   2.940   4.384
    1C        C  693   2.753   2.883   4.506
    1C        C  694   2.631   3.896   2.059
    1C        C  695   2.521   3.707   2.176
    1C        C  696   2.570   3.839   2.171
    1C        C  697   2.502   3.640   2.299
    1C        C  698   2.511   3.715   2.418
    1C        C  699   2.484   3.505   2.543
    1C        C  700   2.497   3.645   2.540
    1C        C  701   2.497   3.435   2.665
    1C        C  702   2.496   3.507   2.787
    1C        C  703   2.526   3.300   2.913
    1C        C  704   2.506   3.440   2.911
    1C        C  705   2.547   3.234   3.036
    1C        C  706   2.534   3.306   3.157
    1C        C  707   2.601   3.109   3.283
    1C        C  708   2.551   3.241   3.281
    1C        C  709   2.638   3.050   3.406
    1C        C  710   2.606   3.114   3.528
    1C        C  711   2.716   2.933   3.653
    1C        C  712   2.638   3.051   3.651
    1C        C  713   2.759   2.880   3.777
    1C        C  714   2.704   2.936   3.895
    1C        C  715   2.750   2.878   4.016
    1C        C  716   2.442   3.500   2.066
    1C        C  717   2.484   3.634   2.062
    1C        C  718   2.460   3.424   2.185
    1C        C  719   2.481   3.499   2.304
    1C        C  720   2.512   3.288   2.424
    1C        C  721   2.483   3.427   2.425
    1C        C  722   2.535   3.223   2.547
    1C        C  723   2.519   3.296   2.667
    1C        C  724   2.600   3.102   2.792
    1C        C  725   2.547   3.233   2.791
    1C        C  726   2.628   3.039   2.915
    1C        C  727   2.599   3.103   3.038
    1C        C  728   2.711   2.927   3.161
    1C        C  729   2.628   3.042   3.162
    1C        C  730   2.754   2.873   3.284
    1C        C  731   2.715   2.931   3.407
    1C        C  732   2.757   2.877   3.530
    1C        C  733   2.495   3.203   2.069
    1C        C  734   2.491   3.284   2.183
    1C        C  735   2.583   3.086   2.306
    1C        C  736   2.526   3.217   2.304
    1C        C  737   2.614   3.022   2.428
    1C        C  738   2.589   3.092   2.548
    1C        C  739   2.701   2.913   2.671
    1C        C  740   2.627   3.034   2.671
    1C        C  741   2.747   2.860   2.793
    1C        C  742   2.707   2.923   2.914
    1C        C  743   2.751   2.870   3.037
    1C        C  744   2.545   3.073   2.072
    1C        C  745   2.684   2.899   2.188
    1C        C  746   2.609   3.019   2.184
    1C        C  747   2.733   2.845   2.309
    1C        C  748   2.688   2.902   2.430
    1C        C  749   2.738   2.849   2.551
    1C        C  750   2.735   2.838   2.073
    1C        C  751   3.653   2.307   1.988
    1C        O  752   3.608   2.190   1.997
    1C        O  753   3.716   2.332   1.865
    1C        C  754   4.603   3.045   1.961
    1C        O  755   4.562   3.039   1.842
    1C        O  756   4.739   3.013   1.962
    1C        C  757   4.445   4.224   1.962
    1C        O  758   4.540   4.297   1.999
    1C        O  759   4.453   4.191   1.826
    1C        C  760   3.580   4.649   1.932
    1C        O  761   3.595   4.773   1.949
    1C        O  762   3.567   4.616   1.796
    1C        C  763   2.876   4.504   1.962
    1C        O  764   2.897   4.511   1.838
    1C        O  765   2.815   4.623   2.004
    1C        C  766   2.327   3.489   1.974
    1C        O  767   2.338   3.433   1.862
    1C        O  768   2.193   3.511   2.009
    1C        C  769   4.693   3.594   5.055
    1C        O  770   4.673   3.598   5.180
    1C        O  771   4.828   3.593   5.019
    1C        C  772   4.275   4.446   5.035
    1C        O  773   4.266   4.439   5.160
    1C        O  774   4.379   4.530   4.992
    1C        C  775   4.139   2.523   5.076
    1C        O  776   4.201   2.415   5.054
    1C        O  777   4.134   2.556   5.212
    1C        C  778   2.885   4.552   5.043
    1C        O  779   2.891   4.673   5.007
    1C        O  780   2.890   4.546   5.182
    1C        C  781   2.469   3.040   5.064
    1C        O  782   2.357   3.000   5.023
    1C        O  783   2.478   3.057   5.202
    1C        C  784   2.398   3.995   5.036
    1C        O  785   2.305   4.077   5.012
    1C        O  786   2.378   3.948   5.167
    1C        C  787   2.945   2.426   2.004
    1C        O  788   2.965   2.400   1.882
    1C        O  789   2.911   2.302   2.058
    1C        C  790   3.160   2.345   5.014
    1C        O  791   3.134   2.251   4.935
    1C        O  792   3.119   2.328   5.147
    1C        H  793   4.296   3.012   5.064
    1C        H  794   4.121   2.848   5.042
    1C        H  795   4.511   3.136   5.059
    1C        H  796   4.473   3.385   5.051
    1C        H  797   4.536   3.800   5.055
    1C        H  798   4.411   3.975   5.055
    1C        H  799   4.312   4.185   5.054
    1C        H  800   4.074   4.575   4.996
    1C        H  801   3.817   4.617   5.032
    1C        H  802   3.580   4.628   5.041
    1C        H  803   3.390   4.504   5.052
    1C        H  804   3.154   4.518   5.052
    1C        H  805   3.890   2.469   5.061
    1C        H  806   3.666   2.429   5.067
    1C        H  807   3.052   2.610   5.072
    1C        H  808   3.436   2.472   5.076
    1C        H  809   2.917   2.788   5.069
    1C        H  810   2.709   2.915   5.077
    1C        H  811   2.494   3.295   5.072
    1C        H  812   2.566   3.506   5.069
    1C        H  813   2.488   3.737   5.063
    1C        H  814   2.563   4.184   5.038
    1C        H  815   2.783   4.286   5.048
    1C        H  816   2.707   2.881   1.979
    1C        H  817   2.834   2.674   1.985
    1C        H  818   3.213   2.458   1.982
    1C        H  819   3.425   2.449   1.977
    1C        H  820   3.847   2.532   1.973
    1C        H  821   4.050   2.638   1.965
    1C        H  822   4.287   2.691   1.999
    1C        H  823   4.362   2.928   1.970
    1C        H  824   4.616   3.304   1.980
    1C        H  825   4.538   3.524   1.956
    1C        H  826   4.488   3.757   1.955
    1C        H  827   3.771   4.453   1.945
    1C        H  828   3.941   4.340   1.956
    1C        H  829   4.151   4.257   1.941
    1C        H  830   4.523   3.978   1.977
    1C        H  831   2.649   3.834   1.974
    1C        H  832   2.750   4.049   1.976
    1C        H  833   2.705   4.304   1.976
    1C        H  834   3.379   4.474   1.948
    1C        H  835   3.145   4.416   1.948
    1C        H  836   2.557   3.027   1.976
    1C        H  837   2.432   3.227   1.986
    1C        H  838   2.501   3.675   1.965
    2V3OU   H29  839   2.801   3.541   3.450
    2V3OU   C27  840   2.793   3.502   3.555
    2V3OU   H27  841   2.732   3.567   3.623
    2V3OU   H28  842   2.742   3.403   3.552
    2V3OU   O11  843   2.911   3.481   3.633
    2V3OU   C15  844   2.928   3.396   3.741
    2V3OU   C13  845   3.057   3.378   3.795
    2V3OU   C14  846   3.080   3.273   3.885
    2V3OU   C16  847   2.982   3.186   3.932
    2V3OU    H6  848   2.998   3.102   4.001
    2V3OU   C12  849   3.218   3.238   3.924
    2V3OU    O2  850   3.243   3.127   3.976
    2V3OU   C10  851   3.327   3.312   3.859
    2V3OU    C8  852   3.459   3.276   3.879
    2V3OU   O10  853   3.490   3.152   3.927
    2V3OU   H26  854   3.404   3.113   3.948
    2V3OU    C6  855   3.568   3.352   3.827
    2V3OU    C5  856   3.542   3.466   3.752
    2V3OU    C4  857   3.707   3.296   3.827
    2V3OU    H4  858   3.727   3.232   3.918
    2V3OU    H5  859   3.717   3.224   3.741
    2V3OU    C2  860   3.818   3.400   3.814
    2V3OU    O6  861   3.811   3.475   3.936
    2V3OU   H21  862   3.766   3.556   3.910
    2V3OU    C3  863   3.785   3.495   3.700
    2V3OU    H2  864   3.867   3.571   3.696
    2V3OU    H3  865   3.779   3.444   3.600
    2V3OU   C25  866   3.951   3.327   3.796
    2V3OU    O7  867   4.004   3.289   3.692
    2V3OU   C26  868   4.029   3.293   3.923
    2V3OU   H22  869   4.061   3.387   3.975
    2V3OU   H23  870   4.121   3.236   3.897
    2V3OU    O8  871   3.959   3.209   4.012
    2V3OU   H24  872   3.924   3.264   4.085
    2V3OU    C1  873   3.651   3.564   3.722
    2V3OU    H1  874   3.622   3.621   3.628
    2V3OU    O3  875   3.663   3.656   3.830
    2V3OU   C19  876   3.620   3.791   3.814
    2V3OU    H9  877   3.523   3.795   3.757
    2V3OU    O4  878   3.712   3.851   3.726
    2V3OU   C20  879   3.844   3.873   3.778
    2V3OU   H10  880   3.896   3.776   3.803
    2V3OU   C24  881   3.613   3.861   3.950
    2V3OU   H16  882   3.551   3.794   4.016
    2V3OU   H17  883   3.563   3.961   3.951
    2V3OU   C23  884   3.756   3.873   4.003
    2V3OU   H15  885   3.796   3.768   4.025
    2V3OU    N1  886   3.739   3.955   4.122
    2V3OU   H19  887   3.810   3.921   4.183
    2V3OU   H20  888   3.649   3.934   4.160
    2V3OU   C21  889   3.852   3.952   3.909
    2V3OU   H11  890   3.955   3.933   3.951
    2V3OU    O5  891   3.826   4.092   3.908
    2V3OU   H18  892   3.767   4.109   3.983
    2V3OU   C22  893   3.914   3.946   3.665
    2V3OU   H12  894   3.861   4.043   3.645
    2V3OU   H13  895   3.901   3.890   3.569
    2V3OU   H14  896   4.021   3.965   3.691
    2V3OU   C11  897   3.163   3.467   3.746
    2V3OU    O1  898   3.131   3.582   3.712
    2V3OU    C9  899   3.302   3.424   3.775
    2V3OU    C7  900   3.406   3.502   3.726
    2V3OU    O9  901   3.384   3.621   3.660
    2V3OU   H25  902   3.289   3.636   3.674
    2V3OU   C17  903   2.826   3.318   3.800
    2V3OU    H7  904   2.728   3.358   3.778
    2V3OU   C18  905   2.853   3.217   3.893
    2V3OU    H8  906   2.789   3.177   3.973
    3SOL     OW  907   2.664   4.258   5.706
    3SOL    HW1  908   2.748   4.265   5.652
    3SOL    HW2  909   2.675   4.309   5.792
    4SOL     OW  910   6.269   6.810   6.613
    4SOL    HW1  911   6.187   6.794   6.558
    4SOL    HW2  912   6.298   6.905   6.604
    5SOL     OW  913   4.991   2.373   2.734
    5SOL    HW1  914   4.991   2.468   2.765
    5SOL    HW2  915   4.899   2.336   2.743
    6SOL     OW  916   4.746   2.245   2.699
    6SOL    HW1  917   4.723   2.193   2.616
    6SOL    HW2  918   4.665   2.296   2.730
    7SOL     OW  919   1.111   3.935   3.972
    7SOL    HW1  920   1.053   3.927   4.053
    7SOL    HW2  921   1.206   3.916   3.997
    8SOL     OW  922   2.944   2.198   5.455
    8SOL    HW1  923   3.039   2.183   5.483
    8SOL    HW2  924   2.939   2.197   5.355
    9SOL     OW  925   6.114   2.147   6.139
    9SOL    HW1  926   6.174   2.226   6.129
    9SOL    HW2  927   6.075   2.147   6.232
   10SOL     OW  928   2.771   4.742   4.504
   10SOL    HW1  929   2.723   4.717   4.419
   10SOL    HW2  930   2.706   4.736   4.580
   11SOL     OW  931   1.839   1.082   6.607
   11SOL    HW1  932   1.873   1.066   6.515
   11SOL    HW2  933   1.908   1.054   6.674
   12SOL     OW  934   2.899   4.847   3.964
   12SOL    HW1  935   2.854   4.811   3.883
   12SOL    HW2  936   2.997   4.855   3.947
   13SOL     OW  937   4.016   6.381   3.263
   13SOL    HW1  938   4.060   6.425   3.184
   13SOL    HW2  939   3.968   6.299   3.233
   14SOL     OW  940   4.123   3.742   6.517
   14SOL    HW1  941   4.160   3.816   6.574
   14SOL    HW2  942   4.169   3.742   6.429
   15SOL     OW  943   0.922   6.768   6.496
   15SOL    HW1  944   0.853   6.785   6.566
   15SOL    HW2  945   1.005   6.731   6.539
   16SOL     OW  946   5.727   2.701   6.329
   16SOL    HW1  947   5.811   2.751   6.308
   16SOL    HW2  948   5.664   2.762   6.377
   17SOL     OW  949   5.272   0.325   6.523
   17SOL    HW1  950   5.199   0.372   6.572
   17SOL    HW2  951   5.239   0.237   6.489
   18SOL     OW  952   3.648   0.946   4.769
   18SOL    HW1  953   3.584   1.018   4.745
   18SOL    HW2  954   3.737   0.986   4.790
   19SOL     OW  955   0.832   2.496   1.855
   19SOL    HW1  956   0.779   2.422   1.814
   19SOL    HW2  957   0.803   2.509   1.950
   20SOL     OW  958   5.118   2.161   5.198
   20SOL    HW1  959   5.138   2.183   5.293
   20SOL    HW2  960   5.174   2.084   5.169
   21SOL     OW  961   2.459   0.470   3.306
   21SOL    HW1  962   2.429   0.541   3.242
   21SOL    HW2  963   2.450   0.504   3.400
   22SOL     OW  964   1.018   6.502   6.859
   22SOL    HW1  965   1.024   6.503   6.759
   22SOL    HW2  966   1.019   6.407   6.890
   23SOL     OW  967   4.091   5.393   2.427
   23SOL    HW1  968   4.169   5.335   2.449
   23SOL    HW2  969   4.006   5.344   2.450
   24SOL     OW  970   3.539   0.354   2.613
   24SOL    HW1  971   3.595   0.380   2.534
   24SOL    HW2  972   3.551   0.256   2.631
   25SOL     OW  973   1.807   0.082   4.033
   25SOL    HW1  974   1.815   7.007   4.050
   25SOL    HW2  975   1.865   0.107   3.956
   26SOL     OW  976   0.084   2.005   6.870
   26SOL    HW1  977   0.048   1.968   6.956
   26SOL    HW2  978   0.140   2.086   6.890
   27SOL     OW  979   2.066   1.266   2.121
   27SOL    HW1  980   2.114   1.335   2.067
   27SOL    HW2  981   2.116   1.179   2.116
   28SOL     OW  982   0.149   1.082   4.734
   28SOL    HW1  983   0.116   0.991   4.709
   28SOL    HW2  984   0.215   1.114   4.665
   29SOL     OW  985   6.814   0.698   1.108
   29SOL    HW1  986   6.785   0.624   1.047
   29SOL    HW2  987   6.810   0.667   1.203
   30SOL     OW  988   4.018   0.480   5.138
   30SOL    HW1  989   4.094   0.481   5.204
   30SOL    HW2  990   4.052   0.503   5.047
   31SOL     OW  991   0.603   2.259   5.630
   31SOL    HW1  992   0.688   2.310   5.635
   31SOL    HW2  993   0.621   2.166   5.600
   32SOL     OW  994   1.169   1.429   2.237
   32SOL    HW1  995   1.108   1.446   2.160
   32SOL    HW2  996   1.258   1.470   2.218
   33SOL     OW  997   1.049   4.709   5.223
   33SOL    HW1  998   0.978   4.668   5.282
   33SOL    HW2  999   1.083   4.639   5.159
   34SOL     OW 1000   2.447   5.712   4.843
   34SOL    HW1 1001   2.512   5.655   4.894
   34SOL    HW2 1002   2.497   5.778   4.787
   35SOL     OW 1003   4.354   2.161   5.422
   35SOL    HW1 1004   4.280   2.096   5.407
   35SOL    HW2 1005   4.403   2.137   5.506
   36SOL     OW 1006   4.847   1.292   3.973
   36SOL    HW1 1007   4.912   1.232   4.020
   36SOL    HW2 1008   4.897   1.350   3.908
   37SOL     OW 1009   1.957   1.652   5.053
   37SOL    HW1 1010   2.031   1.713   5.028
   37SOL    HW2 1011   1.993   1.575   5.106
   38SOL     OW 1012   2.109   3.838   1.645
   38SOL    HW1 1013   2.071   3.779   1.717
   38SOL    HW2 1014   2.170   3.906   1.686
   39SOL     OW 1015   6.244   4.709   6.084
   39SOL    HW1 1016   6.267   4.624   6.130
   39SOL    HW2 1017   6.242   4.694   5.985
   40SOL     OW 1018   3.593   1.891   0.026
   40SOL    HW1 1019   3.545   1.855   6.969
   40SOL    HW2 1020   3.530   1.947   0.079
   41SOL     OW 1021   6.556   3.339   2.755
   41SOL    HW1 1022   6.536   3.241   2.758
   41SOL    HW2 1023   6.500   3.383   2.685
   42SOL     OW 1024   3.436   5.896   4.561
   42SOL    HW1 1025   3.419   5.803   4.527
   42SOL    HW2 1026   3.481   5.890   4.650
   43SOL     OW 1027   4.071   0.327   5.642
   43SOL    HW1 1028   4.128   0.400   5.605
   43SOL    HW2 1029   3.980   0.332   5.601
   44SOL     OW 1030   5.956   2.391   5.077
   44SOL    HW1 1031   5.975   2.467   5.015
   44SOL    HW2 1032   5.989   2.305   5.037
   45SOL     OW 1033   4.269   5.312   1.434
   45SOL    HW1 1034   4.310   5.276   1.518
   45SOL    HW2 1035   4.267   5.241   1.364
   46SOL     OW 1036   1.079   2.468   4.157
   46SOL    HW1 1037   0.988   2.486   4.193
   46SOL    HW2 1038   1.073   2.449   4.059
   47SOL     OW 1039   4.265   3.849   1.611
   47SOL    HW1 1040   4.227   3.846   1.518
   47SOL    HW2 1041   4.190   3.844   1.677
   48SOL     OW 1042   6.715   2.736   6.293
   48SOL    HW1 1043   6.703   2.791   6.211
   48SOL    HW2 1044   6.732   2.641   6.268
   49SOL     OW 1045   5.073   2.437   1.610
   49SOL    HW1 1046   5.134   2.499   1.560
   49SOL    HW2 1047   5.047   2.479   1.697
   50SOL     OW 1048   6.206   1.561   5.621
   50SOL    HW1 1049   6.179   1.521   5.708
   50SOL    HW2 1050   6.215   1.489   5.552
   51SOL     OW 1051   2.137   6.171   2.770
   51SOL    HW1 1052   2.200   6.158   2.693
   51SOL    HW2 1053   2.069   6.239   2.746
   52SOL     OW 1054   5.250   2.721   1.865
   52SOL    HW1 1055   5.321   2.759   1.924
   52SOL    HW2 1056   5.226   2.629   1.895
   53SOL     OW 1057   5.507   0.595   3.336
   53SOL    HW1 1058   5.555   0.656   3.399
   53SOL    HW2 1059   5.552   0.505   3.337
   54SOL     OW 1060   5.255   6.947   0.320
   54SOL    HW1 1061   5.255   6.996   0.407
   54SOL    HW2 1062   5.166   6.957   0.276
   55SOL     OW 1063   2.081   1.986   5.309
   55SOL    HW1 1064   2.035   2.032   5.232
   55SOL    HW2 1065   2.058   2.033   5.394
   56SOL     OW 1066   1.283   1.811   0.898
   56SOL    HW1 1067   1.364   1.852   0.855
   56SOL    HW2 1068   1.217   1.788   0.827
   57SOL     OW 1069   3.421   1.120   0.490
   57SOL    HW1 1070   3.416   1.022   0.470
   57SOL    HW2 1071   3.512   1.154   0.467
   58SOL     OW 1072   0.582   6.430   5.718
   58SOL    HW1 1073   0.611   6.518   5.755
   58SOL    HW2 1074   0.546   6.373   5.792
   59SOL     OW 1075   6.707   3.848   6.211
   59SOL    HW1 1076   6.713   3.924   6.276
   59SOL    HW2 1077   6.764   3.773   6.242
   60SOL     OW 1078   4.947   2.295   3.579
   60SOL    HW1 1079   4.861   2.245   3.589
   60SOL    HW2 1080   4.963   2.351   3.660
   61SOL     OW 1081   6.961   0.862   4.530
   61SOL    HW1 1082   6.878   0.919   4.526
   61SOL    HW2 1083   6.996   0.850   4.437
   62SOL     OW 1084   1.996   0.909   1.754
   62SOL    HW1 1085   2.063   0.965   1.706
   62SOL    HW2 1086   2.042   0.854   1.823
   63SOL     OW 1087   4.159   0.261   4.053
   63SOL    HW1 1088   4.197   0.289   3.965
   63SOL    HW2 1089   4.197   0.318   4.126
   64SOL     OW 1090   0.466   3.299   6.520
   64SOL    HW1 1091   0.418   3.212   6.509
   64SOL    HW2 1092   0.545   3.286   6.580
   65SOL     OW 1093   1.351   6.315   5.704
   65SOL    HW1 1094   1.280   6.368   5.660
   65SOL    HW2 1095   1.404   6.374   5.765
   66SOL     OW 1096   3.403   0.052   3.327
   66SOL    HW1 1097   3.374   0.077   3.420
   66SOL    HW2 1098   3.442   0.132   3.282
   67SOL     OW 1099   0.318   3.160   6.124
   67SOL    HW1 1100   0.251   3.161   6.199
   67SOL    HW2 1101   0.394   3.220   6.147
   68SOL     OW 1102   0.265   1.891   6.287
   68SOL    HW1 1103   0.220   1.958   6.346
   68SOL    HW2 1104   0.245   1.799   6.320
   69SOL     OW 1105   1.975   2.878   5.292
   69SOL    HW1 1106   1.978   2.836   5.201
   69SOL    HW2 1107   1.881   2.905   5.313
   70SOL     OW 1108   5.300   5.205   4.920
   70SOL    HW1 1109   5.383   5.160   4.889
   70SOL    HW2 1110   5.268   5.268   4.849
   71SOL     OW 1111   4.392   1.713   2.993
   71SOL    HW1 1112   4.324   1.786   3.001
   71SOL    HW2 1113   4.458   1.738   2.921
   72SOL     OW 1114   0.322   1.171   3.162
   72SOL    HW1 1115   0.234   1.180   3.116
   72SOL    HW2 1116   0.389   1.231   3.119
   73SOL     OW 1117   3.031   0.521   1.218
   73SOL    HW1 1118   3.062   0.426   1.215
   73SOL    HW2 1119   2.935   0.526   1.188
   74SOL     OW 1120   2.712   1.189   6.302
   74SOL    HW1 1121   2.799   1.181   6.351
   74SOL    HW2 1122   2.654   1.256   6.349
   75SOL     OW 1123   3.874   1.589   1.678
   75SOL    HW1 1124   3.812   1.574   1.601
   75SOL    HW2 1125   3.828   1.644   1.748
   76SOL     OW 1126   2.109   3.636   6.119
   76SOL    HW1 1127   2.062   3.699   6.181
   76SOL    HW2 1128   2.048   3.560   6.097
   77SOL     OW 1129   1.596   5.797   3.216
   77SOL    HW1 1130   1.617   5.702   3.239
   77SOL    HW2 1131   1.578   5.848   3.300
   78SOL     OW 1132   4.178   1.428   1.518
   78SOL    HW1 1133   4.260   1.434   1.461
   78SOL    HW2 1134   4.158   1.519   1.556
   79SOL     OW 1135   2.702   5.713   1.614
   79SOL    HW1 1136   2.642   5.722   1.693
   79SOL    HW2 1137   2.750   5.625   1.617
   80SOL     OW 1138   4.250   1.617   4.660
   80SOL    HW1 1139   4.272   1.624   4.757
   80SOL    HW2 1140   4.179   1.547   4.646
   81SOL     OW 1141   2.048   6.889   1.222
   81SOL    HW1 1142   1.961   6.841   1.231
   81SOL    HW2 1143   2.078   6.921   1.312
   82SOL     OW 1144   6.849   6.167   1.423
   82SOL    HW1 1145   6.925   6.105   1.444
   82SOL    HW2 1146   6.885   6.258   1.405
   83SOL     OW 1147   0.665   1.531   6.152
   83SOL    HW1 1148   0.754   1.544   6.196
   83SOL    HW2 1149   0.616   1.619   6.150
   84SOL     OW 1150   6.464   4.520   3.572
   84SOL    HW1 1151   6.492   4.437   3.621
   84SOL    HW2 1152   6.538   4.548   3.510
   85SOL     OW 1153   1.424   0.599   3.512
   85SOL    HW1 1154   1.521   0.578   3.518
   85SOL    HW2 1155   1.382   0.544   3.440
   86SOL     OW 1156   6.579   1.038   6.662
   86SOL    HW1 1157   6.675   1.047   6.686
   86SOL    HW2 1158   6.524   1.095   6.723
   87SOL     OW 1159   3.648   3.826   0.830
   87SOL    HW1 1160   3.574   3.759   0.820
   87SOL    HW2 1161   3.635   3.879   0.913
   88SOL     OW 1162   3.161   2.046   6.393
   88SOL    HW1 1163   3.091   1.986   6.356
   88SOL    HW2 1164   3.216   2.084   6.319
   89SOL     OW 1165   3.312   3.626   0.520
   89SOL    HW1 1166   3.221   3.608   0.484
   89SOL    HW2 1167   3.365   3.678   0.453
   90SOL     OW 1168   4.624   4.737   2.465
   90SOL    HW1 1169   4.627   4.637   2.463
   90SOL    HW2 1170   4.589   4.771   2.378
   91SOL     OW 1171   6.002   4.760   5.994
   91SOL    HW1 1172   6.031   4.785   5.901
   91SOL    HW2 1173   6.083   4.735   6.048
   92SOL     OW 1174   5.005   4.280   0.828
   92SOL    HW1 1175   4.920   4.245   0.790
   92SOL    HW2 1176   5.069   4.204   0.841
   93SOL     OW 1177   3.124   3.731   6.901
   93SOL    HW1 1178   3.060   3.692   6.836
   93SOL    HW2 1179   3.206   3.673   6.906
   94SOL     OW 1180   2.327   5.923   0.791
   94SOL    HW1 1181   2.246   5.885   0.835
   94SOL    HW2 1182   2.303   5.955   0.699
   95SOL     OW 1183   1.431   0.764   2.974
   95SOL    HW1 1184   1.381   0.779   3.059
   95SOL    HW2 1185   1.479   0.847   2.948
   96SOL     OW 1186   5.056   5.709   6.878
   96SOL    HW1 1187   5.048   5.611   6.862
   96SOL    HW2 1188   4.965   5.748   6.894
   97SOL     OW 1189   2.089   3.959   5.089
   97SOL    HW1 1190   2.177   4.006   5.075
   97SOL    HW2 1191   2.106   3.862   5.107
   98SOL     OW 1192   1.125   1.728   0.648
   98SOL    HW1 1193   1.060   1.678   0.705
   98SOL    HW2 1194   1.106   1.707   0.552
   99SOL     OW 1195   3.658   3.921   2.589
   99SOL    HW1 1196   3.735   3.955   2.642
   99SOL    HW2 1197   3.601   3.998   2.559
  100SOL     OW 1198   0.018   0.375   4.548
  100SOL    HW1 1199   0.118   0.372   4.538
  100SOL    HW2 1200   7.015   0.322   4.628
  101SOL     OW 1201   0.613   5.602   2.412
  101SOL    HW1 1202   0.599   5.503   2.408
  101SOL    HW2 1203   0.526   5.647   2.434
  102SOL     OW 1204   3.395   5.701   2.374
  102SOL    HW1 1205   3.326   5.641   2.416
  102SOL    HW2 1206   3.458   5.646   2.319
  103SOL     OW 1207   1.524   1.884   2.488
  103SOL    HW1 1208   1.619   1.904   2.465
  103SOL    HW2 1209   1.521   1.811   2.557
  104SOL     OW 1210   1.656   4.932   2.030
  104SOL    HW1 1211   1.736   4.990   2.016
  104SOL    HW2 1212   1.580   4.988   2.062
  105SOL     OW 1213   5.123   1.520   5.878
  105SOL    HW1 1214   5.051   1.584   5.905
  105SOL    HW2 1215   5.201   1.571   5.840
  106SOL     OW 1216   4.637   5.494   2.207
  106SOL    HW1 1217   4.660   5.586   2.238
  106SOL    HW2 1218   4.541   5.475   2.225
  107SOL     OW 1219   6.774   0.529   6.865
  107SOL    HW1 1220   6.726   0.552   6.950
  107SOL    HW2 1221   6.871   0.520   6.883
  108SOL     OW 1222   3.581   6.910   5.355
  108SOL    HW1 1223   3.604   6.850   5.432
  108SOL    HW2 1224   3.509   6.973   5.383
  109SOL     OW 1225   2.554   0.793   2.558
  109SOL    HW1 1226   2.513   0.707   2.588
  109SOL    HW2 1227   2.612   0.777   2.478
  110SOL     OW 1228   2.211   5.326   4.846
  110SOL    HW1 1229   2.119   5.313   4.809
  110SOL    HW2 1230   2.266   5.245   4.829
  111SOL     OW 1231   1.389   1.493   2.928
  111SOL    HW1 1232   1.318   1.540   2.876
  111SOL    HW2 1233   1.459   1.558   2.956
  112SOL     OW 1234   5.043   6.804   6.966
  112SOL    HW1 1235   5.134   6.837   6.989
  112SOL    HW2 1236   5.047   6.753   6.880
  113SOL     OW 1237   0.227   6.247   2.522
  113SOL    HW1 1238   0.165   6.319   2.552
  113SOL    HW2 1239   0.239   6.180   2.596
  114SOL     OW 1240   1.522   5.618   1.925
  114SOL    HW1 1241   1.549   5.677   1.849
  114SOL    HW2 1242   1.597   5.611   1.991
  115SOL     OW 1243   5.943   0.639   3.414
  115SOL    HW1 1244   6.000   0.718   3.436
  115SOL    HW2 1245   5.998   0.568   3.370
  116SOL     OW 1246   0.184   6.320   1.293
  116SOL    HW1 1247   0.244   6.400   1.303
  116SOL    HW2 1248   0.239   6.240   1.270
  117SOL     OW 1249   2.053   0.480   0.330
  117SOL    HW1 1250   1.965   0.471   0.284
  117SOL    HW2 1251   2.113   0.538   0.277
  118SOL     OW 1252   1.862   2.090   3.136
  118SOL    HW1 1253   1.915   2.088   3.052
  118SOL    HW2 1254   1.808   2.175   3.139
  119SOL     OW 1255   0.513   6.890   6.641
  119SOL    HW1 1256   0.455   6.909   6.561
  119SOL    HW2 1257   0.532   6.792   6.646
  120SOL     OW 1258   4.874   0.237   4.540
  120SOL    HW1 1259   4.794   0.246   4.600
  120SOL    HW2 1260   4.844   0.231   4.445
  121SOL     OW 1261   1.788   4.310   0.133
  121SOL    HW1 1262   1.747   4.219   0.133
  121SOL    HW2 1263   1.716   4.379   0.136
  122SOL     OW 1264   1.592   3.541   0.135
  122SOL    HW1 1265   1.618   3.562   0.041
  122SOL    HW2 1266   1.556   3.624   0.178
  123SOL     OW 1267   1.187   0.981   2.137
  123SOL    HW1 1268   1.111   0.925   2.106
  123SOL    HW2 1269   1.152   1.057   2.193
  124SOL     OW 1270   3.232   2.141   0.860
  124SOL    HW1 1271   3.259   2.167   0.953
  124SOL    HW2 1272   3.200   2.046   0.860
  125SOL     OW 1273   3.236   2.439   0.180
  125SOL    HW1 1274   3.198   2.532   0.182
  125SOL    HW2 1275   3.327   2.442   0.140
  126SOL     OW 1276   3.642   3.256   3.196
  126SOL    HW1 1277   3.651   3.165   3.155
  126SOL    HW2 1278   3.717   3.270   3.261
  127SOL     OW 1279   6.567   6.289   5.721
  127SOL    HW1 1280   6.507   6.348   5.666
  127SOL    HW2 1281   6.628   6.346   5.776
  128SOL     OW 1282   5.108   2.940   2.138
  128SOL    HW1 1283   5.200   2.971   2.164
  128SOL    HW2 1284   5.111   2.899   2.047
  129SOL     OW 1285   3.108   4.409   0.782
  129SOL    HW1 1286   3.103   4.317   0.744
  129SOL    HW2 1287   3.090   4.406   0.880
  130SOL     OW 1288   6.291   0.759   4.737
  130SOL    HW1 1289   6.339   0.816   4.803
  130SOL    HW2 1290   6.356   0.717   4.674
  131SOL     OW 1291   6.021   0.948   4.745
  131SOL    HW1 1292   5.997   1.042   4.769
  131SOL    HW2 1293   6.039   0.895   4.828
  132SOL     OW 1294   3.429   3.181   1.711
  132SOL    HW1 1295   3.511   3.236   1.698
  132SOL    HW2 1296   3.452   3.084   1.703
  133SOL     OW 1297   5.258   1.348   3.474
  133SOL    HW1 1298   5.189   1.292   3.520
  133SOL    HW2 1299   5.225   1.442   3.465
  134SOL     OW 1300   0.807   0.533   2.601
  134SOL    HW1 1301   0.816   0.595   2.523
  134SOL    HW2 1302   0.712   0.534   2.632
  135SOL     OW 1303   5.289   3.285   3.994
  135SOL    HW1 1304   5.348   3.205   4.005
  135SOL    HW2 1305   5.193   3.257   3.995
  136SOL     OW 1306   2.336   6.525   4.475
  136SOL    HW1 1307   2.239   6.551   4.469
  136SOL    HW2 1308   2.350   6.468   4.556
  137SOL     OW 1309   4.524   1.129   4.312
  137SOL    HW1 1310   4.500   1.078   4.394
  137SOL    HW2 1311   4.622   1.122   4.295
  138SOL     OW 1312   1.005   4.378   3.438
  138SOL    HW1 1313   0.906   4.371   3.450
  138SOL    HW2 1314   1.032   4.335   3.352
  139SOL     OW 1315   2.786   5.724   6.118
  139SOL    HW1 1316   2.845   5.753   6.193
  139SOL    HW2 1317   2.701   5.686   6.155
  140SOL     OW 1318   1.867   6.658   2.721
  140SOL    HW1 1319   1.906   6.726   2.659
  140SOL    HW2 1320   1.846   6.702   2.809
  141SOL     OW 1321   6.769   3.048   5.985
  141SOL    HW1 1322   6.776   3.059   5.886
  141SOL    HW2 1323   6.691   2.989   6.007
  142SOL     OW 1324   1.969   3.674   1.402
  142SOL    HW1 1325   1.910   3.598   1.427
  142SOL    HW2 1326   2.024   3.702   1.481
  143SOL     OW 1327   5.727   5.444   0.957
  143SOL    HW1 1328   5.715   5.433   0.858
  143SOL    HW2 1329   5.760   5.537   0.976
  144SOL     OW 1330   2.599   4.749   4.694
  144SOL    HW1 1331   2.664   4.764   4.767
  144SOL    HW2 1332   2.531   4.681   4.723
  145SOL     OW 1333   1.432   5.539   1.611
  145SOL    HW1 1334   1.404   5.634   1.594
  145SOL    HW2 1335   1.389   5.507   1.696
  146SOL     OW 1336   4.944   1.010   5.700
  146SOL    HW1 1337   4.927   0.925   5.649
  146SOL    HW2 1338   5.042   1.019   5.718
  147SOL     OW 1339   5.059   1.338   5.401
  147SOL    HW1 1340   5.009   1.323   5.486
  147SOL    HW2 1341   5.046   1.433   5.372
  148SOL     OW 1342   1.172   5.874   1.337
  148SOL    HW1 1343   1.139   5.876   1.431
  148SOL    HW2 1344   1.261   5.921   1.332
  149SOL     OW 1345   3.323   1.767   4.788
  149SOL    HW1 1346   3.379   1.688   4.762
  149SOL    HW2 1347   3.354   1.847   4.736
  150SOL     OW 1348   4.524   0.411   6.196
  150SOL    HW1 1349   4.499   0.508   6.195
  150SOL    HW2 1350   4.508   0.374   6.288
  151SOL     OW 1351   3.900   0.728   1.679
  151SOL    HW1 1352   3.981   0.675   1.703
  151SOL    HW2 1353   3.923   0.825   1.677
  152SOL     OW 1354   6.569   1.482   0.437
  152SOL    HW1 1355   6.602   1.532   0.357
  152SOL    HW2 1356   6.547   1.546   0.511
  153SOL     OW 1357   2.310   0.233   3.617
  153SOL    HW1 1358   2.283   0.220   3.713
  153SOL    HW2 1359   2.392   0.290   3.612
  154SOL     OW 1360   6.820   2.770   0.553
  154SOL    HW1 1361   6.879   2.777   0.473
  154SOL    HW2 1362   6.743   2.710   0.533
  155SOL     OW 1363   1.130   6.807   2.250
  155SOL    HW1 1364   1.217   6.853   2.271
  155SOL    HW2 1365   1.064   6.828   2.321
  156SOL     OW 1366   5.837   1.111   0.013
  156SOL    HW1 1367   5.876   1.202   0.001
  156SOL    HW2 1368   5.807   1.100   0.108
  157SOL     OW 1369   5.834   2.405   0.012
  157SOL    HW1 1370   5.834   2.496   0.054
  157SOL    HW2 1371   5.915   2.394   6.978
  158SOL     OW 1372   1.597   2.388   1.304
  158SOL    HW1 1373   1.628   2.467   1.357
  158SOL    HW2 1374   1.530   2.336   1.357
  159SOL     OW 1375   4.350   4.767   1.172
  159SOL    HW1 1376   4.430   4.821   1.146
  159SOL    HW2 1377   4.267   4.814   1.139
  160SOL     OW 1378   6.270   0.138   1.351
  160SOL    HW1 1379   6.304   0.056   1.304
  160SOL    HW2 1380   6.312   0.219   1.310
  161SOL     OW 1381   1.658   0.006   2.203
  161SOL    HW1 1382   1.712   0.052   2.133
  161SOL    HW2 1383   1.561   0.007   2.178
  162SOL     OW 1384   2.836   0.043   0.098
  162SOL    HW1 1385   2.895   0.009   0.170
  162SOL    HW2 1386   2.859   0.138   0.078
  163SOL     OW 1387   0.407   4.793   3.076
  163SOL    HW1 1388   0.442   4.820   2.987
  163SOL    HW2 1389   0.478   4.747   3.128
  164SOL     OW 1390   0.844   2.610   3.101
  164SOL    HW1 1391   0.883   2.692   3.141
  164SOL    HW2 1392   0.803   2.633   3.012
  165SOL     OW 1393   5.884   5.614   1.111
  165SOL    HW1 1394   5.932   5.585   1.194
  165SOL    HW2 1395   5.940   5.680   1.061
  166SOL     OW 1396   6.684   3.582   1.940
  166SOL    HW1 1397   6.645   3.648   1.876
  166SOL    HW2 1398   6.696   3.626   2.030
  167SOL     OW 1399   5.855   1.606   6.192
  167SOL    HW1 1400   5.937   1.661   6.180
  167SOL    HW2 1401   5.820   1.578   6.102
  168SOL     OW 1402   3.974   2.142   1.630
  168SOL    HW1 1403   4.029   2.172   1.551
  168SOL    HW2 1404   3.881   2.178   1.621
  169SOL     OW 1405   6.123   3.137   0.050
  169SOL    HW1 1406   6.217   3.158   0.025
  169SOL    HW2 1407   6.121   3.078   0.130
  170SOL     OW 1408   0.029   5.719   2.991
  170SOL    HW1 1409   0.075   5.793   2.942
  170SOL    HW2 1410   6.954   5.731   2.984
  171SOL     OW 1411   1.572   3.614   6.898
  171SOL    HW1 1412   1.487   3.580   6.858
  171SOL    HW2 1413   1.576   3.714   6.889
  172SOL     OW 1414   6.802   2.408   2.170
  172SOL    HW1 1415   6.736   2.481   2.153
  172SOL    HW2 1416   6.753   2.323   2.190
  173SOL     OW 1417   5.903   1.204   4.743
  173SOL    HW1 1418   5.844   1.237   4.669
  173SOL    HW2 1419   5.984   1.263   4.750
  174SOL     OW 1420   4.970   5.075   4.494
  174SOL    HW1 1421   4.910   5.116   4.563
  174SOL    HW2 1422   4.976   5.136   4.415
  175SOL     OW 1423   3.270   0.541   1.924
  175SOL    HW1 1424   3.370   0.539   1.931
  175SOL    HW2 1425   3.242   0.622   1.873
  176SOL     OW 1426   5.386   4.430   3.303
  176SOL    HW1 1427   5.323   4.404   3.230
  176SOL    HW2 1428   5.423   4.348   3.347
  177SOL     OW 1429   5.167   2.479   5.089
  177SOL    HW1 1430   5.240   2.544   5.065
  177SOL    HW2 1431   5.202   2.414   5.156
  178SOL     OW 1432   3.298   4.894   4.655
  178SOL    HW1 1433   3.390   4.900   4.695
  178SOL    HW2 1434   3.240   4.840   4.716
  179SOL     OW 1435   4.718   6.779   6.378
  179SOL    HW1 1436   4.705   6.681   6.364
  179SOL    HW2 1437   4.657   6.810   6.452
  180SOL     OW 1438   2.520   6.792   0.517
  180SOL    HW1 1439   2.439   6.755   0.472
  180SOL    HW2 1440   2.492   6.860   0.586
  181SOL     OW 1441   3.756   3.020   5.829
  181SOL    HW1 1442   3.725   3.113   5.846
  181SOL    HW2 1443   3.679   2.957   5.838
  182SOL     OW 1444   5.170   2.865   6.901
  182SOL    HW1 1445   5.079   2.903   6.882
  182SOL    HW2 1446   5.196   2.885   6.995
  183SOL     OW 1447   4.048   2.261   3.842
  183SOL    HW1 1448   4.119   2.321   3.879
  183SOL    HW2 1449   4.083   2.214   3.761
  184SOL     OW 1450   0.557   6.611   4.002
  184SOL    HW1 1451   0.475   6.553   3.997
  184SOL    HW2 1452   0.552   6.668   4.084
  185SOL     OW 1453   0.791   1.564   3.900
  185SOL    HW1 1454   0.870   1.613   3.864
  185SOL    HW2 1455   0.772   1.484   3.843
  186SOL     OW 1456   5.832   6.932   4.412
  186SOL    HW1 1457   5.891   6.944   4.492
  186SOL    HW2 1458   5.770   6.855   4.427
  187SOL     OW 1459   4.854   6.089   2.538
  187SOL    HW1 1460   4.782   6.048   2.595
  187SOL    HW2 1461   4.941   6.045   2.560
  188SOL     OW 1462   1.180   2.979   3.505
  188SOL    HW1 1463   1.135   3.058   3.548
  188SOL    HW2 1464   1.192   2.907   3.572
  189SOL     OW 1465   0.709   4.492   6.630
  189SOL    HW1 1466   0.782   4.557   6.606
  189SOL    HW2 1467   0.669   4.517   6.718
  190SOL     OW 1468   6.215   4.819   6.970
  190SOL    HW1 1469   6.237   4.900   6.915
  190SOL    HW2 1470   6.117   4.813   6.983
  191SOL     OW 1471   6.626   1.466   5.798
  191SOL    HW1 1472   6.714   1.503   5.768
  191SOL    HW2 1473   6.558   1.539   5.799
  192SOL     OW 1474   0.223   5.166   1.734
  192SOL    HW1 1475   0.140   5.122   1.701
  192SOL    HW2 1476   0.301   5.136   1.677
  193SOL     OW 1477   4.893   4.278   5.336
  193SOL    HW1 1478   4.987   4.247   5.350
  193SOL    HW2 1479   4.832   4.200   5.339
  194SOL     OW 1480   3.995   0.068   2.809
  194SOL    HW1 1481   4.044   0.088   2.725
  194SOL    HW2 1482   3.905   0.030   2.787
  195SOL     OW 1483   1.895   0.756   3.585
  195SOL    HW1 1484   1.958   0.829   3.611
  195SOL    HW2 1485   1.885   0.754   3.486
  196SOL     OW 1486   3.408   6.560   0.324
  196SOL    HW1 1487   3.472   6.632   0.297
  196SOL    HW2 1488   3.441   6.516   0.408
  197SOL     OW 1489   3.024   6.060   6.835
  197SOL    HW1 1490   3.064   6.125   6.899
  197SOL    HW2 1491   3.052   6.083   6.742
  198SOL     OW 1492   4.710   6.708   1.398
  198SOL    HW1 1493   4.781   6.778   1.393
  198SOL    HW2 1494   4.626   6.741   1.355
  199SOL     OW 1495   6.786   1.046   2.838
  199SOL    HW1 1496   6.868   1.040   2.781
  199SOL    HW2 1497   6.717   0.982   2.803
  200SOL     OW 1498   1.066   4.108   2.628
  200SOL    HW1 1499   1.121   4.084   2.708
  200SOL    HW2 1500   1.025   4.025   2.589
  201SOL     OW 1501   3.350   6.788   5.813
  201SOL    HW1 1502   3.392   6.698   5.825
  201SOL    HW2 1503   3.307   6.817   5.899
  202SOL     OW 1504   4.807   0.604   5.225
  202SOL    HW1 1505   4.869   0.629   5.151
  202SOL    HW2 1506   4.713   0.602   5.190
  203SOL     OW 1507   4.775   2.472   4.854
  203SOL    HW1 1508   4.824   2.403   4.906
  203SOL    HW2 1509   4.840   2.533   4.808
  204SOL     OW 1510   0.694   0.182   6.502
  204SOL    HW1 1511   0.747   0.119   6.446
  204SOL    HW2 1512   0.690   0.271   6.457
  205SOL     OW 1513   1.110   1.421   1.732
  205SOL    HW1 1514   1.075   1.330   1.757
  205SOL    HW2 1515   1.190   1.411   1.674
  206SOL     OW 1516   0.400   4.625   2.357
  206SOL    HW1 1517   0.369   4.554   2.294
  206SOL    HW2 1518   0.409   4.587   2.449
  207SOL     OW 1519   3.545   0.611   5.239
  207SOL    HW1 1520   3.607   0.532   5.232
  207SOL    HW2 1521   3.450   0.578   5.247
  208SOL     OW 1522   4.998   3.437   6.008
  208SOL    HW1 1523   4.959   3.363   5.954
  208SOL    HW2 1524   5.062   3.489   5.952
  209SOL     OW 1525   1.183   5.650   6.194
  209SOL    HW1 1526   1.168   5.745   6.222
  209SOL    HW2 1527   1.161   5.640   6.097
  210SOL     OW 1528   4.285   1.949   2.639
  210SOL    HW1 1529   4.264   1.986   2.548
  210SOL    HW2 1530   4.202   1.907   2.677
  211SOL     OW 1531   1.000   6.204   3.721
  211SOL    HW1 1532   0.981   6.224   3.817
  211SOL    HW2 1533   0.943   6.128   3.691
  212SOL     OW 1534   2.179   4.019   1.977
  212SOL    HW1 1535   2.229   4.085   2.033
  212SOL    HW2 1536   2.238   3.988   1.902
  213SOL     OW 1537   4.440   1.086   6.703
  213SOL    HW1 1538   4.445   1.118   6.798
  213SOL    HW2 1539   4.532   1.073   6.667
  214SOL     OW 1540   2.875   5.875   2.799
  214SOL    HW1 1541   2.946   5.870   2.729
  214SOL    HW2 1542   2.812   5.950   2.777
  215SOL     OW 1543   3.064   3.947   1.712
  215SOL    HW1 1544   3.061   3.853   1.678
  215SOL    HW2 1545   3.009   4.006   1.652
  216SOL     OW 1546   1.542   6.791   4.889
  216SOL    HW1 1547   1.529   6.876   4.838
  216SOL    HW2 1548   1.604   6.807   4.966
  217SOL     OW 1549   2.037   2.766   5.054
  217SOL    HW1 1550   2.052   2.762   4.955
  217SOL    HW2 1551   2.117   2.729   5.101
  218SOL     OW 1552   1.321   2.669   5.344
  218SOL    HW1 1553   1.227   2.691   5.370
  218SOL    HW2 1554   1.330   2.675   5.245
  219SOL     OW 1555   3.556   5.275   5.976
  219SOL    HW1 1556   3.631   5.272   6.042
  219SOL    HW2 1557   3.585   5.324   5.894
  220SOL     OW 1558   3.428   5.660   6.947
  220SOL    HW1 1559   3.504   5.683   7.007
  220SOL    HW2 1560   3.385   5.743   6.912
  221SOL     OW 1561   6.535   4.078   2.392
  221SOL    HW1 1562   6.599   4.072   2.315
  221SOL    HW2 1563   6.458   4.017   2.375
  222SOL     OW 1564   2.018   4.947   5.721
  222SOL    HW1 1565   2.054   4.869   5.772
  222SOL    HW2 1566   2.085   5.021   5.719
  223SOL     OW 1567   0.242   4.060   0.610
  223SOL    HW1 1568   0.334   4.067   0.572
  223SOL    HW2 1569   0.182   4.018   0.542
  224SOL     OW 1570   2.464   2.604   3.747
  224SOL    HW1 1571   2.465   2.566   3.839
  224SOL    HW2 1572   2.405   2.684   3.744
  225SOL     OW 1573   5.157   1.510   6.235
  225SOL    HW1 1574   5.122   1.581   6.297
  225SOL    HW2 1575   5.234   1.546   6.183
  226SOL     OW 1576   0.538   6.917   0.002
  226SOL    HW1 1577   0.569   6.831   6.985
  226SOL    HW2 1578   0.449   6.942   6.987
  227SOL     OW 1579   1.044   4.647   2.264
  227SOL    HW1 1580   0.987   4.721   2.229
  227SOL    HW2 1581   1.097   4.679   2.343
  228SOL     OW 1582   2.686   6.363   3.771
  228SOL    HW1 1583   2.767   6.413   3.803
  228SOL    HW2 1584   2.675   6.379   3.672
  229SOL     OW 1585   6.145   5.668   0.515
  229SOL    HW1 1586   6.180   5.632   0.429
  229SOL    HW2 1587   6.143   5.768   0.511
  230SOL     OW 1588   3.354   5.048   3.681
  230SOL    HW1 1589   3.376   5.145   3.678
  230SOL    HW2 1590   3.438   4.995   3.696
  231SOL     OW 1591   5.940   2.461   5.936
  231SOL    HW1 1592   5.869   2.408   5.981
  231SOL    HW2 1593   5.972   2.533   5.998
  232SOL     OW 1594   1.044   4.484   6.393
  232SOL    HW1 1595   1.093   4.530   6.319
  232SOL    HW2 1596   0.955   4.528   6.406
  233SOL     OW 1597   2.510   1.385   4.405
  233SOL    HW1 1598   2.556   1.298   4.389
  233SOL    HW2 1599   2.504   1.436   4.319
  234SOL     OW 1600   2.783   5.951   5.048
  234SOL    HW1 1601   2.785   5.854   5.024
  234SOL    HW2 1602   2.763   6.006   4.966
  235SOL     OW 1603   3.257   3.046   2.912
  235SOL    HW1 1604   3.275   3.085   3.002
  235SOL    HW2 1605   3.161   3.063   2.887
  236SOL     OW 1606   5.916   2.895   6.299
  236SOL    HW1 1607   5.962   2.877   6.386
  236SOL    HW2 1608   5.945   2.984   6.264
  237SOL     OW 1609   0.100   6.821   0.416
  237SOL    HW1 1610   0.138   6.745   0.363
  237SOL    HW2 1611   0.171   6.890   0.430
  238SOL     OW 1612   6.646   3.001   0.333
  238SOL    HW1 1613   6.586   3.029   0.408
  238SOL    HW2 1614   6.605   2.924   0.285
  239SOL     OW 1615   6.609   4.651   0.326
  239SOL    HW1 1616   6.676   4.705   0.275
  239SOL    HW2 1617   6.517   4.679   0.300
  240SOL     OW 1618   0.590   2.973   5.195
  240SOL    HW1 1619   0.673   2.962   5.249
  240SOL    HW2 1620   0.535   3.048   5.233
  241SOL     OW 1621   0.646   0.867   3.689
  241SOL    HW1 1622   0.570   0.932   3.680
  241SOL    HW2 1623   0.624   0.783   3.640
  242SOL     OW 1624   1.950   2.655   5.674
  242SOL    HW1 1625   1.867   2.650   5.729
  242SOL    HW2 1626   2.001   2.738   5.699
  243SOL     OW 1627   4.826   0.224   5.485
  243SOL    HW1 1628   4.812   0.148   5.421
  243SOL    HW2 1629   4.924   0.242   5.494
  244SOL     OW 1630   4.825   3.014   4.130
  244SOL    HW1 1631   4.823   3.021   4.230
  244SOL    HW2 1632   4.770   2.935   4.101
  245SOL     OW 1633   6.519   2.830   4.543
  245SOL    HW1 1634   6.498   2.914   4.494
  245SOL    HW2 1635   6.552   2.853   4.635
  246SOL     OW 1636   5.540   3.528   3.382
  246SOL    HW1 1637   5.600   3.479   3.320
  246SOL    HW2 1638   5.460   3.471   3.403
  247SOL     OW 1639   2.517   1.765   2.706
  247SOL    HW1 1640   2.535   1.758   2.805
  247SOL    HW2 1641   2.543   1.857   2.675
  248SOL     OW 1642   4.674   2.666   3.782
  248SOL    HW1 1643   4.593   2.631   3.735
  248SOL    HW2 1644   4.739   2.702   3.715
  249SOL     OW 1645   3.840   0.227   4.989
  249SOL    HW1 1646   3.743   0.207   4.986
  249SOL    HW2 1647   3.857   0.303   5.053
  250SOL     OW 1648   5.084   1.871   5.511
  250SOL    HW1 1649   5.013   1.894   5.444
  250SOL    HW2 1650   5.083   1.939   5.584
  251SOL     OW 1651   4.121   4.303   6.340
  251SOL    HW1 1652   4.166   4.273   6.256
  251SOL    HW2 1653   4.101   4.401   6.334
  252SOL     OW 1654   0.005   1.357   5.973
  252SOL    HW1 1655   6.950   1.385   6.030
  252SOL    HW2 1656   7.010   1.267   5.933
  253SOL     OW 1657   2.701   4.576   0.270
  253SOL    HW1 1658   2.692   4.649   0.202
  253SOL    HW2 1659   2.728   4.491   0.225
  254SOL     OW 1660   6.872   2.915   3.981
  254SOL    HW1 1661   6.927   2.857   4.042
  254SOL    HW2 1662   6.860   3.005   4.024
  255SOL     OW 1663   2.647   2.202   3.702
  255SOL    HW1 1664   2.664   2.105   3.685
  255SOL    HW2 1665   2.663   2.253   3.617
  256SOL     OW 1666   6.248   4.641   6.757
  256SOL    HW1 1667   6.230   4.702   6.834
  256SOL    HW2 1668   6.312   4.569   6.785
  257SOL     OW 1669   3.316   5.163   5.472
  257SOL    HW1 1670   3.289   5.256   5.497
  257SOL    HW2 1671   3.246   5.099   5.505
  258SOL     OW 1672   5.132   3.616   4.818
  258SOL    HW1 1673   5.061   3.686   4.817
  258SOL    HW2 1674   5.090   3.526   4.806
  259SOL     OW 1675   1.791   2.614   2.302
  259SOL    HW1 1676   1.783   2.546   2.375
  259SOL    HW2 1677   1.865   2.678   2.324
  260SOL     OW 1678   4.657   0.456   0.796
  260SOL    HW1 1679   4.661   0.359   0.823
  260SOL    HW2 1680   4.566   0.492   0.816
  261SOL     OW 1681   0.366   3.481   1.117
  261SOL    HW1 1682   0.382   3.548   1.045
  261SOL    HW2 1683   0.270   3.482   1.143
  262SOL     OW 1684   0.521   3.869   1.982
  262SOL    HW1 1685   0.587   3.906   2.048
  262SOL    HW2 1686   0.505   3.772   2.001
  263SOL     OW 1687   0.074   1.815   4.304
  263SOL    HW1 1688   0.072   1.891   4.369
  263SOL    HW2 1689   0.168   1.783   4.293
  264SOL     OW 1690   6.368   4.055   5.929
  264SOL    HW1 1691   6.317   4.134   5.963
  264SOL    HW2 1692   6.444   4.088   5.872
  265SOL     OW 1693   5.137   3.943   3.369
  265SOL    HW1 1694   5.199   3.983   3.437
  265SOL    HW2 1695   5.152   3.986   3.280
  266SOL     OW 1696   3.571   2.734   6.569
  266SOL    HW1 1697   3.547   2.765   6.477
  266SOL    HW2 1698   3.507   2.663   6.598
  267SOL     OW 1699   0.471   2.856   0.137
  267SOL    HW1 1700   0.518   2.913   0.070
  267SOL    HW2 1701   0.513   2.765   0.139
  268SOL     OW 1702   4.770   5.407   5.050
  268SOL    HW1 1703   4.844   5.402   4.983
  268SOL    HW2 1704   4.688   5.364   5.012
  269SOL     OW 1705   1.743   1.916   0.210
  269SOL    HW1 1706   1.787   1.827   0.221
  269SOL    HW2 1707   1.645   1.907   0.226
  270SOL     OW 1708   6.240   0.805   1.593
  270SOL    HW1 1709   6.232   0.793   1.692
  270SOL    HW2 1710   6.239   0.716   1.549
  271SOL     OW 1711   2.598   1.878   0.715
  271SOL    HW1 1712   2.595   1.878   0.615
  271SOL    HW2 1713   2.573   1.787   0.749
  272SOL     OW 1714   3.359   5.461   4.159
  272SOL    HW1 1715   3.274   5.486   4.112
  272SOL    HW2 1716   3.414   5.403   4.099
  273SOL     OW 1717   1.362   5.462   5.801
  273SOL    HW1 1718   1.306   5.405   5.861
  273SOL    HW2 1719   1.375   5.552   5.842
  274SOL     OW 1720   5.076   2.674   3.790
  274SOL    HW1 1721   5.013   2.608   3.830
  274SOL    HW2 1722   5.113   2.638   3.704
  275SOL     OW 1723   0.976   5.818   6.526
  275SOL    HW1 1724   0.984   5.730   6.479
  275SOL    HW2 1725   1.061   5.836   6.576
  276SOL     OW 1726   6.508   5.510   4.368
  276SOL    HW1 1727   6.459   5.591   4.335
  276SOL    HW2 1728   6.580   5.487   4.303
  277SOL     OW 1729   3.188   1.161   6.082
  277SOL    HW1 1730   3.235   1.085   6.038
  277SOL    HW2 1731   3.243   1.195   6.158
  278SOL     OW 1732   5.931   3.534   2.070
  278SOL    HW1 1733   5.964   3.527   2.164
  278SOL    HW2 1734   5.869   3.458   2.051
  279SOL     OW 1735   6.051   3.463   3.770
  279SOL    HW1 1736   6.110   3.406   3.828
  279SOL    HW2 1737   5.968   3.412   3.748
  280SOL     OW 1738   4.483   0.117   3.711
  280SOL    HW1 1739   4.457   0.033   3.758
  280SOL    HW2 1740   4.403   0.176   3.701
  281SOL     OW 1741   2.985   5.060   3.716
  281SOL    HW1 1742   2.905   5.087   3.770
  281SOL    HW2 1743   3.053   5.018   3.776
  282SOL     OW 1744   3.577   2.650   5.653
  282SOL    HW1 1745   3.674   2.663   5.632
  282SOL    HW2 1746   3.566   2.570   5.712
  283SOL     OW 1747   5.872   0.395   5.421
  283SOL    HW1 1748   5.888   0.435   5.512
  283SOL    HW2 1749   5.882   0.295   5.426
  284SOL     OW 1750   1.158   4.300   4.425
  284SOL    HW1 1751   1.127   4.332   4.515
  284SOL    HW2 1752   1.252   4.331   4.411
  285SOL     OW 1753   5.641   6.168   0.470
  285SOL    HW1 1754   5.628   6.260   0.505
  285SOL    HW2 1755   5.628   6.168   0.371
  286SOL     OW 1756   4.119   4.726   5.553
  286SOL    HW1 1757   4.096   4.629   5.542
  286SOL    HW2 1758   4.054   4.770   5.614
  287SOL     OW 1759   1.724   5.638   6.854
  287SOL    HW1 1760   1.694   5.546   6.879
  287SOL    HW2 1761   1.735   5.693   6.937
  288SOL     OW 1762   4.080   0.979   0.538
  288SOL    HW1 1763   4.147   0.905   0.547
  288SOL    HW2 1764   3.998   0.957   0.590
  289SOL     OW 1765   1.468   5.067   6.099
  289SOL    HW1 1766   1.502   5.095   6.009
  289SOL    HW2 1767   1.450   5.149   6.154
  290SOL     OW 1768   4.654   0.812   3.517
  290SOL    HW1 1769   4.574   0.839   3.463
  290SOL    HW2 1770   4.659   0.868   3.600
  291SOL     OW 1771   4.465   1.071   3.917
  291SOL    HW1 1772   4.497   1.157   3.954
  291SOL    HW2 1773   4.404   1.026   3.983
  292SOL     OW 1774   4.702   1.174   3.730
  292SOL    HW1 1775   4.679   1.252   3.673
  292SOL    HW2 1776   4.654   1.181   3.817
  293SOL     OW 1777   4.555   6.319   1.443
  293SOL    HW1 1778   4.628   6.266   1.399
  293SOL    HW2 1779   4.474   6.261   1.455
  294SOL     OW 1780   6.460   5.718   6.140
  294SOL    HW1 1781   6.407   5.764   6.212
  294SOL    HW2 1782   6.496   5.787   6.077
  295SOL     OW 1783   1.896   2.403   5.571
  295SOL    HW1 1784   1.942   2.485   5.604
  295SOL    HW2 1785   1.962   2.327   5.568
  296SOL     OW 1786   6.617   2.458   1.494
  296SOL    HW1 1787   6.641   2.499   1.582
  296SOL    HW2 1788   6.651   2.516   1.420
  297SOL     OW 1789   4.166   4.769   3.644
  297SOL    HW1 1790   4.073   4.758   3.679
  297SOL    HW2 1791   4.230   4.770   3.721
  298SOL     OW 1792   3.847   0.385   0.043
  298SOL    HW1 1793   3.815   0.450   0.112
  298SOL    HW2 1794   3.899   0.434   6.997
  299SOL     OW 1795   3.767   1.919   0.677
  299SOL    HW1 1796   3.852   1.867   0.663
  299SOL    HW2 1797   3.689   1.861   0.655
  300SOL     OW 1798   3.897   0.594   2.467
  300SOL    HW1 1799   3.886   0.557   2.560
  300SOL    HW2 1800   3.825   0.661   2.450
  301SOL     OW 1801   4.878   0.936   1.115
  301SOL    HW1 1802   4.787   0.940   1.074
  301SOL    HW2 1803   4.931   1.016   1.086
  302SOL     OW 1804   0.962   1.124   2.255
  302SOL    HW1 1805   0.940   1.146   2.160
  302SOL    HW2 1806   0.878   1.103   2.304
  303SOL     OW 1807   6.498   5.937   1.557
  303SOL    HW1 1808   6.523   6.020   1.606
  303SOL    HW2 1809   6.447   5.877   1.618
  304SOL     OW 1810   2.279   6.147   6.251
  304SOL    HW1 1811   2.344   6.222   6.243
  304SOL    HW2 1812   2.301   6.092   6.331
  305SOL     OW 1813   1.285   3.093   0.839
  305SOL    HW1 1814   1.295   2.995   0.855
  305SOL    HW2 1815   1.261   3.109   0.744
  306SOL     OW 1816   0.343   1.475   2.768
  306SOL    HW1 1817   0.441   1.478   2.789
  306SOL    HW2 1818   0.291   1.472   2.853
  307SOL     OW 1819   3.746   4.208   0.033
  307SOL    HW1 1820   3.700   4.155   0.105
  307SOL    HW2 1821   3.836   4.238   0.066
  308SOL     OW 1822   5.903   3.043   4.109
  308SOL    HW1 1823   5.928   3.034   4.012
  308SOL    HW2 1824   5.811   3.081   4.116
  309SOL     OW 1825   1.301   6.256   0.524
  309SOL    HW1 1826   1.246   6.237   0.442
  309SOL    HW2 1827   1.243   6.249   0.605
  310SOL     OW 1828   5.278   6.858   4.030
  310SOL    HW1 1829   5.345   6.784   4.023
  310SOL    HW2 1830   5.261   6.878   4.127
  311SOL     OW 1831   2.428   4.764   2.734
  311SOL    HW1 1832   2.473   4.810   2.657
  311SOL    HW2 1833   2.492   4.756   2.809
  312SOL     OW 1834   3.924   2.140   4.304
  312SOL    HW1 1835   3.859   2.154   4.379
  312SOL    HW2 1836   3.875   2.145   4.217
  313SOL     OW 1837   2.971   3.677   2.799
  313SOL    HW1 1838   2.952   3.772   2.825
  313SOL    HW2 1839   3.069   3.660   2.809
  314SOL     OW 1840   1.894   4.658   4.907
  314SOL    HW1 1841   1.914   4.679   4.812
  314SOL    HW2 1842   1.931   4.731   4.966
  315SOL     OW 1843   0.439   2.290   3.897
  315SOL    HW1 1844   0.390   2.228   3.957
  315SOL    HW2 1845   0.537   2.269   3.898
  316SOL     OW 1846   3.919   1.081   4.669
  316SOL    HW1 1847   3.841   1.109   4.612
  316SOL    HW2 1848   3.930   1.146   4.744
  317SOL     OW 1849   0.901   1.590   1.654
  317SOL    HW1 1850   0.854   1.530   1.589
  317SOL    HW2 1851   0.984   1.545   1.687
  318SOL     OW 1852   6.197   0.710   6.361
  318SOL    HW1 1853   6.232   0.796   6.322
  318SOL    HW2 1854   6.114   0.683   6.313
  319SOL     OW 1855   6.937   2.621   3.847
  319SOL    HW1 1856   6.982   2.699   3.889
  319SOL    HW2 1857   6.879   2.575   3.914
  320SOL     OW 1858   6.382   3.234   6.999
  320SOL    HW1 1859   6.315   3.282   6.942
  320SOL    HW2 1860   6.390   3.139   6.967
  321SOL     OW 1861   4.093   2.020   0.150
  321SOL    HW1 1862   4.008   1.971   0.129
  321SOL    HW2 1863   4.087   2.060   0.242
  322SOL     OW 1864   3.744   2.884   4.462
  322SOL    HW1 1865   3.656   2.872   4.417
  322SOL    HW2 1866   3.740   2.845   4.554
  323SOL     OW 1867   1.133   2.387   5.234
  323SOL    HW1 1868   1.188   2.471   5.240
  323SOL    HW2 1869   1.191   2.308   5.253
  324SOL     OW 1870   2.384   0.088   3.393
  324SOL    HW1 1871   2.349   0.099   3.485
  324SOL    HW2 1872   2.481   0.115   3.391
  325SOL     OW 1873   0.908   3.802   3.059
  325SOL    HW1 1874   0.929   3.707   3.038
  325SOL    HW2 1875   0.838   3.806   3.130
  326SOL     OW 1876   1.087   4.188   6.308
  326SOL    HW1 1877   1.146   4.177   6.228
  326SOL    HW2 1878   1.089   4.283   6.338
  327SOL     OW 1879   2.393   4.462   2.998
  327SOL    HW1 1880   2.447   4.538   3.034
  327SOL    HW2 1881   2.378   4.475   2.900
  328SOL     OW 1882   2.300   4.782   1.467
  328SOL    HW1 1883   2.389   4.762   1.507
  328SOL    HW2 1884   2.267   4.703   1.417
  329SOL     OW 1885   2.654   3.715   5.704
  329SOL    HW1 1886   2.570   3.740   5.657
  329SOL    HW2 1887   2.726   3.696   5.636
  330SOL     OW 1888   3.483   6.130   0.453
  330SOL    HW1 1889   3.456   6.120   0.548
  330SOL    HW2 1890   3.473   6.042   0.405
  331SOL     OW 1891   5.539   5.487   1.155
  331SOL    HW1 1892   5.471   5.518   1.088
  331SOL    HW2 1893   5.621   5.455   1.107
  332SOL     OW 1894   6.265   2.241   4.589
  332SOL    HW1 1895   6.308   2.210   4.674
  332SOL    HW2 1896   6.286   2.176   4.516
  333SOL     OW 1897   3.751   0.508   5.092
  333SOL    HW1 1898   3.850   0.494   5.096
  333SOL    HW2 1899   3.729   0.562   5.011
  334SOL     OW 1900   3.427   2.055   0.167
  334SOL    HW1 1901   3.330   2.079   0.157
  334SOL    HW2 1902   3.471   2.120   0.229
  335SOL     OW 1903   3.707   0.462   6.728
  335SOL    HW1 1904   3.737   0.461   6.824
  335SOL    HW2 1905   3.788   0.464   6.669
  336SOL     OW 1906   2.716   0.674   3.317
  336SOL    HW1 1907   2.695   0.661   3.221
  336SOL    HW2 1908   2.816   0.676   3.330
  337SOL     OW 1909   0.226   3.367   5.846
  337SOL    HW1 1910   0.162   3.362   5.769
  337SOL    HW2 1911   0.227   3.279   5.893
  338SOL     OW 1912   3.158   2.606   1.467
  338SOL    HW1 1913   3.098   2.668   1.417
  338SOL    HW2 1914   3.107   2.524   1.493
  339SOL     OW 1915   4.556   5.257   5.002
  339SOL    HW1 1916   4.546   5.261   5.101
  339SOL    HW2 1917   4.546   5.162   4.972
  340SOL     OW 1918   4.816   3.041   4.403
  340SOL    HW1 1919   4.866   3.086   4.477
  340SOL    HW2 1920   4.787   2.950   4.433
  341SOL     OW 1921   5.414   6.986   5.072
  341SOL    HW1 1922   5.365   0.043   5.037
  341SOL    HW2 1923   5.435   6.925   4.996
  342SOL     OW 1924   4.851   3.052   0.353
  342SOL    HW1 1925   4.871   3.110   0.274
  342SOL    HW2 1926   4.849   2.956   0.325
  343SOL     OW 1927   0.022   6.557   2.496
  343SOL    HW1 1928   0.074   6.585   2.415
  343SOL    HW2 1929   6.967   6.502   2.467
  344SOL     OW 1930   0.682   3.074   1.996
  344SOL    HW1 1931   0.735   2.991   1.980
  344SOL    HW2 1932   0.646   3.109   1.910
  345SOL     OW 1933   6.137   2.380   4.370
  345SOL    HW1 1934   6.085   2.444   4.426
  345SOL    HW2 1935   6.183   2.313   4.430
  346SOL     OW 1936   1.905   0.776   2.428
  346SOL    HW1 1937   1.992   0.727   2.436
  346SOL    HW2 1938   1.863   0.784   2.518
  347SOL     OW 1939   3.295   5.651   0.319
  347SOL    HW1 1940   3.309   5.745   0.285
  347SOL    HW2 1941   3.206   5.619   0.289
  348SOL     OW 1942   5.127   4.250   2.926
  348SOL    HW1 1943   5.142   4.304   3.009
  348SOL    HW2 1944   5.123   4.311   2.847
  349SOL     OW 1945   6.760   5.017   2.037
  349SOL    HW1 1946   6.817   5.039   2.116
  349SOL    HW2 1947   6.767   5.090   1.969
  350SOL     OW 1948   2.640   2.774   1.161
  350SOL    HW1 1949   2.565   2.810   1.216
  350SOL    HW2 1950   2.602   2.722   1.084
  351SOL     OW 1951   1.938   3.410   0.754
  351SOL    HW1 1952   1.958   3.401   0.657
  351SOL    HW2 1953   1.994   3.484   0.793
  352SOL     OW 1954   3.491   6.918   3.733
  352SOL    HW1 1955   3.568   6.858   3.712
  352SOL    HW2 1956   3.501   6.953   3.826
  353SOL     OW 1957   3.132   0.290   6.669
  353SOL    HW1 1958   3.098   0.240   6.590
  353SOL    HW2 1959   3.062   0.354   6.701
  354SOL     OW 1960   4.383   2.135   1.408
  354SOL    HW1 1961   4.327   2.122   1.326
  354SOL    HW2 1962   4.442   2.056   1.420
  355SOL     OW 1963   1.628   4.008   2.653
  355SOL    HW1 1964   1.529   4.003   2.666
  355SOL    HW2 1965   1.668   4.066   2.723
  356SOL     OW 1966   2.605   0.652   5.641
  356SOL    HW1 1967   2.549   0.734   5.657
  356SOL    HW2 1968   2.588   0.585   5.713
  357SOL     OW 1969   6.578   6.040   5.348
  357SOL    HW1 1970   6.592   5.947   5.313
  357SOL    HW2 1971   6.654   6.065   5.408
  358SOL     OW 1972   4.955   6.697   1.110
  358SOL    HW1 1973   5.007   6.771   1.152
  358SOL    HW2 1974   4.904   6.732   1.031
  359SOL     OW 1975   3.416   1.379   2.328
  359SOL    HW1 1976   3.336   1.405   2.382
  359SOL    HW2 1977   3.498   1.384   2.385
  360SOL     OW 1978   1.606   3.905   4.801
  360SOL    HW1 1979   1.534   3.945   4.745
  360SOL    HW2 1980   1.687   3.964   4.800
  361SOL     OW 1981   6.574   6.457   3.050
  361SOL    HW1 1982   6.557   6.555   3.046
  361SOL    HW2 1983   6.629   6.429   2.971
  362SOL     OW 1984   3.281   2.551   1.772
  362SOL    HW1 1985   3.195   2.502   1.753
  362SOL    HW2 1986   3.357   2.500   1.733
  363SOL     OW 1987   5.947   4.514   3.246
  363SOL    HW1 1988   5.901   4.482   3.329
  363SOL    HW2 1989   5.940   4.444   3.175
  364SOL     OW 1990   0.375   5.318   6.740
  364SOL    HW1 1991   0.451   5.296   6.802
  364SOL    HW2 1992   0.317   5.237   6.730
  365SOL     OW 1993   4.820   0.478   1.167
  365SOL    HW1 1994   4.744   0.414   1.175
  365SOL    HW2 1995   4.813   0.547   1.240
  366SOL     OW 1996   6.062   1.914   6.492
  366SOL    HW1 1997   6.048   2.008   6.459
  366SOL    HW2 1998   6.025   1.850   6.425
  367SOL     OW 1999   5.856   2.141   6.958
  367SOL    HW1 2000   5.820   2.223   7.003
  367SOL    HW2 2001   5.780   2.081   6.933
  368SOL     OW 2002   0.387   2.606   5.414
  368SOL    HW1 2003   0.462   2.550   5.448
  368SOL    HW2 2004   0.336   2.643   5.492
  369SOL     OW 2005   5.998   5.207   2.636
  369SOL    HW1 2006   6.058   5.169   2.706
  369SOL    HW2 2007   5.905   5.214   2.672
  370SOL     OW 2008   1.002   1.989   4.672
  370SOL    HW1 2009   0.968   1.896   4.660
  370SOL    HW2 2010   1.056   1.993   4.757
  371SOL     OW 2011   1.843   4.461   6.560
  371SOL    HW1 2012   1.883   4.498   6.476
  371SOL    HW2 2013   1.778   4.527   6.598
  372SOL     OW 2014   1.938   6.811   5.726
  372SOL    HW1 2015   1.921   6.735   5.787
  372SOL    HW2 2016   1.972   6.777   5.638
  373SOL     OW 2017   5.636   6.156   5.089
  373SOL    HW1 2018   5.552   6.170   5.037
  373SOL    HW2 2019   5.710   6.129   5.027
  374SOL     OW 2020   2.633   2.241   3.283
  374SOL    HW1 2021   2.627   2.159   3.341
  374SOL    HW2 2022   2.708   2.231   3.218
  375SOL     OW 2023   0.969   3.867   4.194
  375SOL    HW1 2024   0.914   3.828   4.120
  375SOL    HW2 2025   1.034   3.798   4.227
  376SOL     OW 2026   1.312   1.400   5.181
  376SOL    HW1 2027   1.221   1.362   5.169
  376SOL    HW2 2028   1.376   1.328   5.207
  377SOL     OW 2029   1.485   1.947   0.198
  377SOL    HW1 2030   1.398   1.949   0.247
  377SOL    HW2 2031   1.506   2.039   0.163
  378SOL     OW 2032   4.106   1.819   0.373
  378SOL    HW1 2033   4.096   1.889   0.302
  378SOL    HW2 2034   4.195   1.775   0.365
  379SOL     OW 2035   5.245   2.501   0.879
  379SOL    HW1 2036   5.328   2.456   0.913
  379SOL    HW2 2037   5.236   2.483   0.781
  380SOL     OW 2038   2.823   1.333   0.858
  380SOL    HW1 2039   2.851   1.241   0.886
  380SOL    HW2 2040   2.894   1.373   0.800
  381SOL     OW 2041   1.638   3.761   3.764
  381SOL    HW1 2042   1.635   3.860   3.746
  381SOL    HW2 2043   1.672   3.745   3.856
  382SOL     OW 2044   5.979   0.744   0.172
  382SOL    HW1 2045   6.011   0.828   0.130
  382SOL    HW2 2046   5.891   0.760   0.216
  383SOL     OW 2047   3.538   3.131   6.542
  383SOL    HW1 2048   3.637   3.114   6.548
  383SOL    HW2 2049   3.514   3.208   6.602
  384SOL     OW 2050   6.423   5.640   4.629
  384SOL    HW1 2051   6.466   5.582   4.559
  384SOL    HW2 2052   6.494   5.680   4.687
  385SOL     OW 2053   3.154   4.829   4.965
  385SOL    HW1 2054   3.210   4.794   5.040
  385SOL    HW2 2055   3.063   4.787   4.969
  386SOL     OW 2056   2.962   5.908   4.202
  386SOL    HW1 2057   3.033   5.856   4.249
  386SOL    HW2 2058   2.981   5.912   4.104
  387SOL     OW 2059   0.838   5.992   2.616
  387SOL    HW1 2060   0.900   6.069   2.634
  387SOL    HW2 2061   0.875   5.909   2.658
  388SOL     OW 2062   1.719   2.075   6.091
  388SOL    HW1 2063   1.752   2.149   6.150
  388SOL    HW2 2064   1.766   2.079   6.003
  389SOL     OW 2065   3.795   3.588   1.985
  389SOL    HW1 2066   3.801   3.507   2.043
  389SOL    HW2 2067   3.868   3.652   2.009
  390SOL     OW 2068   2.552   1.232   2.318
  390SOL    HW1 2069   2.534   1.174   2.239
  390SOL    HW2 2070   2.641   1.276   2.306
  391SOL     OW 2071   2.516   1.780   6.250
  391SOL    HW1 2072   2.582   1.719   6.207
  391SOL    HW2 2073   2.555   1.871   6.258
  392SOL     OW 2074   2.126   4.989   0.935
  392SOL    HW1 2075   2.123   5.080   0.894
  392SOL    HW2 2076   2.196   4.986   1.007
  393SOL     OW 2077   1.152   3.996   6.563
  393SOL    HW1 2078   1.071   3.944   6.539
  393SOL    HW2 2079   1.126   4.087   6.596
  394SOL     OW 2080   6.833   1.323   6.921
  394SOL    HW1 2081   6.736   1.308   6.940
  394SOL    HW2 2082   6.856   1.418   6.937
  395SOL     OW 2083   5.119   3.797   2.855
  395SOL    HW1 2084   5.037   3.797   2.912
  395SOL    HW2 2085   5.113   3.869   2.787
  396SOL     OW 2086   3.525   4.120   1.973
  396SOL    HW1 2087   3.610   4.105   2.023
  396SOL    HW2 2088   3.535   4.200   1.913
  397SOL     OW 2089   4.808   2.025   5.640
  397SOL    HW1 2090   4.861   2.100   5.600
  397SOL    HW2 2091   4.788   2.045   5.735
  398SOL     OW 2092   0.732   6.466   2.327
  398SOL    HW1 2093   0.650   6.454   2.383
  398SOL    HW2 2094   0.769   6.377   2.302
  399SOL     OW 2095   5.380   6.645   2.474
  399SOL    HW1 2096   5.305   6.588   2.443
  399SOL    HW2 2097   5.416   6.610   2.560
  400SOL     OW 2098   6.355   6.902   5.819
  400SOL    HW1 2099   6.267   6.947   5.806
  400SOL    HW2 2100   6.392   6.876   5.730
  401SOL     OW 2101   4.986   0.588   5.414
  401SOL    HW1 2102   4.900   0.602   5.364
  401SOL    HW2 2103   5.059   0.565   5.348
  402SOL     OW 2104   5.674   0.346   3.384
  402SOL    HW1 2105   5.622   0.262   3.400
  402SOL    HW2 2106   5.761   0.341   3.432
  403SOL     OW 2107   4.353   1.928   4.305
  403SOL    HW1 2108   4.392   1.914   4.396
  403SOL    HW2 2109   4.366   2.024   4.277
  404SOL     OW 2110   1.347   5.416   4.742
  404SOL    HW1 2111   1.426   5.357   4.757
  404SOL    HW2 2112   1.267   5.360   4.724
  405SOL     OW 2113   1.782   3.446   1.818
  405SOL    HW1 2114   1.702   3.391   1.791
  405SOL    HW2 2115   1.796   3.439   1.916
  406SOL     OW 2116   1.368   4.481   4.801
  406SOL    HW1 2117   1.341   4.385   4.799
  406SOL    HW2 2118   1.295   4.537   4.761
  407SOL     OW 2119   1.399   0.866   3.600
  407SOL    HW1 2120   1.351   0.872   3.688
  407SOL    HW2 2121   1.398   0.771   3.569
  408SOL     OW 2122   1.186   2.673   2.921
  408SOL    HW1 2123   1.226   2.716   3.002
  408SOL    HW2 2124   1.214   2.577   2.917
  409SOL     OW 2125   6.762   2.452   1.141
  409SOL    HW1 2126   6.750   2.467   1.043
  409SOL    HW2 2127   6.753   2.539   1.190
  410SOL     OW 2128   1.531   1.175   1.714
  410SOL    HW1 2129   1.450   1.116   1.711
  410SOL    HW2 2130   1.591   1.144   1.788
  411SOL     OW 2131   5.278   0.342   0.675
  411SOL    HW1 2132   5.209   0.302   0.737
  411SOL    HW2 2133   5.262   0.440   0.666
  412SOL     OW 2134   4.507   6.476   3.468
  412SOL    HW1 2135   4.484   6.458   3.564
  412SOL    HW2 2136   4.530   6.390   3.423
  413SOL     OW 2137   5.001   4.767   1.903
  413SOL    HW1 2138   4.991   4.697   1.974
  413SOL    HW2 2139   5.096   4.769   1.872
  414SOL     OW 2140   3.208   5.454   3.752
  414SOL    HW1 2141   3.227   5.366   3.795
  414SOL    HW2 2142   3.220   5.527   3.819
  415SOL     OW 2143   1.267   5.698   6.599
  415SOL    HW1 2144   1.179   5.649   6.603
  415SOL    HW2 2145   1.341   5.632   6.589
  416SOL     OW 2146   5.069   6.190   4.555
  416SOL    HW1 2147   5.027   6.263   4.501
  416SOL    HW2 2148   4.998   6.144   4.609
  417SOL     OW 2149   2.978   5.117   0.119
  417SOL    HW1 2150   3.050   5.116   0.050
  417SOL    HW2 2151   2.983   5.034   0.174
  418SOL     OW 2152   4.041   6.143   0.500
  418SOL    HW1 2153   3.990   6.224   0.472
  418SOL    HW2 2154   4.138   6.167   0.511
  419SOL     OW 2155   1.685   0.542   1.356
  419SOL    HW1 2156   1.619   0.469   1.372
  419SOL    HW2 2157   1.636   0.628   1.340
  420SOL     OW 2158   5.678   1.555   6.649
  420SOL    HW1 2159   5.610   1.598   6.590
  420SOL    HW2 2160   5.643   1.549   6.742
  421SOL     OW 2161   0.157   4.221   6.248
  421SOL    HW1 2162   0.133   4.198   6.342
  421SOL    HW2 2163   0.186   4.139   6.200
  422SOL     OW 2164   5.581   3.667   0.776
  422SOL    HW1 2165   5.522   3.594   0.812
  422SOL    HW2 2166   5.633   3.632   0.698
  423SOL     OW 2167   0.862   2.225   0.043
  423SOL    HW1 2168   0.795   2.189   0.108
  423SOL    HW2 2169   0.909   2.150   7.022
  424SOL     OW 2170   1.961   4.400   0.967
  424SOL    HW1 2171   2.032   4.423   1.033
  424SOL    HW2 2172   1.872   4.431   1.001
  425SOL     OW 2173   5.871   1.245   2.622
  425SOL    HW1 2174   5.862   1.172   2.690
  425SOL    HW2 2175   5.966   1.277   2.620
  426SOL     OW 2176   4.319   1.677   4.215
  426SOL    HW1 2177   4.334   1.768   4.255
  426SOL    HW2 2178   4.393   1.616   4.244
  427SOL     OW 2179   4.617   5.832   3.103
  427SOL    HW1 2180   4.575   5.842   3.013
  427SOL    HW2 2181   4.661   5.742   3.109
  428SOL     OW 2182   4.677   0.397   4.678
  428SOL    HW1 2183   4.614   0.374   4.604
  428SOL    HW2 2184   4.757   0.445   4.640
  429SOL     OW 2185   1.422   3.238   1.445
  429SOL    HW1 2186   1.507   3.289   1.459
  429SOL    HW2 2187   1.436   3.167   1.377
  430SOL     OW 2188   6.925   0.256   5.521
  430SOL    HW1 2189   6.842   0.256   5.576
  430SOL    HW2 2190   6.905   0.294   5.430
  431SOL     OW 2191   3.285   6.887   0.720
  431SOL    HW1 2192   3.242   6.836   0.646
  431SOL    HW2 2193   3.229   6.881   0.802
  432SOL     OW 2194   6.693   1.393   0.758
  432SOL    HW1 2195   6.730   1.430   0.844
  432SOL    HW2 2196   6.754   1.420   0.683
  433SOL     OW 2197   2.637   6.324   5.048
  433SOL    HW1 2198   2.655   6.353   4.954
  433SOL    HW2 2199   2.709   6.260   5.077
  434SOL     OW 2200   3.621   5.791   2.940
  434SOL    HW1 2201   3.611   5.734   3.022
  434SOL    HW2 2202   3.547   5.771   2.876
  435SOL     OW 2203   5.190   2.573   6.259
  435SOL    HW1 2204   5.289   2.563   6.272
  435SOL    HW2 2205   5.148   2.608   6.343
  436SOL     OW 2206   3.127   6.140   1.389
  436SOL    HW1 2207   3.029   6.145   1.370
  436SOL    HW2 2208   3.144   6.085   1.471
  437SOL     OW 2209   1.199   0.743   0.553
  437SOL    HW1 2210   1.217   0.823   0.496
  437SOL    HW2 2211   1.266   0.739   0.627
  438SOL     OW 2212   1.958   3.991   2.802
  438SOL    HW1 2213   1.908   3.953   2.725
  438SOL    HW2 2214   2.056   3.976   2.789
  439SOL     OW 2215   5.708   4.642   2.908
  439SOL    HW1 2216   5.648   4.600   2.977
  439SOL    HW2 2217   5.783   4.689   2.953
  440SOL     OW 2218   2.044   1.158   5.362
  440SOL    HW1 2219   2.059   1.155   5.263
  440SOL    HW2 2220   1.982   1.084   5.388
  441SOL     OW 2221   1.053   2.586   4.581
  441SOL    HW1 2222   1.032   2.622   4.672
  441SOL    HW2 2223   1.146   2.551   4.579
  442SOL     OW 2224   3.519   5.005   5.895
  442SOL    HW1 2225   3.604   4.955   5.881
  442SOL    HW2 2226   3.537   5.103   5.894
  443SOL     OW 2227   6.176   3.885   4.474
  443SOL    HW1 2228   6.202   3.813   4.539
  443SOL    HW2 2229   6.141   3.843   4.390
  444SOL     OW 2230   4.942   1.311   5.649
  444SOL    HW1 2231   4.930   1.344   5.743
  444SOL    HW2 2232   4.853   1.306   5.604
  445SOL     OW 2233   0.932   5.762   2.744
  445SOL    HW1 2234   0.910   5.739   2.838
  445SOL    HW2 2235   1.029   5.743   2.727
  446SOL     OW 2236   3.841   5.165   3.520
  446SOL    HW1 2237   3.845   5.146   3.618
  446SOL    HW2 2238   3.929   5.203   3.490
  447SOL     OW 2239   0.202   2.737   6.387
  447SOL    HW1 2240   0.162   2.775   6.470
  447SOL    HW2 2241   0.137   2.746   6.311
  448SOL     OW 2242   1.725   0.582   3.500
  448SOL    HW1 2243   1.764   0.648   3.564
  448SOL    HW2 2244   1.774   0.495   3.508
  449SOL     OW 2245   3.932   1.313   4.251
  449SOL    HW1 2246   3.999   1.379   4.285
  449SOL    HW2 2247   3.930   1.234   4.312
  450SOL     OW 2248   1.400   5.784   3.766
  450SOL    HW1 2249   1.343   5.855   3.807
  450SOL    HW2 2250   1.365   5.763   3.674
  451SOL     OW 2251   1.226   2.422   3.729
  451SOL    HW1 2252   1.250   2.345   3.789
  451SOL    HW2 2253   1.302   2.487   3.728
  452SOL     OW 2254   6.194   6.090   0.893
  452SOL    HW1 2255   6.185   6.188   0.911
  452SOL    HW2 2256   6.253   6.049   0.962
  453SOL     OW 2257   3.627   1.130   5.531
  453SOL    HW1 2258   3.592   1.219   5.503
  453SOL    HW2 2259   3.654   1.078   5.450
  454SOL     OW 2260   6.903   4.718   6.356
  454SOL    HW1 2261   6.897   4.708   6.455
  454SOL    HW2 2262   6.996   4.742   6.330
  455SOL     OW 2263   6.000   2.738   3.424
  455SOL    HW1 2264   6.099   2.722   3.426
  455SOL    HW2 2265   5.956   2.660   3.379
  456SOL     OW 2266   6.022   6.288   4.087
  456SOL    HW1 2267   5.962   6.241   4.152
  456SOL    HW2 2268   6.008   6.386   4.093
  457SOL     OW 2269   1.358   2.189   4.193
  457SOL    HW1 2270   1.344   2.097   4.229
  457SOL    HW2 2271   1.355   2.255   4.268
  458SOL     OW 2272   4.098   5.517   3.730
  458SOL    HW1 2273   4.050   5.582   3.789
  458SOL    HW2 2274   4.121   5.563   3.644
  459SOL     OW 2275   1.914   6.652   5.323
  459SOL    HW1 2276   1.947   6.684   5.234
  459SOL    HW2 2277   1.976   6.582   5.358
  460SOL     OW 2278   1.609   6.623   3.787
  460SOL    HW1 2279   1.642   6.573   3.707
  460SOL    HW2 2280   1.511   6.641   3.777
  461SOL     OW 2281   6.577   6.928   5.999
  461SOL    HW1 2282   6.612   6.878   6.078
  461SOL    HW2 2283   6.489   6.889   5.972
  462SOL     OW 2284   3.830   3.121   6.506
  462SOL    HW1 2285   3.863   3.138   6.413
  462SOL    HW2 2286   3.850   3.201   6.563
  463SOL     OW 2287   5.691   5.977   3.445
  463SOL    HW1 2288   5.675   5.914   3.522
  463SOL    HW2 2289   5.727   6.063   3.480
  464SOL     OW 2290   2.917   1.372   4.943
  464SOL    HW1 2291   2.847   1.382   4.871
  464SOL    HW2 2292   3.008   1.380   4.902
  465SOL     OW 2293   0.778   3.200   6.494
  465SOL    HW1 2294   0.877   3.219   6.495
  465SOL    HW2 2295   0.744   3.210   6.400
  466SOL     OW 2296   1.002   6.188   2.695
  466SOL    HW1 2297   0.960   6.250   2.629
  466SOL    HW2 2298   1.078   6.236   2.740
  467SOL     OW 2299   2.355   1.244   0.713
  467SOL    HW1 2300   2.412   1.264   0.793
  467SOL    HW2 2301   2.260   1.265   0.734
  468SOL     OW 2302   3.564   0.498   6.239
  468SOL    HW1 2303   3.521   0.511   6.149
  468SOL    HW2 2304   3.587   0.401   6.251
  469SOL     OW 2305   3.123   3.004   6.855
  469SOL    HW1 2306   3.168   3.082   6.812
  469SOL    HW2 2307   3.039   3.034   6.901
  470SOL     OW 2308   4.299   0.357   1.801
  470SOL    HW1 2309   4.287   0.372   1.703
  470SOL    HW2 2310   4.212   0.332   1.843
  471SOL     OW 2311   1.850   2.353   3.889
  471SOL    HW1 2312   1.846   2.404   3.975
  471SOL    HW2 2313   1.923   2.391   3.832
  472SOL     OW 2314   4.883   3.221   6.444
  472SOL    HW1 2315   4.909   3.251   6.352
  472SOL    HW2 2316   4.812   3.282   6.480
  473SOL     OW 2317   1.189   3.330   3.280
  473SOL    HW1 2318   1.286   3.310   3.294
  473SOL    HW2 2319   1.164   3.310   3.186
  474SOL     OW 2320   4.939   5.773   4.349
  474SOL    HW1 2321   4.887   5.859   4.353
  474SOL    HW2 2322   4.983   5.757   4.437
  475SOL     OW 2323   5.638   1.106   6.081
  475SOL    HW1 2324   5.624   1.204   6.069
  475SOL    HW2 2325   5.592   1.076   6.164
  476SOL     OW 2326   0.218   3.563   3.619
  476SOL    HW1 2327   0.206   3.616   3.535
  476SOL    HW2 2328   0.149   3.591   3.686
  477SOL     OW 2329   1.746   5.888   3.752
  477SOL    HW1 2330   1.825   5.840   3.712
  477SOL    HW2 2331   1.693   5.931   3.679
  478SOL     OW 2332   3.430   5.875   2.017
  478SOL    HW1 2333   3.501   5.896   2.084
  478SOL    HW2 2334   3.341   5.872   2.062
  479SOL     OW 2335   4.454   1.832   5.737
  479SOL    HW1 2336   4.522   1.761   5.721
  479SOL    HW2 2337   4.367   1.804   5.696
  480SOL     OW 2338   2.629   0.817   6.942
  480SOL    HW1 2339   2.610   0.790   6.848
  480SOL    HW2 2340   2.719   0.862   6.946
  481SOL     OW 2341   2.241   6.729   1.057
  481SOL    HW1 2342   2.192   6.646   1.030
  481SOL    HW2 2343   2.180   6.789   1.109
  482SOL     OW 2344   4.314   5.188   2.502
  482SOL    HW1 2345   4.251   5.161   2.575
  482SOL    HW2 2346   4.390   5.123   2.500
  483SOL     OW 2347   7.004   1.735   2.485
  483SOL    HW1 2348   0.026   1.661   2.436
  483SOL    HW2 2349   0.010   1.735   2.581
  484SOL     OW 2350   2.086   3.658   4.417
  484SOL    HW1 2351   2.132   3.681   4.331
  484SOL    HW2 2352   1.990   3.684   4.411
  485SOL     OW 2353   3.340   5.229   3.057
  485SOL    HW1 2354   3.263   5.181   3.099
  485SOL    HW2 2355   3.363   5.310   3.112
  486SOL     OW 2356   6.493   1.089   0.035
  486SOL    HW1 2357   6.502   1.150   0.114
  486SOL    HW2 2358   6.431   1.131   6.992
  487SOL     OW 2359   0.692   1.029   2.346
  487SOL    HW1 2360   0.689   0.973   2.429
  487SOL    HW2 2361   0.615   1.093   2.347
  488SOL     OW 2362   1.158   1.667   1.277
  488SOL    HW1 2363   1.233   1.645   1.339
  488SOL    HW2 2364   1.074   1.680   1.330
  489SOL     OW 2365   3.747   6.393   5.828
  489SOL    HW1 2366   3.722   6.368   5.921
  489SOL    HW2 2367   3.833   6.349   5.803
  490SOL     OW 2368   6.708   6.376   2.838
  490SOL    HW1 2369   6.687   6.348   2.744
  490SOL    HW2 2370   6.751   6.301   2.887
  491SOL     OW 2371   1.115   2.986   2.777
  491SOL    HW1 2372   1.127   3.085   2.766
  491SOL    HW2 2373   1.186   2.950   2.838
  492SOL     OW 2374   1.797   0.675   5.192
  492SOL    HW1 2375   1.772   0.594   5.140
  492SOL    HW2 2376   1.717   0.707   5.243
  493SOL     OW 2377   5.094   6.076   5.607
  493SOL    HW1 2378   5.139   6.023   5.679
  493SOL    HW2 2379   5.056   6.159   5.647
  494SOL     OW 2380   0.504   6.316   6.585
  494SOL    HW1 2381   0.404   6.305   6.581
  494SOL    HW2 2382   0.535   6.358   6.500
  495SOL     OW 2383   4.635   5.990   3.569
  495SOL    HW1 2384   4.669   5.947   3.653
  495SOL    HW2 2385   4.568   6.061   3.593
  496SOL     OW 2386   5.031   2.895   1.865
  496SOL    HW1 2387   4.957   2.879   1.800
  496SOL    HW2 2388   5.092   2.816   1.867
  497SOL     OW 2389   2.690   0.873   4.307
  497SOL    HW1 2390   2.705   0.964   4.269
  497SOL    HW2 2391   2.777   0.835   4.338
  498SOL     OW 2392   1.236   3.955   1.532
  498SOL    HW1 2393   1.275   4.034   1.483
  498SOL    HW2 2394   1.258   3.871   1.482
  499SOL     OW 2395   1.756   6.031   4.650
  499SOL    HW1 2396   1.720   5.943   4.617
  499SOL    HW2 2397   1.756   6.031   4.750
  500SOL     OW 2398   0.242   3.044   5.117
  500SOL    HW1 2399   0.164   3.098   5.087
  500SOL    HW2 2400   0.277   3.081   5.203
  501SOL     OW 2401   3.422   5.715   0.890
  501SOL    HW1 2402   3.521   5.705   0.880
  501SOL    HW2 2403   3.384   5.631   0.929
  502SOL     OW 2404   0.572   3.859   6.921
  502SOL    HW1 2405   0.632   3.898   6.852
  502SOL    HW2 2406   0.479   3.854   6.886
  503SOL     OW 2407   0.466   5.806   6.907
  503SOL    HW1 2408   0.408   5.872   6.858
  503SOL    HW2 2409   0.548   5.788   6.853
  504SOL     OW 2410   1.478   5.122   2.050
  504SOL    HW1 2411   1.483   5.159   2.143
  504SOL    HW2 2412   1.525   5.183   1.987
  505SOL     OW 2413   3.158   5.860   5.244
  505SOL    HW1 2414   3.175   5.784   5.181
  505SOL    HW2 2415   3.132   5.823   5.334
  506SOL     OW 2416   2.868   4.982   4.190
  506SOL    HW1 2417   2.774   5.010   4.208
  506SOL    HW2 2418   2.871   4.925   4.108
  507SOL     OW 2419   2.938   6.734   3.226
  507SOL    HW1 2420   2.854   6.788   3.223
  507SOL    HW2 2421   3.013   6.789   3.262
  508SOL     OW 2422   0.097   3.886   2.425
  508SOL    HW1 2423   0.192   3.899   2.396
  508SOL    HW2 2424   0.066   3.794   2.398
  509SOL     OW 2425   3.110   1.469   1.039
  509SOL    HW1 2426   3.189   1.408   1.026
  509SOL    HW2 2427   3.072   1.494   0.950
  510SOL     OW 2428   6.506   4.643   6.576
  510SOL    HW1 2429   6.420   4.646   6.627
  510SOL    HW2 2430   6.509   4.717   6.510
  511SOL     OW 2431   0.957   1.808   5.830
  511SOL    HW1 2432   1.016   1.751   5.774
  511SOL    HW2 2433   0.958   1.902   5.795
  512SOL     OW 2434   6.866   3.142   0.302
  512SOL    HW1 2435   6.907   3.162   0.391
  512SOL    HW2 2436   6.778   3.095   0.315
  513SOL     OW 2437   5.652   7.023   3.258
  513SOL    HW1 2438   5.719   6.949   3.250
  513SOL    HW2 2439   5.630   0.015   3.354
  514SOL     OW 2440   6.933   2.261   3.850
  514SOL    HW1 2441   6.983   2.265   3.936
  514SOL    HW2 2442   6.855   2.324   3.852
  515SOL     OW 2443   0.950   0.465   6.267
  515SOL    HW1 2444   0.953   0.465   6.167
  515SOL    HW2 2445   1.011   0.393   6.301
  516SOL     OW 2446   2.574   4.621   2.110
  516SOL    HW1 2447   2.592   4.591   2.203
  516SOL    HW2 2448   2.658   4.614   2.056
  517SOL     OW 2449   4.495   5.935   1.389
  517SOL    HW1 2450   4.563   5.865   1.367
  517SOL    HW2 2451   4.428   5.940   1.315
  518SOL     OW 2452   3.023   2.204   3.472
  518SOL    HW1 2453   2.997   2.116   3.430
  518SOL    HW2 2454   3.095   2.189   3.539
  519SOL     OW 2455   0.337   0.152   4.665
  519SOL    HW1 2456   0.434   0.151   4.642
  519SOL    HW2 2457   0.297   0.239   4.635
  520SOL     OW 2458   5.715   4.442   0.806
  520SOL    HW1 2459   5.661   4.358   0.814
  520SOL    HW2 2460   5.739   4.457   0.710
  521SOL     OW 2461   6.442   5.245   5.041
  521SOL    HW1 2462   6.417   5.152   5.066
  521SOL    HW2 2463   6.474   5.247   4.947
  522SOL     OW 2464   3.741   3.265   4.437
  522SOL    HW1 2465   3.723   3.233   4.530
  522SOL    HW2 2466   3.655   3.268   4.386
  523SOL     OW 2467   0.262   5.854   1.690
  523SOL    HW1 2468   0.260   5.953   1.681
  523SOL    HW2 2469   0.179   5.822   1.736
  524SOL     OW 2470   0.487   2.019   2.301
  524SOL    HW1 2471   0.471   2.118   2.309
  524SOL    HW2 2472   0.558   2.002   2.232
  525SOL     OW 2473   1.992   3.441   5.411
  525SOL    HW1 2474   2.019   3.532   5.440
  525SOL    HW2 2475   1.903   3.418   5.451
  526SOL     OW 2476   4.122   6.551   3.713
  526SOL    HW1 2477   4.104   6.593   3.624
  526SOL    HW2 2478   4.050   6.484   3.734
  527SOL     OW 2479   5.919   2.555   6.610
  527SOL    HW1 2480   5.861   2.626   6.649
  527SOL    HW2 2481   5.922   2.476   6.671
  528SOL     OW 2482   0.732   2.386   3.668
  528SOL    HW1 2483   0.729   2.465   3.730
  528SOL    HW2 2484   0.798   2.404   3.595
  529SOL     OW 2485   1.422   6.944   4.606
  529SOL    HW1 2486   1.478   6.992   4.538
  529SOL    HW2 2487   1.326   6.965   4.591
  530SOL     OW 2488   3.528   3.186   4.237
  530SOL    HW1 2489   3.528   3.253   4.163
  530SOL    HW2 2490   3.493   3.099   4.204
  531SOL     OW 2491   0.351   1.783   3.465
  531SOL    HW1 2492   0.378   1.871   3.504
  531SOL    HW2 2493   0.433   1.732   3.439
  532SOL     OW 2494   1.047   2.657   6.843
  532SOL    HW1 2495   1.059   2.739   6.787
  532SOL    HW2 2496   1.013   2.683   6.933
  533SOL     OW 2497   3.758   6.200   4.245
  533SOL    HW1 2498   3.803   6.164   4.327
  533SOL    HW2 2499   3.779   6.297   4.235
  534SOL     OW 2500   5.133   6.577   2.312
  534SOL    HW1 2501   5.048   6.536   2.346
  534SOL    HW2 2502   5.135   6.675   2.336
  535SOL     OW 2503   0.662   3.703   4.478
  535SOL    HW1 2504   0.670   3.799   4.454
  535SOL    HW2 2505   0.669   3.647   4.395
  536SOL     OW 2506   6.731   5.308   1.952
  536SOL    HW1 2507   6.651   5.288   1.895
  536SOL    HW2 2508   6.701   5.354   2.036
  537SOL     OW 2509   3.130   6.267   4.590
  537SOL    HW1 2510   3.143   6.357   4.633
  537SOL    HW2 2511   3.043   6.265   4.542
  538SOL     OW 2512   1.280   4.248   3.451
  538SOL    HW1 2513   1.358   4.295   3.493
  538SOL    HW2 2514   1.309   4.158   3.419
  539SOL     OW 2515   1.729   5.956   1.297
  539SOL    HW1 2516   1.779   5.956   1.211
  539SOL    HW2 2517   1.784   5.912   1.368
  540SOL     OW 2518   1.174   0.920   3.078
  540SOL    HW1 2519   1.184   1.013   3.044
  540SOL    HW2 2520   1.203   0.916   3.174
  541SOL     OW 2521   5.322   5.746   4.078
  541SOL    HW1 2522   5.313   5.665   4.136
  541SOL    HW2 2523   5.409   5.742   4.028
  542SOL     OW 2524   6.034   6.525   7.011
  542SOL    HW1 2525   5.938   6.507   0.012
  542SOL    HW2 2526   6.037   6.577   6.925
  543SOL     OW 2527   1.484   4.244   5.257
  543SOL    HW1 2528   1.429   4.205   5.183
  543SOL    HW2 2529   1.448   4.335   5.280
  544SOL     OW 2530   3.024   4.121   0.040
  544SOL    HW1 2531   3.067   4.043   0.085
  544SOL    HW2 2532   2.931   4.133   0.075
  545SOL     OW 2533   2.696   1.547   1.869
  545SOL    HW1 2534   2.691   1.636   1.914
  545SOL    HW2 2535   2.674   1.557   1.772
  546SOL     OW 2536   2.188   3.182   0.414
  546SOL    HW1 2537   2.150   3.270   0.445
  546SOL    HW2 2538   2.278   3.168   0.457
  547SOL     OW 2539   3.253   0.842   0.181
  547SOL    HW1 2540   3.208   0.930   0.162
  547SOL    HW2 2541   3.336   0.835   0.126
  548SOL     OW 2542   3.260   3.383   2.796
  548SOL    HW1 2543   3.302   3.467   2.763
  548SOL    HW2 2544   3.160   3.394   2.800
  549SOL     OW 2545   5.068   2.926   1.048
  549SOL    HW1 2546   5.073   2.832   1.084
  549SOL    HW2 2547   5.076   2.924   0.948
  550SOL     OW 2548   6.877   5.090   3.762
  550SOL    HW1 2549   6.787   5.132   3.745
  550SOL    HW2 2550   6.868   5.020   3.832
  551SOL     OW 2551   0.765   0.438   2.253
  551SOL    HW1 2552   0.804   0.520   2.293
  551SOL    HW2 2553   0.700   0.397   2.316
  552SOL     OW 2554   5.203   4.253   0.126
  552SOL    HW1 2555   5.148   4.190   0.181
  552SOL    HW2 2556   5.223   4.335   0.179
  553SOL     OW 2557   2.238   6.721   2.411
  553SOL    HW1 2558   2.266   6.663   2.334
  553SOL    HW2 2559   2.232   6.816   2.380
  554SOL     OW 2560   5.507   0.422   6.010
  554SOL    HW1 2561   5.489   0.346   5.949
  554SOL    HW2 2562   5.487   0.395   6.104
  555SOL     OW 2563   1.739   5.393   3.353
  555SOL    HW1 2564   1.653   5.347   3.331
  555SOL    HW2 2565   1.736   5.428   3.446
  556SOL     OW 2566   4.649   2.588   3.396
  556SOL    HW1 2567   4.675   2.492   3.383
  556SOL    HW2 2568   4.623   2.627   3.307
  557SOL     OW 2569   0.178   5.265   0.587
  557SOL    HW1 2570   0.146   5.360   0.579
  557SOL    HW2 2571   0.104   5.203   0.561
  558SOL     OW 2572   2.951   3.312   4.256
  558SOL    HW1 2573   2.949   3.364   4.342
  558SOL    HW2 2574   3.027   3.247   4.257
  559SOL     OW 2575   6.733   5.913   6.806
  559SOL    HW1 2576   6.818   5.948   6.845
  559SOL    HW2 2577   6.735   5.814   6.805
  560SOL     OW 2578   4.663   4.467   6.761
  560SOL    HW1 2579   4.717   4.390   6.796
  560SOL    HW2 2580   4.715   4.552   6.773
  561SOL     OW 2581   6.807   1.275   0.381
  561SOL    HW1 2582   6.764   1.338   0.446
  561SOL    HW2 2583   6.906   1.288   0.383
  562SOL     OW 2584   4.994   0.725   5.988
  562SOL    HW1 2585   5.053   0.804   6.001
  562SOL    HW2 2586   4.945   0.705   6.073
  563SOL     OW 2587   2.194   0.670   3.421
  563SOL    HW1 2588   2.115   0.724   3.452
  563SOL    HW2 2589   2.278   0.718   3.444
  564SOL     OW 2590   2.115   2.128   6.569
  564SOL    HW1 2591   2.181   2.169   6.507
  564SOL    HW2 2592   2.052   2.198   6.603
  565SOL     OW 2593   3.735   2.990   5.357
  565SOL    HW1 2594   3.787   3.002   5.442
  565SOL    HW2 2595   3.737   2.893   5.330
  566SOL     OW 2596   6.497   5.170   4.014
  566SOL    HW1 2597   6.494   5.070   4.008
  566SOL    HW2 2598   6.455   5.199   4.100
  567SOL     OW 2599   3.494   3.206   1.994
  567SOL    HW1 2600   3.430   3.167   1.928
  567SOL    HW2 2601   3.450   3.282   2.042
  568SOL     OW 2602   4.680   1.641   0.077
  568SOL    HW1 2603   4.679   1.633   7.001
  568SOL    HW2 2604   4.701   1.735   0.103
  569SOL     OW 2605   1.512   2.719   6.939
  569SOL    HW1 2606   1.483   2.643   6.997
  569SOL    HW2 2607   1.433   2.773   6.911
  570SOL     OW 2608   3.126   6.229   0.025
  570SOL    HW1 2609   3.130   6.328   0.009
  570SOL    HW2 2610   3.182   6.206   0.105
  571SOL     OW 2611   3.326   0.463   2.727
  571SOL    HW1 2612   3.395   0.428   2.664
  571SOL    HW2 2613   3.337   0.418   2.816
  572SOL     OW 2614   3.128   5.000   5.539
  572SOL    HW1 2615   3.037   4.960   5.540
  572SOL    HW2 2616   3.195   4.933   5.573
  573SOL     OW 2617   5.090   2.034   5.732
  573SOL    HW1 2618   5.146   2.005   5.810
  573SOL    HW2 2619   5.086   2.133   5.729
  574SOL     OW 2620   3.349   2.061   4.110
  574SOL    HW1 2621   3.434   2.113   4.105
  574SOL    HW2 2622   3.367   1.972   4.152
  575SOL     OW 2623   5.523   3.786   1.117
  575SOL    HW1 2624   5.608   3.733   1.115
  575SOL    HW2 2625   5.521   3.849   1.039
  576SOL     OW 2626   1.040   2.439   3.065
  576SOL    HW1 2627   1.024   2.421   2.968
  576SOL    HW2 2628   0.967   2.497   3.100
  577SOL     OW 2629   1.532   1.460   2.447
  577SOL    HW1 2630   1.452   1.405   2.467
  577SOL    HW2 2631   1.529   1.489   2.351
  578SOL     OW 2632   6.584   5.427   3.074
  578SOL    HW1 2633   6.502   5.373   3.095
  578SOL    HW2 2634   6.559   5.524   3.069
  579SOL     OW 2635   1.553   2.814   1.908
  579SOL    HW1 2636   1.586   2.814   1.813
  579SOL    HW2 2637   1.618   2.864   1.965
  580SOL     OW 2638   6.770   5.055   6.845
  580SOL    HW1 2639   6.756   4.973   6.901
  580SOL    HW2 2640   6.755   5.137   6.901
  581SOL     OW 2641   2.997   3.146   2.835
  581SOL    HW1 2642   2.945   3.198   2.767
  581SOL    HW2 2643   2.981   3.185   2.926
  582SOL     OW 2644   4.913   6.666   2.086
  582SOL    HW1 2645   4.923   6.755   2.131
  582SOL    HW2 2646   4.852   6.675   2.008
  583SOL     OW 2647   2.985   5.284   5.580
  583SOL    HW1 2648   3.030   5.200   5.549
  583SOL    HW2 2649   2.909   5.305   5.519
  584SOL     OW 2650   2.466   3.709   6.304
  584SOL    HW1 2651   2.394   3.680   6.367
  584SOL    HW2 2652   2.443   3.680   6.211
  585SOL     OW 2653   5.321   2.841   5.869
  585SOL    HW1 2654   5.362   2.860   5.780
  585SOL    HW2 2655   5.357   2.754   5.904
  586SOL     OW 2656   3.901   1.789   6.253
  586SOL    HW1 2657   3.801   1.786   6.254
  586SOL    HW2 2658   3.937   1.697   6.269
  587SOL     OW 2659   3.695   1.043   5.780
  587SOL    HW1 2660   3.678   1.082   5.690
  587SOL    HW2 2661   3.680   0.944   5.777
  588SOL     OW 2662   2.584   4.674   1.022
  588SOL    HW1 2663   2.567   4.687   0.924
  588SOL    HW2 2664   2.518   4.607   1.058
  589SOL     OW 2665   3.057   5.235   1.437
  589SOL    HW1 2666   3.008   5.148   1.445
  589SOL    HW2 2667   2.999   5.309   1.471
  590SOL     OW 2668   5.201   3.058   2.496
  590SOL    HW1 2669   5.114   3.092   2.457
  590SOL    HW2 2670   5.277   3.101   2.447
  591SOL     OW 2671   3.862   5.558   3.580
  591SOL    HW1 2672   3.860   5.522   3.487
  591SOL    HW2 2673   3.933   5.511   3.632
  592SOL     OW 2674   3.170   0.301   2.003
  592SOL    HW1 2675   3.070   0.307   2.000
  592SOL    HW2 2676   3.210   0.389   1.977
  593SOL     OW 2677   4.592   2.607   3.132
  593SOL    HW1 2678   4.562   2.525   3.083
  593SOL    HW2 2679   4.661   2.655   3.078
  594SOL     OW 2680   5.376   2.369   6.937
  594SOL    HW1 2681   5.438   2.388   7.014
  594SOL    HW2 2682   5.305   2.439   6.933
  595SOL     OW 2683   5.957   0.047   3.854
  595SOL    HW1 2684   5.958   7.005   3.929
  595SOL    HW2 2685   5.868   0.043   3.807
  596SOL     OW 2686   1.815   4.442   3.168
  596SOL    HW1 2687   1.764   4.495   3.236
  596SOL    HW2 2688   1.756   4.372   3.129
  597SOL     OW 2689   4.225   6.770   6.512
  597SOL    HW1 2690   4.323   6.776   6.530
  597SOL    HW2 2691   4.194   6.852   6.463
  598SOL     OW 2692   2.888   4.017   5.869
  598SOL    HW1 2693   2.843   4.078   5.934
  598SOL    HW2 2694   2.838   3.931   5.864
  599SOL     OW 2695   2.044   6.446   2.708
  599SOL    HW1 2696   1.972   6.504   2.746
  599SOL    HW2 2697   2.128   6.460   2.759
  600SOL     OW 2698   0.960   1.067   0.404
  600SOL    HW1 2699   0.977   1.080   0.306
  600SOL    HW2 2700   1.047   1.055   0.452
  601SOL     OW 2701   2.920   6.159   3.788
  601SOL    HW1 2702   2.986   6.219   3.743
  601SOL    HW2 2703   2.833   6.206   3.798
  602SOL     OW 2704   2.137   2.916   5.925
  602SOL    HW1 2705   2.216   2.867   5.887
  602SOL    HW2 2706   2.128   3.005   5.880
  603SOL     OW 2707   3.859   1.872   4.002
  603SOL    HW1 2708   3.798   1.870   4.081
  603SOL    HW2 2709   3.846   1.789   3.948
  604SOL     OW 2710   0.488   3.503   1.777
  604SOL    HW1 2711   0.519   3.538   1.688
  604SOL    HW2 2712   0.435   3.419   1.762
  605SOL     OW 2713   6.609   6.306   2.583
  605SOL    HW1 2714   6.520   6.345   2.607
  605SOL    HW2 2715   6.640   6.342   2.495
  606SOL     OW 2716   5.041   0.434   6.647
  606SOL    HW1 2717   4.970   0.368   6.671
  606SOL    HW2 2718   5.084   0.469   6.730
  607SOL     OW 2719   5.785   0.915   5.550
  607SOL    HW1 2720   5.778   0.819   5.579
  607SOL    HW2 2721   5.805   0.972   5.630
  608SOL     OW 2722   3.430   6.112   6.862
  608SOL    HW1 2723   3.345   6.156   6.889
  608SOL    HW2 2724   3.507   6.173   6.880
  609SOL     OW 2725   4.115   3.435   3.483
  609SOL    HW1 2726   4.124   3.356   3.422
  609SOL    HW2 2727   4.095   3.402   3.576
  610SOL     OW 2728   4.974   3.343   2.267
  610SOL    HW1 2729   4.988   3.423   2.209
  610SOL    HW2 2730   4.953   3.263   2.210
  611SOL     OW 2731   3.116   0.162   0.075
  611SOL    HW1 2732   3.196   0.186   0.129
  611SOL    HW2 2733   3.037   0.215   0.108
  612SOL     OW 2734   3.818   6.582   6.153
  612SOL    HW1 2735   3.761   6.620   6.227
  612SOL    HW2 2736   3.828   6.650   6.081
  613SOL     OW 2737   3.811   6.771   5.946
  613SOL    HW1 2738   3.877   6.837   5.981
  613SOL    HW2 2739   3.796   6.788   5.848
  614SOL     OW 2740   4.421   4.545   1.529
  614SOL    HW1 2741   4.393   4.454   1.557
  614SOL    HW2 2742   4.496   4.539   1.464
  615SOL     OW 2743   0.518   2.012   1.076
  615SOL    HW1 2744   0.450   2.079   1.105
  615SOL    HW2 2745   0.493   1.976   0.986
  616SOL     OW 2746   0.286   2.201   3.623
  616SOL    HW1 2747   0.214   2.138   3.655
  616SOL    HW2 2748   0.298   2.274   3.690
  617SOL     OW 2749   6.681   3.434   6.415
  617SOL    HW1 2750   6.707   3.359   6.353
  617SOL    HW2 2751   6.688   3.403   6.510
  618SOL     OW 2752   6.788   3.107   6.621
  618SOL    HW1 2753   6.689   3.119   6.609
  618SOL    HW2 2754   6.815   3.142   6.711
  619SOL     OW 2755   4.751   6.971   6.916
  619SOL    HW1 2756   4.792   6.922   6.839
  619SOL    HW2 2757   4.733   6.908   6.991
  620SOL     OW 2758   4.973   2.475   1.861
  620SOL    HW1 2759   5.053   2.457   1.918
  620SOL    HW2 2760   4.891   2.474   1.918
  621SOL     OW 2761   2.274   6.701   5.629
  621SOL    HW1 2762   2.254   6.612   5.671
  621SOL    HW2 2763   2.189   6.745   5.601
  622SOL     OW 2764   0.995   1.483   4.580
  622SOL    HW1 2765   1.020   1.401   4.632
  622SOL    HW2 2766   0.947   1.457   4.497
  623SOL     OW 2767   1.112   6.246   5.872
  623SOL    HW1 2768   1.123   6.241   5.972
  623SOL    HW2 2769   1.202   6.246   5.828
  624SOL     OW 2770   0.398   1.577   0.926
  624SOL    HW1 2771   0.308   1.614   0.903
  624SOL    HW2 2772   0.393   1.526   1.012
  625SOL     OW 2773   1.998   2.108   1.663
  625SOL    HW1 2774   2.027   2.189   1.614
  625SOL    HW2 2775   2.072   2.041   1.663
  626SOL     OW 2776   1.056   6.003   3.157
  626SOL    HW1 2777   1.103   6.040   3.237
  626SOL    HW2 2778   0.975   5.952   3.186
  627SOL     OW 2779   6.752   6.208   0.675
  627SOL    HW1 2780   6.725   6.288   0.728
  627SOL    HW2 2781   6.701   6.128   0.706
  628SOL     OW 2782   5.337   5.907   5.456
  628SOL    HW1 2783   5.351   5.915   5.357
  628SOL    HW2 2784   5.274   5.978   5.487
  629SOL     OW 2785   0.667   0.436   6.466
  629SOL    HW1 2786   0.609   0.456   6.544
  629SOL    HW2 2787   0.748   0.495   6.468
  630SOL     OW 2788   0.574   1.369   0.240
  630SOL    HW1 2789   0.502   1.415   0.187
  630SOL    HW2 2790   0.663   1.386   0.198
  631SOL     OW 2791   3.978   1.089   5.613
  631SOL    HW1 2792   3.962   1.178   5.569
  631SOL    HW2 2793   3.896   1.062   5.665
  632SOL     OW 2794   4.140   2.004   1.259
  632SOL    HW1 2795   4.079   1.952   1.320
  632SOL    HW2 2796   4.191   1.941   1.201
  633SOL     OW 2797   2.890   3.765   6.394
  633SOL    HW1 2798   2.886   3.859   6.426
  633SOL    HW2 2799   2.932   3.762   6.304
  634SOL     OW 2800   3.587   4.045   3.007
  634SOL    HW1 2801   3.594   4.126   2.949
  634SOL    HW2 2802   3.571   3.965   2.950
  635SOL     OW 2803   4.663   5.812   0.883
  635SOL    HW1 2804   4.708   5.777   0.801
  635SOL    HW2 2805   4.634   5.736   0.940
  636SOL     OW 2806   3.547   6.782   0.252
  636SOL    HW1 2807   3.510   6.874   0.248
  636SOL    HW2 2808   3.574   6.753   0.160
  637SOL     OW 2809   6.981   2.936   3.525
  637SOL    HW1 2810   6.944   3.017   3.479
  637SOL    HW2 2811   6.906   2.874   3.549
  638SOL     OW 2812   5.726   3.439   3.183
  638SOL    HW1 2813   5.659   3.415   3.112
  638SOL    HW2 2814   5.776   3.357   3.210
  639SOL     OW 2815   4.905   3.613   2.457
  639SOL    HW1 2816   4.869   3.522   2.436
  639SOL    HW2 2817   4.987   3.631   2.402
  640SOL     OW 2818   0.291   5.105   4.046
  640SOL    HW1 2819   0.332   5.196   4.046
  640SOL    HW2 2820   0.253   5.085   3.956
  641SOL     OW 2821   0.785   4.560   5.078
  641SOL    HW1 2822   0.696   4.606   5.081
  641SOL    HW2 2823   0.822   4.552   5.171
  642SOL     OW 2824   6.873   3.532   4.353
  642SOL    HW1 2825   6.880   3.502   4.448
  642SOL    HW2 2826   6.902   3.459   4.292
  643SOL     OW 2827   6.174   0.402   6.121
  643SOL    HW1 2828   6.168   0.500   6.098
  643SOL    HW2 2829   6.268   0.371   6.110
  644SOL     OW 2830   1.472   6.941   4.087
  644SOL    HW1 2831   1.510   6.854   4.119
  644SOL    HW2 2832   1.539   6.987   4.028
  645SOL     OW 2833   4.300   7.007   5.183
  645SOL    HW1 2834   4.302   6.953   5.098
  645SOL    HW2 2835   4.317   6.946   5.261
  646SOL     OW 2836   2.937   0.483   4.514
  646SOL    HW1 2837   2.842   0.451   4.517
  646SOL    HW2 2838   2.970   0.499   4.607
  647SOL     OW 2839   4.985   1.844   4.826
  647SOL    HW1 2840   5.043   1.813   4.902
  647SOL    HW2 2841   4.905   1.892   4.862
  648SOL     OW 2842   0.395   3.758   3.929
  648SOL    HW1 2843   0.393   3.676   3.871
  648SOL    HW2 2844   0.373   3.838   3.873
  649SOL     OW 2845   1.848   4.216   1.331
  649SOL    HW1 2846   1.780   4.166   1.385
  649SOL    HW2 2847   1.924   4.243   1.390
  650SOL     OW 2848   5.938   4.175   0.815
  650SOL    HW1 2849   6.009   4.149   0.749
  650SOL    HW2 2850   5.981   4.192   0.904
  651SOL     OW 2851   1.577   6.974   6.169
  651SOL    HW1 2852   1.497   6.914   6.155
  651SOL    HW2 2853   1.599   6.979   6.266
  652SOL     OW 2854   5.334   0.041   3.887
  652SOL    HW1 2855   5.312   6.995   3.956
  652SOL    HW2 2856   5.345   7.021   3.798
  653SOL     OW 2857   1.202   5.880   0.172
  653SOL    HW1 2858   1.104   5.898   0.158
  653SOL    HW2 2859   1.255   5.929   0.102
  654SOL     OW 2860   0.757   6.015   0.554
  654SOL    HW1 2861   0.677   5.971   0.595
  654SOL    HW2 2862   0.776   6.101   0.602
  655SOL     OW 2863   0.059   6.007   1.021
  655SOL    HW1 2864   0.008   5.921   1.010
  655SOL    HW2 2865   7.020   6.080   1.047
  656SOL     OW 2866   2.563   5.855   0.954
  656SOL    HW1 2867   2.474   5.889   0.924
  656SOL    HW2 2868   2.614   5.819   0.876
  657SOL     OW 2869   2.695   3.672   1.289
  657SOL    HW1 2870   2.727   3.592   1.237
  657SOL    HW2 2871   2.632   3.642   1.361
  658SOL     OW 2872   1.574   3.873   6.505
  658SOL    HW1 2873   1.567   3.889   6.603
  658SOL    HW2 2874   1.549   3.778   6.484
  659SOL     OW 2875   2.081   6.291   4.672
  659SOL    HW1 2876   1.995   6.325   4.635
  659SOL    HW2 2877   2.068   6.198   4.706
  660SOL     OW 2878   6.262   4.115   2.651
  660SOL    HW1 2879   6.219   4.173   2.581
  660SOL    HW2 2880   6.339   4.165   2.693
  661SOL     OW 2881   4.889   3.566   3.714
  661SOL    HW1 2882   4.837   3.636   3.764
  661SOL    HW2 2883   4.947   3.610   3.646
  662SOL     OW 2884   3.947   0.220   5.351
  662SOL    HW1 2885   3.895   0.146   5.307
  662SOL    HW2 2886   4.024   0.246   5.292
  663SOL     OW 2887   1.460   3.794   0.151
  663SOL    HW1 2888   1.432   3.878   0.104
  663SOL    HW2 2889   1.385   3.728   0.148
  664SOL     OW 2890   0.819   5.408   6.702
  664SOL    HW1 2891   0.790   5.461   6.782
  664SOL    HW2 2892   0.740   5.388   6.645
  665SOL     OW 2893   4.621   5.169   0.955
  665SOL    HW1 2894   4.565   5.107   0.899
  665SOL    HW2 2895   4.651   5.246   0.900
  666SOL     OW 2896   4.704   1.946   2.552
  666SOL    HW1 2897   4.735   2.006   2.478
  666SOL    HW2 2898   4.779   1.885   2.578
  667SOL     OW 2899   6.561   4.298   3.679
  667SOL    HW1 2900   6.654   4.285   3.713
  667SOL    HW2 2901   6.555   4.263   3.585
  668SOL     OW 2902   5.439   6.061   0.007
  668SOL    HW1 2903   5.425   6.019   6.941
  668SOL    HW2 2904   5.365   6.035   0.069
  669SOL     OW 2905   3.710   6.114   3.358
  669SOL    HW1 2906   3.692   6.205   3.321
  669SOL    HW2 2907   3.803   6.087   3.336
  670SOL     OW 2908   2.767   3.101   1.649
  670SOL    HW1 2909   2.851   3.055   1.620
  670SOL    HW2 2910   2.789   3.194   1.679
  671SOL     OW 2911   2.603   5.706   6.729
  671SOL    HW1 2912   2.665   5.750   6.664
  671SOL    HW2 2913   2.655   5.645   6.789
  672SOL     OW 2914   0.600   5.071   1.775
  672SOL    HW1 2915   0.691   5.033   1.759
  672SOL    HW2 2916   0.568   5.044   1.866
  673SOL     OW 2917   6.402   0.355   1.237
  673SOL    HW1 2918   6.496   0.380   1.264
  673SOL    HW2 2919   6.344   0.437   1.241
  674SOL     OW 2920   6.934   3.668   5.062
  674SOL    HW1 2921   6.983   3.617   4.991
  674SOL    HW2 2922   6.968   3.762   5.066
  675SOL     OW 2923   0.317   0.772   4.936
  675SOL    HW1 2924   0.285   0.714   5.011
  675SOL    HW2 2925   0.289   0.867   4.955
  676SOL     OW 2926   4.040   5.411   2.837
  676SOL    HW1 2927   4.032   5.312   2.853
  676SOL    HW2 2928   4.043   5.459   2.924
  677SOL     OW 2929   6.244   1.496   6.290
  677SOL    HW1 2930   6.330   1.546   6.280
  677SOL    HW2 2931   6.172   1.544   6.241
  678SOL     OW 2932   1.032   1.355   5.108
  678SOL    HW1 2933   0.968   1.398   5.044
  678SOL    HW2 2934   0.980   1.300   5.174
  679SOL     OW 2935   4.945   1.550   4.157
  679SOL    HW1 2936   4.881   1.479   4.127
  679SOL    HW2 2937   4.957   1.543   4.256
  680SOL     OW 2938   5.648   5.164   6.395
  680SOL    HW1 2939   5.685   5.257   6.392
  680SOL    HW2 2940   5.708   5.106   6.451
  681SOL     OW 2941   5.547   6.423   1.525
  681SOL    HW1 2942   5.470   6.362   1.542
  681SOL    HW2 2943   5.580   6.409   1.431
  682SOL     OW 2944   2.032   6.759   0.285
  682SOL    HW1 2945   2.058   6.846   0.244
  682SOL    HW2 2946   2.034   6.767   0.385
  683SOL     OW 2947   3.478   2.126   6.790
  683SOL    HW1 2948   3.497   2.211   6.740
  683SOL    HW2 2949   3.552   2.060   6.772
  684SOL     OW 2950   6.085   1.076   6.731
  684SOL    HW1 2951   5.997   1.037   6.703
  684SOL    HW2 2952   6.151   1.064   6.657
  685SOL     OW 2953   4.576   0.783   4.293
  685SOL    HW1 2954   4.540   0.720   4.362
  685SOL    HW2 2955   4.675   0.772   4.287
  686SOL     OW 2956   6.042   2.998   3.318
  686SOL    HW1 2957   6.083   3.038   3.400
  686SOL    HW2 2958   5.967   2.938   3.344
  687SOL     OW 2959   0.179   3.255   4.684
  687SOL    HW1 2960   0.188   3.198   4.602
  687SOL    HW2 2961   0.223   3.210   4.761
  688SOL     OW 2962   1.395   2.818   6.632
  688SOL    HW1 2963   1.450   2.887   6.584
  688SOL    HW2 2964   1.357   2.753   6.566
  689SOL     OW 2965   0.355   4.610   6.483
  689SOL    HW1 2966   0.436   4.551   6.472
  689SOL    HW2 2967   0.287   4.585   6.414
  690SOL     OW 2968   0.673   4.090   3.878
  690SOL    HW1 2969   0.640   4.061   3.968
  690SOL    HW2 2970   0.690   4.188   3.880
  691SOL     OW 2971   2.362   0.390   6.330
  691SOL    HW1 2972   2.338   0.447   6.251
  691SOL    HW2 2973   2.446   0.423   6.372
  692SOL     OW 2974   3.503   6.360   3.375
  692SOL    HW1 2975   3.495   6.459   3.385
  692SOL    HW2 2976   3.514   6.318   3.465
  693SOL     OW 2977   6.176   0.870   3.354
  693SOL    HW1 2978   6.230   0.806   3.409
  693SOL    HW2 2979   6.122   0.929   3.414
  694SOL     OW 2980   3.600   6.444   2.443
  694SOL    HW1 2981   3.681   6.460   2.499
  694SOL    HW2 2982   3.595   6.347   2.418
  695SOL     OW 2983   4.446   4.974   5.560
  695SOL    HW1 2984   4.450   4.923   5.474
  695SOL    HW2 2985   4.529   5.029   5.570
  696SOL     OW 2986   2.771   5.199   2.381
  696SOL    HW1 2987   2.835   5.160   2.446
  696SOL    HW2 2988   2.770   5.144   2.297
  697SOL     OW 2989   1.941   2.990   4.784
  697SOL    HW1 2990   2.007   3.051   4.828
  697SOL    HW2 2991   1.919   3.025   4.693
  698SOL     OW 2992   5.834   0.297   6.706
  698SOL    HW1 2993   5.879   0.215   6.741
  698SOL    HW2 2994   5.786   0.343   6.781
  699SOL     OW 2995   1.289   4.399   6.805
  699SOL    HW1 2996   1.285   4.341   6.887
  699SOL    HW2 2997   1.212   4.376   6.745
  700SOL     OW 2998   3.003   1.746   3.782
  700SOL    HW1 2999   3.085   1.700   3.748
  700SOL    HW2 3000   2.924   1.688   3.766
  701SOL     OW 3001   5.902   3.722   5.401
  701SOL    HW1 3002   5.988   3.761   5.433
  701SOL    HW2 3003   5.904   3.622   5.414
  702SOL     OW 3004   6.449   6.597   6.334
  702SOL    HW1 3005   6.393   6.604   6.252
  702SOL    HW2 3006   6.460   6.501   6.359
  703SOL     OW 3007   3.866   3.752   6.280
  703SOL    HW1 3008   3.774   3.756   6.319
  703SOL    HW2 3009   3.933   3.736   6.353
  704SOL     OW 3010   1.321   1.294   6.203
  704SOL    HW1 3011   1.237   1.240   6.206
  704SOL    HW2 3012   1.320   1.354   6.123
  705SOL     OW 3013   5.941   6.611   3.359
  705SOL    HW1 3014   5.861   6.671   3.356
  705SOL    HW2 3015   6.022   6.663   3.333
  706SOL     OW 3016   3.902   1.913   4.443
  706SOL    HW1 3017   3.954   1.885   4.524
  706SOL    HW2 3018   3.942   1.996   4.404
  707SOL     OW 3019   4.732   0.422   2.634
  707SOL    HW1 3020   4.730   0.506   2.688
  707SOL    HW2 3021   4.815   0.370   2.656
  708SOL     OW 3022   3.979   1.048   1.305
  708SOL    HW1 3023   3.910   1.075   1.372
  708SOL    HW2 3024   4.066   1.032   1.353
  709SOL     OW 3025   1.140   5.358   0.340
  709SOL    HW1 3026   1.156   5.264   0.368
  709SOL    HW2 3027   1.201   5.419   0.389
  710SOL     OW 3028   4.161   3.476   2.570
  710SOL    HW1 3029   4.150   3.470   2.669
  710SOL    HW2 3030   4.216   3.557   2.547
  711SOL     OW 3031   6.976   2.547   6.049
  711SOL    HW1 3032   6.901   2.514   5.991
  711SOL    HW2 3033   6.971   2.502   6.138
  712SOL     OW 3034   3.275   4.389   1.199
  712SOL    HW1 3035   3.248   4.431   1.285
  712SOL    HW2 3036   3.221   4.307   1.182
  713SOL     OW 3037   3.378   2.641   6.807
  713SOL    HW1 3038   3.436   2.706   6.855
  713SOL    HW2 3039   3.302   2.689   6.764
  714SOL     OW 3040   6.140   4.743   4.550
  714SOL    HW1 3041   6.110   4.701   4.465
  714SOL    HW2 3042   6.118   4.683   4.627
  715SOL     OW 3043   5.829   5.966   0.322
  715SOL    HW1 3044   5.835   5.876   0.365
  715SOL    HW2 3045   5.860   6.036   0.387
  716SOL     OW 3046   1.268   0.014   0.866
  716SOL    HW1 3047   1.354   0.065   0.874
  716SOL    HW2 3048   1.196   0.064   0.914
  717SOL     OW 3049   5.739   4.664   6.056
  717SOL    HW1 3050   5.702   4.599   5.989
  717SOL    HW2 3051   5.832   4.690   6.029
  718SOL     OW 3052   4.760   2.142   5.904
  718SOL    HW1 3053   4.688   2.076   5.925
  718SOL    HW2 3054   4.749   2.222   5.963
  719SOL     OW 3055   6.608   1.953   1.426
  719SOL    HW1 3056   6.549   2.033   1.435
  719SOL    HW2 3057   6.593   1.910   1.337
  720SOL     OW 3058   3.572   0.687   6.591
  720SOL    HW1 3059   3.479   0.707   6.623
  720SOL    HW2 3060   3.607   0.606   6.638
  721SOL     OW 3061   2.294   0.613   4.293
  721SOL    HW1 3062   2.285   0.699   4.242
  721SOL    HW2 3063   2.390   0.601   4.321
  722SOL     OW 3064   2.736   0.106   4.402
  722SOL    HW1 3065   2.784   0.131   4.318
  722SOL    HW2 3066   2.728   0.186   4.461
  723SOL     OW 3067   2.050   3.750   2.951
  723SOL    HW1 3068   2.075   3.845   2.966
  723SOL    HW2 3069   1.978   3.724   3.016
  724SOL     OW 3070   1.264   2.826   4.651
  724SOL    HW1 3071   1.189   2.866   4.599
  724SOL    HW2 3072   1.290   2.887   4.726
  725SOL     OW 3073   3.649   5.987   0.809
  725SOL    HW1 3074   3.740   6.030   0.804
  725SOL    HW2 3075   3.579   6.055   0.790
  726SOL     OW 3076   4.533   4.702   0.601
  726SOL    HW1 3077   4.579   4.711   0.689
  726SOL    HW2 3078   4.461   4.633   0.607
  727SOL     OW 3079   5.436   5.591   6.118
  727SOL    HW1 3080   5.395   5.506   6.151
  727SOL    HW2 3081   5.463   5.648   6.195
  728SOL     OW 3082   6.646   3.987   5.021
  728SOL    HW1 3083   6.699   4.071   5.031
  728SOL    HW2 3084   6.667   3.925   5.097
  729SOL     OW 3085   0.933   1.803   0.220
  729SOL    HW1 3086   0.984   1.731   0.269
  729SOL    HW2 3087   0.918   1.774   0.125
  730SOL     OW 3088   5.681   1.525   2.817
  730SOL    HW1 3089   5.696   1.615   2.857
  730SOL    HW2 3090   5.734   1.516   2.733
  731SOL     OW 3091   5.533   4.073   5.689
  731SOL    HW1 3092   5.475   3.997   5.719
  731SOL    HW2 3093   5.629   4.049   5.704
  732SOL     OW 3094   0.685   2.864   0.974
  732SOL    HW1 3095   0.736   2.944   1.005
  732SOL    HW2 3096   0.602   2.893   0.926
  733SOL     OW 3097   5.665   5.926   5.533
  733SOL    HW1 3098   5.570   5.927   5.500
  733SOL    HW2 3099   5.720   5.990   5.480
  734SOL     OW 3100   6.702   4.490   2.530
  734SOL    HW1 3101   6.604   4.475   2.514
  734SOL    HW2 3102   6.730   4.575   2.485
  735SOL     OW 3103   3.778   2.817   0.518
  735SOL    HW1 3104   3.863   2.799   0.567
  735SOL    HW2 3105   3.789   2.790   0.422
  736SOL     OW 3106   0.399   0.256   2.864
  736SOL    HW1 3107   0.446   0.329   2.914
  736SOL    HW2 3108   0.465   0.208   2.806
  737SOL     OW 3109   4.944   2.485   5.758
  737SOL    HW1 3110   4.971   2.447   5.847
  737SOL    HW2 3111   4.921   2.410   5.695
  738SOL     OW 3112   1.820   3.944   2.220
  738SOL    HW1 3113   1.791   3.954   2.125
  738SOL    HW2 3114   1.916   3.917   2.223
  739SOL     OW 3115   4.045   0.050   4.403
  739SOL    HW1 3116   4.030   0.038   4.501
  739SOL    HW2 3117   4.008   6.995   4.353
  740SOL     OW 3118   4.834   0.591   0.635
  740SOL    HW1 3119   4.791   0.527   0.700
  740SOL    HW2 3120   4.802   0.684   0.654
  741SOL     OW 3121   2.153   6.759   3.443
  741SOL    HW1 3122   2.057   6.754   3.416
  741SOL    HW2 3123   2.209   6.783   3.364
  742SOL     OW 3124   2.075   6.193   1.742
  742SOL    HW1 3125   2.049   6.290   1.736
  742SOL    HW2 3126   2.095   6.170   1.837
  743SOL     OW 3127   0.824   4.168   4.567
  743SOL    HW1 3128   0.756   4.132   4.630
  743SOL    HW2 3129   0.868   4.092   4.518
  744SOL     OW 3130   5.591   0.155   6.668
  744SOL    HW1 3131   5.634   0.077   6.622
  744SOL    HW2 3132   5.658   0.229   6.678
  745SOL     OW 3133   0.811   5.154   4.525
  745SOL    HW1 3134   0.800   5.248   4.493
  745SOL    HW2 3135   0.743   5.096   4.481
  746SOL     OW 3136   0.284   5.210   6.307
  746SOL    HW1 3137   0.335   5.142   6.255
  746SOL    HW2 3138   0.187   5.205   6.283
  747SOL     OW 3139   3.909   6.774   4.773
  747SOL    HW1 3140   3.826   6.725   4.802
  747SOL    HW2 3141   3.906   6.787   4.674
  748SOL     OW 3142   3.793   5.111   2.281
  748SOL    HW1 3143   3.775   5.018   2.250
  748SOL    HW2 3144   3.852   5.109   2.361
  749SOL     OW 3145   6.262   4.595   5.359
  749SOL    HW1 3146   6.347   4.565   5.403
  749SOL    HW2 3147   6.207   4.515   5.335
  750SOL     OW 3148   2.262   2.292   0.805
  750SOL    HW1 3149   2.329   2.349   0.756
  750SOL    HW2 3150   2.186   2.270   0.744
  751SOL     OW 3151   4.051   2.381   6.397
  751SOL    HW1 3152   4.070   2.474   6.365
  751SOL    HW2 3153   4.137   2.332   6.409
  752SOL     OW 3154   3.559   1.355   2.543
  752SOL    HW1 3155   3.577   1.440   2.593
  752SOL    HW2 3156   3.604   1.279   2.590
  753SOL     OW 3157   1.797   3.467   4.668
  753SOL    HW1 3158   1.811   3.463   4.569
  753SOL    HW2 3159   1.728   3.536   4.689
  754SOL     OW 3160   5.511   2.840   5.660
  754SOL    HW1 3161   5.578   2.909   5.685
  754SOL    HW2 3162   5.538   2.797   5.574
  755SOL     OW 3163   1.705   4.556   5.687
  755SOL    HW1 3164   1.609   4.582   5.670
  755SOL    HW2 3165   1.752   4.545   5.600
  756SOL     OW 3166   3.572   0.409   1.348
  756SOL    HW1 3167   3.504   0.405   1.274
  756SOL    HW2 3168   3.657   0.367   1.317
  757SOL     OW 3169   0.799   6.930   4.006
  757SOL    HW1 3170   0.897   6.917   4.017
  757SOL    HW2 3171   0.782   7.018   3.962
  758SOL     OW 3172   3.770   0.197   2.152
  758SOL    HW1 3173   3.734   0.188   2.059
  758SOL    HW2 3174   3.799   0.107   2.185
  759SOL     OW 3175   0.982   0.937   1.097
  759SOL    HW1 3176   1.043   0.876   1.047
  759SOL    HW2 3177   0.889   0.900   1.096
  760SOL     OW 3178   5.161   0.486   5.787
  760SOL    HW1 3179   5.103   0.406   5.770
  760SOL    HW2 3180   5.148   0.517   5.881
  761SOL     OW 3181   5.535   3.181   5.448
  761SOL    HW1 3182   5.455   3.137   5.489
  761SOL    HW2 3183   5.585   3.115   5.392
  762SOL     OW 3184   2.790   0.803   4.845
  762SOL    HW1 3185   2.842   0.872   4.894
  762SOL    HW2 3186   2.765   0.837   4.755
  763SOL     OW 3187   4.215   4.703   6.788
  763SOL    HW1 3188   4.123   4.667   6.773
  763SOL    HW2 3189   4.282   4.631   6.769
  764SOL     OW 3190   4.808   1.405   4.604
  764SOL    HW1 3191   4.858   1.489   4.622
  764SOL    HW2 3192   4.851   1.329   4.654
  765SOL     OW 3193   1.318   6.256   1.330
  765SOL    HW1 3194   1.366   6.175   1.296
  765SOL    HW2 3195   1.221   6.249   1.309
  766SOL     OW 3196   2.180   3.811   6.812
  766SOL    HW1 3197   2.142   3.895   6.851
  766SOL    HW2 3198   2.237   3.834   6.733
  767SOL     OW 3199   6.094   6.258   2.177
  767SOL    HW1 3200   6.044   6.292   2.257
  767SOL    HW2 3201   6.155   6.330   2.144
  768SOL     OW 3202   2.064   6.451   1.601
  768SOL    HW1 3203   1.965   6.437   1.592
  768SOL    HW2 3204   2.109   6.425   1.516
  769SOL     OW 3205   3.143   0.571   4.309
  769SOL    HW1 3206   3.087   0.644   4.270
  769SOL    HW2 3207   3.116   0.555   4.404
  770SOL     OW 3208   2.056   4.024   3.103
  770SOL    HW1 3209   1.996   4.050   3.027
  770SOL    HW2 3210   2.127   4.094   3.115
  771SOL     OW 3211   2.158   5.672   2.531
  771SOL    HW1 3212   2.069   5.709   2.555
  771SOL    HW2 3213   2.228   5.715   2.588
  772SOL     OW 3214   5.284   4.971   0.697
  772SOL    HW1 3215   5.340   4.893   0.725
  772SOL    HW2 3216   5.198   4.938   0.658
  773SOL     OW 3217   0.393   3.857   4.484
  773SOL    HW1 3218   0.450   3.853   4.402
  773SOL    HW2 3219   0.383   3.765   4.522
  774SOL     OW 3220   1.716   1.653   1.456
  774SOL    HW1 3221   1.791   1.610   1.405
  774SOL    HW2 3222   1.663   1.710   1.393
  775SOL     OW 3223   0.576   2.416   2.576
  775SOL    HW1 3224   0.486   2.375   2.562
  775SOL    HW2 3225   0.588   2.439   2.673
  776SOL     OW 3226   0.728   6.766   6.023
  776SOL    HW1 3227   0.775   6.733   5.942
  776SOL    HW2 3228   0.738   6.866   6.029
  777SOL     OW 3229   3.109   5.062   1.110
  777SOL    HW1 3230   3.161   5.101   1.033
  777SOL    HW2 3231   3.095   5.132   1.179
  778SOL     OW 3232   3.214   1.228   3.100
  778SOL    HW1 3233   3.132   1.244   3.046
  778SOL    HW2 3234   3.294   1.225   3.041
  779SOL     OW 3235   0.666   2.771   2.560
  779SOL    HW1 3236   0.742   2.825   2.597
  779SOL    HW2 3237   0.619   2.725   2.635
  780SOL     OW 3238   6.053   3.921   3.501
  780SOL    HW1 3239   6.124   3.852   3.486
  780SOL    HW2 3240   5.977   3.906   3.438
  781SOL     OW 3241   5.733   0.862   0.218
  781SOL    HW1 3242   5.703   0.779   0.265
  781SOL    HW2 3243   5.653   0.912   0.184
  782SOL     OW 3244   1.633   4.093   6.812
  782SOL    HW1 3245   1.706   4.147   6.769
  782SOL    HW2 3246   1.559   4.080   6.746
  783SOL     OW 3247   4.003   5.130   1.334
  783SOL    HW1 3248   4.066   5.079   1.393
  783SOL    HW2 3249   3.908   5.110   1.361
  784SOL     OW 3250   5.052   6.694   0.336
  784SOL    HW1 3251   5.081   6.624   0.401
  784SOL    HW2 3252   5.020   6.775   0.386
  785SOL     OW 3253   0.474   2.873   2.835
  785SOL    HW1 3254   0.452   2.876   2.933
  785SOL    HW2 3255   0.393   2.845   2.784
  786SOL     OW 3256   1.233   0.945   1.330
  786SOL    HW1 3257   1.284   1.030   1.344
  786SOL    HW2 3258   1.159   0.960   1.264
  787SOL     OW 3259   3.381   0.138   6.764
  787SOL    HW1 3260   3.314   0.200   6.721
  787SOL    HW2 3261   3.382   0.051   6.715
  788SOL     OW 3262   3.893   3.246   5.234
  788SOL    HW1 3263   3.901   3.270   5.137
  788SOL    HW2 3264   3.838   3.164   5.243
  789SOL     OW 3265   5.605   4.047   0.560
  789SOL    HW1 3266   5.533   3.985   0.529
  789SOL    HW2 3267   5.578   4.142   0.541
  790SOL     OW 3268   1.836   1.468   4.203
  790SOL    HW1 3269   1.931   1.491   4.184
  790SOL    HW2 3270   1.817   1.483   4.300
  791SOL     OW 3271   3.505   5.287   3.998
  791SOL    HW1 3272   3.417   5.246   3.974
  791SOL    HW2 3273   3.568   5.215   4.029
  792SOL     OW 3274   0.964   0.221   1.746
  792SOL    HW1 3275   0.952   0.139   1.801
  792SOL    HW2 3276   0.910   0.213   1.662
  793SOL     OW 3277   4.849   5.502   3.938
  793SOL    HW1 3278   4.801   5.584   3.969
  793SOL    HW2 3279   4.947   5.516   3.948
  794SOL     OW 3280   3.283   3.666   5.047
  794SOL    HW1 3281   3.195   3.670   5.000
  794SOL    HW2 3282   3.271   3.689   5.143
  795SOL     OW 3283   3.605   6.068   4.482
  795SOL    HW1 3284   3.530   6.018   4.526
  795SOL    HW2 3285   3.652   6.007   4.418
  796SOL     OW 3286   1.288   1.732   6.218
  796SOL    HW1 3287   1.366   1.795   6.222
  796SOL    HW2 3288   1.212   1.777   6.171
  797SOL     OW 3289   5.163   2.582   1.386
  797SOL    HW1 3290   5.123   2.617   1.301
  797SOL    HW2 3291   5.246   2.634   1.407
  798SOL     OW 3292   4.690   0.457   2.078
  798SOL    HW1 3293   4.671   0.439   2.175
  798SOL    HW2 3294   4.724   0.550   2.067
  799SOL     OW 3295   6.248   0.805   5.602
  799SOL    HW1 3296   6.288   0.832   5.689
  799SOL    HW2 3297   6.206   0.715   5.611
  800SOL     OW 3298   5.118   1.901   2.695
  800SOL    HW1 3299   5.199   1.881   2.750
  800SOL    HW2 3300   5.083   1.991   2.719
  801SOL     OW 3301   1.568   3.489   4.426
  801SOL    HW1 3302   1.577   3.555   4.500
  801SOL    HW2 3303   1.657   3.447   4.408
  802SOL     OW 3304   4.603   0.872   0.496
  802SOL    HW1 3305   4.510   0.869   0.533
  802SOL    HW2 3306   4.599   0.876   0.396
  803SOL     OW 3307   6.943   6.823   5.358
  803SOL    HW1 3308   0.011   6.804   5.396
  803SOL    HW2 3309   6.889   6.873   5.426
  804SOL     OW 3310   5.560   5.626   6.598
  804SOL    HW1 3311   5.469   5.590   6.578
  804SOL    HW2 3312   5.589   5.687   6.523
  805SOL     OW 3313   3.209   1.388   5.468
  805SOL    HW1 3314   3.231   1.425   5.378
  805SOL    HW2 3315   3.197   1.289   5.462
  806SOL     OW 3316   5.406   1.350   3.957
  806SOL    HW1 3317   5.481   1.378   3.897
  806SOL    HW2 3318   5.382   1.254   3.938
  807SOL     OW 3319   0.532   2.086   5.138
  807SOL    HW1 3320   0.516   2.164   5.077
  807SOL    HW2 3321   0.583   2.015   5.089
  808SOL     OW 3322   4.636   3.147   5.985
  808SOL    HW1 3323   4.660   3.237   6.020
  808SOL    HW2 3324   4.561   3.109   6.040
  809SOL     OW 3325   0.209   5.666   2.117
  809SOL    HW1 3326   0.141   5.739   2.128
  809SOL    HW2 3327   0.161   5.578   2.107
  810SOL     OW 3328   3.218   3.076   1.060
  810SOL    HW1 3329   3.171   2.988   1.062
  810SOL    HW2 3330   3.218   3.113   0.968
  811SOL     OW 3331   3.777   5.684   5.355
  811SOL    HW1 3332   3.766   5.588   5.383
  811SOL    HW2 3333   3.871   5.698   5.323
  812SOL     OW 3334   0.395   1.541   1.730
  812SOL    HW1 3335   0.460   1.600   1.779
  812SOL    HW2 3336   0.440   1.455   1.706
  813SOL     OW 3337   3.489   6.227   5.306
  813SOL    HW1 3338   3.460   6.132   5.319
  813SOL    HW2 3339   3.411   6.282   5.276
  814SOL     OW 3340   5.807   6.568   2.613
  814SOL    HW1 3341   5.771   6.497   2.673
  814SOL    HW2 3342   5.738   6.639   2.599
  815SOL     OW 3343   0.366   4.289   3.003
  815SOL    HW1 3344   0.329   4.359   2.942
  815SOL    HW2 3345   0.371   4.202   2.954
  816SOL     OW 3346   5.816   6.618   0.341
  816SOL    HW1 3347   5.856   6.591   0.253
  816SOL    HW2 3348   5.793   6.715   0.339
  817SOL     OW 3349   1.893   3.446   1.571
  817SOL    HW1 3350   1.853   3.445   1.663
  817SOL    HW2 3351   1.991   3.465   1.577
  818SOL     OW 3352   6.113   2.474   1.818
  818SOL    HW1 3353   6.101   2.545   1.748
  818SOL    HW2 3354   6.102   2.514   1.909
  819SOL     OW 3355   5.940   2.904   2.932
  819SOL    HW1 3356   6.020   2.964   2.922
  819SOL    HW2 3357   5.895   2.923   3.019
  820SOL     OW 3358   2.969   3.056   5.777
  820SOL    HW1 3359   2.959   2.957   5.771
  820SOL    HW2 3360   3.020   3.090   5.698
  821SOL     OW 3361   1.266   4.053   0.928
  821SOL    HW1 3362   1.357   4.020   0.956
  821SOL    HW2 3363   1.271   4.151   0.910
  822SOL     OW 3364   1.693   4.356   4.957
  822SOL    HW1 3365   1.735   4.409   5.031
  822SOL    HW2 3366   1.702   4.405   4.871
  823SOL     OW 3367   5.213   4.429   6.582
  823SOL    HW1 3368   5.299   4.468   6.548
  823SOL    HW2 3369   5.187   4.351   6.526
  824SOL     OW 3370   5.619   1.174   5.165
  824SOL    HW1 3371   5.575   1.167   5.076
  824SOL    HW2 3372   5.586   1.256   5.212
  825SOL     OW 3373   1.310   4.229   1.393
  825SOL    HW1 3374   1.355   4.267   1.313
  825SOL    HW2 3375   1.216   4.262   1.399
  826SOL     OW 3376   5.268   3.178   5.276
  826SOL    HW1 3377   5.365   3.198   5.287
  826SOL    HW2 3378   5.227   3.160   5.365
  827SOL     OW 3379   3.727   4.199   5.740
  827SOL    HW1 3380   3.669   4.209   5.821
  827SOL    HW2 3381   3.747   4.289   5.702
  828SOL     OW 3382   5.054   6.539   6.353
  828SOL    HW1 3383   4.988   6.523   6.426
  828SOL    HW2 3384   5.006   6.558   6.267
  829SOL     OW 3385   2.968   3.314   3.350
  829SOL    HW1 3386   2.988   3.260   3.431
  829SOL    HW2 3387   3.009   3.405   3.359
  830SOL     OW 3388   4.459   4.176   6.701
  830SOL    HW1 3389   4.524   4.215   6.766
  830SOL    HW2 3390   4.416   4.249   6.648
  831SOL     OW 3391   5.258   1.002   6.515
  831SOL    HW1 3392   5.248   0.921   6.573
  831SOL    HW2 3393   5.279   0.974   6.422
  832SOL     OW 3394   3.030   0.645   2.037
  832SOL    HW1 3395   3.104   0.582   2.015
  832SOL    HW2 3396   3.011   0.641   2.135
  833SOL     OW 3397   0.240   3.958   5.615
  833SOL    HW1 3398   0.308   3.948   5.542
  833SOL    HW2 3399   0.286   3.950   5.704
  834SOL     OW 3400   3.268   4.015   0.981
  834SOL    HW1 3401   3.174   4.000   0.952
  834SOL    HW2 3402   3.304   3.932   1.024
  835SOL     OW 3403   3.533   0.301   4.800
  835SOL    HW1 3404   3.467   0.300   4.875
  835SOL    HW2 3405   3.539   0.210   4.759
  836SOL     OW 3406   3.875   6.358   6.874
  836SOL    HW1 3407   3.872   6.453   6.843
  836SOL    HW2 3408   3.959   6.315   6.842
  837SOL     OW 3409   5.381   6.690   0.276
  837SOL    HW1 3410   5.378   6.661   0.180
  837SOL    HW2 3411   5.338   6.780   0.285
  838SOL     OW 3412   1.794   0.448   4.565
  838SOL    HW1 3413   1.866   0.436   4.496
  838SOL    HW2 3414   1.819   0.521   4.628
  839SOL     OW 3415   2.662   2.321   2.062
  839SOL    HW1 3416   2.628   2.362   1.977
  839SOL    HW2 3417   2.758   2.297   2.052
  840SOL     OW 3418   5.872   6.831   6.809
  840SOL    HW1 3419   5.778   6.814   6.777
  840SOL    HW2 3420   5.925   6.747   6.803
  841SOL     OW 3421   4.671   4.952   6.960
  841SOL    HW1 3422   4.608   5.006   7.015
  841SOL    HW2 3423   4.643   4.855   6.962
  842SOL     OW 3424   3.999   6.401   4.992
  842SOL    HW1 3425   3.920   6.385   4.935
  842SOL    HW2 3426   3.993   6.345   5.075
  843SOL     OW 3427   1.900   1.622   0.872
  843SOL    HW1 3428   1.972   1.627   0.941
  843SOL    HW2 3429   1.865   1.714   0.853
  844SOL     OW 3430   6.065   0.680   0.827
  844SOL    HW1 3431   6.039   0.775   0.807
  844SOL    HW2 3432   6.155   0.679   0.870
  845SOL     OW 3433   5.595   4.313   5.155
  845SOL    HW1 3434   5.657   4.241   5.188
  845SOL    HW2 3435   5.625   4.345   5.066
  846SOL     OW 3436   2.449   1.928   7.006
  846SOL    HW1 3437   2.480   1.836   0.006
  846SOL    HW2 3438   2.451   1.939   6.907
  847SOL     OW 3439   1.332   3.300   0.973
  847SOL    HW1 3440   1.324   3.213   0.924
  847SOL    HW2 3441   1.259   3.361   0.943
  848SOL     OW 3442   5.842   0.904   6.379
  848SOL    HW1 3443   5.873   0.850   6.457
  848SOL    HW2 3444   5.768   0.855   6.332
  849SOL     OW 3445   0.618   4.805   6.025
  849SOL    HW1 3446   0.602   4.861   5.944
  849SOL    HW2 3447   0.632   4.863   6.105
  850SOL     OW 3448   5.535   1.073   4.058
  850SOL    HW1 3449   5.549   1.128   4.140
  850SOL    HW2 3450   5.616   1.078   4.000
  851SOL     OW 3451   0.532   1.624   2.463
  851SOL    HW1 3452   0.545   1.592   2.369
  851SOL    HW2 3453   0.488   1.552   2.517
  852SOL     OW 3454   1.336   2.263   0.212
  852SOL    HW1 3455   1.365   2.301   0.300
  852SOL    HW2 3456   1.415   2.253   0.152
  853SOL     OW 3457   1.781   4.174   2.409
  853SOL    HW1 3458   1.797   4.173   2.310
  853SOL    HW2 3459   1.776   4.268   2.441
  854SOL     OW 3460   4.404   6.366   1.819
  854SOL    HW1 3461   4.398   6.326   1.727
  854SOL    HW2 3462   4.331   6.434   1.830
  855SOL     OW 3463   0.462   0.447   1.734
  855SOL    HW1 3464   0.391   0.432   1.802
  855SOL    HW2 3465   0.550   0.463   1.780
  856SOL     OW 3466   1.327   1.664   5.102
  856SOL    HW1 3467   1.322   1.565   5.114
  856SOL    HW2 3468   1.292   1.709   5.184
  857SOL     OW 3469   6.115   4.699   2.490
  857SOL    HW1 3470   6.036   4.701   2.428
  857SOL    HW2 3471   6.195   4.738   2.444
  858SOL     OW 3472   2.865   4.095   1.129
  858SOL    HW1 3473   2.826   4.160   1.194
  858SOL    HW2 3474   2.881   4.008   1.175
  859SOL     OW 3475   4.863   5.739   6.241
  859SOL    HW1 3476   4.910   5.803   6.180
  859SOL    HW2 3477   4.822   5.665   6.187
  860SOL     OW 3478   4.192   4.081   1.044
  860SOL    HW1 3479   4.149   4.166   1.072
  860SOL    HW2 3480   4.270   4.061   1.103
  861SOL     OW 3481   2.852   0.086   3.918
  861SOL    HW1 3482   2.897   0.160   3.868
  861SOL    HW2 3483   2.774   0.052   3.865
  862SOL     OW 3484   0.445   4.164   5.969
  862SOL    HW1 3485   0.498   4.175   6.053
  862SOL    HW2 3486   0.494   4.205   5.893
  863SOL     OW 3487   0.332   0.111   0.296
  863SOL    HW1 3488   0.282   0.097   0.381
  863SOL    HW2 3489   0.269   0.108   0.219
  864SOL     OW 3490   4.326   5.116   3.485
  864SOL    HW1 3491   4.358   5.094   3.392
  864SOL    HW2 3492   4.329   5.034   3.541
  865SOL     OW 3493   1.652   6.063   6.260
  865SOL    HW1 3494   1.573   6.110   6.298
  865SOL    HW2 3495   1.735   6.118   6.276
  866SOL     OW 3496   1.482   2.064   2.034
  866SOL    HW1 3497   1.472   2.062   1.934
  866SOL    HW2 3498   1.515   2.154   2.062
  867SOL     OW 3499   3.746   3.141   0.537
  867SOL    HW1 3500   3.662   3.102   0.573
  867SOL    HW2 3501   3.786   3.204   0.605
  868SOL     OW 3502   5.927   6.999   0.700
  868SOL    HW1 3503   5.931   0.070   0.732
  868SOL    HW2 3504   5.999   6.946   0.745
  869SOL     OW 3505   6.408   5.607   2.771
  869SOL    HW1 3506   6.344   5.605   2.847
  869SOL    HW2 3507   6.468   5.686   2.780
  870SOL     OW 3508   4.845   3.193   0.907
  870SOL    HW1 3509   4.794   3.173   0.990
  870SOL    HW2 3510   4.943   3.196   0.928
  871SOL     OW 3511   4.892   3.764   2.995
  871SOL    HW1 3512   4.811   3.816   3.023
  871SOL    HW2 3513   4.938   3.728   3.077
  872SOL     OW 3514   5.717   4.422   3.713
  872SOL    HW1 3515   5.741   4.341   3.767
  872SOL    HW2 3516   5.788   4.491   3.722
  873SOL     OW 3517   5.758   6.574   4.306
  873SOL    HW1 3518   5.856   6.553   4.296
  873SOL    HW2 3519   5.748   6.669   4.336
  874SOL     OW 3520   1.014   4.747   5.830
  874SOL    HW1 3521   0.953   4.805   5.778
  874SOL    HW2 3522   0.963   4.701   5.903
  875SOL     OW 3523   3.616   2.629   0.643
  875SOL    HW1 3524   3.685   2.692   0.606
  875SOL    HW2 3525   3.656   2.576   0.718
  876SOL     OW 3526   0.835   5.826   3.139
  876SOL    HW1 3527   0.900   5.760   3.102
  876SOL    HW2 3528   0.750   5.821   3.088
  877SOL     OW 3529   4.050   3.469   6.876
  877SOL    HW1 3530   4.049   3.500   6.781
  877SOL    HW2 3531   4.066   3.547   6.937
  878SOL     OW 3532   4.133   5.886   5.590
  878SOL    HW1 3533   4.083   5.846   5.666
  878SOL    HW2 3534   4.216   5.833   5.573
  879SOL     OW 3535   3.198   2.132   2.014
  879SOL    HW1 3536   3.111   2.086   1.995
  879SOL    HW2 3537   3.190   2.183   2.100
  880SOL     OW 3538   3.152   3.814   5.589
  880SOL    HW1 3539   3.076   3.751   5.599
  880SOL    HW2 3540   3.122   3.894   5.536
  881SOL     OW 3541   4.553   4.481   5.297
  881SOL    HW1 3542   4.642   4.492   5.341
  881SOL    HW2 3543   4.521   4.387   5.310
  882SOL     OW 3544   1.408   1.612   4.086
  882SOL    HW1 3545   1.335   1.594   4.020
  882SOL    HW2 3546   1.445   1.704   4.071
  883SOL     OW 3547   4.877   5.139   6.145
  883SOL    HW1 3548   4.811   5.093   6.086
  883SOL    HW2 3549   4.857   5.119   6.241
  884SOL     OW 3550   0.010   4.023   0.453
  884SOL    HW1 3551   6.989   4.105   0.415
  884SOL    HW2 3552   6.972   3.945   0.443
  885SOL     OW 3553   5.291   6.107   6.662
  885SOL    HW1 3554   5.261   6.017   6.696
  885SOL    HW2 3555   5.214   6.170   6.660
  886SOL     OW 3556   3.470   0.341   0.851
  886SOL    HW1 3557   3.543   0.401   0.819
  886SOL    HW2 3558   3.414   0.311   0.774
  887SOL     OW 3559   4.259   6.723   4.255
  887SOL    HW1 3560   4.341   6.751   4.206
  887SOL    HW2 3561   4.271   6.740   4.353
  888SOL     OW 3562   5.980   6.154   2.872
  888SOL    HW1 3563   5.892   6.134   2.828
  888SOL    HW2 3564   5.965   6.171   2.970
  889SOL     OW 3565   1.629   6.239   5.528
  889SOL    HW1 3566   1.602   6.153   5.572
  889SOL    HW2 3567   1.638   6.310   5.598
  890SOL     OW 3568   2.082   4.811   2.063
  890SOL    HW1 3569   2.023   4.765   2.129
  890SOL    HW2 3570   2.097   4.906   2.092
  891SOL     OW 3571   6.713   3.942   1.418
  891SOL    HW1 3572   6.708   3.854   1.369
  891SOL    HW2 3573   6.627   3.992   1.406
  892SOL     OW 3574   3.960   3.543   6.604
  892SOL    HW1 3575   3.866   3.569   6.624
  892SOL    HW2 3576   4.014   3.625   6.583
  893SOL     OW 3577   1.994   0.937   2.855
  893SOL    HW1 3578   2.041   0.885   2.783
  893SOL    HW2 3579   2.004   1.035   2.837
  894SOL     OW 3580   0.995   2.416   3.890
  894SOL    HW1 3581   1.081   2.439   3.844
  894SOL    HW2 3582   0.968   2.323   3.867
  895SOL     OW 3583   1.118   5.527   4.906
  895SOL    HW1 3584   1.091   5.520   5.002
  895SOL    HW2 3585   1.216   5.506   4.897
  896SOL     OW 3586   5.490   0.127   1.993
  896SOL    HW1 3587   5.542   0.154   2.075
  896SOL    HW2 3588   5.540   0.056   1.944
  897SOL     OW 3589   5.046   1.037   0.406
  897SOL    HW1 3590   4.951   1.041   0.437
  897SOL    HW2 3591   5.068   1.121   0.355
  898SOL     OW 3592   4.314   5.596   2.906
  898SOL    HW1 3593   4.224   5.581   2.946
  898SOL    HW2 3594   4.351   5.509   2.874
  899SOL     OW 3595   0.019   4.814   0.238
  899SOL    HW1 3596   0.080   4.800   0.160
  899SOL    HW2 3597   0.049   4.894   0.289
  900SOL     OW 3598   4.932   6.111   1.662
  900SOL    HW1 3599   4.833   6.098   1.676
  900SOL    HW2 3600   4.951   6.207   1.644
  901SOL     OW 3601   0.963   0.890   5.620
  901SOL    HW1 3602   0.903   0.921   5.695
  901SOL    HW2 3603   0.964   0.958   5.548
  902SOL     OW 3604   0.434   2.364   6.537
  902SOL    HW1 3605   0.361   2.383   6.471
  902SOL    HW2 3606   0.489   2.447   6.551
  903SOL     OW 3607   6.842   3.615   6.305
  903SOL    HW1 3608   6.790   3.545   6.353
  903SOL    HW2 3609   6.929   3.576   6.274
  904SOL     OW 3610   1.390   2.701   3.841
  904SOL    HW1 3611   1.461   2.653   3.790
  904SOL    HW2 3612   1.432   2.762   3.908
  905SOL     OW 3613   4.624   3.401   6.086
  905SOL    HW1 3614   4.674   3.458   6.021
  905SOL    HW2 3615   4.532   3.384   6.051
  906SOL     OW 3616   0.862   3.715   5.875
  906SOL    HW1 3617   0.814   3.752   5.955
  906SOL    HW2 3618   0.961   3.723   5.889
  907SOL     OW 3619   5.882   3.225   3.265
  907SOL    HW1 3620   5.965   3.211   3.211
  907SOL    HW2 3621   5.832   3.139   3.272
  908SOL     OW 3622   2.028   6.500   3.516
  908SOL    HW1 3623   1.963   6.430   3.546
  908SOL    HW2 3624   2.024   6.579   3.578
  909SOL     OW 3625   2.217   6.470   1.971
  909SOL    HW1 3626   2.175   6.397   1.917
  909SOL    HW2 3627   2.307   6.492   1.932
  910SOL     OW 3628   2.580   0.386   0.770
  910SOL    HW1 3629   2.537   0.324   0.704
  910SOL    HW2 3630   2.566   0.480   0.741
  911SOL     OW 3631   0.075   5.727   1.208
  911SOL    HW1 3632   0.074   5.691   1.115
  911SOL    HW2 3633   7.014   5.778   1.226
  912SOL     OW 3634   6.488   0.982   4.656
  912SOL    HW1 3635   6.401   0.965   4.610
  912SOL    HW2 3636   6.475   1.049   4.729
  913SOL     OW 3637   2.269   0.486   3.048
  913SOL    HW1 3638   2.222   0.547   2.985
  913SOL    HW2 3639   2.280   0.531   3.136
  914SOL     OW 3640   2.844   5.692   4.932
  914SOL    HW1 3641   2.902   5.756   4.882
  914SOL    HW2 3642   2.826   5.611   4.875
  915SOL     OW 3643   1.577   3.055   0.246
  915SOL    HW1 3644   1.561   3.134   0.187
  915SOL    HW2 3645   1.654   3.074   0.307
  916SOL     OW 3646   1.707   2.849   1.673
  916SOL    HW1 3647   1.684   2.785   1.599
  916SOL    HW2 3648   1.787   2.816   1.722
  917SOL     OW 3649   5.223   0.558   1.688
  917SOL    HW1 3650   5.143   0.498   1.684
  917SOL    HW2 3651   5.288   0.522   1.754
  918SOL     OW 3652   2.572   6.731   6.581
  918SOL    HW1 3653   2.477   6.709   6.603
  918SOL    HW2 3654   2.632   6.692   6.652
  919SOL     OW 3655   6.505   5.791   1.983
  919SOL    HW1 3656   6.602   5.765   1.984
  919SOL    HW2 3657   6.489   5.859   2.054
  920SOL     OW 3658   1.383   6.355   3.234
  920SOL    HW1 3659   1.444   6.421   3.190
  920SOL    HW2 3660   1.371   6.381   3.331
  921SOL     OW 3661   4.606   4.346   3.837
  921SOL    HW1 3662   4.575   4.428   3.788
  921SOL    HW2 3663   4.675   4.299   3.782
  922SOL     OW 3664   3.396   2.924   6.103
  922SOL    HW1 3665   3.477   2.917   6.161
  922SOL    HW2 3666   3.321   2.871   6.142
  923SOL     OW 3667   3.050   4.493   6.475
  923SOL    HW1 3668   3.067   4.496   6.573
  923SOL    HW2 3669   3.018   4.582   6.444
  924SOL     OW 3670   6.351   2.518   2.128
  924SOL    HW1 3671   6.256   2.517   2.097
  924SOL    HW2 3672   6.370   2.433   2.178
  925SOL     OW 3673   6.929   1.989   6.003
  925SOL    HW1 3674   6.909   1.926   5.928
  925SOL    HW2 3675   7.018   1.967   6.042
  926SOL     OW 3676   6.060   0.957   0.011
  926SOL    HW1 3677   5.980   1.016   0.002
  926SOL    HW2 3678   6.142   1.007   7.009
  927SOL     OW 3679   5.376   4.671   3.416
  927SOL    HW1 3680   5.365   4.576   3.385
  927SOL    HW2 3681   5.393   4.672   3.515
  928SOL     OW 3682   1.761   0.027   0.407
  928SOL    HW1 3683   1.828   6.985   0.442
  928SOL    HW2 3684   1.708   0.063   0.483
  929SOL     OW 3685   0.599   1.284   0.619
  929SOL    HW1 3686   0.662   1.351   0.581
  929SOL    HW2 3687   0.505   1.307   0.593
  930SOL     OW 3688   5.565   5.881   4.904
  930SOL    HW1 3689   5.631   5.953   4.919
  930SOL    HW2 3690   5.555   5.826   4.987
  931SOL     OW 3691   5.751   3.707   2.483
  931SOL    HW1 3692   5.716   3.794   2.448
  931SOL    HW2 3693   5.834   3.723   2.537
  932SOL     OW 3694   2.519   0.059   2.367
  932SOL    HW1 3695   2.606   0.012   2.382
  932SOL    HW2 3696   2.444   7.018   2.383
  933SOL     OW 3697   0.592   5.868   2.972
  933SOL    HW1 3698   0.607   5.952   2.920
  933SOL    HW2 3699   0.495   5.847   2.972
  934SOL     OW 3700   1.709   0.994   5.129
  934SOL    HW1 3701   1.685   0.934   5.204
  934SOL    HW2 3702   1.699   1.090   5.158
  935SOL     OW 3703   4.976   3.325   5.412
  935SOL    HW1 3704   5.047   3.273   5.460
  935SOL    HW2 3705   5.014   3.361   5.327
  936SOL     OW 3706   1.301   0.884   5.963
  936SOL    HW1 3707   1.383   0.874   6.019
  936SOL    HW2 3708   1.247   0.961   5.997
  937SOL     OW 3709   4.537   1.609   4.747
  937SOL    HW1 3710   4.458   1.589   4.804
  937SOL    HW2 3711   4.588   1.686   4.786
  938SOL     OW 3712   0.575   5.380   6.502
  938SOL    HW1 3713   0.555   5.472   6.470
  938SOL    HW2 3714   0.513   5.357   6.578
  939SOL     OW 3715   4.448   1.375   5.036
  939SOL    HW1 3716   4.384   1.372   5.113
  939SOL    HW2 3717   4.528   1.430   5.062
  940SOL     OW 3718   0.625   3.344   2.824
  940SOL    HW1 3719   0.724   3.349   2.830
  940SOL    HW2 3720   0.597   3.254   2.792
  941SOL     OW 3721   6.629   0.640   4.084
  941SOL    HW1 3722   6.568   0.564   4.108
  941SOL    HW2 3723   6.652   0.634   3.987
  942SOL     OW 3724   4.912   0.598   4.191
  942SOL    HW1 3725   4.834   0.585   4.252
  942SOL    HW2 3726   4.886   0.573   4.097
  943SOL     OW 3727   1.228   3.329   3.857
  943SOL    HW1 3728   1.231   3.345   3.758
  943SOL    HW2 3729   1.174   3.400   3.901
  944SOL     OW 3730   6.391   3.685   5.877
  944SOL    HW1 3731   6.447   3.621   5.929
  944SOL    HW2 3732   6.444   3.722   5.800
  945SOL     OW 3733   6.561   4.193   5.783
  945SOL    HW1 3734   6.616   4.171   5.863
  945SOL    HW2 3735   6.618   4.185   5.701
  946SOL     OW 3736   4.871   2.755   5.788
  946SOL    HW1 3737   4.893   2.665   5.825
  946SOL    HW2 3738   4.956   2.806   5.774
  947SOL     OW 3739   3.413   3.178   4.490
  947SOL    HW1 3740   3.486   3.177   4.559
  947SOL    HW2 3741   3.454   3.163   4.399
  948SOL     OW 3742   4.004   0.483   0.511
  948SOL    HW1 3743   3.925   0.473   0.450
  948SOL    HW2 3744   3.985   0.436   0.597
  949SOL     OW 3745   0.154   6.055   6.135
  949SOL    HW1 3746   0.179   5.973   6.084
  949SOL    HW2 3747   0.234   6.088   6.185
  950SOL     OW 3748   4.145   5.003   1.857
  950SOL    HW1 3749   4.212   4.989   1.931
  950SOL    HW2 3750   4.147   4.923   1.796
  951SOL     OW 3751   1.462   1.069   2.496
  951SOL    HW1 3752   1.462   1.009   2.416
  951SOL    HW2 3753   1.550   1.061   2.544
  952SOL     OW 3754   5.971   1.836   2.474
  952SOL    HW1 3755   6.065   1.845   2.442
  952SOL    HW2 3756   5.910   1.826   2.395
  953SOL     OW 3757   5.127   6.203   5.157
  953SOL    HW1 3758   5.131   6.137   5.232
  953SOL    HW2 3759   5.207   6.192   5.098
  954SOL     OW 3760   5.082   5.536   0.516
  954SOL    HW1 3761   5.004   5.475   0.503
  954SOL    HW2 3762   5.165   5.492   0.481
  955SOL     OW 3763   0.034   5.009   3.331
  955SOL    HW1 3764   6.960   4.984   3.330
  955SOL    HW2 3765   0.084   4.942   3.386
  956SOL     OW 3766   0.723   2.188   2.571
  956SOL    HW1 3767   0.702   2.158   2.664
  956SOL    HW2 3768   0.685   2.279   2.556
  957SOL     OW 3769   1.125   5.075   4.771
  957SOL    HW1 3770   1.153   5.037   4.859
  957SOL    HW2 3771   1.038   5.123   4.781
  958SOL     OW 3772   4.517   2.597   1.889
  958SOL    HW1 3773   4.472   2.602   1.800
  958SOL    HW2 3774   4.597   2.657   1.889
  959SOL     OW 3775   2.687   4.948   3.305
  959SOL    HW1 3776   2.722   5.031   3.348
  959SOL    HW2 3777   2.606   4.916   3.353
  960SOL     OW 3778   6.831   5.731   3.611
  960SOL    HW1 3779   6.804   5.663   3.679
  960SOL    HW2 3780   6.904   5.694   3.553
  961SOL     OW 3781   5.082   0.301   3.403
  961SOL    HW1 3782   5.056   0.396   3.423
  961SOL    HW2 3783   5.005   0.241   3.423
  962SOL     OW 3784   1.334   1.117   4.001
  962SOL    HW1 3785   1.270   1.157   3.934
  962SOL    HW2 3786   1.428   1.141   3.975
  963SOL     OW 3787   6.109   1.743   6.156
  963SOL    HW1 3788   6.086   1.709   6.065
  963SOL    HW2 3789   6.177   1.816   6.148
  964SOL     OW 3790   6.146   4.167   0.561
  964SOL    HW1 3791   6.202   4.086   0.549
  964SOL    HW2 3792   6.198   4.236   0.612
  965SOL     OW 3793   5.265   1.763   1.240
  965SOL    HW1 3794   5.176   1.784   1.201
  965SOL    HW2 3795   5.320   1.847   1.245
  966SOL     OW 3796   5.905   2.222   2.294
  966SOL    HW1 3797   5.917   2.140   2.237
  966SOL    HW2 3798   5.866   2.296   2.239
  967SOL     OW 3799   2.514   5.049   1.597
  967SOL    HW1 3800   2.469   5.070   1.511
  967SOL    HW2 3801   2.526   5.134   1.650
  968SOL     OW 3802   4.019   2.219   2.638
  968SOL    HW1 3803   3.950   2.175   2.695
  968SOL    HW2 3804   3.981   2.236   2.547
  969SOL     OW 3805   3.829   6.085   6.510
  969SOL    HW1 3806   3.828   6.080   6.410
  969SOL    HW2 3807   3.775   6.163   6.540
  970SOL     OW 3808   4.715   1.224   4.982
  970SOL    HW1 3809   4.698   1.133   5.017
  970SOL    HW2 3810   4.713   1.223   4.882
  971SOL     OW 3811   0.229   1.913   3.102
  971SOL    HW1 3812   0.175   1.997   3.091
  971SOL    HW2 3813   0.227   1.861   3.017
  972SOL     OW 3814   5.693   4.166   1.438
  972SOL    HW1 3815   5.713   4.089   1.499
  972SOL    HW2 3816   5.594   4.177   1.431
  973SOL     OW 3817   6.941   4.479   0.132
  973SOL    HW1 3818   6.890   4.565   0.124
  973SOL    HW2 3819   6.960   4.443   0.040
  974SOL     OW 3820   5.261   0.274   2.067
  974SOL    HW1 3821   5.229   0.204   2.130
  974SOL    HW2 3822   5.339   0.240   2.014
  975SOL     OW 3823   1.907   5.707   6.438
  975SOL    HW1 3824   1.833   5.680   6.499
  975SOL    HW2 3825   1.875   5.704   6.343
  976SOL     OW 3826   6.701   3.305   2.451
  976SOL    HW1 3827   6.603   3.293   2.434
  976SOL    HW2 3828   6.732   3.237   2.517
  977SOL     OW 3829   1.675   0.843   3.719
  977SOL    HW1 3830   1.609   0.865   3.647
  977SOL    HW2 3831   1.765   0.826   3.677
  978SOL     OW 3832   4.461   4.271   5.703
  978SOL    HW1 3833   4.557   4.272   5.676
  978SOL    HW2 3834   4.412   4.200   5.653
  979SOL     OW 3835   6.847   2.050   1.116
  979SOL    HW1 3836   6.775   2.118   1.104
  979SOL    HW2 3837   6.900   2.072   1.198
  980SOL     OW 3838   3.871   2.124   4.013
  980SOL    HW1 3839   3.878   2.024   4.008
  980SOL    HW2 3840   3.954   2.165   3.975
  981SOL     OW 3841   1.562   1.643   5.522
  981SOL    HW1 3842   1.535   1.665   5.428
  981SOL    HW2 3843   1.653   1.600   5.521
  982SOL     OW 3844   2.909   1.916   3.407
  982SOL    HW1 3845   2.952   1.931   3.317
  982SOL    HW2 3846   2.979   1.921   3.478
  983SOL     OW 3847   5.549   2.136   3.937
  983SOL    HW1 3848   5.501   2.112   4.022
  983SOL    HW2 3849   5.575   2.232   3.940
  984SOL     OW 3850   2.873   1.388   3.864
  984SOL    HW1 3851   2.856   1.420   3.771
  984SOL    HW2 3852   2.969   1.360   3.872
  985SOL     OW 3853   4.802   5.068   6.383
  985SOL    HW1 3854   4.730   5.002   6.363
  985SOL    HW2 3855   4.858   5.034   6.458
  986SOL     OW 3856   5.367   3.861   0.495
  986SOL    HW1 3857   5.302   3.804   0.546
  986SOL    HW2 3858   5.317   3.930   0.443
  987SOL     OW 3859   4.500   6.802   1.938
  987SOL    HW1 3860   4.485   6.778   1.842
  987SOL    HW2 3861   4.434   6.872   1.966
  988SOL     OW 3862   3.646   2.851   2.690
  988SOL    HW1 3863   3.573   2.854   2.757
  988SOL    HW2 3864   3.609   2.823   2.601
  989SOL     OW 3865   5.958   1.058   5.687
  989SOL    HW1 3866   6.010   1.060   5.602
  989SOL    HW2 3867   5.999   1.123   5.752
  990SOL     OW 3868   4.532   0.885   2.274
  990SOL    HW1 3869   4.581   0.829   2.207
  990SOL    HW2 3870   4.473   0.950   2.226
  991SOL     OW 3871   1.561   2.352   5.210
  991SOL    HW1 3872   1.545   2.416   5.135
  991SOL    HW2 3873   1.576   2.404   5.294
  992SOL     OW 3874   0.198   2.916   1.748
  992SOL    HW1 3875   0.154   2.988   1.801
  992SOL    HW2 3876   0.249   2.855   1.809
  993SOL     OW 3877   1.164   4.585   1.752
  993SOL    HW1 3878   1.118   4.605   1.839
  993SOL    HW2 3879   1.099   4.542   1.689
  994SOL     OW 3880   3.517   4.145   2.598
  994SOL    HW1 3881   3.561   4.229   2.628
  994SOL    HW2 3882   3.521   4.139   2.498
  995SOL     OW 3883   3.624   2.503   6.206
  995SOL    HW1 3884   3.681   2.568   6.156
  995SOL    HW2 3885   3.679   2.424   6.232
  996SOL     OW 3886   1.580   4.646   4.339
  996SOL    HW1 3887   1.643   4.679   4.269
  996SOL    HW2 3888   1.604   4.687   4.427
  997SOL     OW 3889   0.386   0.805   2.588
  997SOL    HW1 3890   0.366   0.790   2.491
  997SOL    HW2 3891   0.430   0.895   2.598
  998SOL     OW 3892   3.825   6.140   4.630
  998SOL    HW1 3893   3.902   6.172   4.575
  998SOL    HW2 3894   3.744   6.130   4.571
  999SOL     OW 3895   5.239   4.979   2.059
  999SOL    HW1 3896   5.148   5.020   2.064
  999SOL    HW2 3897   5.251   4.937   1.969
 1000SOL     OW 3898   0.991   0.877   1.783
 1000SOL    HW1 3899   1.071   0.850   1.729
 1000SOL    HW2 3900   0.912   0.890   1.722
 1001SOL     OW 3901   5.674   6.965   0.780
 1001SOL    HW1 3902   5.703   7.012   0.864
 1001SOL    HW2 3903   5.752   6.957   0.718
 1002SOL     OW 3904   6.343   2.022   6.984
 1002SOL    HW1 3905   6.391   2.097   0.005
 1002SOL    HW2 3906   6.387   1.935   7.010
 1003SOL     OW 3907   2.128   6.108   2.006
 1003SOL    HW1 3908   2.100   6.161   2.086
 1003SOL    HW2 3909   2.079   6.021   2.005
 1004SOL     OW 3910   0.414   0.179   1.551
 1004SOL    HW1 3911   0.437   0.270   1.583
 1004SOL    HW2 3912   0.374   0.184   1.459
 1005SOL     OW 3913   0.594   2.061   3.105
 1005SOL    HW1 3914   0.549   1.972   3.105
 1005SOL    HW2 3915   0.685   2.052   3.147
 1006SOL     OW 3916   1.275   5.027   0.847
 1006SOL    HW1 3917   1.327   5.093   0.900
 1006SOL    HW2 3918   1.244   5.069   0.761
 1007SOL     OW 3919   5.582   6.807   4.463
 1007SOL    HW1 3920   5.541   6.878   4.520
 1007SOL    HW2 3921   5.527   6.724   4.468
 1008SOL     OW 3922   2.149   3.133   4.924
 1008SOL    HW1 3923   2.181   3.225   4.901
 1008SOL    HW2 3924   2.223   3.082   4.968
 1009SOL     OW 3925   0.320   5.735   4.586
 1009SOL    HW1 3926   0.241   5.703   4.533
 1009SOL    HW2 3927   0.308   5.831   4.609
 1010SOL     OW 3928   3.874   2.262   5.977
 1010SOL    HW1 3929   3.969   2.288   5.963
 1010SOL    HW2 3930   3.841   2.301   6.063
 1011SOL     OW 3931   2.419   5.283   2.254
 1011SOL    HW1 3932   2.382   5.275   2.347
 1011SOL    HW2 3933   2.455   5.195   2.226
 1012SOL     OW 3934   6.837   0.454   0.503
 1012SOL    HW1 3935   6.848   0.478   0.407
 1012SOL    HW2 3936   6.878   0.525   0.560
 1013SOL     OW 3937   1.157   1.472   5.939
 1013SOL    HW1 3938   1.112   1.538   5.879
 1013SOL    HW2 3939   1.255   1.491   5.943
 1014SOL     OW 3940   5.039   5.933   6.542
 1014SOL    HW1 3941   4.946   5.900   6.554
 1014SOL    HW2 3942   5.048   6.025   6.581
 1015SOL     OW 3943   2.093   6.688   4.799
 1015SOL    HW1 3944   2.006   6.731   4.774
 1015SOL    HW2 3945   2.094   6.593   4.766
 1016SOL     OW 3946   3.566   3.577   0.089
 1016SOL    HW1 3947   3.534   3.654   0.143
 1016SOL    HW2 3948   3.607   3.508   0.149
 1017SOL     OW 3949   4.444   2.523   0.950
 1017SOL    HW1 3950   4.462   2.560   0.859
 1017SOL    HW2 3951   4.364   2.463   0.947
 1018SOL     OW 3952   1.272   3.211   4.132
 1018SOL    HW1 3953   1.260   3.183   4.037
 1018SOL    HW2 3954   1.322   3.140   4.182
 1019SOL     OW 3955   0.873   0.419   0.050
 1019SOL    HW1 3956   0.795   0.449   7.018
 1019SOL    HW2 3957   0.901   0.328   0.022
 1020SOL     OW 3958   0.809   6.755   1.429
 1020SOL    HW1 3959   0.836   6.791   1.518
 1020SOL    HW2 3960   0.846   6.662   1.418
 1021SOL     OW 3961   5.659   0.965   1.218
 1021SOL    HW1 3962   5.628   0.871   1.202
 1021SOL    HW2 3963   5.756   0.973   1.196
 1022SOL     OW 3964   3.815   4.280   6.108
 1022SOL    HW1 3965   3.727   4.240   6.081
 1022SOL    HW2 3966   3.876   4.281   6.029
 1023SOL     OW 3967   0.894   7.002   1.906
 1023SOL    HW1 3968   0.879   6.910   1.942
 1023SOL    HW2 3969   0.814   0.035   1.924
 1024SOL     OW 3970   6.483   3.506   4.403
 1024SOL    HW1 3971   6.384   3.500   4.410
 1024SOL    HW2 3972   6.508   3.592   4.359
 1025SOL     OW 3973   2.881   3.093   0.485
 1025SOL    HW1 3974   2.939   3.012   0.473
 1025SOL    HW2 3975   2.932   3.163   0.535
 1026SOL     OW 3976   2.363   2.546   1.589
 1026SOL    HW1 3977   2.287   2.531   1.651
 1026SOL    HW2 3978   2.430   2.606   1.632
 1027SOL     OW 3979   2.923   6.277   0.941
 1027SOL    HW1 3980   2.867   6.350   0.901
 1027SOL    HW2 3981   2.897   6.189   0.902
 1028SOL     OW 3982   3.746   6.146   0.227
 1028SOL    HW1 3983   3.816   6.077   0.210
 1028SOL    HW2 3984   3.707   6.132   0.318
 1029SOL     OW 3985   1.806   0.407   6.935
 1029SOL    HW1 3986   1.897   0.382   6.902
 1029SOL    HW2 3987   1.753   0.325   6.954
 1030SOL     OW 3988   3.322   3.581   1.775
 1030SOL    HW1 3989   3.389   3.594   1.703
 1030SOL    HW2 3990   3.366   3.541   1.855
 1031SOL     OW 3991   4.763   5.236   1.177
 1031SOL    HW1 3992   4.715   5.218   1.092
 1031SOL    HW2 3993   4.713   5.305   1.230
 1032SOL     OW 3994   2.148   1.812   4.965
 1032SOL    HW1 3995   2.140   1.904   4.928
 1032SOL    HW2 3996   2.189   1.816   5.056
 1033SOL     OW 3997   1.413   6.260   1.010
 1033SOL    HW1 3998   1.435   6.163   1.000
 1033SOL    HW2 3999   1.497   6.313   1.020
 1034SOL     OW 4000   0.785   5.737   4.776
 1034SOL    HW1 4001   0.687   5.755   4.782
 1034SOL    HW2 4002   0.828   5.804   4.716
 1035SOL     OW 4003   1.165   1.367   3.431
 1035SOL    HW1 4004   1.090   1.316   3.474
 1035SOL    HW2 4005   1.246   1.309   3.425
 1036SOL     OW 4006   2.754   0.928   2.088
 1036SOL    HW1 4007   2.757   0.877   2.002
 1036SOL    HW2 4008   2.846   0.963   2.109
 1037SOL     OW 4009   1.989   0.724   1.065
 1037SOL    HW1 4010   1.943   0.811   1.083
 1037SOL    HW2 4011   1.971   0.660   1.139
 1038SOL     OW 4012   1.431   0.046   5.474
 1038SOL    HW1 4013   1.334   0.043   5.450
 1038SOL    HW2 4014   1.442   0.100   5.558
 1039SOL     OW 4015   3.018   2.759   6.022
 1039SOL    HW1 4016   3.097   2.742   5.963
 1039SOL    HW2 4017   3.018   2.854   6.053
 1040SOL     OW 4018   4.912   3.108   2.143
 1040SOL    HW1 4019   4.989   3.044   2.146
 1040SOL    HW2 4020   4.838   3.069   2.088
 1041SOL     OW 4021   6.531   6.932   4.539
 1041SOL    HW1 4022   6.614   6.887   4.505
 1041SOL    HW2 4023   6.522   6.918   4.637
 1042SOL     OW 4024   3.918   4.800   2.600
 1042SOL    HW1 4025   3.857   4.822   2.676
 1042SOL    HW2 4026   3.891   4.712   2.561
 1043SOL     OW 4027   4.071   1.401   5.023
 1043SOL    HW1 4028   4.055   1.495   4.992
 1043SOL    HW2 4029   3.990   1.346   5.006
 1044SOL     OW 4030   5.135   4.824   2.414
 1044SOL    HW1 4031   5.198   4.901   2.423
 1044SOL    HW2 4032   5.092   4.827   2.324
 1045SOL     OW 4033   3.351   5.955   2.427
 1045SOL    HW1 4034   3.402   5.982   2.508
 1045SOL    HW2 4035   3.354   5.855   2.418
 1046SOL     OW 4036   1.131   6.807   0.815
 1046SOL    HW1 4037   1.171   6.898   0.809
 1046SOL    HW2 4038   1.123   6.768   0.723
 1047SOL     OW 4039   1.395   6.536   2.168
 1047SOL    HW1 4040   1.489   6.571   2.167
 1047SOL    HW2 4041   1.382   6.477   2.249
 1048SOL     OW 4042   4.803   6.078   5.311
 1048SOL    HW1 4043   4.750   6.161   5.293
 1048SOL    HW2 4044   4.746   6.013   5.362
 1049SOL     OW 4045   6.636   5.192   3.760
 1049SOL    HW1 4046   6.559   5.145   3.716
 1049SOL    HW2 4047   6.605   5.231   3.847
 1050SOL     OW 4048   4.073   5.503   0.704
 1050SOL    HW1 4049   4.026   5.430   0.654
 1050SOL    HW2 4050   4.080   5.478   0.800
 1051SOL     OW 4051   2.803   5.266   1.190
 1051SOL    HW1 4052   2.881   5.303   1.140
 1051SOL    HW2 4053   2.727   5.252   1.127
 1052SOL     OW 4054   3.671   0.222   4.199
 1052SOL    HW1 4055   3.769   0.233   4.186
 1052SOL    HW2 4056   3.654   0.175   4.286
 1053SOL     OW 4057   4.955   5.430   3.461
 1053SOL    HW1 4058   5.032   5.435   3.398
 1053SOL    HW2 4059   4.944   5.337   3.495
 1054SOL     OW 4060   2.223   3.820   5.323
 1054SOL    HW1 4061   2.266   3.729   5.321
 1054SOL    HW2 4062   2.277   3.883   5.267
 1055SOL     OW 4063   5.258   6.439   4.308
 1055SOL    HW1 4064   5.263   6.340   4.319
 1055SOL    HW2 4065   5.333   6.471   4.251
 1056SOL     OW 4066   1.680   4.910   6.024
 1056SOL    HW1 4067   1.603   4.967   6.052
 1056SOL    HW2 4068   1.648   4.841   5.958
 1057SOL     OW 4069   3.594   3.126   2.839
 1057SOL    HW1 4070   3.538   3.070   2.778
 1057SOL    HW2 4071   3.679   3.078   2.861
 1058SOL     OW 4072   5.226   1.623   2.151
 1058SOL    HW1 4073   5.196   1.697   2.212
 1058SOL    HW2 4074   5.319   1.643   2.118
 1059SOL     OW 4075   2.534   7.017   2.066
 1059SOL    HW1 4076   2.484   7.016   1.980
 1059SOL    HW2 4077   2.470   0.004   2.142
 1060SOL     OW 4078   0.056   3.912   4.129
 1060SOL    HW1 4079   6.997   3.895   4.182
 1060SOL    HW2 4080   0.113   3.830   4.128
 1061SOL     OW 4081   5.351   3.481   1.721
 1061SOL    HW1 4082   5.343   3.398   1.666
 1061SOL    HW2 4083   5.277   3.544   1.698
 1062SOL     OW 4084   5.887   4.713   5.618
 1062SOL    HW1 4085   5.833   4.641   5.663
 1062SOL    HW2 4086   5.859   4.720   5.522
 1063SOL     OW 4087   1.567   4.554   1.465
 1063SOL    HW1 4088   1.511   4.610   1.526
 1063SOL    HW2 4089   1.585   4.466   1.509
 1064SOL     OW 4090   1.295   4.027   2.129
 1064SOL    HW1 4091   1.204   4.066   2.140
 1064SOL    HW2 4092   1.330   4.048   2.038
 1065SOL     OW 4093   4.916   0.225   4.057
 1065SOL    HW1 4094   4.916   0.250   3.960
 1065SOL    HW2 4095   4.981   0.151   4.073
 1066SOL     OW 4096   5.225   0.549   3.989
 1066SOL    HW1 4097   5.296   0.513   4.050
 1066SOL    HW2 4098   5.165   0.475   3.961
 1067SOL     OW 4099   1.264   3.186   0.150
 1067SOL    HW1 4100   1.277   3.136   0.235
 1067SOL    HW2 4101   1.344   3.243   0.132
 1068SOL     OW 4102   4.985   5.146   3.227
 1068SOL    HW1 4103   4.962   5.239   3.199
 1068SOL    HW2 4104   4.906   5.087   3.216
 1069SOL     OW 4105   5.008   4.962   0.905
 1069SOL    HW1 4106   4.979   4.896   0.837
 1069SOL    HW2 4107   5.092   4.931   0.948
 1070SOL     OW 4108   0.976   1.186   1.734
 1070SOL    HW1 4109   0.962   1.103   1.787
 1070SOL    HW2 4110   0.984   1.163   1.637
 1071SOL     OW 4111   2.341   6.740   3.944
 1071SOL    HW1 4112   2.401   6.720   3.866
 1071SOL    HW2 4113   2.272   6.807   3.916
 1072SOL     OW 4114   1.649   6.402   1.210
 1072SOL    HW1 4115   1.613   6.492   1.231
 1072SOL    HW2 4116   1.744   6.410   1.180
 1073SOL     OW 4117   3.869   6.437   2.540
 1073SOL    HW1 4118   3.882   6.348   2.584
 1073SOL    HW2 4119   3.915   6.437   2.451
 1074SOL     OW 4120   2.982   5.291   0.315
 1074SOL    HW1 4121   2.891   5.274   0.353
 1074SOL    HW2 4122   3.002   5.224   0.243
 1075SOL     OW 4123   4.257   6.714   3.947
 1075SOL    HW1 4124   4.202   6.632   3.933
 1075SOL    HW2 4125   4.200   6.795   3.934
 1076SOL     OW 4126   6.949   4.451   5.465
 1076SOL    HW1 4127   7.009   4.387   5.513
 1076SOL    HW2 4128   6.894   4.501   5.532
 1077SOL     OW 4129   5.607   0.454   0.704
 1077SOL    HW1 4130   5.627   0.404   0.789
 1077SOL    HW2 4131   5.559   0.393   0.641
 1078SOL     OW 4132   0.924   1.316   2.453
 1078SOL    HW1 4133   0.904   1.413   2.439
 1078SOL    HW2 4134   1.001   1.289   2.395
 1079SOL     OW 4135   1.645   6.084   2.741
 1079SOL    HW1 4136   1.636   5.985   2.751
 1079SOL    HW2 4137   1.741   6.110   2.756
 1080SOL     OW 4138   1.982   4.773   3.488
 1080SOL    HW1 4139   1.932   4.843   3.438
 1080SOL    HW2 4140   1.959   4.778   3.585
 1081SOL     OW 4141   0.032   6.540   5.939
 1081SOL    HW1 4142   0.027   6.507   5.845
 1081SOL    HW2 4143   6.963   6.545   5.977
 1082SOL     OW 4144   3.663   1.636   6.468
 1082SOL    HW1 4145   3.670   1.580   6.386
 1082SOL    HW2 4146   3.711   1.591   6.544
 1083SOL     OW 4147   3.836   4.221   1.207
 1083SOL    HW1 4148   3.803   4.186   1.119
 1083SOL    HW2 4149   3.911   4.163   1.240
 1084SOL     OW 4150   6.736   6.042   1.038
 1084SOL    HW1 4151   6.698   5.992   0.961
 1084SOL    HW2 4152   6.697   6.007   1.123
 1085SOL     OW 4153   1.152   4.233   3.952
 1085SOL    HW1 4154   1.145   4.243   3.853
 1085SOL    HW2 4155   1.084   4.166   3.983
 1086SOL     OW 4156   6.887   5.887   2.324
 1086SOL    HW1 4157   6.940   5.857   2.244
 1086SOL    HW2 4158   6.949   5.924   2.393
 1087SOL     OW 4159   6.375   3.391   5.548
 1087SOL    HW1 4160   6.334   3.319   5.604
 1087SOL    HW2 4161   6.312   3.416   5.474
 1088SOL     OW 4162   5.848   4.657   3.713
 1088SOL    HW1 4163   5.807   4.706   3.790
 1088SOL    HW2 4164   5.808   4.689   3.628
 1089SOL     OW 4165   1.255   0.010   4.320
 1089SOL    HW1 4166   1.354   0.000   4.334
 1089SOL    HW2 4167   1.234   0.104   4.292
 1090SOL     OW 4168   2.202   1.636   3.657
 1090SOL    HW1 4169   2.124   1.678   3.611
 1090SOL    HW2 4170   2.194   1.537   3.652
 1091SOL     OW 4171   2.512   2.646   5.328
 1091SOL    HW1 4172   2.469   2.736   5.320
 1091SOL    HW2 4173   2.518   2.604   5.237
 1092SOL     OW 4174   1.872   3.838   0.407
 1092SOL    HW1 4175   1.831   3.838   0.498
 1092SOL    HW2 4176   1.810   3.795   0.342
 1093SOL     OW 4177   1.782   1.865   1.930
 1093SOL    HW1 4178   1.699   1.921   1.935
 1093SOL    HW2 4179   1.795   1.831   1.837
 1094SOL     OW 4180   1.231   6.150   3.472
 1094SOL    HW1 4181   1.303   6.142   3.542
 1094SOL    HW2 4182   1.212   6.246   3.455
 1095SOL     OW 4183   0.290   2.454   5.732
 1095SOL    HW1 4184   0.200   2.428   5.697
 1095SOL    HW2 4185   0.324   2.533   5.681
 1096SOL     OW 4186   3.345   4.615   1.676
 1096SOL    HW1 4187   3.430   4.609   1.730
 1096SOL    HW2 4188   3.361   4.671   1.595
 1097SOL     OW 4189   1.943   3.867   4.096
 1097SOL    HW1 4190   1.968   3.906   4.185
 1097SOL    HW2 4191   1.896   3.936   4.042
 1098SOL     OW 4192   5.094   3.204   0.953
 1098SOL    HW1 4193   5.120   3.234   0.861
 1098SOL    HW2 4194   5.082   3.104   0.953
 1099SOL     OW 4195   3.842   1.639   5.294
 1099SOL    HW1 4196   3.826   1.708   5.365
 1099SOL    HW2 4197   3.938   1.610   5.298
 1100SOL     OW 4198   2.866   1.756   6.452
 1100SOL    HW1 4199   2.800   1.827   6.479
 1100SOL    HW2 4200   2.871   1.753   6.352
 1101SOL     OW 4201   6.503   2.127   0.191
 1101SOL    HW1 4202   6.492   2.134   0.290
 1101SOL    HW2 4203   6.558   2.046   0.169
 1102SOL     OW 4204   0.371   6.155   4.045
 1102SOL    HW1 4205   0.323   6.067   4.043
 1102SOL    HW2 4206   0.452   6.147   4.103
 1103SOL     OW 4207   3.288   1.609   0.660
 1103SOL    HW1 4208   3.368   1.628   0.716
 1103SOL    HW2 4209   3.283   1.674   0.585
 1104SOL     OW 4210   2.348   3.548   5.335
 1104SOL    HW1 4211   2.348   3.449   5.329
 1104SOL    HW2 4212   2.429   3.579   5.384
 1105SOL     OW 4213   6.074   3.544   4.800
 1105SOL    HW1 4214   6.135   3.598   4.743
 1105SOL    HW2 4215   6.043   3.463   4.750
 1106SOL     OW 4216   0.595   2.162   0.614
 1106SOL    HW1 4217   0.621   2.089   0.677
 1106SOL    HW2 4218   0.674   2.187   0.558
 1107SOL     OW 4219   1.781   0.427   6.523
 1107SOL    HW1 4220   1.766   0.525   6.529
 1107SOL    HW2 4221   1.871   0.409   6.484
 1108SOL     OW 4222   3.088   0.912   5.818
 1108SOL    HW1 4223   3.140   0.854   5.881
 1108SOL    HW2 4224   3.151   0.954   5.752
 1109SOL     OW 4225   4.110   6.633   4.906
 1109SOL    HW1 4226   4.048   6.674   4.839
 1109SOL    HW2 4227   4.080   6.541   4.928
 1110SOL     OW 4228   2.821   1.431   2.880
 1110SOL    HW1 4229   2.741   1.441   2.938
 1110SOL    HW2 4230   2.892   1.496   2.910
 1111SOL     OW 4231   4.977   4.992   0.055
 1111SOL    HW1 4232   4.888   4.947   0.048
 1111SOL    HW2 4233   5.018   5.000   6.988
 1112SOL     OW 4234   6.526   0.793   2.353
 1112SOL    HW1 4235   6.461   0.758   2.285
 1112SOL    HW2 4236   6.493   0.881   2.388
 1113SOL     OW 4237   0.306   3.794   3.076
 1113SOL    HW1 4238   0.213   3.827   3.094
 1113SOL    HW2 4239   0.370   3.841   3.136
 1114SOL     OW 4240   4.563   1.450   6.546
 1114SOL    HW1 4241   4.503   1.421   6.472
 1114SOL    HW2 4242   4.642   1.388   6.550
 1115SOL     OW 4243   4.261   2.977   0.116
 1115SOL    HW1 4244   4.266   2.979   0.017
 1115SOL    HW2 4245   4.208   2.897   0.146
 1116SOL     OW 4246   5.360   5.955   5.183
 1116SOL    HW1 4247   5.384   6.042   5.138
 1116SOL    HW2 4248   5.410   5.881   5.138
 1117SOL     OW 4249   1.922   2.669   1.368
 1117SOL    HW1 4250   1.905   2.596   1.435
 1117SOL    HW2 4251   2.020   2.676   1.350
 1118SOL     OW 4252   2.299   4.226   1.718
 1118SOL    HW1 4253   2.341   4.304   1.764
 1118SOL    HW2 4254   2.224   4.259   1.660
 1119SOL     OW 4255   4.808   4.739   1.344
 1119SOL    HW1 4256   4.787   4.671   1.274
 1119SOL    HW2 4257   4.832   4.693   1.430
 1120SOL     OW 4258   5.349   6.972   5.333
 1120SOL    HW1 4259   5.408   0.017   5.375
 1120SOL    HW2 4260   5.360   6.973   5.234
 1121SOL     OW 4261   5.566   4.823   2.754
 1121SOL    HW1 4262   5.550   4.785   2.662
 1121SOL    HW2 4263   5.644   4.777   2.796
 1122SOL     OW 4264   4.371   3.134   6.472
 1122SOL    HW1 4265   4.299   3.203   6.467
 1122SOL    HW2 4266   4.350   3.069   6.545
 1123SOL     OW 4267   5.355   1.834   2.852
 1123SOL    HW1 4268   5.442   1.804   2.813
 1123SOL    HW2 4269   5.333   1.778   2.932
 1124SOL     OW 4270   5.959   4.156   5.136
 1124SOL    HW1 4271   5.899   4.079   5.159
 1124SOL    HW2 4272   6.048   4.122   5.108
 1125SOL     OW 4273   3.413   1.675   5.063
 1125SOL    HW1 4274   3.499   1.717   5.094
 1125SOL    HW2 4275   3.379   1.725   4.983
 1126SOL     OW 4276   5.236   6.698   0.781
 1126SOL    HW1 4277   5.234   6.626   0.851
 1126SOL    HW2 4278   5.329   6.735   0.776
 1127SOL     OW 4279   4.991   5.410   5.484
 1127SOL    HW1 4280   5.073   5.458   5.516
 1127SOL    HW2 4281   4.924   5.478   5.453
 1128SOL     OW 4282   5.465   2.194   5.127
 1128SOL    HW1 4283   5.460   2.279   5.179
 1128SOL    HW2 4284   5.432   2.209   5.034
 1129SOL     OW 4285   3.565   0.260   6.560
 1129SOL    HW1 4286   3.570   0.332   6.629
 1129SOL    HW2 4287   3.547   0.172   6.605
 1130SOL     OW 4288   2.056   4.734   1.017
 1130SOL    HW1 4289   2.127   4.687   0.964
 1130SOL    HW2 4290   2.060   4.832   0.997
 1131SOL     OW 4291   0.484   6.275   5.941
 1131SOL    HW1 4292   0.405   6.315   5.987
 1131SOL    HW2 4293   0.565   6.283   5.999
 1132SOL     OW 4294   5.084   0.243   0.842
 1132SOL    HW1 4295   5.010   0.176   0.831
 1132SOL    HW2 4296   5.107   0.251   0.938
 1133SOL     OW 4297   0.755   1.354   0.915
 1133SOL    HW1 4298   0.827   1.291   0.946
 1133SOL    HW2 4299   0.717   1.320   0.830
 1134SOL     OW 4300   4.729   1.297   1.654
 1134SOL    HW1 4301   4.676   1.365   1.705
 1134SOL    HW2 4302   4.719   1.312   1.556
 1135SOL     OW 4303   2.151   1.326   2.677
 1135SOL    HW1 4304   2.220   1.397   2.689
 1135SOL    HW2 4305   2.173   1.272   2.596
 1136SOL     OW 4306   3.514   5.354   4.996
 1136SOL    HW1 4307   3.568   5.436   4.975
 1136SOL    HW2 4308   3.480   5.314   4.911
 1137SOL     OW 4309   1.511   1.748   6.498
 1137SOL    HW1 4310   1.472   1.781   6.584
 1137SOL    HW2 4311   1.531   1.826   6.439
 1138SOL     OW 4312   0.564   1.299   6.312
 1138SOL    HW1 4313   0.571   1.379   6.253
 1138SOL    HW2 4314   0.546   1.329   6.406
 1139SOL     OW 4315   3.029   5.448   1.079
 1139SOL    HW1 4316   3.047   5.469   0.982
 1139SOL    HW2 4317   3.115   5.455   1.130
 1140SOL     OW 4318   3.200   1.233   2.026
 1140SOL    HW1 4319   3.292   1.258   2.056
 1140SOL    HW2 4320   3.166   1.301   1.961
 1141SOL     OW 4321   6.848   6.522   6.510
 1141SOL    HW1 4322   6.890   6.466   6.582
 1141SOL    HW2 4323   6.850   6.618   6.538
 1142SOL     OW 4324   3.574   0.451   4.078
 1142SOL    HW1 4325   3.635   0.381   4.113
 1142SOL    HW2 4326   3.492   0.455   4.135
 1143SOL     OW 4327   2.056   3.283   2.051
 1143SOL    HW1 4328   2.107   3.368   2.037
 1143SOL    HW2 4329   2.112   3.205   2.021
 1144SOL     OW 4330   6.498   4.554   5.491
 1144SOL    HW1 4331   6.595   4.574   5.502
 1144SOL    HW2 4332   6.479   4.461   5.523
 1145SOL     OW 4333   0.053   4.437   2.357
 1145SOL    HW1 4334   0.045   4.512   2.291
 1145SOL    HW2 4335   0.128   4.456   2.420
 1146SOL     OW 4336   6.267   0.561   1.480
 1146SOL    HW1 4337   6.259   0.584   1.383
 1146SOL    HW2 4338   6.236   0.467   1.495
 1147SOL     OW 4339   1.369   4.587   1.000
 1147SOL    HW1 4340   1.375   4.488   0.989
 1147SOL    HW2 4341   1.441   4.631   0.947
 1148SOL     OW 4342   4.537   6.809   6.621
 1148SOL    HW1 4343   4.473   6.795   6.696
 1148SOL    HW2 4344   4.621   6.758   6.638
 1149SOL     OW 4345   6.494   4.227   3.166
 1149SOL    HW1 4346   6.532   4.180   3.086
 1149SOL    HW2 4347   6.564   4.289   3.204
 1150SOL     OW 4348   2.744   4.275   0.900
 1150SOL    HW1 4349   2.843   4.278   0.911
 1150SOL    HW2 4350   2.719   4.194   0.846
 1151SOL     OW 4351   4.830   5.271   6.811
 1151SOL    HW1 4352   4.877   5.183   6.826
 1151SOL    HW2 4353   4.746   5.255   6.759
 1152SOL     OW 4354   0.586   5.701   5.837
 1152SOL    HW1 4355   0.587   5.618   5.894
 1152SOL    HW2 4356   0.562   5.676   5.743
 1153SOL     OW 4357   2.460   0.132   2.613
 1153SOL    HW1 4358   2.488   0.120   2.518
 1153SOL    HW2 4359   2.470   0.045   2.662
 1154SOL     OW 4360   0.566   4.238   1.600
 1154SOL    HW1 4361   0.583   4.204   1.692
 1154SOL    HW2 4362   0.494   4.183   1.557
 1155SOL     OW 4363   2.717   5.196   0.039
 1155SOL    HW1 4364   2.816   5.189   0.054
 1155SOL    HW2 4365   2.700   5.235   6.972
 1156SOL     OW 4366   2.149   0.866   5.026
 1156SOL    HW1 4367   2.105   0.777   5.014
 1156SOL    HW2 4368   2.240   0.854   5.066
 1157SOL     OW 4369   6.754   0.941   5.326
 1157SOL    HW1 4370   6.825   1.009   5.340
 1157SOL    HW2 4371   6.667   0.987   5.308
 1158SOL     OW 4372   0.505   5.778   5.547
 1158SOL    HW1 4373   0.439   5.846   5.518
 1158SOL    HW2 4374   0.589   5.787   5.493
 1159SOL     OW 4375   4.909   0.113   3.473
 1159SOL    HW1 4376   4.816   0.079   3.489
 1159SOL    HW2 4377   4.974   0.059   3.526
 1160SOL     OW 4378   3.673   3.126   1.564
 1160SOL    HW1 4379   3.636   3.035   1.547
 1160SOL    HW2 4380   3.626   3.193   1.506
 1161SOL     OW 4381   5.104   0.497   6.090
 1161SOL    HW1 4382   5.085   0.595   6.079
 1161SOL    HW2 4383   5.179   0.485   6.155
 1162SOL     OW 4384   3.230   2.120   6.894
 1162SOL    HW1 4385   3.306   2.138   6.832
 1162SOL    HW2 4386   3.263   2.115   6.988
 1163SOL     OW 4387   6.574   3.347   1.848
 1163SOL    HW1 4388   6.611   3.429   1.891
 1163SOL    HW2 4389   6.533   3.288   1.918
 1164SOL     OW 4390   5.373   2.324   4.320
 1164SOL    HW1 4391   5.296   2.347   4.380
 1164SOL    HW2 4392   5.459   2.344   4.367
 1165SOL     OW 4393   1.932   4.550   4.576
 1165SOL    HW1 4394   1.979   4.513   4.496
 1165SOL    HW2 4395   1.935   4.483   4.650
 1166SOL     OW 4396   3.883   0.345   0.720
 1166SOL    HW1 4397   3.808   0.410   0.736
 1166SOL    HW2 4398   3.845   0.253   0.707
 1167SOL     OW 4399   3.855   6.513   6.437
 1167SOL    HW1 4400   3.911   6.445   6.388
 1167SOL    HW2 4401   3.879   6.605   6.405
 1168SOL     OW 4402   6.591   1.387   3.395
 1168SOL    HW1 4403   6.534   1.461   3.429
 1168SOL    HW2 4404   6.687   1.417   3.392
 1169SOL     OW 4405   5.812   3.180   6.584
 1169SOL    HW1 4406   5.783   3.096   6.538
 1169SOL    HW2 4407   5.740   3.249   6.577
 1170SOL     OW 4408   5.387   0.937   1.807
 1170SOL    HW1 4409   5.317   0.879   1.848
 1170SOL    HW2 4410   5.397   1.021   1.861
 1171SOL     OW 4411   2.834   6.556   6.916
 1171SOL    HW1 4412   2.882   6.510   6.841
 1171SOL    HW2 4413   2.758   6.498   6.946
 1172SOL     OW 4414   3.033   4.025   1.966
 1172SOL    HW1 4415   3.026   4.125   1.976
 1172SOL    HW2 4416   3.036   4.001   1.869
 1173SOL     OW 4417   3.417   0.089   5.462
 1173SOL    HW1 4418   3.362   0.069   5.543
 1173SOL    HW2 4419   3.361   0.134   5.393
 1174SOL     OW 4420   2.949   4.407   0.312
 1174SOL    HW1 4421   2.891   4.328   0.331
 1174SOL    HW2 4422   3.017   4.416   0.384
 1175SOL     OW 4423   4.193   3.149   6.792
 1175SOL    HW1 4424   4.227   3.230   6.744
 1175SOL    HW2 4425   4.109   3.172   6.842
 1176SOL     OW 4426   5.591   4.524   1.223
 1176SOL    HW1 4427   5.579   4.438   1.173
 1176SOL    HW2 4428   5.650   4.509   1.302
 1177SOL     OW 4429   6.772   1.950   6.386
 1177SOL    HW1 4430   6.841   1.883   6.359
 1177SOL    HW2 4431   6.740   1.930   6.479
 1178SOL     OW 4432   3.649   3.345   1.241
 1178SOL    HW1 4433   3.631   3.345   1.339
 1178SOL    HW2 4434   3.574   3.299   1.193
 1179SOL     OW 4435   3.034   5.541   0.228
 1179SOL    HW1 4436   3.093   5.539   0.147
 1179SOL    HW2 4437   3.014   5.447   0.257
 1180SOL     OW 4438   2.014   6.544   3.918
 1180SOL    HW1 4439   2.082   6.481   3.881
 1180SOL    HW2 4440   1.992   6.614   3.849
 1181SOL     OW 4441   6.393   2.816   4.939
 1181SOL    HW1 4442   6.424   2.721   4.944
 1181SOL    HW2 4443   6.451   2.867   4.877
 1182SOL     OW 4444   2.376   5.312   3.602
 1182SOL    HW1 4445   2.370   5.360   3.689
 1182SOL    HW2 4446   2.389   5.214   3.618
 1183SOL     OW 4447   3.839   6.436   1.555
 1183SOL    HW1 4448   3.831   6.491   1.638
 1183SOL    HW2 4449   3.857   6.495   1.477
 1184SOL     OW 4450   4.356   0.905   5.940
 1184SOL    HW1 4451   4.443   0.946   5.913
 1184SOL    HW2 4452   4.281   0.965   5.914
 1185SOL     OW 4453   1.715   6.728   0.969
 1185SOL    HW1 4454   1.793   6.671   0.993
 1185SOL    HW2 4455   1.635   6.671   0.952
 1186SOL     OW 4456   6.319   5.894   6.285
 1186SOL    HW1 4457   6.337   5.986   6.319
 1186SOL    HW2 4458   6.258   5.899   6.206
 1187SOL     OW 4459   5.479   6.688   5.780
 1187SOL    HW1 4460   5.538   6.701   5.859
 1187SOL    HW2 4461   5.389   6.729   5.799
 1188SOL     OW 4462   3.357   5.847   6.764
 1188SOL    HW1 4463   3.411   5.802   6.694
 1188SOL    HW2 4464   3.399   5.934   6.789
 1189SOL     OW 4465   5.840   0.640   1.938
 1189SOL    HW1 4466   5.786   0.645   1.854
 1189SOL    HW2 4467   5.912   0.709   1.935
 1190SOL     OW 4468   3.861   4.849   4.379
 1190SOL    HW1 4469   3.888   4.943   4.361
 1190SOL    HW2 4470   3.762   4.843   4.385
 1191SOL     OW 4471   3.488   6.339   4.503
 1191SOL    HW1 4472   3.561   6.306   4.444
 1191SOL    HW2 4473   3.454   6.427   4.469
 1192SOL     OW 4474   5.352   6.136   3.216
 1192SOL    HW1 4475   5.425   6.191   3.256
 1192SOL    HW2 4476   5.311   6.185   3.140
 1193SOL     OW 4477   0.141   0.110   5.564
 1193SOL    HW1 4478   0.048   0.145   5.576
 1193SOL    HW2 4479   0.184   0.156   5.486
 1194SOL     OW 4480   6.660   1.735   0.751
 1194SOL    HW1 4481   6.746   1.775   0.720
 1194SOL    HW2 4482   6.670   1.702   0.844
 1195SOL     OW 4483   5.926   3.259   1.002
 1195SOL    HW1 4484   5.916   3.358   1.003
 1195SOL    HW2 4485   6.022   3.235   0.988
 1196SOL     OW 4486   6.589   5.105   1.829
 1196SOL    HW1 4487   6.596   5.075   1.924
 1196SOL    HW2 4488   6.619   5.031   1.768
 1197SOL     OW 4489   4.021   6.532   4.596
 1197SOL    HW1 4490   4.103   6.588   4.586
 1197SOL    HW2 4491   4.042   6.437   4.570
 1198SOL     OW 4492   1.591   2.915   2.525
 1198SOL    HW1 4493   1.673   2.897   2.580
 1198SOL    HW2 4494   1.510   2.899   2.582
 1199SOL     OW 4495   3.695   3.556   3.277
 1199SOL    HW1 4496   3.727   3.638   3.325
 1199SOL    HW2 4497   3.756   3.536   3.200
 1200SOL     OW 4498   3.749   4.158   4.738
 1200SOL    HW1 4499   3.789   4.071   4.709
 1200SOL    HW2 4500   3.684   4.190   4.669
 1201SOL     OW 4501   6.845   1.236   4.525
 1201SOL    HW1 4502   6.780   1.308   4.549
 1201SOL    HW2 4503   6.795   1.152   4.503
 1202SOL     OW 4504   6.111   0.914   6.043
 1202SOL    HW1 4505   6.089   0.983   6.113
 1202SOL    HW2 4506   6.032   0.901   5.983
 1203SOL     OW 4507   6.665   6.816   1.049
 1203SOL    HW1 4508   6.712   6.779   1.128
 1203SOL    HW2 4509   6.655   6.745   0.979
 1204SOL     OW 4510   4.378   1.631   1.851
 1204SOL    HW1 4511   4.443   1.706   1.860
 1204SOL    HW2 4512   4.323   1.624   1.934
 1205SOL     OW 4513   4.564   3.312   0.103
 1205SOL    HW1 4514   4.596   3.407   0.111
 1205SOL    HW2 4515   4.487   3.298   0.165
 1206SOL     OW 4516   1.175   2.515   4.870
 1206SOL    HW1 4517   1.126   2.582   4.926
 1206SOL    HW2 4518   1.124   2.429   4.868
 1207SOL     OW 4519   0.804   6.941   7.002
 1207SOL    HW1 4520   0.851   6.872   0.034
 1207SOL    HW2 4521   0.707   6.944   0.003
 1208SOL     OW 4522   3.395   3.836   2.053
 1208SOL    HW1 4523   3.351   3.915   2.096
 1208SOL    HW2 4524   3.328   3.763   2.040
 1209SOL     OW 4525   5.693   0.313   3.966
 1209SOL    HW1 4526   5.606   0.268   3.987
 1209SOL    HW2 4527   5.699   0.398   4.017
 1210SOL     OW 4528   4.269   0.348   3.726
 1210SOL    HW1 4529   4.349   0.407   3.738
 1210SOL    HW2 4530   4.249   0.338   3.628
 1211SOL     OW 4531   1.149   3.363   3.601
 1211SOL    HW1 4532   1.230   3.405   3.562
 1211SOL    HW2 4533   1.070   3.383   3.543
 1212SOL     OW 4534   6.955   1.039   5.684
 1212SOL    HW1 4535   7.008   1.032   5.599
 1212SOL    HW2 4536   6.857   1.037   5.662
 1213SOL     OW 4537   5.758   2.899   3.147
 1213SOL    HW1 4538   5.766   2.908   3.246
 1213SOL    HW2 4539   5.663   2.883   3.122
 1214SOL     OW 4540   0.311   2.578   6.013
 1214SOL    HW1 4541   0.254   2.498   6.029
 1214SOL    HW2 4542   0.262   2.642   5.954
 1215SOL     OW 4543   2.020   5.425   2.084
 1215SOL    HW1 4544   2.103   5.408   2.030
 1215SOL    HW2 4545   2.018   5.364   2.163
 1216SOL     OW 4546   0.202   0.822   0.070
 1216SOL    HW1 4547   0.126   0.801   0.008
 1216SOL    HW2 4548   0.284   0.774   0.040
 1217SOL     OW 4549   3.486   5.181   1.145
 1217SOL    HW1 4550   3.429   5.162   1.065
 1217SOL    HW2 4551   3.572   5.223   1.116
 1218SOL     OW 4552   0.893   3.973   5.597
 1218SOL    HW1 4553   0.838   3.966   5.514
 1218SOL    HW2 4554   0.962   3.901   5.598
 1219SOL     OW 4555   4.949   5.509   2.006
 1219SOL    HW1 4556   4.943   5.569   2.086
 1219SOL    HW2 4557   4.935   5.562   1.923
 1220SOL     OW 4558   6.563   4.155   2.894
 1220SOL    HW1 4559   6.596   4.125   2.805
 1220SOL    HW2 4560   6.571   4.255   2.900
 1221SOL     OW 4561   5.617   3.675   6.031
 1221SOL    HW1 4562   5.657   3.748   5.976
 1221SOL    HW2 4563   5.652   3.680   6.124
 1222SOL     OW 4564   0.808   0.696   0.172
 1222SOL    HW1 4565   0.765   0.724   0.258
 1222SOL    HW2 4566   0.884   0.635   0.191
 1223SOL     OW 4567   3.804   1.464   0.473
 1223SOL    HW1 4568   3.762   1.538   0.423
 1223SOL    HW2 4569   3.904   1.471   0.467
 1224SOL     OW 4570   2.806   5.627   0.081
 1224SOL    HW1 4571   2.816   5.597   7.009
 1224SOL    HW2 4572   2.875   5.582   0.138
 1225SOL     OW 4573   3.533   2.168   0.724
 1225SOL    HW1 4574   3.459   2.117   0.682
 1225SOL    HW2 4575   3.559   2.125   0.810
 1226SOL     OW 4576   4.810   6.250   0.606
 1226SOL    HW1 4577   4.754   6.277   0.684
 1226SOL    HW2 4578   4.866   6.171   0.630
 1227SOL     OW 4579   5.264   5.253   6.865
 1227SOL    HW1 4580   5.355   5.294   6.863
 1227SOL    HW2 4581   5.261   5.176   6.801
 1228SOL     OW 4582   3.526   2.946   0.623
 1228SOL    HW1 4583   3.448   2.883   0.614
 1228SOL    HW2 4584   3.611   2.894   0.616
 1229SOL     OW 4585   2.109   5.835   0.936
 1229SOL    HW1 4586   2.049   5.858   1.012
 1229SOL    HW2 4587   2.063   5.768   0.877
 1230SOL     OW 4588   5.623   5.444   2.655
 1230SOL    HW1 4589   5.668   5.519   2.702
 1230SOL    HW2 4590   5.670   5.358   2.676
 1231SOL     OW 4591   1.172   1.677   5.717
 1231SOL    HW1 4592   1.255   1.733   5.724
 1231SOL    HW2 4593   1.165   1.639   5.625
 1232SOL     OW 4594   5.774   1.533   5.345
 1232SOL    HW1 4595   5.736   1.579   5.266
 1232SOL    HW2 4596   5.816   1.600   5.407
 1233SOL     OW 4597   0.508   5.784   4.878
 1233SOL    HW1 4598   0.474   5.694   4.852
 1233SOL    HW2 4599   0.450   5.822   4.950
 1234SOL     OW 4600   6.373   2.377   5.131
 1234SOL    HW1 4601   6.361   2.280   5.150
 1234SOL    HW2 4602   6.292   2.427   5.161
 1235SOL     OW 4603   6.154   4.711   1.016
 1235SOL    HW1 4604   6.186   4.767   1.093
 1235SOL    HW2 4605   6.078   4.654   1.047
 1236SOL     OW 4606   4.036   1.129   2.154
 1236SOL    HW1 4607   4.069   1.039   2.185
 1236SOL    HW2 4608   3.944   1.145   2.189
 1237SOL     OW 4609   1.606   5.434   5.180
 1237SOL    HW1 4610   1.702   5.408   5.190
 1237SOL    HW2 4611   1.548   5.362   5.217
 1238SOL     OW 4612   0.828   0.157   4.908
 1238SOL    HW1 4613   0.893   0.228   4.937
 1238SOL    HW2 4614   0.752   0.199   4.859
 1239SOL     OW 4615   6.809   0.048   5.919
 1239SOL    HW1 4616   6.896   7.022   5.914
 1239SOL    HW2 4617   6.741   7.015   5.966
 1240SOL     OW 4618   6.011   5.355   1.991
 1240SOL    HW1 4619   5.973   5.263   1.999
 1240SOL    HW2 4620   6.025   5.393   2.082
 1241SOL     OW 4621   5.859   4.548   5.150
 1241SOL    HW1 4622   5.861   4.646   5.168
 1241SOL    HW2 4623   5.920   4.501   5.213
 1242SOL     OW 4624   2.191   3.606   0.754
 1242SOL    HW1 4625   2.235   3.591   0.843
 1242SOL    HW2 4626   2.126   3.682   0.761
 1243SOL     OW 4627   0.259   1.443   4.877
 1243SOL    HW1 4628   0.234   1.464   4.782
 1243SOL    HW2 4629   0.188   1.479   4.938
 1244SOL     OW 4630   5.140   6.452   5.273
 1244SOL    HW1 4631   5.217   6.462   5.336
 1244SOL    HW2 4632   5.133   6.357   5.245
 1245SOL     OW 4633   5.543   4.707   0.192
 1245SOL    HW1 4634   5.551   4.776   0.120
 1245SOL    HW2 4635   5.621   4.645   0.188
 1246SOL     OW 4636   3.305   1.231   2.568
 1246SOL    HW1 4637   3.225   1.291   2.560
 1246SOL    HW2 4638   3.386   1.281   2.538
 1247SOL     OW 4639   5.490   0.359   5.562
 1247SOL    HW1 4640   5.454   0.398   5.477
 1247SOL    HW2 4641   5.491   0.430   5.633
 1248SOL     OW 4642   1.083   6.175   4.050
 1248SOL    HW1 4643   0.993   6.137   4.074
 1248SOL    HW2 4644   1.073   6.269   4.020
 1249SOL     OW 4645   0.324   3.265   1.761
 1249SOL    HW1 4646   0.262   3.195   1.796
 1249SOL    HW2 4647   0.272   3.344   1.730
 1250SOL     OW 4648   6.215   4.133   3.562
 1250SOL    HW1 4649   6.266   4.158   3.480
 1250SOL    HW2 4650   6.153   4.058   3.541
 1251SOL     OW 4651   1.862   0.977   3.071
 1251SOL    HW1 4652   1.852   1.076   3.070
 1251SOL    HW2 4653   1.901   0.947   2.984
 1252SOL     OW 4654   3.947   4.597   6.762
 1252SOL    HW1 4655   3.865   4.648   6.735
 1252SOL    HW2 4656   3.962   4.522   6.698
 1253SOL     OW 4657   2.361   0.848   2.317
 1253SOL    HW1 4658   2.407   0.816   2.234
 1253SOL    HW2 4659   2.430   0.884   2.381
 1254SOL     OW 4660   0.167   2.541   4.091
 1254SOL    HW1 4661   0.204   2.522   4.000
 1254SOL    HW2 4662   0.127   2.632   4.092
 1255SOL     OW 4663   5.503   2.525   6.330
 1255SOL    HW1 4664   5.594   2.563   6.348
 1255SOL    HW2 4665   5.488   2.446   6.389
 1256SOL     OW 4666   0.201   6.235   3.559
 1256SOL    HW1 4667   0.193   6.135   3.553
 1256SOL    HW2 4668   0.218   6.273   3.468
 1257SOL     OW 4669   6.957   5.064   4.244
 1257SOL    HW1 4670   6.921   5.043   4.335
 1257SOL    HW2 4671   0.007   5.132   4.253
 1258SOL     OW 4672   2.174   4.809   3.004
 1258SOL    HW1 4673   2.102   4.743   2.983
 1258SOL    HW2 4674   2.213   4.844   2.919
 1259SOL     OW 4675   3.276   6.384   5.218
 1259SOL    HW1 4676   3.179   6.380   5.243
 1259SOL    HW2 4677   3.287   6.364   5.121
 1260SOL     OW 4678   2.741   1.526   1.033
 1260SOL    HW1 4679   2.761   1.484   0.945
 1260SOL    HW2 4680   2.653   1.573   1.029
 1261SOL     OW 4681   0.201   4.538   6.965
 1261SOL    HW1 4682   0.241   4.509   6.878
 1261SOL    HW2 4683   0.226   4.472   0.013
 1262SOL     OW 4684   5.262   5.574   1.350
 1262SOL    HW1 4685   5.176   5.624   1.354
 1262SOL    HW2 4686   5.270   5.514   1.430
 1263SOL     OW 4687   6.978   1.797   1.513
 1263SOL    HW1 4688   6.998   1.815   1.609
 1263SOL    HW2 4689   6.880   1.797   1.498
 1264SOL     OW 4690   7.007   3.818   1.397
 1264SOL    HW1 4691   6.925   3.805   1.453
 1264SOL    HW2 4692   6.985   3.879   1.321
 1265SOL     OW 4693   6.409   5.111   3.624
 1265SOL    HW1 4694   6.412   5.177   3.549
 1265SOL    HW2 4695   6.346   5.143   3.694
 1266SOL     OW 4696   0.999   1.337   3.980
 1266SOL    HW1 4697   0.908   1.374   3.963
 1266SOL    HW2 4698   0.991   1.249   4.026
 1267SOL     OW 4699   5.768   6.568   1.062
 1267SOL    HW1 4700   5.800   6.638   1.126
 1267SOL    HW2 4701   5.821   6.574   0.977
 1268SOL     OW 4702   4.523   2.132   0.319
 1268SOL    HW1 4703   4.443   2.191   0.323
 1268SOL    HW2 4704   4.522   2.069   0.397
 1269SOL     OW 4705   5.634   6.258   5.834
 1269SOL    HW1 4706   5.626   6.233   5.931
 1269SOL    HW2 4707   5.729   6.280   5.814
 1270SOL     OW 4708   2.088   3.362   4.269
 1270SOL    HW1 4709   2.040   3.338   4.184
 1270SOL    HW2 4710   2.164   3.423   4.248
 1271SOL     OW 4711   3.405   1.598   3.452
 1271SOL    HW1 4712   3.452   1.655   3.385
 1271SOL    HW2 4713   3.420   1.502   3.430
 1272SOL     OW 4714   5.869   5.729   0.441
 1272SOL    HW1 4715   5.965   5.718   0.469
 1272SOL    HW2 4716   5.812   5.742   0.522
 1273SOL     OW 4717   0.942   4.158   0.310
 1273SOL    HW1 4718   0.929   4.138   0.213
 1273SOL    HW2 4719   0.919   4.253   0.327
 1274SOL     OW 4720   6.404   2.751   1.435
 1274SOL    HW1 4721   6.415   2.691   1.514
 1274SOL    HW2 4722   6.354   2.833   1.462
 1275SOL     OW 4723   3.322   0.904   4.490
 1275SOL    HW1 4724   3.276   0.870   4.408
 1275SOL    HW2 4725   3.359   0.826   4.542
 1276SOL     OW 4726   6.886   0.687   4.712
 1276SOL    HW1 4727   6.923   0.756   4.650
 1276SOL    HW2 4728   6.840   0.616   4.659
 1277SOL     OW 4729   1.342   6.827   6.157
 1277SOL    HW1 4730   1.299   6.866   6.075
 1277SOL    HW2 4731   1.345   6.728   6.148
 1278SOL     OW 4732   0.951   0.299   5.182
 1278SOL    HW1 4733   1.019   0.234   5.215
 1278SOL    HW2 4734   0.989   0.351   5.105
 1279SOL     OW 4735   3.613   5.399   0.029
 1279SOL    HW1 4736   3.553   5.411   0.108
 1279SOL    HW2 4737   3.685   5.468   0.031
 1280SOL     OW 4738   3.500   6.158   4.086
 1280SOL    HW1 4739   3.524   6.145   3.989
 1280SOL    HW2 4740   3.583   6.167   4.140
 1281SOL     OW 4741   1.603   5.808   2.779
 1281SOL    HW1 4742   1.522   5.787   2.834
 1281SOL    HW2 4743   1.673   5.739   2.795
 1282SOL     OW 4744   0.746   1.091   6.295
 1282SOL    HW1 4745   0.676   1.021   6.297
 1282SOL    HW2 4746   0.705   1.180   6.316
 1283SOL     OW 4747   5.794   2.881   5.052
 1283SOL    HW1 4748   5.760   2.872   4.958
 1283SOL    HW2 4749   5.747   2.816   5.111
 1284SOL     OW 4750   4.591   1.621   2.112
 1284SOL    HW1 4751   4.522   1.684   2.146
 1284SOL    HW2 4752   4.580   1.532   2.157
 1285SOL     OW 4753   5.034   3.217   6.812
 1285SOL    HW1 4754   4.983   3.149   6.866
 1285SOL    HW2 4755   4.970   3.267   6.754
 1286SOL     OW 4756   4.917   3.324   1.920
 1286SOL    HW1 4757   5.008   3.302   1.885
 1286SOL    HW2 4758   4.887   3.251   1.983
 1287SOL     OW 4759   4.723   4.371   5.771
 1287SOL    HW1 4760   4.764   4.297   5.718
 1287SOL    HW2 4761   4.745   4.358   5.868
 1288SOL     OW 4762   5.371   3.517   0.844
 1288SOL    HW1 4763   5.365   3.423   0.809
 1288SOL    HW2 4764   5.333   3.521   0.936
 1289SOL     OW 4765   0.733   5.919   1.459
 1289SOL    HW1 4766   0.757   5.852   1.390
 1289SOL    HW2 4767   0.723   6.009   1.416
 1290SOL     OW 4768   1.023   0.498   6.766
 1290SOL    HW1 4769   1.005   0.534   6.857
 1290SOL    HW2 4770   1.118   0.467   6.761
 1291SOL     OW 4771   6.970   3.988   5.587
 1291SOL    HW1 4772   0.045   3.979   5.601
 1291SOL    HW2 4773   6.926   4.011   5.674
 1292SOL     OW 4774   6.989   6.201   2.772
 1292SOL    HW1 4775   6.973   6.245   2.860
 1292SOL    HW2 4776   6.923   6.235   2.705
 1293SOL     OW 4777   1.232   1.237   6.628
 1293SOL    HW1 4778   1.296   1.311   6.647
 1293SOL    HW2 4779   1.271   1.178   6.556
 1294SOL     OW 4780   1.394   3.842   6.749
 1294SOL    HW1 4781   1.384   3.875   6.843
 1294SOL    HW2 4782   1.346   3.755   6.739
 1295SOL     OW 4783   0.122   3.718   2.699
 1295SOL    HW1 4784   0.032   3.757   2.722
 1295SOL    HW2 4785   0.109   3.633   2.647
 1296SOL     OW 4786   3.592   0.550   5.716
 1296SOL    HW1 4787   3.520   0.528   5.650
 1296SOL    HW2 4788   3.652   0.472   5.727
 1297SOL     OW 4789   5.813   0.648   0.600
 1297SOL    HW1 4790   5.880   0.660   0.674
 1297SOL    HW2 4791   5.727   0.617   0.639
 1298SOL     OW 4792   6.675   4.701   2.853
 1298SOL    HW1 4793   6.699   4.785   2.902
 1298SOL    HW2 4794   6.732   4.626   2.885
 1299SOL     OW 4795   0.387   4.098   3.207
 1299SOL    HW1 4796   0.400   4.171   3.141
 1299SOL    HW2 4797   0.447   4.021   3.184
 1300SOL     OW 4798   3.624   3.816   1.921
 1300SOL    HW1 4799   3.665   3.730   1.952
 1300SOL    HW2 4800   3.529   3.821   1.951
 1301SOL     OW 4801   0.373   5.834   1.985
 1301SOL    HW1 4802   0.448   5.786   1.939
 1301SOL    HW2 4803   0.316   5.768   2.033
 1302SOL     OW 4804   3.606   0.301   5.375
 1302SOL    HW1 4805   3.599   0.213   5.422
 1302SOL    HW2 4806   3.608   0.286   5.276
 1303SOL     OW 4807   4.491   1.304   1.953
 1303SOL    HW1 4808   4.510   1.399   1.927
 1303SOL    HW2 4809   4.430   1.303   2.032
 1304SOL     OW 4810   1.308   0.911   6.692
 1304SOL    HW1 4811   1.231   0.854   6.666
 1304SOL    HW2 4812   1.318   0.987   6.628
 1305SOL     OW 4813   4.901   2.995   6.937
 1305SOL    HW1 4814   4.810   3.012   6.900
 1305SOL    HW2 4815   4.894   2.957   0.006
 1306SOL     OW 4816   0.906   4.314   5.573
 1306SOL    HW1 4817   0.928   4.223   5.608
 1306SOL    HW2 4818   0.823   4.310   5.517
 1307SOL     OW 4819   1.128   3.422   5.427
 1307SOL    HW1 4820   1.190   3.472   5.488
 1307SOL    HW2 4821   1.151   3.324   5.429
 1308SOL     OW 4822   4.581   5.790   5.270
 1308SOL    HW1 4823   4.608   5.835   5.355
 1308SOL    HW2 4824   4.658   5.788   5.207
 1309SOL     OW 4825   4.752   2.916   5.020
 1309SOL    HW1 4826   4.787   2.895   4.928
 1309SOL    HW2 4827   4.823   2.896   5.088
 1310SOL     OW 4828   0.174   4.004   5.277
 1310SOL    HW1 4829   0.270   3.985   5.254
 1310SOL    HW2 4830   0.129   3.918   5.301
 1311SOL     OW 4831   0.184   0.200   4.319
 1311SOL    HW1 4832   0.135   0.185   4.234
 1311SOL    HW2 4833   0.279   0.224   4.299
 1312SOL     OW 4834   0.876   0.576   6.526
 1312SOL    HW1 4835   0.913   0.559   6.435
 1312SOL    HW2 4836   0.943   0.546   6.595
 1313SOL     OW 4837   1.546   4.182   4.245
 1313SOL    HW1 4838   1.473   4.169   4.178
 1313SOL    HW2 4839   1.610   4.252   4.212
 1314SOL     OW 4840   4.061   1.459   5.832
 1314SOL    HW1 4841   3.982   1.405   5.804
 1314SOL    HW2 4842   4.143   1.424   5.787
 1315SOL     OW 4843   0.697   0.782   0.441
 1315SOL    HW1 4844   0.704   0.717   0.517
 1315SOL    HW2 4845   0.692   0.875   0.477
 1316SOL     OW 4846   2.044   6.630   4.493
 1316SOL    HW1 4847   2.019   6.560   4.559
 1316SOL    HW2 4848   1.993   6.614   4.408
 1317SOL     OW 4849   1.478   4.065   4.631
 1317SOL    HW1 4850   1.542   4.139   4.611
 1317SOL    HW2 4851   1.386   4.093   4.605
 1318SOL     OW 4852   0.754   0.900   0.780
 1318SOL    HW1 4853   0.840   0.848   0.778
 1318SOL    HW2 4854   0.757   0.972   0.711
 1319SOL     OW 4855   0.023   0.697   6.561
 1319SOL    HW1 4856   0.071   0.725   6.477
 1319SOL    HW2 4857   0.072   0.733   6.640
 1320SOL     OW 4858   5.350   3.802   0.876
 1320SOL    HW1 4859   5.304   3.723   0.916
 1320SOL    HW2 4860   5.443   3.776   0.849
 1321SOL     OW 4861   4.491   2.339   5.869
 1321SOL    HW1 4862   4.585   2.351   5.901
 1321SOL    HW2 4863   4.462   2.420   5.818
 1322SOL     OW 4864   4.274   0.398   4.261
 1322SOL    HW1 4865   4.259   0.387   4.360
 1322SOL    HW2 4866   4.358   0.351   4.234
 1323SOL     OW 4867   5.167   1.977   4.600
 1323SOL    HW1 4868   5.163   1.931   4.688
 1323SOL    HW2 4869   5.085   1.954   4.547
 1324SOL     OW 4870   0.944   2.793   0.025
 1324SOL    HW1 4871   0.901   2.864   6.993
 1324SOL    HW2 4872   0.959   2.827   0.118
 1325SOL     OW 4873   1.966   6.619   2.318
 1325SOL    HW1 4874   1.978   6.554   2.394
 1325SOL    HW2 4875   1.887   6.677   2.336
 1326SOL     OW 4876   4.693   2.838   4.561
 1326SOL    HW1 4877   4.757   2.840   4.638
 1326SOL    HW2 4878   4.615   2.898   4.581
 1327SOL     OW 4879   1.670   4.373   1.716
 1327SOL    HW1 4880   1.628   4.459   1.743
 1327SOL    HW2 4881   1.600   4.312   1.677
 1328SOL     OW 4882   1.563   2.945   1.038
 1328SOL    HW1 4883   1.519   2.989   1.116
 1328SOL    HW2 4884   1.499   2.882   0.994
 1329SOL     OW 4885   1.255   2.472   0.833
 1329SOL    HW1 4886   1.205   2.391   0.866
 1329SOL    HW2 4887   1.349   2.470   0.867
 1330SOL     OW 4888   6.663   1.035   1.300
 1330SOL    HW1 4889   6.762   1.028   1.291
 1330SOL    HW2 4890   6.632   1.121   1.259
 1331SOL     OW 4891   4.908   2.305   3.094
 1331SOL    HW1 4892   4.812   2.292   3.066
 1331SOL    HW2 4893   4.946   2.384   3.046
 1332SOL     OW 4894   2.976   6.870   0.218
 1332SOL    HW1 4895   2.949   6.856   0.313
 1332SOL    HW2 4896   2.986   6.781   0.174
 1333SOL     OW 4897   3.511   3.331   5.533
 1333SOL    HW1 4898   3.525   3.234   5.511
 1333SOL    HW2 4899   3.434   3.366   5.480
 1334SOL     OW 4900   6.542   2.390   4.417
 1334SOL    HW1 4901   6.552   2.358   4.511
 1334SOL    HW2 4902   6.472   2.461   4.413
 1335SOL     OW 4903   2.948   1.307   3.427
 1335SOL    HW1 4904   2.906   1.308   3.336
 1335SOL    HW2 4905   3.022   1.374   3.431
 1336SOL     OW 4906   1.956   1.339   6.026
 1336SOL    HW1 4907   1.866   1.370   5.996
 1336SOL    HW2 4908   1.973   1.247   5.991
 1337SOL     OW 4909   1.669   1.468   5.243
 1337SOL    HW1 4910   1.594   1.405   5.222
 1337SOL    HW2 4911   1.730   1.427   5.310
 1338SOL     OW 4912   5.295   2.951   6.118
 1338SOL    HW1 4913   5.202   2.925   6.144
 1338SOL    HW2 4914   5.327   2.890   6.045
 1339SOL     OW 4915   0.797   1.054   6.868
 1339SOL    HW1 4916   0.841   1.002   6.942
 1339SOL    HW2 4917   0.792   0.996   6.787
 1340SOL     OW 4918   0.605   1.855   2.067
 1340SOL    HW1 4919   0.573   1.760   2.064
 1340SOL    HW2 4920   0.678   1.867   2.000
 1341SOL     OW 4921   4.631   0.363   5.741
 1341SOL    HW1 4922   4.643   0.374   5.840
 1341SOL    HW2 4923   4.674   0.440   5.693
 1342SOL     OW 4924   1.689   4.858   6.423
 1342SOL    HW1 4925   1.680   4.811   6.335
 1342SOL    HW2 4926   1.695   4.790   6.496
 1343SOL     OW 4927   4.374   6.065   2.488
 1343SOL    HW1 4928   4.336   6.003   2.556
 1343SOL    HW2 4929   4.368   6.022   2.397
 1344SOL     OW 4930   6.905   4.806   4.079
 1344SOL    HW1 4931   7.000   4.774   4.072
 1344SOL    HW2 4932   6.904   4.900   4.115
 1345SOL     OW 4933   1.324   1.242   2.903
 1345SOL    HW1 4934   1.353   1.337   2.914
 1345SOL    HW2 4935   1.239   1.227   2.953
 1346SOL     OW 4936   0.891   6.594   4.143
 1346SOL    HW1 4937   0.837   6.657   4.199
 1346SOL    HW2 4938   0.951   6.539   4.201
 1347SOL     OW 4939   6.655   6.403   4.228
 1347SOL    HW1 4940   6.725   6.473   4.245
 1347SOL    HW2 4941   6.565   6.445   4.228
 1348SOL     OW 4942   5.355   5.037   2.749
 1348SOL    HW1 4943   5.432   4.977   2.769
 1348SOL    HW2 4944   5.388   5.130   2.736
 1349SOL     OW 4945   4.779   2.062   6.265
 1349SOL    HW1 4946   4.848   2.112   6.214
 1349SOL    HW2 4947   4.713   2.125   6.305
 1350SOL     OW 4948   5.151   4.188   6.427
 1350SOL    HW1 4949   5.214   4.198   6.350
 1350SOL    HW2 4950   5.072   4.134   6.399
 1351SOL     OW 4951   6.866   2.209   3.245
 1351SOL    HW1 4952   6.813   2.278   3.195
 1351SOL    HW2 4953   6.922   2.255   3.314
 1352SOL     OW 4954   6.678   0.234   2.897
 1352SOL    HW1 4955   6.622   0.252   2.817
 1352SOL    HW2 4956   6.660   0.303   2.967
 1353SOL     OW 4957   6.398   4.153   6.243
 1353SOL    HW1 4958   6.426   4.069   6.196
 1353SOL    HW2 4959   6.329   4.201   6.188
 1354SOL     OW 4960   0.506   1.985   0.427
 1354SOL    HW1 4961   0.519   2.031   0.515
 1354SOL    HW2 4962   0.412   1.952   0.422
 1355SOL     OW 4963   7.023   2.355   5.693
 1355SOL    HW1 4964   6.982   2.333   5.782
 1355SOL    HW2 4965   6.981   2.438   5.657
 1356SOL     OW 4966   3.036   3.158   3.571
 1356SOL    HW1 4967   2.983   3.124   3.649
 1356SOL    HW2 4968   3.131   3.127   3.578
 1357SOL     OW 4969   1.553   4.181   5.618
 1357SOL    HW1 4970   1.462   4.172   5.578
 1357SOL    HW2 4971   1.621   4.187   5.545
 1358SOL     OW 4972   4.140   1.269   6.059
 1358SOL    HW1 4973   4.125   1.189   6.116
 1358SOL    HW2 4974   4.238   1.292   6.059
 1359SOL     OW 4975   6.380   4.745   1.581
 1359SOL    HW1 4976   6.427   4.820   1.536
 1359SOL    HW2 4977   6.402   4.659   1.536
 1360SOL     OW 4978   3.911   3.988   1.044
 1360SOL    HW1 4979   3.939   3.904   0.998
 1360SOL    HW2 4980   3.965   4.000   1.128
 1361SOL     OW 4981   0.328   6.105   5.556
 1361SOL    HW1 4982   0.269   6.078   5.633
 1361SOL    HW2 4983   0.290   6.069   5.471
 1362SOL     OW 4984   2.901   3.714   4.384
 1362SOL    HW1 4985   2.862   3.799   4.349
 1362SOL    HW2 4986   2.955   3.733   4.466
 1363SOL     OW 4987   6.556   5.521   3.617
 1363SOL    HW1 4988   6.634   5.541   3.676
 1363SOL    HW2 4989   6.577   5.549   3.524
 1364SOL     OW 4990   0.087   2.441   0.429
 1364SOL    HW1 4991   0.147   2.376   0.475
 1364SOL    HW2 4992   0.137   2.527   0.413
 1365SOL     OW 4993   1.107   3.022   5.427
 1365SOL    HW1 4994   1.190   3.069   5.396
 1365SOL    HW2 4995   1.037   3.089   5.449
 1366SOL     OW 4996   0.688   4.352   0.620
 1366SOL    HW1 4997   0.639   4.266   0.609
 1366SOL    HW2 4998   0.626   4.428   0.600
 1367SOL     OW 4999   1.720   5.776   2.505
 1367SOL    HW1 5000   1.684   5.792   2.413
 1367SOL    HW2 5001   1.657   5.814   2.573
 1368SOL     OW 5002   0.114   6.595   3.520
 1368SOL    HW1 5003   0.021   6.558   3.521
 1368SOL    HW2 5004   0.112   6.690   3.490
 1369SOL     OW 5005   1.856   0.309   2.577
 1369SOL    HW1 5006   1.945   0.343   2.548
 1369SOL    HW2 5007   1.795   0.300   2.498
 1370SOL     OW 5008   4.496   1.988   3.119
 1370SOL    HW1 5009   4.397   1.991   3.103
 1370SOL    HW2 5010   4.541   1.944   3.041
 1371SOL     OW 5011   5.848   1.410   4.510
 1371SOL    HW1 5012   5.846   1.463   4.424
 1371SOL    HW2 5013   5.762   1.361   4.521
 1372SOL     OW 5014   1.209   2.368   0.587
 1372SOL    HW1 5015   1.214   2.420   0.672
 1372SOL    HW2 5016   1.143   2.410   0.525
 1373SOL     OW 5017   4.223   2.680   0.133
 1373SOL    HW1 5018   4.166   2.679   0.051
 1373SOL    HW2 5019   4.300   2.618   0.121
 1374SOL     OW 5020   4.124   2.057   0.878
 1374SOL    HW1 5021   4.030   2.090   0.883
 1374SOL    HW2 5022   4.147   2.037   0.782
 1375SOL     OW 5023   0.221   6.377   6.080
 1375SOL    HW1 5024   0.195   6.281   6.091
 1375SOL    HW2 5025   0.156   6.422   6.020
 1376SOL     OW 5026   4.618   4.816   5.201
 1376SOL    HW1 5027   4.706   4.813   5.247
 1376SOL    HW2 5028   4.567   4.896   5.233
 1377SOL     OW 5029   0.815   3.832   4.690
 1377SOL    HW1 5030   0.887   3.891   4.653
 1377SOL    HW2 5031   0.796   3.757   4.627
 1378SOL     OW 5032   5.673   1.873   4.394
 1378SOL    HW1 5033   5.665   1.864   4.295
 1378SOL    HW2 5034   5.751   1.932   4.416
 1379SOL     OW 5035   3.972   6.103   3.277
 1379SOL    HW1 5036   4.032   6.128   3.353
 1379SOL    HW2 5037   4.000   6.015   3.239
 1380SOL     OW 5038   0.795   0.108   3.467
 1380SOL    HW1 5039   0.848   0.099   3.382
 1380SOL    HW2 5040   0.853   0.085   3.545
 1381SOL     OW 5041   5.931   1.643   0.701
 1381SOL    HW1 5042   5.902   1.738   0.695
 1381SOL    HW2 5043   5.857   1.588   0.740
 1382SOL     OW 5044   5.978   3.541   1.002
 1382SOL    HW1 5045   6.030   3.585   1.075
 1382SOL    HW2 5046   5.995   3.588   0.915
 1383SOL     OW 5047   0.747   0.873   2.114
 1383SOL    HW1 5048   0.736   0.948   2.180
 1383SOL    HW2 5049   0.657   0.843   2.083
 1384SOL     OW 5050   4.620   0.581   1.628
 1384SOL    HW1 5051   4.617   0.672   1.669
 1384SOL    HW2 5052   4.636   0.513   1.699
 1385SOL     OW 5053   2.937   4.759   3.484
 1385SOL    HW1 5054   3.019   4.707   3.510
 1385SOL    HW2 5055   2.963   4.854   3.465
 1386SOL     OW 5056   3.047   1.013   4.224
 1386SOL    HW1 5057   3.057   1.108   4.256
 1386SOL    HW2 5058   3.124   0.990   4.165
 1387SOL     OW 5059   3.745   5.386   2.850
 1387SOL    HW1 5060   3.708   5.452   2.785
 1387SOL    HW2 5061   3.845   5.386   2.844
 1388SOL     OW 5062   0.202   0.514   2.481
 1388SOL    HW1 5063   0.218   0.488   2.577
 1388SOL    HW2 5064   0.104   0.518   2.463
 1389SOL     OW 5065   6.374   1.150   3.609
 1389SOL    HW1 5066   6.435   1.214   3.562
 1389SOL    HW2 5067   6.423   1.107   3.685
 1390SOL     OW 5068   6.493   2.502   6.043
 1390SOL    HW1 5069   6.482   2.600   6.059
 1390SOL    HW2 5070   6.571   2.486   5.983
 1391SOL     OW 5071   5.978   6.672   5.399
 1391SOL    HW1 5072   6.064   6.699   5.442
 1391SOL    HW2 5073   5.917   6.635   5.469
 1392SOL     OW 5074   5.904   6.522   5.608
 1392SOL    HW1 5075   5.928   6.609   5.652
 1392SOL    HW2 5076   5.904   6.449   5.676
 1393SOL     OW 5077   6.806   4.267   6.432
 1393SOL    HW1 5078   6.804   4.188   6.493
 1393SOL    HW2 5079   6.757   4.343   6.474
 1394SOL     OW 5080   3.824   5.166   5.757
 1394SOL    HW1 5081   3.749   5.231   5.764
 1394SOL    HW2 5082   3.895   5.202   5.697
 1395SOL     OW 5083   1.634   4.973   4.837
 1395SOL    HW1 5084   1.630   4.900   4.905
 1395SOL    HW2 5085   1.720   5.023   4.846
 1396SOL     OW 5086   0.259   1.462   5.233
 1396SOL    HW1 5087   0.298   1.543   5.277
 1396SOL    HW2 5088   0.228   1.397   5.303
 1397SOL     OW 5089   0.345   6.483   4.534
 1397SOL    HW1 5090   0.368   6.436   4.619
 1397SOL    HW2 5091   0.336   6.417   4.460
 1398SOL     OW 5092   2.887   0.896   6.361
 1398SOL    HW1 5093   2.908   0.916   6.265
 1398SOL    HW2 5094   2.912   0.975   6.417
 1399SOL     OW 5095   3.879   4.740   0.625
 1399SOL    HW1 5096   3.827   4.812   0.670
 1399SOL    HW2 5097   3.817   4.676   0.580
 1400SOL     OW 5098   0.380   1.799   4.310
 1400SOL    HW1 5099   0.406   1.780   4.215
 1400SOL    HW2 5100   0.414   1.725   4.369
 1401SOL     OW 5101   6.430   0.151   4.715
 1401SOL    HW1 5102   6.516   0.194   4.744
 1401SOL    HW2 5103   6.434   0.053   4.735
 1402SOL     OW 5104   5.328   3.732   6.581
 1402SOL    HW1 5105   5.301   3.637   6.600
 1402SOL    HW2 5106   5.394   3.734   6.506
 1403SOL     OW 5107   2.498   1.811   1.020
 1403SOL    HW1 5108   2.569   1.872   1.054
 1403SOL    HW2 5109   2.425   1.864   0.977
 1404SOL     OW 5110   6.371   0.056   6.589
 1404SOL    HW1 5111   6.453   0.059   6.646
 1404SOL    HW2 5112   6.380   0.122   6.514
 1405SOL     OW 5113   2.269   3.239   0.845
 1405SOL    HW1 5114   2.252   3.270   0.939
 1405SOL    HW2 5115   2.211   3.161   0.825
 1406SOL     OW 5116   0.992   5.991   0.836
 1406SOL    HW1 5117   0.896   5.975   0.861
 1406SOL    HW2 5118   1.051   5.965   0.913
 1407SOL     OW 5119   0.521   3.246   3.687
 1407SOL    HW1 5120   0.586   3.176   3.656
 1407SOL    HW2 5121   0.513   3.242   3.786
 1408SOL     OW 5122   5.347   1.761   5.524
 1408SOL    HW1 5123   5.265   1.817   5.510
 1408SOL    HW2 5124   5.388   1.740   5.435
 1409SOL     OW 5125   0.272   0.170   5.336
 1409SOL    HW1 5126   0.371   0.158   5.350
 1409SOL    HW2 5127   0.240   0.101   5.271
 1410SOL     OW 5128   1.661   4.668   6.635
 1410SOL    HW1 5129   1.633   4.577   6.663
 1410SOL    HW2 5130   1.680   4.723   6.717
 1411SOL     OW 5131   3.097   6.736   0.563
 1411SOL    HW1 5132   3.110   6.709   0.467
 1411SOL    HW2 5133   3.122   6.660   0.623
 1412SOL     OW 5134   0.973   2.791   1.120
 1412SOL    HW1 5135   0.888   2.841   1.102
 1412SOL    HW2 5136   0.955   2.693   1.115
 1413SOL     OW 5137   2.394   1.519   5.135
 1413SOL    HW1 5138   2.416   1.466   5.053
 1413SOL    HW2 5139   2.452   1.601   5.139
 1414SOL     OW 5140   2.018   1.975   2.231
 1414SOL    HW1 5141   2.032   1.878   2.214
 1414SOL    HW2 5142   2.019   1.993   2.329
 1415SOL     OW 5143   2.117   1.411   4.769
 1415SOL    HW1 5144   2.171   1.487   4.805
 1415SOL    HW2 5145   2.027   1.444   4.740
 1416SOL     OW 5146   4.407   5.654   4.521
 1416SOL    HW1 5147   4.326   5.658   4.581
 1416SOL    HW2 5148   4.389   5.706   4.438
 1417SOL     OW 5149   2.806   2.477   0.465
 1417SOL    HW1 5150   2.723   2.441   0.421
 1417SOL    HW2 5151   2.797   2.576   0.477
 1418SOL     OW 5152   3.296   3.725   2.627
 1418SOL    HW1 5153   3.317   3.788   2.553
 1418SOL    HW2 5154   3.338   3.636   2.608
 1419SOL     OW 5155   2.765   5.917   3.503
 1419SOL    HW1 5156   2.705   5.946   3.578
 1419SOL    HW2 5157   2.800   5.825   3.523
 1420SOL     OW 5158   2.401   6.150   2.161
 1420SOL    HW1 5159   2.394   6.125   2.065
 1420SOL    HW2 5160   2.476   6.215   2.173
 1421SOL     OW 5161   2.091   5.126   3.448
 1421SOL    HW1 5162   2.131   5.045   3.404
 1421SOL    HW2 5163   2.015   5.159   3.392
 1422SOL     OW 5164   1.417   4.105   6.644
 1422SOL    HW1 5165   1.393   4.102   6.547
 1422SOL    HW2 5166   1.393   4.019   6.687
 1423SOL     OW 5167   4.660   6.760   4.336
 1423SOL    HW1 5168   4.610   6.739   4.420
 1423SOL    HW2 5169   4.616   6.835   4.288
 1424SOL     OW 5170   6.860   3.862   6.767
 1424SOL    HW1 5171   6.821   3.919   6.695
 1424SOL    HW2 5172   6.806   3.873   6.851
 1425SOL     OW 5173   1.999   5.340   6.154
 1425SOL    HW1 5174   1.925   5.275   6.140
 1425SOL    HW2 5175   2.041   5.325   6.244
 1426SOL     OW 5176   2.815   3.105   6.919
 1426SOL    HW1 5177   2.796   3.104   6.821
 1426SOL    HW2 5178   2.781   3.021   6.960
 1427SOL     OW 5179   6.704   6.906   3.661
 1427SOL    HW1 5180   6.690   6.815   3.622
 1427SOL    HW2 5181   6.657   6.912   3.749
 1428SOL     OW 5182   0.531   2.001   6.842
 1428SOL    HW1 5183   0.562   1.957   6.926
 1428SOL    HW2 5184   0.600   1.988   6.770
 1429SOL     OW 5185   4.953   1.452   0.035
 1429SOL    HW1 5186   4.979   1.361   0.003
 1429SOL    HW2 5187   4.861   1.474   0.002
 1430SOL     OW 5188   1.749   5.180   4.091
 1430SOL    HW1 5189   1.732   5.259   4.031
 1430SOL    HW2 5190   1.826   5.201   4.151
 1431SOL     OW 5191   2.768   2.156   6.929
 1431SOL    HW1 5192   2.763   2.244   6.977
 1431SOL    HW2 5193   2.862   2.124   6.928
 1432SOL     OW 5194   2.961   1.653   1.393
 1432SOL    HW1 5195   3.049   1.682   1.356
 1432SOL    HW2 5196   2.959   1.553   1.401
 1433SOL     OW 5197   4.254   0.575   5.274
 1433SOL    HW1 5198   4.349   0.573   5.243
 1433SOL    HW2 5199   4.208   0.656   5.237
 1434SOL     OW 5200   1.584   0.176   5.701
 1434SOL    HW1 5201   1.667   0.144   5.747
 1434SOL    HW2 5202   1.521   0.215   5.769
 1435SOL     OW 5203   6.499   6.854   3.403
 1435SOL    HW1 5204   6.408   6.857   3.445
 1435SOL    HW2 5205   6.550   6.776   3.440
 1436SOL     OW 5206   4.815   3.543   6.926
 1436SOL    HW1 5207   4.837   3.584   6.838
 1436SOL    HW2 5208   4.881   3.574   6.995
 1437SOL     OW 5209   3.377   2.196   5.121
 1437SOL    HW1 5210   3.333   2.279   5.156
 1437SOL    HW2 5211   3.312   2.120   5.126
 1438SOL     OW 5212   2.701   6.776   2.142
 1438SOL    HW1 5213   2.784   6.750   2.092
 1438SOL    HW2 5214   2.662   6.857   2.099
 1439SOL     OW 5215   6.166   5.191   0.667
 1439SOL    HW1 5216   6.128   5.109   0.710
 1439SOL    HW2 5217   6.127   5.272   0.709
 1440SOL     OW 5218   3.162   3.202   6.430
 1440SOL    HW1 5219   3.227   3.126   6.430
 1440SOL    HW2 5220   3.126   3.215   6.338
 1441SOL     OW 5221   6.221   1.901   3.984
 1441SOL    HW1 5222   6.185   1.934   3.896
 1441SOL    HW2 5223   6.290   1.965   4.018
 1442SOL     OW 5224   6.871   5.509   6.841
 1442SOL    HW1 5225   6.788   5.548   6.800
 1442SOL    HW2 5226   6.951   5.535   6.786
 1443SOL     OW 5227   0.570   2.855   4.314
 1443SOL    HW1 5228   0.661   2.863   4.273
 1443SOL    HW2 5229   0.572   2.894   4.406
 1444SOL     OW 5230   4.251   5.601   0.921
 1444SOL    HW1 5231   4.265   5.508   0.886
 1444SOL    HW2 5232   4.262   5.666   0.846
 1445SOL     OW 5233   0.419   3.747   2.800
 1445SOL    HW1 5234   0.425   3.799   2.885
 1445SOL    HW2 5235   0.337   3.774   2.749
 1446SOL     OW 5236   5.118   2.603   0.600
 1446SOL    HW1 5237   5.110   2.669   0.676
 1446SOL    HW2 5238   5.031   2.555   0.589
 1447SOL     OW 5239   6.192   6.752   5.587
 1447SOL    HW1 5240   6.167   6.822   5.654
 1447SOL    HW2 5241   6.238   6.676   5.633
 1448SOL     OW 5242   6.918   2.242   5.923
 1448SOL    HW1 5243   6.873   2.289   5.999
 1448SOL    HW2 5244   6.931   2.146   5.945
 1449SOL     OW 5245   0.885   0.944   0.099
 1449SOL    HW1 5246   0.835   1.013   0.150
 1449SOL    HW2 5247   0.839   0.856   0.107
 1450SOL     OW 5248   0.947   2.242   1.249
 1450SOL    HW1 5249   0.918   2.262   1.342
 1450SOL    HW2 5250   0.867   2.232   1.190
 1451SOL     OW 5251   1.788   0.215   2.034
 1451SOL    HW1 5252   1.838   0.269   2.101
 1451SOL    HW2 5253   1.712   0.268   1.996
 1452SOL     OW 5254   4.852   0.858   4.480
 1452SOL    HW1 5255   4.871   0.904   4.566
 1452SOL    HW2 5256   4.938   0.840   4.432
 1453SOL     OW 5257   6.980   4.318   5.721
 1453SOL    HW1 5258   0.028   4.282   5.781
 1453SOL    HW2 5259   6.913   4.368   5.775
 1454SOL     OW 5260   0.297   3.370   2.068
 1454SOL    HW1 5261   0.235   3.349   1.993
 1454SOL    HW2 5262   0.358   3.293   2.084
 1455SOL     OW 5263   0.702   1.135   1.542
 1455SOL    HW1 5264   0.691   1.044   1.582
 1455SOL    HW2 5265   0.676   1.132   1.445
 1456SOL     OW 5266   6.668   6.427   5.249
 1456SOL    HW1 5267   6.687   6.467   5.159
 1456SOL    HW2 5268   6.742   6.453   5.312
 1457SOL     OW 5269   1.632   6.711   1.892
 1457SOL    HW1 5270   1.564   6.665   1.835
 1457SOL    HW2 5271   1.630   6.671   1.984
 1458SOL     OW 5272   5.979   5.666   3.369
 1458SOL    HW1 5273   5.911   5.711   3.427
 1458SOL    HW2 5274   6.024   5.593   3.419
 1459SOL     OW 5275   3.049   5.595   5.696
 1459SOL    HW1 5276   2.981   5.549   5.638
 1459SOL    HW2 5277   3.011   5.608   5.787
 1460SOL     OW 5278   0.711   6.000   5.171
 1460SOL    HW1 5279   0.787   5.938   5.152
 1460SOL    HW2 5280   0.680   5.987   5.266
 1461SOL     OW 5281   6.703   5.266   2.879
 1461SOL    HW1 5282   6.669   5.312   2.797
 1461SOL    HW2 5283   6.702   5.330   2.956
 1462SOL     OW 5284   1.611   0.187   6.961
 1462SOL    HW1 5285   1.663   0.136   6.893
 1462SOL    HW2 5286   1.567   0.123   0.000
 1463SOL     OW 5287   6.826   5.671   6.496
 1463SOL    HW1 5288   6.909   5.661   6.552
 1463SOL    HW2 5289   6.833   5.753   6.440
 1464SOL     OW 5290   0.265   0.127   1.313
 1464SOL    HW1 5291   0.187   0.187   1.293
 1464SOL    HW2 5292   0.261   0.047   1.254
 1465SOL     OW 5293   1.597   1.119   3.206
 1465SOL    HW1 5294   1.549   1.094   3.121
 1465SOL    HW2 5295   1.671   1.183   3.185
 1466SOL     OW 5296   1.434   1.851   2.230
 1466SOL    HW1 5297   1.458   1.929   2.173
 1466SOL    HW2 5298   1.459   1.870   2.325
 1467SOL     OW 5299   2.094   1.763   2.879
 1467SOL    HW1 5300   2.148   1.795   2.800
 1467SOL    HW2 5301   2.101   1.664   2.886
 1468SOL     OW 5302   4.399   6.287   2.212
 1468SOL    HW1 5303   4.403   6.377   2.169
 1468SOL    HW2 5304   4.478   6.233   2.184
 1469SOL     OW 5305   0.943   1.750   1.447
 1469SOL    HW1 5306   0.858   1.781   1.406
 1469SOL    HW2 5307   0.923   1.694   1.527
 1470SOL     OW 5308   1.064   1.828   2.707
 1470SOL    HW1 5309   1.019   1.842   2.619
 1470SOL    HW2 5310   1.001   1.852   2.781
 1471SOL     OW 5311   0.972   0.265   1.279
 1471SOL    HW1 5312   1.014   0.336   1.222
 1471SOL    HW2 5313   0.881   0.244   1.244
 1472SOL     OW 5314   3.659   5.656   5.862
 1472SOL    HW1 5315   3.707   5.743   5.877
 1472SOL    HW2 5316   3.618   5.627   5.948
 1473SOL     OW 5317   4.609   6.037   4.879
 1473SOL    HW1 5318   4.553   5.958   4.905
 1473SOL    HW2 5319   4.572   6.119   4.923
 1474SOL     OW 5320   5.322   5.434   2.259
 1474SOL    HW1 5321   5.359   5.357   2.311
 1474SOL    HW2 5322   5.390   5.508   2.257
 1475SOL     OW 5323   6.137   0.153   2.187
 1475SOL    HW1 5324   6.214   0.194   2.236
 1475SOL    HW2 5325   6.161   0.061   2.158
 1476SOL     OW 5326   2.792   0.856   1.235
 1476SOL    HW1 5327   2.714   0.836   1.293
 1476SOL    HW2 5328   2.812   0.954   1.237
 1477SOL     OW 5329   3.880   0.122   6.137
 1477SOL    HW1 5330   3.916   0.150   6.226
 1477SOL    HW2 5331   3.931   0.168   6.064
 1478SOL     OW 5332   6.199   5.717   6.590
 1478SOL    HW1 5333   6.202   5.637   6.650
 1478SOL    HW2 5334   6.287   5.727   6.543
 1479SOL     OW 5335   1.766   2.352   0.232
 1479SOL    HW1 5336   1.689   2.415   0.226
 1479SOL    HW2 5337   1.791   2.321   0.140
 1480SOL     OW 5338   3.146   0.796   5.242
 1480SOL    HW1 5339   3.108   0.888   5.230
 1480SOL    HW2 5340   3.191   0.791   5.331
 1481SOL     OW 5341   6.803   2.995   5.655
 1481SOL    HW1 5342   6.824   2.990   5.557
 1481SOL    HW2 5343   6.727   2.934   5.676
 1482SOL     OW 5344   4.522   1.905   1.385
 1482SOL    HW1 5345   4.552   1.916   1.290
 1482SOL    HW2 5346   4.452   1.834   1.389
 1483SOL     OW 5347   5.313   1.714   0.322
 1483SOL    HW1 5348   5.309   1.796   0.379
 1483SOL    HW2 5349   5.379   1.650   0.361
 1484SOL     OW 5350   5.867   4.270   4.691
 1484SOL    HW1 5351   5.887   4.177   4.723
 1484SOL    HW2 5352   5.780   4.300   4.730
 1485SOL     OW 5353   3.805   1.521   3.365
 1485SOL    HW1 5354   3.847   1.555   3.281
 1485SOL    HW2 5355   3.706   1.540   3.362
 1486SOL     OW 5356   5.426   1.706   2.503
 1486SOL    HW1 5357   5.404   1.686   2.599
 1486SOL    HW2 5358   5.488   1.784   2.500
 1487SOL     OW 5359   6.946   2.183   6.407
 1487SOL    HW1 5360   6.869   2.119   6.411
 1487SOL    HW2 5361   0.004   2.139   6.443
 1488SOL     OW 5362   4.909   0.793   3.812
 1488SOL    HW1 5363   4.935   0.755   3.723
 1488SOL    HW2 5364   4.928   0.891   3.813
 1489SOL     OW 5365   4.439   5.524   5.053
 1489SOL    HW1 5366   4.477   5.544   5.143
 1489SOL    HW2 5367   4.498   5.459   5.005
 1490SOL     OW 5368   0.788   3.061   2.362
 1490SOL    HW1 5369   0.758   2.969   2.338
 1490SOL    HW2 5370   0.746   3.127   2.299
 1491SOL     OW 5371   6.954   3.907   2.786
 1491SOL    HW1 5372   6.938   3.947   2.695
 1491SOL    HW2 5373   6.959   3.980   2.854
 1492SOL     OW 5374   5.862   0.684   2.469
 1492SOL    HW1 5375   5.781   0.740   2.453
 1492SOL    HW2 5376   5.920   0.685   2.387
 1493SOL     OW 5377   4.002   6.220   5.190
 1493SOL    HW1 5378   4.011   6.181   5.282
 1493SOL    HW2 5379   3.982   6.148   5.125
 1494SOL     OW 5380   5.162   2.142   6.429
 1494SOL    HW1 5381   5.140   2.191   6.345
 1494SOL    HW2 5382   5.079   2.097   6.463
 1495SOL     OW 5383   6.649   3.181   4.828
 1495SOL    HW1 5384   6.701   3.147   4.907
 1495SOL    HW2 5385   6.559   3.212   4.858
 1496SOL     OW 5386   0.357   1.639   1.439
 1496SOL    HW1 5387   0.427   1.574   1.409
 1496SOL    HW2 5388   0.369   1.660   1.536
 1497SOL     OW 5389   6.476   3.043   2.962
 1497SOL    HW1 5390   6.482   2.947   2.987
 1497SOL    HW2 5391   6.567   3.077   2.935
 1498SOL     OW 5392   2.114   5.066   6.835
 1498SOL    HW1 5393   2.149   5.158   6.818
 1498SOL    HW2 5394   2.040   5.046   6.771
 1499SOL     OW 5395   0.931   2.905   6.503
 1499SOL    HW1 5396   0.944   2.981   6.439
 1499SOL    HW2 5397   1.016   2.891   6.555
 1500SOL     OW 5398   6.901   0.027   6.991
 1500SOL    HW1 5399   6.863   0.109   0.012
 1500SOL    HW2 5400   6.846   6.971   7.016
 1501SOL     OW 5401   5.490   2.851   6.819
 1501SOL    HW1 5402   5.525   2.764   6.784
 1501SOL    HW2 5403   5.391   2.846   6.828
 1502SOL     OW 5404   4.097   6.956   0.383
 1502SOL    HW1 5405   4.007   6.935   0.346
 1502SOL    HW2 5406   4.133   0.015   0.339
 1503SOL     OW 5407   0.235   3.859   1.579
 1503SOL    HW1 5408   0.231   3.808   1.493
 1503SOL    HW2 5409   0.142   3.883   1.608
 1504SOL     OW 5410   0.891   0.251   5.530
 1504SOL    HW1 5411   0.845   0.336   5.504
 1504SOL    HW2 5412   0.843   0.173   5.489
 1505SOL     OW 5413   5.357   0.989   5.427
 1505SOL    HW1 5414   5.454   1.001   5.406
 1505SOL    HW2 5415   5.319   0.916   5.371
 1506SOL     OW 5416   0.620   6.622   0.790
 1506SOL    HW1 5417   0.612   6.677   0.873
 1506SOL    HW2 5418   0.605   6.526   0.813
 1507SOL     OW 5419   1.001   2.017   5.470
 1507SOL    HW1 5420   0.974   1.977   5.557
 1507SOL    HW2 5421   1.017   1.944   5.403
 1508SOL     OW 5422   6.895   1.227   1.832
 1508SOL    HW1 5423   6.863   1.286   1.906
 1508SOL    HW2 5424   6.816   1.185   1.786
 1509SOL     OW 5425   3.766   1.586   5.792
 1509SOL    HW1 5426   3.792   1.680   5.814
 1509SOL    HW2 5427   3.710   1.585   5.709
 1510SOL     OW 5428   4.833   2.187   4.673
 1510SOL    HW1 5429   4.778   2.269   4.689
 1510SOL    HW2 5430   4.858   2.182   4.576
 1511SOL     OW 5431   3.840   2.925   2.186
 1511SOL    HW1 5432   3.743   2.946   2.196
 1511SOL    HW2 5433   3.850   2.830   2.154
 1512SOL     OW 5434   7.020   5.689   1.498
 1512SOL    HW1 5435   0.043   5.609   1.460
 1512SOL    HW2 5436   0.008   5.690   1.597
 1513SOL     OW 5437   3.638   0.745   4.150
 1513SOL    HW1 5438   3.555   0.746   4.206
 1513SOL    HW2 5439   3.649   0.655   4.108
 1514SOL     OW 5440   4.414   2.135   5.700
 1514SOL    HW1 5441   4.447   2.042   5.718
 1514SOL    HW2 5442   4.458   2.199   5.764
 1515SOL     OW 5443   6.038   2.258   3.418
 1515SOL    HW1 5444   5.982   2.197   3.362
 1515SOL    HW2 5445   6.030   2.351   3.385
 1516SOL     OW 5446   6.897   6.703   0.197
 1516SOL    HW1 5447   6.954   6.639   0.146
 1516SOL    HW2 5448   6.870   6.662   0.284
 1517SOL     OW 5449   4.431   6.221   3.350
 1517SOL    HW1 5450   4.432   6.267   3.261
 1517SOL    HW2 5451   4.482   6.136   3.343
 1518SOL     OW 5452   1.292   2.606   0.060
 1518SOL    HW1 5453   1.300   2.534   7.015
 1518SOL    HW2 5454   1.215   2.587   0.120
 1519SOL     OW 5455   6.726   5.379   1.517
 1519SOL    HW1 5456   6.736   5.478   1.506
 1519SOL    HW2 5457   6.717   5.336   1.427
 1520SOL     OW 5458   0.275   3.827   1.837
 1520SOL    HW1 5459   0.261   3.856   1.743
 1520SOL    HW2 5460   0.366   3.855   1.868
 1521SOL     OW 5461   1.870   3.976   6.187
 1521SOL    HW1 5462   1.875   4.039   6.109
 1521SOL    HW2 5463   1.958   3.932   6.199
 1522SOL     OW 5464   6.255   6.289   5.166
 1522SOL    HW1 5465   6.293   6.364   5.111
 1522SOL    HW2 5466   6.271   6.202   5.120
 1523SOL     OW 5467   5.022   5.626   0.960
 1523SOL    HW1 5468   5.101   5.581   1.001
 1523SOL    HW2 5469   4.956   5.557   0.930
 1524SOL     OW 5470   2.137   2.225   2.144
 1524SOL    HW1 5471   2.105   2.130   2.148
 1524SOL    HW2 5472   2.237   2.227   2.139
 1525SOL     OW 5473   6.772   2.363   0.133
 1525SOL    HW1 5474   6.857   2.315   0.154
 1525SOL    HW2 5475   6.725   2.387   0.218
 1526SOL     OW 5476   6.238   6.872   6.263
 1526SOL    HW1 5477   6.178   6.832   6.333
 1526SOL    HW2 5478   6.268   6.963   6.292
 1527SOL     OW 5479   3.663   1.013   5.275
 1527SOL    HW1 5480   3.622   1.028   5.185
 1527SOL    HW2 5481   3.717   0.929   5.274
 1528SOL     OW 5482   4.708   5.739   2.292
 1528SOL    HW1 5483   4.695   5.824   2.242
 1528SOL    HW2 5484   4.723   5.760   2.389
 1529SOL     OW 5485   3.538   0.517   0.476
 1529SOL    HW1 5486   3.531   0.613   0.500
 1529SOL    HW2 5487   3.468   0.494   0.409
 1530SOL     OW 5488   3.413   1.683   2.301
 1530SOL    HW1 5489   3.390   1.586   2.306
 1530SOL    HW2 5490   3.358   1.734   2.368
 1531SOL     OW 5491   4.244   0.791   4.922
 1531SOL    HW1 5492   4.182   0.834   4.856
 1531SOL    HW2 5493   4.269   0.857   4.993
 1532SOL     OW 5494   2.415   3.374   6.278
 1532SOL    HW1 5495   2.357   3.326   6.212
 1532SOL    HW2 5496   2.368   3.457   6.309
 1533SOL     OW 5497   6.088   3.724   6.766
 1533SOL    HW1 5498   6.170   3.697   6.716
 1533SOL    HW2 5499   6.042   3.642   6.801
 1534SOL     OW 5500   2.314   4.479   6.400
 1534SOL    HW1 5501   2.333   4.418   6.477
 1534SOL    HW2 5502   2.218   4.470   6.373
 1535SOL     OW 5503   4.878   6.637   3.767
 1535SOL    HW1 5504   4.899   6.626   3.864
 1535SOL    HW2 5505   4.899   6.551   3.719
 1536SOL     OW 5506   3.998   4.535   5.335
 1536SOL    HW1 5507   4.084   4.504   5.294
 1536SOL    HW2 5508   3.923   4.479   5.300
 1537SOL     OW 5509   4.271   6.810   3.470
 1537SOL    HW1 5510   4.240   6.716   3.457
 1537SOL    HW2 5511   4.285   6.828   3.567
 1538SOL     OW 5512   3.991   5.471   6.076
 1538SOL    HW1 5513   4.075   5.487   6.128
 1538SOL    HW2 5514   4.006   5.399   6.009
 1539SOL     OW 5515   4.032   3.785   1.736
 1539SOL    HW1 5516   3.994   3.876   1.751
 1539SOL    HW2 5517   3.996   3.748   1.651
 1540SOL     OW 5518   1.454   5.565   6.308
 1540SOL    HW1 5519   1.362   5.590   6.277
 1540SOL    HW2 5520   1.522   5.619   6.258
 1541SOL     OW 5521   3.868   3.536   3.027
 1541SOL    HW1 5522   3.827   3.589   2.953
 1541SOL    HW2 5523   3.879   3.441   2.998
 1542SOL     OW 5524   6.006   6.281   2.466
 1542SOL    HW1 5525   5.979   6.185   2.471
 1542SOL    HW2 5526   5.941   6.337   2.517
 1543SOL     OW 5527   3.967   4.805   5.315
 1543SOL    HW1 5528   3.988   4.708   5.318
 1543SOL    HW2 5529   3.895   4.826   5.381
 1544SOL     OW 5530   3.485   3.357   2.931
 1544SOL    HW1 5531   3.394   3.360   2.888
 1544SOL    HW2 5532   3.539   3.284   2.889
 1545SOL     OW 5533   4.778   0.606   3.955
 1545SOL    HW1 5534   4.680   0.618   3.937
 1545SOL    HW2 5535   4.830   0.675   3.904
 1546SOL     OW 5536   3.898   6.071   5.964
 1546SOL    HW1 5537   3.956   5.997   5.928
 1546SOL    HW2 5538   3.945   6.158   5.954
 1547SOL     OW 5539   1.180   3.593   3.180
 1547SOL    HW1 5540   1.191   3.505   3.226
 1547SOL    HW2 5541   1.118   3.582   3.102
 1548SOL     OW 5542   4.939   3.718   5.683
 1548SOL    HW1 5543   4.937   3.626   5.645
 1548SOL    HW2 5544   4.846   3.752   5.695
 1549SOL     OW 5545   4.974   1.437   2.839
 1549SOL    HW1 5546   5.045   1.428   2.769
 1549SOL    HW2 5547   4.924   1.351   2.846
 1550SOL     OW 5548   3.010   4.072   6.807
 1550SOL    HW1 5549   3.028   3.974   6.799
 1550SOL    HW2 5550   3.028   4.101   6.901
 1551SOL     OW 5551   1.775   4.595   5.968
 1551SOL    HW1 5552   1.839   4.588   5.892
 1551SOL    HW2 5553   1.688   4.632   5.935
 1552SOL     OW 5554   0.216   6.383   6.684
 1552SOL    HW1 5555   0.265   6.382   6.771
 1552SOL    HW2 5556   0.118   6.392   6.701
 1553SOL     OW 5557   0.259   1.321   5.830
 1553SOL    HW1 5558   0.173   1.328   5.882
 1553SOL    HW2 5559   0.251   1.248   5.763
 1554SOL     OW 5560   4.635   1.418   3.073
 1554SOL    HW1 5561   4.678   1.481   3.008
 1554SOL    HW2 5562   4.702   1.350   3.102
 1555SOL     OW 5563   5.171   2.050   6.791
 1555SOL    HW1 5564   5.171   2.068   6.889
 1555SOL    HW2 5565   5.258   2.079   6.751
 1556SOL     OW 5566   3.202   1.009   1.117
 1556SOL    HW1 5567   3.235   1.058   1.197
 1556SOL    HW2 5568   3.157   0.924   1.146
 1557SOL     OW 5569   1.572   0.993   6.341
 1557SOL    HW1 5570   1.528   0.950   6.262
 1557SOL    HW2 5571   1.638   1.062   6.309
 1558SOL     OW 5572   5.218   0.812   4.682
 1558SOL    HW1 5573   5.180   0.903   4.664
 1558SOL    HW2 5574   5.235   0.765   4.595
 1559SOL     OW 5575   6.743   2.575   6.823
 1559SOL    HW1 5576   6.819   2.510   6.823
 1559SOL    HW2 5577   6.776   2.664   6.854
 1560SOL     OW 5578   1.993   1.600   5.750
 1560SOL    HW1 5579   2.069   1.628   5.691
 1560SOL    HW2 5580   2.012   1.627   5.844
 1561SOL     OW 5581   6.323   6.584   4.698
 1561SOL    HW1 5582   6.308   6.487   4.676
 1561SOL    HW2 5583   6.382   6.625   4.628
 1562SOL     OW 5584   3.867   5.890   2.934
 1562SOL    HW1 5585   3.779   5.845   2.922
 1562SOL    HW2 5586   3.901   5.875   3.027
 1563SOL     OW 5587   2.104   0.535   6.234
 1563SOL    HW1 5588   2.019   0.586   6.218
 1563SOL    HW2 5589   2.103   0.497   6.326
 1564SOL     OW 5590   1.261   2.811   3.133
 1564SOL    HW1 5591   1.164   2.832   3.144
 1564SOL    HW2 5592   1.313   2.851   3.209
 1565SOL     OW 5593   4.269   5.108   4.916
 1565SOL    HW1 5594   4.208   5.162   4.974
 1565SOL    HW2 5595   4.226   5.021   4.894
 1566SOL     OW 5596   5.272   5.267   3.521
 1566SOL    HW1 5597   5.177   5.238   3.518
 1566SOL    HW2 5598   5.330   5.200   3.474
 1567SOL     OW 5599   6.002   5.782   0.132
 1567SOL    HW1 5600   5.968   5.832   0.212
 1567SOL    HW2 5601   5.930   5.722   0.098
 1568SOL     OW 5602   1.670   5.656   1.369
 1568SOL    HW1 5603   1.720   5.692   1.448
 1568SOL    HW2 5604   1.638   5.564   1.389
 1569SOL     OW 5605   3.526   6.521   3.712
 1569SOL    HW1 5606   3.541   6.422   3.702
 1569SOL    HW2 5607   3.437   6.538   3.754
 1570SOL     OW 5608   1.989   6.617   0.948
 1570SOL    HW1 5609   1.968   6.600   0.852
 1570SOL    HW2 5610   2.030   6.535   0.989
 1571SOL     OW 5611   6.048   1.231   1.992
 1571SOL    HW1 5612   6.117   1.302   2.002
 1571SOL    HW2 5613   6.081   1.161   1.928
 1572SOL     OW 5614   0.727   0.069   0.683
 1572SOL    HW1 5615   0.774   0.157   0.697
 1572SOL    HW2 5616   0.725   0.018   0.768
 1573SOL     OW 5617   6.185   3.471   1.856
 1573SOL    HW1 5618   6.241   3.523   1.921
 1573SOL    HW2 5619   6.090   3.498   1.866
 1574SOL     OW 5620   0.192   0.930   3.007
 1574SOL    HW1 5621   0.180   0.872   2.927
 1574SOL    HW2 5622   0.284   0.972   3.004
 1575SOL     OW 5623   2.966   1.930   0.752
 1575SOL    HW1 5624   2.885   1.972   0.793
 1575SOL    HW2 5625   3.047   1.960   0.803
 1576SOL     OW 5626   1.058   0.725   3.353
 1576SOL    HW1 5627   1.048   0.628   3.330
 1576SOL    HW2 5628   1.149   0.757   3.324
 1577SOL     OW 5629   2.633   0.788   5.321
 1577SOL    HW1 5630   2.579   0.704   5.328
 1577SOL    HW2 5631   2.727   0.770   5.349
 1578SOL     OW 5632   5.768   2.661   5.698
 1578SOL    HW1 5633   5.841   2.722   5.730
 1578SOL    HW2 5634   5.716   2.707   5.626
 1579SOL     OW 5635   0.850   1.931   2.515
 1579SOL    HW1 5636   0.818   2.026   2.522
 1579SOL    HW2 5637   0.840   1.899   2.421
 1580SOL     OW 5638   3.191   4.088   3.954
 1580SOL    HW1 5639   3.285   4.106   3.926
 1580SOL    HW2 5640   3.186   4.080   4.053
 1581SOL     OW 5641   0.095   4.200   5.449
 1581SOL    HW1 5642   0.136   4.140   5.381
 1581SOL    HW2 5643   0.092   4.154   5.538
 1582SOL     OW 5644   1.924   0.144   4.286
 1582SOL    HW1 5645   1.895   0.089   4.365
 1582SOL    HW2 5646   1.870   0.118   4.206
 1583SOL     OW 5647   1.192   4.967   3.487
 1583SOL    HW1 5648   1.149   4.886   3.447
 1583SOL    HW2 5649   1.246   4.941   3.566
 1584SOL     OW 5650   1.642   6.255   6.571
 1584SOL    HW1 5651   1.701   6.335   6.565
 1584SOL    HW2 5652   1.546   6.283   6.570
 1585SOL     OW 5653   5.646   1.279   3.366
 1585SOL    HW1 5654   5.689   1.189   3.368
 1585SOL    HW2 5655   5.583   1.284   3.288
 1586SOL     OW 5656   3.632   4.915   2.163
 1586SOL    HW1 5657   3.639   4.868   2.075
 1586SOL    HW2 5658   3.537   4.943   2.179
 1587SOL     OW 5659   3.115   5.403   6.292
 1587SOL    HW1 5660   3.195   5.387   6.234
 1587SOL    HW2 5661   3.086   5.498   6.282
 1588SOL     OW 5662   4.216   1.007   2.923
 1588SOL    HW1 5663   4.226   1.049   3.013
 1588SOL    HW2 5664   4.307   0.990   2.884
 1589SOL     OW 5665   6.245   3.088   1.726
 1589SOL    HW1 5666   6.303   3.167   1.709
 1589SOL    HW2 5667   6.177   3.111   1.796
 1590SOL     OW 5668   3.950   6.224   5.647
 1590SOL    HW1 5669   4.006   6.142   5.652
 1590SOL    HW2 5670   3.853   6.198   5.643
 1591SOL     OW 5671   6.803   5.389   2.298
 1591SOL    HW1 5672   6.790   5.466   2.236
 1591SOL    HW2 5673   6.787   5.419   2.392
 1592SOL     OW 5674   2.317   4.305   6.618
 1592SOL    HW1 5675   2.217   4.303   6.616
 1592SOL    HW2 5676   2.350   4.241   6.686
 1593SOL     OW 5677   1.659   6.029   5.299
 1593SOL    HW1 5678   1.667   5.990   5.207
 1593SOL    HW2 5679   1.672   6.128   5.295
 1594SOL     OW 5680   0.294   6.434   2.181
 1594SOL    HW1 5681   0.276   6.420   2.084
 1594SOL    HW2 5682   0.324   6.347   2.222
 1595SOL     OW 5683   1.110   5.727   0.395
 1595SOL    HW1 5684   1.160   5.761   0.315
 1595SOL    HW2 5685   1.142   5.635   0.418
 1596SOL     OW 5686   0.322   2.548   3.846
 1596SOL    HW1 5687   0.389   2.479   3.874
 1596SOL    HW2 5688   0.264   2.511   3.774
 1597SOL     OW 5689   1.796   6.002   0.313
 1597SOL    HW1 5690   1.827   5.989   0.407
 1597SOL    HW2 5691   1.701   5.972   0.305
 1598SOL     OW 5692   0.636   3.891   5.967
 1598SOL    HW1 5693   0.682   3.967   5.922
 1598SOL    HW2 5694   0.690   3.860   6.045
 1599SOL     OW 5695   4.862   4.742   5.277
 1599SOL    HW1 5696   4.950   4.735   5.230
 1599SOL    HW2 5697   4.840   4.654   5.319
 1600SOL     OW 5698   4.299   1.559   3.729
 1600SOL    HW1 5699   4.253   1.477   3.763
 1600SOL    HW2 5700   4.388   1.568   3.774
 1601SOL     OW 5701   0.063   4.656   4.824
 1601SOL    HW1 5702   0.148   4.676   4.776
 1601SOL    HW2 5703   0.082   4.641   4.921
 1602SOL     OW 5704   3.419   5.077   3.380
 1602SOL    HW1 5705   3.373   5.148   3.433
 1602SOL    HW2 5706   3.351   5.018   3.337
 1603SOL     OW 5707   0.804   6.321   2.877
 1603SOL    HW1 5708   0.897   6.342   2.909
 1603SOL    HW2 5709   0.784   6.374   2.795
 1604SOL     OW 5710   5.341   5.053   1.680
 1604SOL    HW1 5711   5.265   5.071   1.742
 1604SOL    HW2 5712   5.381   5.140   1.650
 1605SOL     OW 5713   6.633   6.042   1.303
 1605SOL    HW1 5714   6.569   6.024   1.378
 1605SOL    HW2 5715   6.720   6.076   1.340
 1606SOL     OW 5716   3.187   0.832   4.812
 1606SOL    HW1 5717   3.144   0.917   4.782
 1606SOL    HW2 5718   3.232   0.846   4.900
 1607SOL     OW 5719   4.219   0.950   1.185
 1607SOL    HW1 5720   4.277   1.012   1.238
 1607SOL    HW2 5721   4.124   0.961   1.213
 1608SOL     OW 5722   1.003   0.631   3.623
 1608SOL    HW1 5723   1.057   0.664   3.545
 1608SOL    HW2 5724   0.943   0.557   3.593
 1609SOL     OW 5725   3.741   0.124   0.677
 1609SOL    HW1 5726   3.644   0.105   0.692
 1609SOL    HW2 5727   3.776   0.061   0.608
 1610SOL     OW 5728   5.833   4.567   6.988
 1610SOL    HW1 5729   5.810   4.568   6.891
 1610SOL    HW2 5730   5.925   4.530   7.000
 1611SOL     OW 5731   2.142   3.679   1.205
 1611SOL    HW1 5732   2.085   3.678   1.287
 1611SOL    HW2 5733   2.155   3.585   1.172
 1612SOL     OW 5734   2.848   0.346   5.720
 1612SOL    HW1 5735   2.779   0.401   5.766
 1612SOL    HW2 5736   2.807   0.261   5.688
 1613SOL     OW 5737   1.987   5.291   1.688
 1613SOL    HW1 5738   1.951   5.203   1.720
 1613SOL    HW2 5739   2.059   5.274   1.620
 1614SOL     OW 5740   6.056   3.482   0.196
 1614SOL    HW1 5741   5.993   3.477   0.119
 1614SOL    HW2 5742   6.044   3.403   0.255
 1615SOL     OW 5743   6.043   5.023   0.995
 1615SOL    HW1 5744   5.950   4.988   1.000
 1615SOL    HW2 5745   6.093   4.976   0.922
 1616SOL     OW 5746   2.959   0.987   4.960
 1616SOL    HW1 5747   3.031   1.047   4.924
 1616SOL    HW2 5748   2.919   1.029   5.041
 1617SOL     OW 5749   6.102   0.092   2.613
 1617SOL    HW1 5750   6.079   0.026   2.684
 1617SOL    HW2 5751   6.076   0.184   2.644
 1618SOL     OW 5752   1.747   4.231   2.097
 1618SOL    HW1 5753   1.648   4.243   2.102
 1618SOL    HW2 5754   1.768   4.156   2.035
 1619SOL     OW 5755   1.450   3.281   2.179
 1619SOL    HW1 5756   1.467   3.194   2.134
 1619SOL    HW2 5757   1.467   3.272   2.277
 1620SOL     OW 5758   2.731   4.823   1.858
 1620SOL    HW1 5759   2.796   4.833   1.783
 1620SOL    HW2 5760   2.769   4.761   1.927
 1621SOL     OW 5761   0.089   1.059   0.181
 1621SOL    HW1 5762   0.143   1.099   0.255
 1621SOL    HW2 5763   0.146   0.994   0.130
 1622SOL     OW 5764   0.066   2.839   4.940
 1622SOL    HW1 5765   0.127   2.867   5.014
 1622SOL    HW2 5766   0.116   2.781   4.876
 1623SOL     OW 5767   2.055   3.138   5.195
 1623SOL    HW1 5768   2.026   3.043   5.207
 1623SOL    HW2 5769   2.060   3.158   5.097
 1624SOL     OW 5770   2.825   0.432   4.889
 1624SOL    HW1 5771   2.804   0.340   4.923
 1624SOL    HW2 5772   2.748   0.465   4.835
 1625SOL     OW 5773   0.811   5.504   1.155
 1625SOL    HW1 5774   0.895   5.500   1.102
 1625SOL    HW2 5775   0.816   5.441   1.232
 1626SOL     OW 5776   4.238   1.829   6.827
 1626SOL    HW1 5777   4.152   1.880   6.817
 1626SOL    HW2 5778   4.315   1.892   6.820
 1627SOL     OW 5779   6.773   4.127   3.341
 1627SOL    HW1 5780   6.794   4.151   3.246
 1627SOL    HW2 5781   6.703   4.055   3.342
 1628SOL     OW 5782   4.644   4.529   0.257
 1628SOL    HW1 5783   4.717   4.553   0.320
 1628SOL    HW2 5784   4.671   4.550   0.164
 1629SOL     OW 5785   2.816   0.634   3.951
 1629SOL    HW1 5786   2.800   0.726   3.915
 1629SOL    HW2 5787   2.733   0.602   3.998
 1630SOL     OW 5788   1.861   5.174   5.991
 1630SOL    HW1 5789   1.790   5.104   5.998
 1630SOL    HW2 5790   1.828   5.250   5.935
 1631SOL     OW 5791   1.161   2.466   6.668
 1631SOL    HW1 5792   1.098   2.467   6.590
 1631SOL    HW2 5793   1.141   2.544   6.728
 1632SOL     OW 5794   0.282   1.822   6.741
 1632SOL    HW1 5795   0.221   1.899   6.762
 1632SOL    HW2 5796   0.376   1.856   6.729
 1633SOL     OW 5797   5.186   3.344   4.516
 1633SOL    HW1 5798   5.258   3.393   4.564
 1633SOL    HW2 5799   5.212   3.332   4.420
 1634SOL     OW 5800   4.317   5.339   5.583
 1634SOL    HW1 5801   4.335   5.394   5.664
 1634SOL    HW2 5802   4.402   5.318   5.536
 1635SOL     OW 5803   6.990   5.485   5.795
 1635SOL    HW1 5804   6.982   5.573   5.843
 1635SOL    HW2 5805   6.988   5.411   5.862
 1636SOL     OW 5806   3.034   4.364   1.642
 1636SOL    HW1 5807   2.988   4.401   1.723
 1636SOL    HW2 5808   3.017   4.265   1.637
 1637SOL     OW 5809   0.868   0.961   3.012
 1637SOL    HW1 5810   0.931   0.904   3.065
 1637SOL    HW2 5811   0.855   0.920   2.921
 1638SOL     OW 5812   0.704   4.259   3.201
 1638SOL    HW1 5813   0.623   4.314   3.223
 1638SOL    HW2 5814   0.760   4.308   3.134
 1639SOL     OW 5815   5.144   6.993   2.914
 1639SOL    HW1 5816   5.095   0.005   2.994
 1639SOL    HW2 5817   5.179   6.902   2.933
 1640SOL     OW 5818   5.885   1.067   0.651
 1640SOL    HW1 5819   5.888   1.165   0.666
 1640SOL    HW2 5820   5.845   1.048   0.561
 1641SOL     OW 5821   4.858   2.637   3.563
 1641SOL    HW1 5822   4.954   2.608   3.562
 1641SOL    HW2 5823   4.814   2.612   3.476
 1642SOL     OW 5824   5.719   3.515   6.769
 1642SOL    HW1 5825   5.674   3.602   6.790
 1642SOL    HW2 5826   5.651   3.448   6.741
 1643SOL     OW 5827   2.973   4.898   4.410
 1643SOL    HW1 5828   2.932   4.936   4.327
 1643SOL    HW2 5829   2.918   4.821   4.443
 1644SOL     OW 5830   7.011   3.399   0.759
 1644SOL    HW1 5831   0.013   3.304   0.777
 1644SOL    HW2 5832   0.062   3.460   0.787
 1645SOL     OW 5833   3.147   5.776   5.526
 1645SOL    HW1 5834   3.110   5.702   5.582
 1645SOL    HW2 5835   3.245   5.760   5.511
 1646SOL     OW 5836   3.144   5.918   0.448
 1646SOL    HW1 5837   3.062   5.881   0.403
 1646SOL    HW2 5838   3.116   5.972   0.528
 1647SOL     OW 5839   6.024   3.282   4.732
 1647SOL    HW1 5840   5.934   3.239   4.745
 1647SOL    HW2 5841   6.077   3.229   4.666
 1648SOL     OW 5842   5.640   5.229   1.246
 1648SOL    HW1 5843   5.655   5.208   1.150
 1648SOL    HW2 5844   5.569   5.298   1.255
 1649SOL     OW 5845   2.972   0.753   4.202
 1649SOL    HW1 5846   2.909   0.755   4.125
 1649SOL    HW2 5847   3.008   0.845   4.218
 1650SOL     OW 5848   1.932   6.369   5.766
 1650SOL    HW1 5849   2.004   6.427   5.803
 1650SOL    HW2 5850   1.858   6.427   5.730
 1651SOL     OW 5851   0.361   1.802   1.153
 1651SOL    HW1 5852   0.414   1.753   1.223
 1651SOL    HW2 5853   0.400   1.893   1.139
 1652SOL     OW 5854   0.916   3.902   2.541
 1652SOL    HW1 5855   0.966   3.820   2.511
 1652SOL    HW2 5856   0.871   3.883   2.628
 1653SOL     OW 5857   1.588   0.301   1.142
 1653SOL    HW1 5858   1.538   0.232   1.089
 1653SOL    HW2 5859   1.523   0.363   1.186
 1654SOL     OW 5860   6.805   3.497   1.007
 1654SOL    HW1 5861   6.716   3.513   0.964
 1654SOL    HW2 5862   6.871   3.566   0.974
 1655SOL     OW 5863   6.233   2.099   5.186
 1655SOL    HW1 5864   6.193   2.032   5.122
 1655SOL    HW2 5865   6.296   2.053   5.248
 1656SOL     OW 5866   2.340   4.549   1.815
 1656SOL    HW1 5867   2.294   4.527   1.900
 1656SOL    HW2 5868   2.377   4.642   1.820
 1657SOL     OW 5869   6.737   1.178   3.732
 1657SOL    HW1 5870   6.777   1.266   3.707
 1657SOL    HW2 5871   6.657   1.193   3.790
 1658SOL     OW 5872   1.332   0.028   1.504
 1658SOL    HW1 5873   1.240   0.024   1.463
 1658SOL    HW2 5874   1.326   0.075   1.592
 1659SOL     OW 5875   3.755   0.352   5.844
 1659SOL    HW1 5876   3.848   0.339   5.877
 1659SOL    HW2 5877   3.690   0.332   5.917
 1660SOL     OW 5878   1.412   5.324   4.316
 1660SOL    HW1 5879   1.316   5.343   4.338
 1660SOL    HW2 5880   1.425   5.226   4.302
 1661SOL     OW 5881   2.433   0.721   1.853
 1661SOL    HW1 5882   2.337   0.702   1.870
 1661SOL    HW2 5883   2.444   0.760   1.761
 1662SOL     OW 5884   6.644   0.311   4.279
 1662SOL    HW1 5885   6.730   0.272   4.310
 1662SOL    HW2 5886   6.569   0.250   4.302
 1663SOL     OW 5887   3.976   6.478   2.296
 1663SOL    HW1 5888   4.012   6.562   2.258
 1663SOL    HW2 5889   4.018   6.399   2.250
 1664SOL     OW 5890   1.676   6.826   4.653
 1664SOL    HW1 5891   1.587   6.869   4.663
 1664SOL    HW2 5892   1.694   6.768   4.733
 1665SOL     OW 5893   6.924   1.482   2.995
 1665SOL    HW1 5894   6.925   1.579   3.019
 1665SOL    HW2 5895   6.833   1.445   3.015
 1666SOL     OW 5896   5.489   2.759   0.098
 1666SOL    HW1 5897   5.515   2.799   0.011
 1666SOL    HW2 5898   5.500   2.660   0.094
 1667SOL     OW 5899   6.709   6.206   1.693
 1667SOL    HW1 5900   6.694   6.270   1.618
 1667SOL    HW2 5901   6.623   6.190   1.741
 1668SOL     OW 5902   5.298   6.172   5.965
 1668SOL    HW1 5903   5.318   6.166   5.867
 1668SOL    HW2 5904   5.199   6.168   5.980
 1669SOL     OW 5905   0.422   5.864   6.271
 1669SOL    HW1 5906   0.354   5.799   6.304
 1669SOL    HW2 5907   0.497   5.871   6.337
 1670SOL     OW 5908   0.315   3.932   5.887
 1670SOL    HW1 5909   0.386   3.995   5.915
 1670SOL    HW2 5910   0.335   3.840   5.921
 1671SOL     OW 5911   4.860   1.909   1.343
 1671SOL    HW1 5912   4.880   1.967   1.422
 1671SOL    HW2 5913   4.783   1.947   1.292
 1672SOL     OW 5914   1.811   3.037   1.173
 1672SOL    HW1 5915   1.722   3.016   1.134
 1672SOL    HW2 5916   1.811   3.014   1.270
 1673SOL     OW 5917   0.600   2.633   4.522
 1673SOL    HW1 5918   0.582   2.653   4.426
 1673SOL    HW2 5919   0.688   2.587   4.531
 1674SOL     OW 5920   0.282   3.936   2.221
 1674SOL    HW1 5921   0.306   3.908   2.128
 1674SOL    HW2 5922   0.365   3.959   2.272
 1675SOL     OW 5923   4.160   0.232   6.456
 1675SOL    HW1 5924   4.244   0.209   6.407
 1675SOL    HW2 5925   4.095   0.156   6.447
 1676SOL     OW 5926   1.952   2.283   1.917
 1676SOL    HW1 5927   1.995   2.209   1.865
 1676SOL    HW2 5928   2.017   2.317   1.986
 1677SOL     OW 5929   3.021   2.958   5.526
 1677SOL    HW1 5930   2.987   3.017   5.453
 1677SOL    HW2 5931   3.101   2.908   5.495
 1678SOL     OW 5932   4.628   4.376   4.550
 1678SOL    HW1 5933   4.589   4.387   4.641
 1678SOL    HW2 5934   4.575   4.428   4.484
 1679SOL     OW 5935   2.423   2.539   4.486
 1679SOL    HW1 5936   2.495   2.528   4.555
 1679SOL    HW2 5937   2.413   2.636   4.464
 1680SOL     OW 5938   0.074   3.696   4.720
 1680SOL    HW1 5939   0.002   3.765   4.708
 1680SOL    HW2 5940   0.032   3.606   4.735
 1681SOL     OW 5941   6.436   5.896   6.845
 1681SOL    HW1 5942   6.521   5.948   6.843
 1681SOL    HW2 5943   6.374   5.936   6.912
 1682SOL     OW 5944   0.838   1.101   4.734
 1682SOL    HW1 5945   0.858   1.046   4.653
 1682SOL    HW2 5946   0.913   1.165   4.750
 1683SOL     OW 5947   4.579   5.468   1.609
 1683SOL    HW1 5948   4.500   5.521   1.639
 1683SOL    HW2 5949   4.563   5.371   1.623
 1684SOL     OW 5950   1.434   6.164   2.869
 1684SOL    HW1 5951   1.425   6.095   2.942
 1684SOL    HW2 5952   1.517   6.146   2.817
 1685SOL     OW 5953   2.120   0.573   5.606
 1685SOL    HW1 5954   2.060   0.498   5.635
 1685SOL    HW2 5955   2.204   0.535   5.567
 1686SOL     OW 5956   2.635   5.322   4.836
 1686SOL    HW1 5957   2.554   5.304   4.781
 1686SOL    HW2 5958   2.677   5.408   4.806
 1687SOL     OW 5959   2.435   3.609   1.416
 1687SOL    HW1 5960   2.440   3.623   1.515
 1687SOL    HW2 5961   2.346   3.570   1.392
 1688SOL     OW 5962   1.990   2.261   4.483
 1688SOL    HW1 5963   2.060   2.324   4.516
 1688SOL    HW2 5964   2.000   2.172   4.529
 1689SOL     OW 5965   5.745   1.411   2.361
 1689SOL    HW1 5966   5.682   1.335   2.341
 1689SOL    HW2 5967   5.810   1.382   2.432
 1690SOL     OW 5968   1.492   2.930   3.994
 1690SOL    HW1 5969   1.426   2.937   4.068
 1690SOL    HW2 5970   1.476   3.002   3.927
 1691SOL     OW 5971   6.101   3.692   2.872
 1691SOL    HW1 5972   6.147   3.682   2.960
 1691SOL    HW2 5973   6.095   3.789   2.848
 1692SOL     OW 5974   5.874   6.889   1.580
 1692SOL    HW1 5975   5.848   6.792   1.573
 1692SOL    HW2 5976   5.857   6.934   1.492
 1693SOL     OW 5977   0.575   2.458   1.613
 1693SOL    HW1 5978   0.541   2.420   1.527
 1693SOL    HW2 5979   0.614   2.385   1.669
 1694SOL     OW 5980   5.282   0.546   3.163
 1694SOL    HW1 5981   5.355   0.573   3.225
 1694SOL    HW2 5982   5.297   0.451   3.133
 1695SOL     OW 5983   3.206   1.728   6.140
 1695SOL    HW1 5984   3.284   1.733   6.202
 1695SOL    HW2 5985   3.200   1.812   6.086
 1696SOL     OW 5986   4.746   4.441   1.089
 1696SOL    HW1 5987   4.840   4.476   1.096
 1696SOL    HW2 5988   4.741   4.373   1.017
 1697SOL     OW 5989   6.005   6.380   1.309
 1697SOL    HW1 5990   6.099   6.392   1.342
 1697SOL    HW2 5991   6.007   6.370   1.209
 1698SOL     OW 5992   4.420   0.729   6.976
 1698SOL    HW1 5993   4.420   0.746   6.877
 1698SOL    HW2 5994   4.329   0.702   7.005
 1699SOL     OW 5995   2.465   0.979   0.659
 1699SOL    HW1 5996   2.390   0.916   0.682
 1699SOL    HW2 5997   2.434   1.073   0.671
 1700SOL     OW 5998   5.595   2.107   3.063
 1700SOL    HW1 5999   5.603   2.022   3.011
 1700SOL    HW2 6000   5.664   2.109   3.135
 1701SOL     OW 6001   5.230   4.234   6.160
 1701SOL    HW1 6002   5.326   4.257   6.148
 1701SOL    HW2 6003   5.201   4.169   6.090
 1702SOL     OW 6004   6.938   2.613   0.082
 1702SOL    HW1 6005   6.862   2.551   0.063
 1702SOL    HW2 6006   0.000   2.563   0.084
 1703SOL     OW 6007   3.326   2.848   2.062
 1703SOL    HW1 6008   3.312   2.777   1.993
 1703SOL    HW2 6009   3.240   2.897   2.077
 1704SOL     OW 6010   1.226   2.226   1.200
 1704SOL    HW1 6011   1.250   2.236   1.103
 1704SOL    HW2 6012   1.127   2.228   1.211
 1705SOL     OW 6013   3.568   1.891   1.523
 1705SOL    HW1 6014   3.488   1.950   1.512
 1705SOL    HW2 6015   3.604   1.901   1.616
 1706SOL     OW 6016   5.139   1.299   1.856
 1706SOL    HW1 6017   5.232   1.266   1.871
 1706SOL    HW2 6018   5.117   1.294   1.759
 1707SOL     OW 6019   5.564   1.939   2.471
 1707SOL    HW1 6020   5.581   1.932   2.372
 1707SOL    HW2 6021   5.536   2.032   2.493
 1708SOL     OW 6022   5.102   5.519   2.420
 1708SOL    HW1 6023   5.065   5.446   2.478
 1708SOL    HW2 6024   5.187   5.489   2.378
 1709SOL     OW 6025   3.121   5.528   1.665
 1709SOL    HW1 6026   3.202   5.562   1.714
 1709SOL    HW2 6027   3.104   5.586   1.586
 1710SOL     OW 6028   5.176   5.556   3.847
 1710SOL    HW1 6029   5.268   5.585   3.876
 1710SOL    HW2 6030   5.177   5.459   3.826
 1711SOL     OW 6031   0.362   4.675   4.431
 1711SOL    HW1 6032   0.333   4.580   4.426
 1711SOL    HW2 6033   0.462   4.681   4.420
 1712SOL     OW 6034   0.029   3.103   5.733
 1712SOL    HW1 6035   6.967   3.069   5.695
 1712SOL    HW2 6036   0.010   3.159   5.813
 1713SOL     OW 6037   4.417   2.214   2.155
 1713SOL    HW1 6038   4.426   2.281   2.229
 1713SOL    HW2 6039   4.465   2.248   2.074
 1714SOL     OW 6040   3.601   2.083   5.497
 1714SOL    HW1 6041   3.541   2.015   5.454
 1714SOL    HW2 6042   3.548   2.137   5.563
 1715SOL     OW 6043   0.099   4.661   2.918
 1715SOL    HW1 6044   0.085   4.702   2.828
 1715SOL    HW2 6045   0.043   4.709   2.985
 1716SOL     OW 6046   4.442   6.621   3.062
 1716SOL    HW1 6047   4.441   6.630   2.963
 1716SOL    HW2 6048   4.534   6.644   3.096
 1717SOL     OW 6049   2.682   6.252   6.060
 1717SOL    HW1 6050   2.697   6.345   6.027
 1717SOL    HW2 6051   2.708   6.186   5.989
 1718SOL     OW 6052   2.384   2.216   1.310
 1718SOL    HW1 6053   2.415   2.307   1.283
 1718SOL    HW2 6054   2.343   2.170   1.231
 1719SOL     OW 6055   1.749   3.658   0.825
 1719SOL    HW1 6056   1.722   3.606   0.744
 1719SOL    HW2 6057   1.782   3.595   0.895
 1720SOL     OW 6058   0.590   2.617   0.075
 1720SOL    HW1 6059   0.530   2.539   0.095
 1720SOL    HW2 6060   0.662   2.622   0.144
 1721SOL     OW 6061   1.510   6.432   1.518
 1721SOL    HW1 6062   1.571   6.502   1.481
 1721SOL    HW2 6063   1.490   6.364   1.447
 1722SOL     OW 6064   4.115   2.269   4.443
 1722SOL    HW1 6065   4.079   2.226   4.360
 1722SOL    HW2 6066   4.048   2.332   4.480
 1723SOL     OW 6067   6.642   2.724   2.544
 1723SOL    HW1 6068   6.548   2.756   2.539
 1723SOL    HW2 6069   6.643   2.626   2.563
 1724SOL     OW 6070   6.618   2.310   0.662
 1724SOL    HW1 6071   6.610   2.217   0.626
 1724SOL    HW2 6072   6.542   2.327   0.725
 1725SOL     OW 6073   2.267   4.864   6.950
 1725SOL    HW1 6074   2.226   4.945   6.908
 1725SOL    HW2 6075   2.366   4.867   6.937
 1726SOL     OW 6076   5.139   4.359   5.703
 1726SOL    HW1 6077   5.122   4.261   5.688
 1726SOL    HW2 6078   5.233   4.381   5.677
 1727SOL     OW 6079   3.919   3.341   4.246
 1727SOL    HW1 6080   3.988   3.390   4.298
 1727SOL    HW2 6081   3.853   3.300   4.309
 1728SOL     OW 6082   4.749   4.902   5.499
 1728SOL    HW1 6083   4.784   4.862   5.584
 1728SOL    HW2 6084   4.783   4.849   5.421
 1729SOL     OW 6085   2.205   3.898   2.683
 1729SOL    HW1 6086   2.289   3.873   2.731
 1729SOL    HW2 6087   2.225   3.912   2.586
 1730SOL     OW 6088   1.289   7.005   5.916
 1730SOL    HW1 6089   1.207   0.025   5.953
 1730SOL    HW2 6090   1.265   6.956   5.832
 1731SOL     OW 6091   0.190   4.217   2.203
 1731SOL    HW1 6092   0.224   4.124   2.209
 1731SOL    HW2 6093   0.128   4.235   2.280
 1732SOL     OW 6094   2.560   4.869   5.439
 1732SOL    HW1 6095   2.640   4.829   5.394
 1732SOL    HW2 6096   2.479   4.855   5.382
 1733SOL     OW 6097   1.736   3.965   1.965
 1733SOL    HW1 6098   1.796   3.962   1.885
 1733SOL    HW2 6099   1.645   3.996   1.937
 1734SOL     OW 6100   4.685   3.199   1.382
 1734SOL    HW1 6101   4.628   3.142   1.441
 1734SOL    HW2 6102   4.781   3.189   1.409
 1735SOL     OW 6103   5.215   6.005   0.936
 1735SOL    HW1 6104   5.307   5.978   0.964
 1735SOL    HW2 6105   5.200   5.978   0.841
 1736SOL     OW 6106   3.796   2.952   0.964
 1736SOL    HW1 6107   3.814   3.050   0.962
 1736SOL    HW2 6108   3.700   2.935   0.985
 1737SOL     OW 6109   2.096   1.538   4.166
 1737SOL    HW1 6110   2.157   1.588   4.228
 1737SOL    HW2 6111   2.121   1.559   4.071
 1738SOL     OW 6112   2.154   2.400   3.809
 1738SOL    HW1 6113   2.178   2.435   3.899
 1738SOL    HW2 6114   2.214   2.324   3.785
 1739SOL     OW 6115   6.633   2.513   5.239
 1739SOL    HW1 6116   6.563   2.498   5.169
 1739SOL    HW2 6117   6.692   2.433   5.246
 1740SOL     OW 6118   6.243   1.949   5.748
 1740SOL    HW1 6119   6.333   1.985   5.772
 1740SOL    HW2 6120   6.211   1.991   5.664
 1741SOL     OW 6121   1.965   0.814   4.122
 1741SOL    HW1 6122   1.941   0.865   4.040
 1741SOL    HW2 6123   1.886   0.763   4.155
 1742SOL     OW 6124   5.366   0.962   6.276
 1742SOL    HW1 6125   5.400   1.055   6.260
 1742SOL    HW2 6126   5.439   0.897   6.257
 1743SOL     OW 6127   1.160   2.723   1.664
 1743SOL    HW1 6128   1.147   2.659   1.740
 1743SOL    HW2 6129   1.072   2.765   1.641
 1744SOL     OW 6130   0.501   1.890   2.577
 1744SOL    HW1 6131   0.483   1.957   2.505
 1744SOL    HW2 6132   0.500   1.798   2.538
 1745SOL     OW 6133   6.320   6.483   3.194
 1745SOL    HW1 6134   6.359   6.501   3.104
 1745SOL    HW2 6135   6.303   6.385   3.205
 1746SOL     OW 6136   1.968   5.334   4.726
 1746SOL    HW1 6137   2.007   5.361   4.637
 1746SOL    HW2 6138   1.869   5.327   4.717
 1747SOL     OW 6139   5.820   1.975   2.909
 1747SOL    HW1 6140   5.883   2.046   2.876
 1747SOL    HW2 6141   5.869   1.888   2.916
 1748SOL     OW 6142   0.986   0.576   4.390
 1748SOL    HW1 6143   0.962   0.644   4.460
 1748SOL    HW2 6144   1.061   0.520   4.424
 1749SOL     OW 6145   2.788   6.871   4.374
 1749SOL    HW1 6146   2.789   6.970   4.385
 1749SOL    HW2 6147   2.786   6.848   4.277
 1750SOL     OW 6148   5.629   6.978   3.836
 1750SOL    HW1 6149   5.643   6.954   3.932
 1750SOL    HW2 6150   5.609   0.052   3.828
 1751SOL     OW 6151   4.138   6.075   5.383
 1751SOL    HW1 6152   4.099   6.011   5.450
 1751SOL    HW2 6153   4.192   6.024   5.316
 1752SOL     OW 6154   6.820   2.166   1.557
 1752SOL    HW1 6155   6.817   2.254   1.604
 1752SOL    HW2 6156   6.728   2.128   1.552
 1753SOL     OW 6157   0.287   1.254   0.639
 1753SOL    HW1 6158   0.316   1.216   0.551
 1753SOL    HW2 6159   0.187   1.254   0.643
 1754SOL     OW 6160   2.005   4.156   1.102
 1754SOL    HW1 6161   1.988   4.227   1.034
 1754SOL    HW2 6162   1.944   4.168   1.180
 1755SOL     OW 6163   6.503   6.206   2.034
 1755SOL    HW1 6164   6.418   6.214   1.982
 1755SOL    HW2 6165   6.496   6.129   2.097
 1756SOL     OW 6166   4.403   5.379   6.455
 1756SOL    HW1 6167   4.361   5.417   6.537
 1756SOL    HW2 6168   4.450   5.451   6.405
 1757SOL     OW 6169   2.430   5.402   4.592
 1757SOL    HW1 6170   2.357   5.408   4.523
 1757SOL    HW2 6171   2.492   5.480   4.582
 1758SOL     OW 6172   1.793   0.548   4.011
 1758SOL    HW1 6173   1.815   0.538   3.914
 1758SOL    HW2 6174   1.696   0.568   4.022
 1759SOL     OW 6175   2.058   5.294   6.500
 1759SOL    HW1 6176   2.153   5.324   6.509
 1759SOL    HW2 6177   2.054   5.196   6.484
 1760SOL     OW 6178   6.259   1.927   2.994
 1760SOL    HW1 6179   6.194   2.004   2.993
 1760SOL    HW2 6180   6.213   1.845   2.960
 1761SOL     OW 6181   0.455   0.321   0.445
 1761SOL    HW1 6182   0.413   0.241   0.402
 1761SOL    HW2 6183   0.542   0.342   0.399
 1762SOL     OW 6184   0.380   1.684   5.065
 1762SOL    HW1 6185   0.330   1.602   5.095
 1762SOL    HW2 6186   0.357   1.760   5.126
 1763SOL     OW 6187   1.330   3.653   3.853
 1763SOL    HW1 6188   1.242   3.641   3.807
 1763SOL    HW2 6189   1.380   3.567   3.853
 1764SOL     OW 6190   2.033   3.609   2.518
 1764SOL    HW1 6191   2.109   3.570   2.467
 1764SOL    HW2 6192   2.037   3.578   2.613
 1765SOL     OW 6193   3.699   1.280   1.077
 1765SOL    HW1 6194   3.790   1.302   1.112
 1765SOL    HW2 6195   3.638   1.358   1.091
 1766SOL     OW 6196   4.995   3.369   2.759
 1766SOL    HW1 6197   4.937   3.381   2.840
 1766SOL    HW2 6198   5.033   3.457   2.732
 1767SOL     OW 6199   0.257   3.281   3.307
 1767SOL    HW1 6200   0.324   3.340   3.350
 1767SOL    HW2 6201   0.232   3.318   3.218
 1768SOL     OW 6202   4.302   1.405   5.698
 1768SOL    HW1 6203   4.344   1.465   5.630
 1768SOL    HW2 6204   4.322   1.310   5.677
 1769SOL     OW 6205   4.227   2.685   5.646
 1769SOL    HW1 6206   4.221   2.698   5.548
 1769SOL    HW2 6207   4.167   2.750   5.693
 1770SOL     OW 6208   6.601   5.142   4.810
 1770SOL    HW1 6209   6.693   5.160   4.845
 1770SOL    HW2 6210   6.586   5.195   4.727
 1771SOL     OW 6211   2.462   4.699   0.102
 1771SOL    HW1 6212   2.490   4.701   0.006
 1771SOL    HW2 6213   2.459   4.792   0.139
 1772SOL     OW 6214   3.516   6.634   3.331
 1772SOL    HW1 6215   3.603   6.684   3.330
 1772SOL    HW2 6216   3.446   6.687   3.284
 1773SOL     OW 6217   3.097   4.048   6.407
 1773SOL    HW1 6218   3.177   4.015   6.457
 1773SOL    HW2 6219   3.124   4.075   6.315
 1774SOL     OW 6220   4.212   0.403   1.530
 1774SOL    HW1 6221   4.158   0.339   1.476
 1774SOL    HW2 6222   4.273   0.454   1.470
 1775SOL     OW 6223   1.364   5.250   4.048
 1775SOL    HW1 6224   1.402   5.326   4.101
 1775SOL    HW2 6225   1.392   5.164   4.090
 1776SOL     OW 6226   3.787   0.767   5.760
 1776SOL    HW1 6227   3.878   0.732   5.780
 1776SOL    HW2 6228   3.723   0.690   5.751
 1777SOL     OW 6229   3.179   5.441   5.385
 1777SOL    HW1 6230   3.080   5.458   5.393
 1777SOL    HW2 6231   3.219   5.436   5.476
 1778SOL     OW 6232   4.478   2.220   4.578
 1778SOL    HW1 6233   4.422   2.255   4.652
 1778SOL    HW2 6234   4.494   2.292   4.510
 1779SOL     OW 6235   4.510   2.005   3.978
 1779SOL    HW1 6236   4.493   2.031   4.073
 1779SOL    HW2 6237   4.435   2.038   3.921
 1780SOL     OW 6238   2.325   4.824   5.822
 1780SOL    HW1 6239   2.383   4.871   5.756
 1780SOL    HW2 6240   2.354   4.848   5.915
 1781SOL     OW 6241   4.350   5.437   3.534
 1781SOL    HW1 6242   4.372   5.340   3.549
 1781SOL    HW2 6243   4.422   5.494   3.573
 1782SOL     OW 6244   3.000   1.632   2.941
 1782SOL    HW1 6245   3.021   1.698   2.869
 1782SOL    HW2 6246   3.085   1.598   2.981
 1783SOL     OW 6247   1.670   3.204   6.914
 1783SOL    HW1 6248   1.760   3.229   6.948
 1783SOL    HW2 6249   1.665   3.105   6.901
 1784SOL     OW 6250   2.611   0.654   3.579
 1784SOL    HW1 6251   2.613   0.565   3.626
 1784SOL    HW2 6252   2.651   0.644   3.488
 1785SOL     OW 6253   4.959   5.955   3.907
 1785SOL    HW1 6254   4.985   5.935   4.001
 1785SOL    HW2 6255   5.040   5.947   3.848
 1786SOL     OW 6256   1.762   2.948   0.826
 1786SOL    HW1 6257   1.713   2.986   0.748
 1786SOL    HW2 6258   1.714   2.971   0.911
 1787SOL     OW 6259   2.141   1.397   4.441
 1787SOL    HW1 6260   2.156   1.495   4.453
 1787SOL    HW2 6261   2.108   1.379   4.349
 1788SOL     OW 6262   2.844   3.319   0.286
 1788SOL    HW1 6263   2.934   3.298   0.247
 1788SOL    HW2 6264   2.795   3.234   0.305
 1789SOL     OW 6265   6.704   2.169   2.318
 1789SOL    HW1 6266   6.681   2.077   2.285
 1789SOL    HW2 6267   6.773   2.162   2.390
 1790SOL     OW 6268   4.075   5.870   4.348
 1790SOL    HW1 6269   4.149   5.914   4.297
 1790SOL    HW2 6270   4.089   5.885   4.446
 1791SOL     OW 6271   0.040   2.385   4.867
 1791SOL    HW1 6272   0.063   2.293   4.834
 1791SOL    HW2 6273   6.972   2.410   4.835
 1792SOL     OW 6274   0.936   2.159   4.212
 1792SOL    HW1 6275   0.987   2.109   4.142
 1792SOL    HW2 6276   0.898   2.243   4.173
 1793SOL     OW 6277   6.769   0.127   3.256
 1793SOL    HW1 6278   6.807   0.219   3.247
 1793SOL    HW2 6279   6.670   0.129   3.240
 1794SOL     OW 6280   5.023   6.200   6.335
 1794SOL    HW1 6281   5.050   6.104   6.347
 1794SOL    HW2 6282   4.936   6.216   6.381
 1795SOL     OW 6283   0.275   4.438   2.555
 1795SOL    HW1 6284   0.347   4.370   2.544
 1795SOL    HW2 6285   0.277   4.475   2.647
 1796SOL     OW 6286   1.832   1.361   4.715
 1796SOL    HW1 6287   1.778   1.384   4.795
 1796SOL    HW2 6288   1.869   1.268   4.725
 1797SOL     OW 6289   1.539   0.854   6.088
 1797SOL    HW1 6290   1.517   0.757   6.097
 1797SOL    HW2 6291   1.637   0.865   6.075
 1798SOL     OW 6292   4.429   2.594   5.256
 1798SOL    HW1 6293   4.441   2.611   5.158
 1798SOL    HW2 6294   4.346   2.641   5.288
 1799SOL     OW 6295   6.368   2.092   6.573
 1799SOL    HW1 6296   6.360   2.040   6.488
 1799SOL    HW2 6297   6.464   2.098   6.600
 1800SOL     OW 6298   4.626   4.994   3.797
 1800SOL    HW1 6299   4.618   5.074   3.856
 1800SOL    HW2 6300   4.723   4.977   3.777
 1801SOL     OW 6301   0.964   1.819   2.001
 1801SOL    HW1 6302   1.037   1.888   1.993
 1801SOL    HW2 6303   0.924   1.803   1.911
 1802SOL     OW 6304   5.592   5.172   2.940
 1802SOL    HW1 6305   5.577   5.114   3.020
 1802SOL    HW2 6306   5.625   5.262   2.969
 1803SOL     OW 6307   6.655   5.913   0.449
 1803SOL    HW1 6308   6.615   5.959   0.369
 1803SOL    HW2 6309   6.755   5.925   0.447
 1804SOL     OW 6310   2.711   3.073   6.060
 1804SOL    HW1 6311   2.693   3.141   6.131
 1804SOL    HW2 6312   2.717   3.119   5.971
 1805SOL     OW 6313   0.644   4.272   5.796
 1805SOL    HW1 6314   0.716   4.208   5.767
 1805SOL    HW2 6315   0.686   4.352   5.838
 1806SOL     OW 6316   1.698   0.916   1.419
 1806SOL    HW1 6317   1.744   1.005   1.415
 1806SOL    HW2 6318   1.706   0.878   1.511
 1807SOL     OW 6319   5.524   2.847   6.444
 1807SOL    HW1 6320   5.476   2.798   6.517
 1807SOL    HW2 6321   5.461   2.913   6.403
 1808SOL     OW 6322   6.570   4.111   4.774
 1808SOL    HW1 6323   6.565   4.056   4.690
 1808SOL    HW2 6324   6.612   4.056   4.846
 1809SOL     OW 6325   2.284   2.920   4.706
 1809SOL    HW1 6326   2.317   3.002   4.752
 1809SOL    HW2 6327   2.200   2.888   4.750
 1810SOL     OW 6328   2.664   0.177   5.607
 1810SOL    HW1 6329   2.580   0.190   5.660
 1810SOL    HW2 6330   2.645   0.195   5.511
 1811SOL     OW 6331   4.124   4.842   3.388
 1811SOL    HW1 6332   4.141   4.817   3.483
 1811SOL    HW2 6333   4.171   4.777   3.328
 1812SOL     OW 6334   4.670   0.277   6.009
 1812SOL    HW1 6335   4.592   0.214   6.011
 1812SOL    HW2 6336   4.650   0.356   6.068
 1813SOL     OW 6337   4.366   4.946   1.665
 1813SOL    HW1 6338   4.399   4.958   1.572
 1813SOL    HW2 6339   4.443   4.950   1.729
 1814SOL     OW 6340   0.005   0.528   6.892
 1814SOL    HW1 6341   0.090   0.492   6.855
 1814SOL    HW2 6342   0.022   0.570   6.981
 1815SOL     OW 6343   6.605   1.888   1.888
 1815SOL    HW1 6344   6.618   1.837   1.802
 1815SOL    HW2 6345   6.691   1.890   1.938
 1816SOL     OW 6346   1.625   4.355   0.712
 1816SOL    HW1 6347   1.674   4.402   0.638
 1816SOL    HW2 6348   1.685   4.285   0.752
 1817SOL     OW 6349   3.798   6.438   3.010
 1817SOL    HW1 6350   3.850   6.355   3.029
 1817SOL    HW2 6351   3.703   6.425   3.038
 1818SOL     OW 6352   2.492   5.716   1.790
 1818SOL    HW1 6353   2.406   5.725   1.740
 1818SOL    HW2 6354   2.476   5.730   1.887
 1819SOL     OW 6355   1.136   5.583   1.531
 1819SOL    HW1 6356   1.162   5.573   1.435
 1819SOL    HW2 6357   1.192   5.654   1.574
 1820SOL     OW 6358   2.579   0.508   2.293
 1820SOL    HW1 6359   2.652   0.479   2.355
 1820SOL    HW2 6360   2.537   0.427   2.251
 1821SOL     OW 6361   2.451   0.441   1.752
 1821SOL    HW1 6362   2.363   0.417   1.709
 1821SOL    HW2 6363   2.453   0.539   1.771
 1822SOL     OW 6364   1.520   3.487   0.970
 1822SOL    HW1 6365   1.591   3.441   1.022
 1822SOL    HW2 6366   1.437   3.431   0.970
 1823SOL     OW 6367   2.981   5.565   2.882
 1823SOL    HW1 6368   2.959   5.644   2.939
 1823SOL    HW2 6369   3.079   5.566   2.860
 1824SOL     OW 6370   3.374   3.493   1.063
 1824SOL    HW1 6371   3.419   3.426   1.003
 1824SOL    HW2 6372   3.367   3.454   1.155
 1825SOL     OW 6373   1.501   2.254   4.738
 1825SOL    HW1 6374   1.458   2.343   4.728
 1825SOL    HW2 6375   1.486   2.200   4.655
 1826SOL     OW 6376   3.274   1.113   1.721
 1826SOL    HW1 6377   3.187   1.064   1.723
 1826SOL    HW2 6378   3.349   1.051   1.746
 1827SOL     OW 6379   0.038   6.002   1.511
 1827SOL    HW1 6380   0.091   6.066   1.567
 1827SOL    HW2 6381   0.100   5.954   1.449
 1828SOL     OW 6382   1.907   2.470   0.449
 1828SOL    HW1 6383   1.852   2.411   0.389
 1828SOL    HW2 6384   1.923   2.557   0.404
 1829SOL     OW 6385   2.601   0.944   3.312
 1829SOL    HW1 6386   2.628   0.850   3.294
 1829SOL    HW2 6387   2.647   0.977   3.394
 1830SOL     OW 6388   5.839   6.170   3.592
 1830SOL    HW1 6389   5.929   6.154   3.552
 1830SOL    HW2 6390   5.849   6.182   3.691
 1831SOL     OW 6391   6.023   0.228   1.758
 1831SOL    HW1 6392   6.023   0.133   1.789
 1831SOL    HW2 6393   5.947   0.277   1.799
 1832SOL     OW 6394   4.352   1.686   1.370
 1832SOL    HW1 6395   4.293   1.675   1.450
 1832SOL    HW2 6396   4.427   1.620   1.374
 1833SOL     OW 6397   5.255   1.002   0.558
 1833SOL    HW1 6398   5.178   1.024   0.498
 1833SOL    HW2 6399   5.327   0.958   0.505
 1834SOL     OW 6400   2.575   3.372   0.852
 1834SOL    HW1 6401   2.612   3.365   0.759
 1834SOL    HW2 6402   2.506   3.301   0.866
 1835SOL     OW 6403   0.067   4.906   2.174
 1835SOL    HW1 6404   0.144   4.945   2.123
 1835SOL    HW2 6405   0.004   4.979   2.200
 1836SOL     OW 6406   5.100   1.776   1.587
 1836SOL    HW1 6407   5.088   1.681   1.614
 1836SOL    HW2 6408   5.130   1.780   1.491
 1837SOL     OW 6409   0.951   7.001   4.761
 1837SOL    HW1 6410   0.902   0.045   4.816
 1837SOL    HW2 6411   0.889   6.960   4.695
 1838SOL     OW 6412   6.565   1.533   5.029
 1838SOL    HW1 6413   6.538   1.597   5.100
 1838SOL    HW2 6414   6.506   1.544   4.949
 1839SOL     OW 6415   6.458   1.863   4.987
 1839SOL    HW1 6416   6.489   1.805   4.911
 1839SOL    HW2 6417   6.536   1.887   5.044
 1840SOL     OW 6418   4.025   0.078   1.195
 1840SOL    HW1 6419   4.005   0.146   1.124
 1840SOL    HW2 6420   3.942   0.028   1.218
 1841SOL     OW 6421   1.715   1.445   3.344
 1841SOL    HW1 6422   1.739   1.502   3.423
 1841SOL    HW2 6423   1.781   1.370   3.336
 1842SOL     OW 6424   1.541   5.866   0.265
 1842SOL    HW1 6425   1.503   5.924   0.337
 1842SOL    HW2 6426   1.507   5.773   0.276
 1843SOL     OW 6427   6.305   2.193   3.404
 1843SOL    HW1 6428   6.338   2.158   3.492
 1843SOL    HW2 6429   6.206   2.182   3.399
 1844SOL     OW 6430   3.118   6.728   5.070
 1844SOL    HW1 6431   3.173   6.743   5.152
 1844SOL    HW2 6432   3.029   6.692   5.097
 1845SOL     OW 6433   3.065   7.006   4.055
 1845SOL    HW1 6434   2.994   7.023   3.987
 1845SOL    HW2 6435   3.149   0.031   4.029
 1846SOL     OW 6436   3.542   1.683   1.757
 1846SOL    HW1 6437   3.467   1.661   1.694
 1846SOL    HW2 6438   3.509   1.745   1.828
 1847SOL     OW 6439   1.502   0.745   6.676
 1847SOL    HW1 6440   1.573   0.766   6.743
 1847SOL    HW2 6441   1.430   0.814   6.682
 1848SOL     OW 6442   1.693   6.098   3.942
 1848SOL    HW1 6443   1.695   6.020   3.879
 1848SOL    HW2 6444   1.774   6.154   3.928
 1849SOL     OW 6445   3.825   2.475   1.445
 1849SOL    HW1 6446   3.905   2.430   1.406
 1849SOL    HW2 6447   3.768   2.512   1.371
 1850SOL     OW 6448   0.348   2.698   1.897
 1850SOL    HW1 6449   0.417   2.716   1.827
 1850SOL    HW2 6450   0.303   2.610   1.878
 1851SOL     OW 6451   0.219   2.443   0.149
 1851SOL    HW1 6452   0.316   2.421   0.137
 1851SOL    HW2 6453   0.194   2.432   0.245
 1852SOL     OW 6454   6.514   4.425   2.940
 1852SOL    HW1 6455   6.530   4.523   2.954
 1852SOL    HW2 6456   6.490   4.383   3.027
 1853SOL     OW 6457   0.609   2.474   2.849
 1853SOL    HW1 6458   0.550   2.440   2.922
 1853SOL    HW2 6459   0.647   2.562   2.875
 1854SOL     OW 6460   2.438   5.654   3.001
 1854SOL    HW1 6461   2.532   5.625   2.982
 1854SOL    HW2 6462   2.425   5.667   3.099
 1855SOL     OW 6463   5.081   2.900   5.136
 1855SOL    HW1 6464   5.176   2.883   5.110
 1855SOL    HW2 6465   5.057   2.995   5.114
 1856SOL     OW 6466   6.115   4.251   5.815
 1856SOL    HW1 6467   6.162   4.199   5.744
 1856SOL    HW2 6468   6.111   4.197   5.899
 1857SOL     OW 6469   4.582   1.932   5.996
 1857SOL    HW1 6470   4.512   1.884   5.943
 1857SOL    HW2 6471   4.645   1.866   6.037
 1858SOL     OW 6472   5.800   4.182   3.855
 1858SOL    HW1 6473   5.829   4.139   3.769
 1858SOL    HW2 6474   5.780   4.111   3.923
 1859SOL     OW 6475   5.582   2.430   3.945
 1859SOL    HW1 6476   5.490   2.459   3.917
 1859SOL    HW2 6477   5.609   2.482   4.026
 1860SOL     OW 6478   0.095   0.738   5.437
 1860SOL    HW1 6479   0.039   0.716   5.356
 1860SOL    HW2 6480   0.191   0.746   5.410
 1861SOL     OW 6481   6.240   6.913   1.727
 1861SOL    HW1 6482   6.160   6.948   1.777
 1861SOL    HW2 6483   6.285   6.842   1.782
 1862SOL     OW 6484   3.653   6.943   6.210
 1862SOL    HW1 6485   3.593   6.981   6.140
 1862SOL    HW2 6486   3.748   6.964   6.188
 1863SOL     OW 6487   0.743   2.891   4.092
 1863SOL    HW1 6488   0.789   2.974   4.123
 1863SOL    HW2 6489   0.725   2.897   3.994
 1864SOL     OW 6490   1.666   6.895   5.090
 1864SOL    HW1 6491   1.576   6.938   5.088
 1864SOL    HW2 6492   1.686   6.862   5.182
 1865SOL     OW 6493   3.716   6.703   7.015
 1865SOL    HW1 6494   3.657   6.623   7.023
 1865SOL    HW2 6495   3.693   6.753   6.931
 1866SOL     OW 6496   5.433   5.018   3.447
 1866SOL    HW1 6497   5.401   4.971   3.529
 1866SOL    HW2 6498   5.527   4.991   3.428
 1867SOL     OW 6499   0.798   4.098   6.817
 1867SOL    HW1 6500   0.834   4.163   6.749
 1867SOL    HW2 6501   0.802   4.005   6.780
 1868SOL     OW 6502   4.872   2.983   6.002
 1868SOL    HW1 6503   4.866   2.918   6.078
 1868SOL    HW2 6504   4.810   3.060   6.020
 1869SOL     OW 6505   6.041   3.456   5.652
 1869SOL    HW1 6506   6.025   3.363   5.685
 1869SOL    HW2 6507   6.078   3.452   5.559
 1870SOL     OW 6508   1.658   2.500   4.929
 1870SOL    HW1 6509   1.735   2.454   4.886
 1870SOL    HW2 6510   1.691   2.566   4.997
 1871SOL     OW 6511   0.615   0.430   6.915
 1871SOL    HW1 6512   0.599   0.424   6.817
 1871SOL    HW2 6513   0.575   0.350   6.960
 1872SOL     OW 6514   4.106   1.554   6.778
 1872SOL    HW1 6515   4.142   1.641   6.812
 1872SOL    HW2 6516   4.181   1.495   6.749
 1873SOL     OW 6517   5.323   1.243   5.925
 1873SOL    HW1 6518   5.362   1.326   5.963
 1873SOL    HW2 6519   5.357   1.229   5.832
 1874SOL     OW 6520   2.760   0.942   0.666
 1874SOL    HW1 6521   2.790   0.950   0.761
 1874SOL    HW2 6522   2.660   0.948   0.662
 1875SOL     OW 6523   0.441   0.489   0.176
 1875SOL    HW1 6524   0.387   0.436   0.242
 1875SOL    HW2 6525   0.538   0.481   0.199
 1876SOL     OW 6526   3.368   6.036   6.216
 1876SOL    HW1 6527   3.384   5.937   6.219
 1876SOL    HW2 6528   3.445   6.084   6.257
 1877SOL     OW 6529   0.882   1.561   3.259
 1877SOL    HW1 6530   0.899   1.571   3.161
 1877SOL    HW2 6531   0.856   1.650   3.298
 1878SOL     OW 6532   6.226   3.344   3.945
 1878SOL    HW1 6533   6.286   3.424   3.939
 1878SOL    HW2 6534   6.279   3.262   3.925
 1879SOL     OW 6535   1.767   5.178   3.771
 1879SOL    HW1 6536   1.833   5.249   3.744
 1879SOL    HW2 6537   1.690   5.221   3.818
 1880SOL     OW 6538   6.388   0.604   3.921
 1880SOL    HW1 6539   6.414   0.559   4.006
 1880SOL    HW2 6540   6.465   0.657   3.885
 1881SOL     OW 6541   0.220   3.319   3.027
 1881SOL    HW1 6542   0.216   3.416   3.003
 1881SOL    HW2 6543   0.293   3.275   2.974
 1882SOL     OW 6544   1.103   3.990   0.090
 1882SOL    HW1 6545   1.068   3.898   0.076
 1882SOL    HW2 6546   1.145   3.997   0.181
 1883SOL     OW 6547   1.256   3.064   3.829
 1883SOL    HW1 6548   1.329   3.032   3.768
 1883SOL    HW2 6549   1.227   3.156   3.802
 1884SOL     OW 6550   6.205   2.874   6.749
 1884SOL    HW1 6551   6.145   2.874   6.828
 1884SOL    HW2 6552   6.276   2.944   6.761
 1885SOL     OW 6553   0.919   2.590   5.912
 1885SOL    HW1 6554   0.837   2.636   5.878
 1885SOL    HW2 6555   0.979   2.658   5.956
 1886SOL     OW 6556   2.394   0.361   1.400
 1886SOL    HW1 6557   2.493   0.370   1.385
 1886SOL    HW2 6558   2.348   0.356   1.312
 1887SOL     OW 6559   1.815   5.638   6.206
 1887SOL    HW1 6560   1.824   5.548   6.247
 1887SOL    HW2 6561   1.897   5.659   6.153
 1888SOL     OW 6562   3.059   2.254   6.590
 1888SOL    HW1 6563   3.097   2.174   6.543
 1888SOL    HW2 6564   2.960   2.243   6.598
 1889SOL     OW 6565   5.988   3.425   6.615
 1889SOL    HW1 6566   5.963   3.329   6.597
 1889SOL    HW2 6567   5.906   3.477   6.638
 1890SOL     OW 6568   1.410   5.881   4.437
 1890SOL    HW1 6569   1.388   5.842   4.348
 1890SOL    HW2 6570   1.487   5.832   4.477
 1891SOL     OW 6571   6.048   2.678   3.045
 1891SOL    HW1 6572   6.110   2.723   3.110
 1891SOL    HW2 6573   5.973   2.740   3.023
 1892SOL     OW 6574   3.131   1.143   0.604
 1892SOL    HW1 6575   3.067   1.219   0.599
 1892SOL    HW2 6576   3.225   1.177   0.608
 1893SOL     OW 6577   3.095   2.677   0.466
 1893SOL    HW1 6578   3.011   2.679   0.521
 1893SOL    HW2 6579   3.072   2.650   0.373
 1894SOL     OW 6580   3.963   3.799   3.274
 1894SOL    HW1 6581   3.882   3.849   3.304
 1894SOL    HW2 6582   3.973   3.808   3.175
 1895SOL     OW 6583   6.318   0.864   1.960
 1895SOL    HW1 6584   6.369   0.948   1.978
 1895SOL    HW2 6585   6.356   0.790   2.017
 1896SOL     OW 6586   6.801   0.661   1.396
 1896SOL    HW1 6587   6.733   0.719   1.440
 1896SOL    HW2 6588   6.861   0.621   1.466
 1897SOL     OW 6589   1.109   4.530   2.584
 1897SOL    HW1 6590   1.159   4.612   2.557
 1897SOL    HW2 6591   1.108   4.465   2.508
 1898SOL     OW 6592   3.020   4.871   2.598
 1898SOL    HW1 6593   3.030   4.969   2.579
 1898SOL    HW2 6594   3.001   4.858   2.695
 1899SOL     OW 6595   0.819   1.793   2.251
 1899SOL    HW1 6596   0.727   1.816   2.219
 1899SOL    HW2 6597   0.881   1.787   2.174
 1900SOL     OW 6598   1.448   0.484   6.607
 1900SOL    HW1 6599   1.497   0.465   6.522
 1900SOL    HW2 6600   1.454   0.582   6.628
 1901SOL     OW 6601   2.013   1.906   1.432
 1901SOL    HW1 6602   2.031   1.862   1.520
 1901SOL    HW2 6603   2.090   1.965   1.408
 1902SOL     OW 6604   2.367   2.047   4.795
 1902SOL    HW1 6605   2.458   2.035   4.835
 1902SOL    HW2 6606   2.376   2.054   4.696
 1903SOL     OW 6607   6.448   3.172   3.220
 1903SOL    HW1 6608   6.387   3.244   3.254
 1903SOL    HW2 6609   6.432   3.159   3.122
 1904SOL     OW 6610   5.635   6.567   4.948
 1904SOL    HW1 6611   5.678   6.634   4.887
 1904SOL    HW2 6612   5.704   6.505   4.985
 1905SOL     OW 6613   1.647   0.876   4.257
 1905SOL    HW1 6614   1.690   0.903   4.171
 1905SOL    HW2 6615   1.713   0.827   4.313
 1906SOL     OW 6616   2.325   0.488   5.099
 1906SOL    HW1 6617   2.354   0.421   5.032
 1906SOL    HW2 6618   2.229   0.471   5.125
 1907SOL     OW 6619   3.417   6.585   2.592
 1907SOL    HW1 6620   3.469   6.510   2.551
 1907SOL    HW2 6621   3.320   6.573   2.574
 1908SOL     OW 6622   3.575   0.206   5.130
 1908SOL    HW1 6623   3.522   0.270   5.074
 1908SOL    HW2 6624   3.526   0.119   5.138
 1909SOL     OW 6625   0.509   4.286   2.529
 1909SOL    HW1 6626   0.557   4.292   2.616
 1909SOL    HW2 6627   0.567   4.324   2.456
 1910SOL     OW 6628   6.588   2.826   6.047
 1910SOL    HW1 6629   6.628   2.764   5.979
 1910SOL    HW2 6630   6.488   2.821   6.042
 1911SOL     OW 6631   5.714   3.370   5.068
 1911SOL    HW1 6632   5.747   3.455   5.028
 1911SOL    HW2 6633   5.697   3.382   5.165
 1912SOL     OW 6634   3.210   6.111   0.898
 1912SOL    HW1 6635   3.203   6.205   0.932
 1912SOL    HW2 6636   3.257   6.054   0.965
 1913SOL     OW 6637   1.506   5.825   5.111
 1913SOL    HW1 6638   1.465   5.917   5.107
 1913SOL    HW2 6639   1.513   5.789   5.018
 1914SOL     OW 6640   3.962   3.204   6.287
 1914SOL    HW1 6641   4.045   3.202   6.232
 1914SOL    HW2 6642   3.922   3.296   6.284
 1915SOL     OW 6643   4.126   2.184   5.134
 1915SOL    HW1 6644   4.032   2.212   5.153
 1915SOL    HW2 6645   4.173   2.258   5.086
 1916SOL     OW 6646   3.777   5.675   1.452
 1916SOL    HW1 6647   3.844   5.626   1.394
 1916SOL    HW2 6648   3.725   5.608   1.505
 1917SOL     OW 6649   2.939   3.138   5.293
 1917SOL    HW1 6650   2.843   3.124   5.316
 1917SOL    HW2 6651   2.948   3.151   5.194
 1918SOL     OW 6652   0.686   1.132   5.284
 1918SOL    HW1 6653   0.633   1.214   5.258
 1918SOL    HW2 6654   0.624   1.063   5.321
 1919SOL     OW 6655   2.600   0.665   1.583
 1919SOL    HW1 6656   2.606   0.594   1.513
 1919SOL    HW2 6657   2.665   0.645   1.656
 1920SOL     OW 6658   1.414   4.291   2.396
 1920SOL    HW1 6659   1.320   4.322   2.405
 1920SOL    HW2 6660   1.470   4.330   2.469
 1921SOL     OW 6661   1.124   4.854   6.854
 1921SOL    HW1 6662   1.211   4.887   6.890
 1921SOL    HW2 6663   1.072   4.810   6.927
 1922SOL     OW 6664   1.690   4.149   0.920
 1922SOL    HW1 6665   1.708   4.204   1.001
 1922SOL    HW2 6666   1.728   4.057   0.933
 1923SOL     OW 6667   3.257   0.731   5.490
 1923SOL    HW1 6668   3.230   0.638   5.516
 1923SOL    HW2 6669   3.354   0.745   5.512
 1924SOL     OW 6670   4.508   5.358   1.282
 1924SOL    HW1 6671   4.453   5.373   1.364
 1924SOL    HW2 6672   4.459   5.296   1.220
 1925SOL     OW 6673   2.087   4.553   0.340
 1925SOL    HW1 6674   2.011   4.488   0.352
 1925SOL    HW2 6675   2.125   4.543   0.249
 1926SOL     OW 6676   2.151   0.184   3.300
 1926SOL    HW1 6677   2.237   0.152   3.340
 1926SOL    HW2 6678   2.131   0.276   3.332
 1927SOL     OW 6679   2.637   4.695   6.484
 1927SOL    HW1 6680   2.665   4.787   6.510
 1927SOL    HW2 6681   2.687   4.667   6.402
 1928SOL     OW 6682   6.555   4.457   5.993
 1928SOL    HW1 6683   6.470   4.404   6.000
 1928SOL    HW2 6684   6.591   4.475   6.084
 1929SOL     OW 6685   1.090   5.207   1.116
 1929SOL    HW1 6686   1.110   5.110   1.100
 1929SOL    HW2 6687   1.080   5.222   1.215
 1930SOL     OW 6688   3.549   3.707   6.300
 1930SOL    HW1 6689   3.493   3.629   6.271
 1930SOL    HW2 6690   3.492   3.789   6.301
 1931SOL     OW 6691   0.627   3.972   2.219
 1931SOL    HW1 6692   0.712   4.022   2.235
 1931SOL    HW2 6693   0.569   3.978   2.300
 1932SOL     OW 6694   4.838   3.363   2.982
 1932SOL    HW1 6695   4.901   3.393   3.054
 1932SOL    HW2 6696   4.744   3.373   3.013
 1933SOL     OW 6697   2.032   3.823   0.806
 1933SOL    HW1 6698   1.944   3.843   0.764
 1933SOL    HW2 6699   2.044   3.881   0.887
 1934SOL     OW 6700   0.257   6.966   5.145
 1934SOL    HW1 6701   0.262   6.983   5.046
 1934SOL    HW2 6702   0.349   6.953   5.181
 1935SOL     OW 6703   4.140   6.156   3.717
 1935SOL    HW1 6704   4.041   6.141   3.722
 1935SOL    HW2 6705   4.165   6.188   3.626
 1936SOL     OW 6706   5.798   3.836   3.714
 1936SOL    HW1 6707   5.726   3.850   3.783
 1936SOL    HW2 6708   5.774   3.757   3.657
 1937SOL     OW 6709   3.810   6.896   1.206
 1937SOL    HW1 6710   3.760   6.844   1.137
 1937SOL    HW2 6711   3.755   6.903   1.290
 1938SOL     OW 6712   2.240   1.654   1.879
 1938SOL    HW1 6713   2.161   1.670   1.939
 1938SOL    HW2 6714   2.319   1.629   1.934
 1939SOL     OW 6715   6.408   0.408   4.503
 1939SOL    HW1 6716   6.321   0.409   4.453
 1939SOL    HW2 6717   6.401   0.345   4.580
 1940SOL     OW 6718   5.459   4.751   0.706
 1940SOL    HW1 6719   5.405   4.682   0.755
 1940SOL    HW2 6720   5.524   4.705   0.645
 1941SOL     OW 6721   0.646   3.530   4.267
 1941SOL    HW1 6722   0.733   3.483   4.256
 1941SOL    HW2 6723   0.572   3.462   4.276
 1942SOL     OW 6724   5.318   1.787   1.801
 1942SOL    HW1 6725   5.403   1.815   1.756
 1942SOL    HW2 6726   5.245   1.780   1.732
 1943SOL     OW 6727   2.011   6.156   3.868
 1943SOL    HW1 6728   2.045   6.200   3.785
 1943SOL    HW2 6729   2.053   6.199   3.948
 1944SOL     OW 6730   6.224   2.786   0.331
 1944SOL    HW1 6731   6.281   2.708   0.357
 1944SOL    HW2 6732   6.282   2.866   0.315
 1945SOL     OW 6733   3.921   5.272   0.622
 1945SOL    HW1 6734   3.822   5.286   0.614
 1945SOL    HW2 6735   3.956   5.229   0.539
 1946SOL     OW 6736   6.352   6.731   0.570
 1946SOL    HW1 6737   6.442   6.773   0.585
 1946SOL    HW2 6738   6.321   6.753   0.477
 1947SOL     OW 6739   4.742   6.502   4.331
 1947SOL    HW1 6740   4.664   6.443   4.309
 1947SOL    HW2 6741   4.719   6.597   4.310
 1948SOL     OW 6742   5.524   5.467   3.812
 1948SOL    HW1 6743   5.488   5.506   3.727
 1948SOL    HW2 6744   5.610   5.420   3.793
 1949SOL     OW 6745   3.511   3.938   6.014
 1949SOL    HW1 6746   3.579   3.944   6.087
 1949SOL    HW2 6747   3.427   3.899   6.050
 1950SOL     OW 6748   4.029   3.085   0.479
 1950SOL    HW1 6749   3.948   3.122   0.524
 1950SOL    HW2 6750   4.026   3.107   0.381
 1951SOL     OW 6751   6.141   3.803   0.075
 1951SOL    HW1 6752   6.172   3.823   7.006
 1951SOL    HW2 6753   6.065   3.864   0.098
 1952SOL     OW 6754   4.921   3.591   1.253
 1952SOL    HW1 6755   4.848   3.659   1.244
 1952SOL    HW2 6756   4.937   3.571   1.349
 1953SOL     OW 6757   6.270   1.753   5.453
 1953SOL    HW1 6758   6.260   1.684   5.525
 1953SOL    HW2 6759   6.192   1.815   5.456
 1954SOL     OW 6760   6.863   0.706   2.820
 1954SOL    HW1 6761   6.899   0.620   2.785
 1954SOL    HW2 6762   6.910   0.730   2.905
 1955SOL     OW 6763   0.206   1.218   2.450
 1955SOL    HW1 6764   0.162   1.250   2.365
 1955SOL    HW2 6765   0.135   1.191   2.515
 1956SOL     OW 6766   4.964   0.395   2.292
 1956SOL    HW1 6767   4.945   0.344   2.376
 1956SOL    HW2 6768   5.062   0.414   2.286
 1957SOL     OW 6769   5.754   4.169   4.284
 1957SOL    HW1 6770   5.845   4.186   4.323
 1957SOL    HW2 6771   5.688   4.228   4.331
 1958SOL     OW 6772   5.031   1.434   2.247
 1958SOL    HW1 6773   5.122   1.466   2.221
 1958SOL    HW2 6774   4.969   1.513   2.256
 1959SOL     OW 6775   1.260   0.110   3.970
 1959SOL    HW1 6776   1.310   0.040   4.021
 1959SOL    HW2 6777   1.325   0.172   3.926
 1960SOL     OW 6778   0.003   4.956   1.781
 1960SOL    HW1 6779   0.034   4.870   1.821
 1960SOL    HW2 6780   6.927   4.959   1.780
 1961SOL     OW 6781   6.013   4.142   4.378
 1961SOL    HW1 6782   6.084   4.073   4.365
 1961SOL    HW2 6783   6.053   4.226   4.414
 1962SOL     OW 6784   0.885   6.667   2.955
 1962SOL    HW1 6785   0.801   6.641   3.002
 1962SOL    HW2 6786   0.935   6.585   2.928
 1963SOL     OW 6787   1.068   1.847   1.092
 1963SOL    HW1 6788   1.109   1.784   1.158
 1963SOL    HW2 6789   1.137   1.875   1.025
 1964SOL     OW 6790   4.937   4.393   1.423
 1964SOL    HW1 6791   4.918   4.452   1.501
 1964SOL    HW2 6792   4.850   4.360   1.385
 1965SOL     OW 6793   2.053   2.732   4.791
 1965SOL    HW1 6794   1.980   2.801   4.785
 1965SOL    HW2 6795   2.015   2.642   4.770
 1966SOL     OW 6796   0.425   6.253   0.628
 1966SOL    HW1 6797   0.481   6.171   0.619
 1966SOL    HW2 6798   0.366   6.245   0.709
 1967SOL     OW 6799   5.646   2.732   5.448
 1967SOL    HW1 6800   5.693   2.655   5.406
 1967SOL    HW2 6801   5.650   2.812   5.388
 1968SOL     OW 6802   1.258   6.634   5.338
 1968SOL    HW1 6803   1.317   6.661   5.414
 1968SOL    HW2 6804   1.307   6.645   5.252
 1969SOL     OW 6805   1.703   1.842   1.079
 1969SOL    HW1 6806   1.727   1.842   0.982
 1969SOL    HW2 6807   1.775   1.799   1.132
 1970SOL     OW 6808   2.905   6.655   6.204
 1970SOL    HW1 6809   2.853   6.609   6.276
 1970SOL    HW2 6810   2.894   6.754   6.212
 1971SOL     OW 6811   0.892   0.219   5.790
 1971SOL    HW1 6812   0.872   0.121   5.798
 1971SOL    HW2 6813   0.892   0.245   5.693
 1972SOL     OW 6814   5.587   1.908   2.197
 1972SOL    HW1 6815   5.522   1.982   2.178
 1972SOL    HW2 6816   5.561   1.827   2.145
 1973SOL     OW 6817   3.104   2.667   0.180
 1973SOL    HW1 6818   3.149   2.747   0.140
 1973SOL    HW2 6819   3.048   2.622   0.110
 1974SOL     OW 6820   5.439   6.816   4.840
 1974SOL    HW1 6821   5.527   6.768   4.845
 1974SOL    HW2 6822   5.373   6.760   4.790
 1975SOL     OW 6823   1.959   1.778   3.954
 1975SOL    HW1 6824   1.917   1.785   4.045
 1975SOL    HW2 6825   1.936   1.860   3.901
 1976SOL     OW 6826   6.493   0.099   0.172
 1976SOL    HW1 6827   6.473   0.193   0.146
 1976SOL    HW2 6828   6.449   0.078   0.259
 1977SOL     OW 6829   1.850   3.301   4.872
 1977SOL    HW1 6830   1.824   3.341   4.784
 1977SOL    HW2 6831   1.949   3.304   4.882
 1978SOL     OW 6832   1.912   6.139   3.283
 1978SOL    HW1 6833   1.950   6.134   3.375
 1978SOL    HW2 6834   1.874   6.230   3.267
 1979SOL     OW 6835   6.304   4.155   6.950
 1979SOL    HW1 6836   6.254   4.215   6.887
 1979SOL    HW2 6837   6.300   4.061   6.916
 1980SOL     OW 6838   3.663   6.836   4.621
 1980SOL    HW1 6839   3.724   6.785   4.560
 1980SOL    HW2 6840   3.633   6.775   4.695
 1981SOL     OW 6841   6.983   2.795   2.027
 1981SOL    HW1 6842   6.952   2.737   2.102
 1981SOL    HW2 6843   0.056   2.816   2.038
 1982SOL     OW 6844   0.874   4.141   4.146
 1982SOL    HW1 6845   0.777   4.136   4.122
 1982SOL    HW2 6846   0.904   4.052   4.180
 1983SOL     OW 6847   0.709   0.866   2.597
 1983SOL    HW1 6848   0.796   0.869   2.648
 1983SOL    HW2 6849   0.662   0.953   2.607
 1984SOL     OW 6850   4.742   2.000   4.868
 1984SOL    HW1 6851   4.765   2.062   4.793
 1984SOL    HW2 6852   4.765   2.044   4.955
 1985SOL     OW 6853   1.034   6.557   2.170
 1985SOL    HW1 6854   1.097   6.635   2.180
 1985SOL    HW2 6855   1.005   6.525   2.260
 1986SOL     OW 6856   2.891   1.051   0.159
 1986SOL    HW1 6857   2.895   0.995   0.076
 1986SOL    HW2 6858   2.813   1.114   0.152
 1987SOL     OW 6859   1.968   2.100   2.900
 1987SOL    HW1 6860   2.034   2.158   2.853
 1987SOL    HW2 6861   1.946   2.021   2.843
 1988SOL     OW 6862   6.122   3.536   0.658
 1988SOL    HW1 6863   6.137   3.548   0.559
 1988SOL    HW2 6864   6.064   3.456   0.673
 1989SOL     OW 6865   1.937   5.411   5.006
 1989SOL    HW1 6866   1.992   5.383   4.927
 1989SOL    HW2 6867   1.984   5.384   5.091
 1990SOL     OW 6868   3.808   5.575   0.547
 1990SOL    HW1 6869   3.770   5.668   0.545
 1990SOL    HW2 6870   3.886   5.573   0.610
 1991SOL     OW 6871   2.805   4.893   6.973
 1991SOL    HW1 6872   2.782   4.986   7.001
 1991SOL    HW2 6873   2.890   4.894   6.921
 1992SOL     OW 6874   0.476   0.866   0.301
 1992SOL    HW1 6875   0.493   0.851   0.203
 1992SOL    HW2 6876   0.557   0.840   0.353
 1993SOL     OW 6877   3.415   2.614   5.402
 1993SOL    HW1 6878   3.480   2.595   5.476
 1993SOL    HW2 6879   3.358   2.534   5.386
 1994SOL     OW 6880   0.302   1.797   0.012
 1994SOL    HW1 6881   0.383   1.849   0.040
 1994SOL    HW2 6882   0.290   1.805   6.937
 1995SOL     OW 6883   5.312   2.569   3.921
 1995SOL    HW1 6884   5.225   2.608   3.893
 1995SOL    HW2 6885   5.302   2.471   3.935
 1996SOL     OW 6886   2.376   2.812   0.394
 1996SOL    HW1 6887   2.366   2.823   0.492
 1996SOL    HW2 6888   2.417   2.723   0.374
 1997SOL     OW 6889   3.185   2.022   5.070
 1997SOL    HW1 6890   3.167   1.931   5.033
 1997SOL    HW2 6891   3.178   2.090   4.997
 1998SOL     OW 6892   2.999   3.822   0.270
 1998SOL    HW1 6893   2.944   3.743   0.244
 1998SOL    HW2 6894   3.066   3.841   0.198
 1999SOL     OW 6895   2.432   6.374   6.204
 1999SOL    HW1 6896   2.523   6.352   6.239
 1999SOL    HW2 6897   2.433   6.368   6.104
 2000SOL     OW 6898   4.150   2.746   5.382
 2000SOL    HW1 6899   4.145   2.676   5.310
 2000SOL    HW2 6900   4.140   2.837   5.341
 2001SOL     OW 6901   2.778   7.014   1.918
 2001SOL    HW1 6902   2.694   0.012   1.967
 2001SOL    HW2 6903   2.762   6.936   1.857
 2002SOL     OW 6904   0.666   4.526   0.030
 2002SOL    HW1 6905   0.652   4.433   0.066
 2002SOL    HW2 6906   0.723   4.578   0.093
 2003SOL     OW 6907   6.086   5.389   2.918
 2003SOL    HW1 6908   6.116   5.295   2.905
 2003SOL    HW2 6909   6.053   5.427   2.831
 2004SOL     OW 6910   4.947   1.636   4.625
 2004SOL    HW1 6911   4.914   1.711   4.568
 2004SOL    HW2 6912   4.990   1.672   4.707
 2005SOL     OW 6913   0.023   5.248   0.203
 2005SOL    HW1 6914   0.101   5.310   0.197
 2005SOL    HW2 6915   6.962   5.299   0.188
 2006SOL     OW 6916   5.782   6.789   3.253
 2006SOL    HW1 6917   5.796   6.767   3.156
 2006SOL    HW2 6918   5.684   6.785   3.274
 2007SOL     OW 6919   4.462   4.379   1.016
 2007SOL    HW1 6920   4.416   4.351   1.101
 2007SOL    HW2 6921   4.560   4.386   1.033
 2008SOL     OW 6922   1.940   4.247   4.027
 2008SOL    HW1 6923   2.028   4.234   4.073
 2008SOL    HW2 6924   1.914   4.162   3.981
 2009SOL     OW 6925   5.657   0.088   2.238
 2009SOL    HW1 6926   5.743   0.083   2.186
 2009SOL    HW2 6927   5.674   0.128   2.328
 2010SOL     OW 6928   2.758   1.725   2.136
 2010SOL    HW1 6929   2.789   1.699   2.227
 2010SOL    HW2 6930   2.765   1.824   2.125
 2011SOL     OW 6931   0.243   7.016   4.896
 2011SOL    HW1 6932   0.257   0.068   4.833
 2011SOL    HW2 6933   0.223   6.933   4.844
 2012SOL     OW 6934   1.021   4.621   1.990
 2012SOL    HW1 6935   1.062   4.623   2.082
 2012SOL    HW2 6936   0.964   4.539   1.981
 2013SOL     OW 6937   6.256   2.627   3.445
 2013SOL    HW1 6938   6.314   2.706   3.466
 2013SOL    HW2 6939   6.309   2.561   3.391
 2014SOL     OW 6940   2.337   6.531   3.482
 2014SOL    HW1 6941   2.309   6.452   3.426
 2014SOL    HW2 6942   2.255   6.584   3.507
 2015SOL     OW 6943   1.818   0.776   0.229
 2015SOL    HW1 6944   1.830   0.693   0.175
 2015SOL    HW2 6945   1.762   0.841   0.177
 2016SOL     OW 6946   1.713   6.020   5.992
 2016SOL    HW1 6947   1.693   6.044   6.087
 2016SOL    HW2 6948   1.777   5.943   5.990
 2017SOL     OW 6949   3.556   0.030   3.993
 2017SOL    HW1 6950   3.569   6.961   4.028
 2017SOL    HW2 6951   3.605   0.095   4.052
 2018SOL     OW 6952   5.382   2.032   4.450
 2018SOL    HW1 6953   5.347   2.115   4.408
 2018SOL    HW2 6954   5.318   2.002   4.522
 2019SOL     OW 6955   5.061   3.373   6.280
 2019SOL    HW1 6956   5.160   3.380   6.292
 2019SOL    HW2 6957   5.039   3.392   6.184
 2020SOL     OW 6958   1.748   0.240   5.229
 2020SOL    HW1 6959   1.669   0.249   5.168
 2020SOL    HW2 6960   1.721   0.186   5.309
 2021SOL     OW 6961   0.484   6.340   4.729
 2021SOL    HW1 6962   0.545   6.296   4.664
 2021SOL    HW2 6963   0.537   6.400   4.789
 2022SOL     OW 6964   1.357   4.518   3.342
 2022SOL    HW1 6965   1.363   4.467   3.428
 2022SOL    HW2 6966   1.262   4.545   3.326
 2023SOL     OW 6967   0.223   0.282   6.614
 2023SOL    HW1 6968   0.256   0.355   6.554
 2023SOL    HW2 6969   0.296   0.215   6.627
 2024SOL     OW 6970   0.459   6.202   3.250
 2024SOL    HW1 6971   0.515   6.237   3.175
 2024SOL    HW2 6972   0.514   6.196   3.333
 2025SOL     OW 6973   3.130   1.196   3.702
 2025SOL    HW1 6974   3.115   1.238   3.612
 2025SOL    HW2 6975   3.187   1.115   3.691
 2026SOL     OW 6976   6.620   3.546   5.589
 2026SOL    HW1 6977   6.669   3.461   5.572
 2026SOL    HW2 6978   6.522   3.528   5.595
 2027SOL     OW 6979   1.332   0.085   0.528
 2027SOL    HW1 6980   1.346   0.119   0.435
 2027SOL    HW2 6981   1.239   0.107   0.557
 2028SOL     OW 6982   2.623   5.828   4.625
 2028SOL    HW1 6983   2.564   5.886   4.570
 2028SOL    HW2 6984   2.717   5.833   4.591
 2029SOL     OW 6985   5.989   1.334   7.001
 2029SOL    HW1 6986   6.019   1.329   6.906
 2029SOL    HW2 6987   5.920   1.405   7.011
 2030SOL     OW 6988   2.851   1.028   3.734
 2030SOL    HW1 6989   2.899   1.116   3.743
 2030SOL    HW2 6990   2.799   1.009   3.817
 2031SOL     OW 6991   6.638   5.726   1.310
 2031SOL    HW1 6992   6.572   5.801   1.308
 2031SOL    HW2 6993   6.731   5.762   1.304
 2032SOL     OW 6994   4.620   0.734   2.041
 2032SOL    HW1 6995   4.536   0.687   2.014
 2032SOL    HW2 6996   4.655   0.787   1.964
 2033SOL     OW 6997   3.627   2.855   6.255
 2033SOL    HW1 6998   3.706   2.883   6.202
 2033SOL    HW2 6999   3.635   2.758   6.279
 2034SOL     OW 7000   2.450   5.124   5.574
 2034SOL    HW1 7001   2.477   5.028   5.565
 2034SOL    HW2 7002   2.520   5.182   5.534
 2035SOL     OW 7003   6.897   6.247   3.555
 2035SOL    HW1 7004   6.954   6.171   3.585
 2035SOL    HW2 7005   6.814   6.251   3.611
 2036SOL     OW 7006   0.674   4.117   2.968
 2036SOL    HW1 7007   0.659   4.021   2.990
 2036SOL    HW2 7008   0.693   4.168   3.052
 2037SOL     OW 7009   6.170   2.938   5.919
 2037SOL    HW1 7010   6.210   2.849   5.940
 2037SOL    HW2 7011   6.204   3.006   5.983
 2038SOL     OW 7012   2.116   1.804   0.150
 2038SOL    HW1 7013   2.185   1.753   0.202
 2038SOL    HW2 7014   2.100   1.892   0.194
 2039SOL     OW 7015   0.172   5.433   3.896
 2039SOL    HW1 7016   0.266   5.399   3.890
 2039SOL    HW2 7017   0.114   5.384   3.832
 2040SOL     OW 7018   2.405   3.091   5.858
 2040SOL    HW1 7019   2.503   3.102   5.871
 2040SOL    HW2 7020   2.387   3.046   5.770
 2041SOL     OW 7021   1.051   6.519   5.923
 2041SOL    HW1 7022   1.135   6.554   5.965
 2041SOL    HW2 7023   1.072   6.437   5.870
 2042SOL     OW 7024   4.912   6.376   6.809
 2042SOL    HW1 7025   4.991   6.436   6.823
 2042SOL    HW2 7026   4.864   6.363   6.896
 2043SOL     OW 7027   6.498   3.779   3.031
 2043SOL    HW1 7028   6.487   3.832   2.947
 2043SOL    HW2 7029   6.551   3.696   3.012
 2044SOL     OW 7030   7.012   0.576   1.571
 2044SOL    HW1 7031   0.037   0.555   1.656
 2044SOL    HW2 7032   6.989   0.490   1.524
 2045SOL     OW 7033   1.681   5.033   4.517
 2045SOL    HW1 7034   1.712   5.066   4.428
 2045SOL    HW2 7035   1.622   5.102   4.559
 2046SOL     OW 7036   6.708   1.650   4.391
 2046SOL    HW1 7037   6.705   1.669   4.293
 2046SOL    HW2 7038   6.673   1.558   4.408
 2047SOL     OW 7039   0.076   2.996   0.403
 2047SOL    HW1 7040   7.013   2.955   0.375
 2047SOL    HW2 7041   0.058   3.085   0.446
 2048SOL     OW 7042   1.474   6.471   5.882
 2048SOL    HW1 7043   1.500   6.566   5.867
 2048SOL    HW2 7044   1.555   6.413   5.880
 2049SOL     OW 7045   5.753   1.604   4.266
 2049SOL    HW1 7046   5.757   1.531   4.198
 2049SOL    HW2 7047   5.715   1.686   4.224
 2050SOL     OW 7048   6.181   2.813   4.098
 2050SOL    HW1 7049   6.216   2.848   4.012
 2050SOL    HW2 7050   6.100   2.757   4.081
 2051SOL     OW 7051   1.057   6.233   6.906
 2051SOL    HW1 7052   0.989   6.160   6.909
 2051SOL    HW2 7053   1.147   6.196   6.927
 2052SOL     OW 7054   2.030   2.955   1.403
 2052SOL    HW1 7055   2.120   2.912   1.398
 2052SOL    HW2 7056   1.961   2.884   1.417
 2053SOL     OW 7057   6.288   6.086   4.568
 2053SOL    HW1 7058   6.230   6.095   4.649
 2053SOL    HW2 7059   6.297   5.989   4.545
 2054SOL     OW 7060   3.376   4.155   3.483
 2054SOL    HW1 7061   3.311   4.107   3.542
 2054SOL    HW2 7062   3.351   4.141   3.387
 2055SOL     OW 7063   5.632   3.574   3.838
 2055SOL    HW1 7064   5.629   3.674   3.828
 2055SOL    HW2 7065   5.721   3.541   3.807
 2056SOL     OW 7066   4.117   5.825   1.348
 2056SOL    HW1 7067   4.138   5.855   1.255
 2056SOL    HW2 7068   4.159   5.736   1.365
 2057SOL     OW 7069   5.556   4.230   6.095
 2057SOL    HW1 7070   5.525   4.281   6.015
 2057SOL    HW2 7071   5.614   4.288   6.152
 2058SOL     OW 7072   0.334   0.501   3.226
 2058SOL    HW1 7073   0.318   0.587   3.274
 2058SOL    HW2 7074   0.303   0.425   3.284
 2059SOL     OW 7075   1.564   5.778   6.139
 2059SOL    HW1 7076   1.663   5.773   6.144
 2059SOL    HW2 7077   1.530   5.850   6.199
 2060SOL     OW 7078   0.349   4.087   1.468
 2060SOL    HW1 7079   0.289   4.102   1.389
 2060SOL    HW2 7080   0.317   4.006   1.518
 2061SOL     OW 7081   1.211   1.935   2.350
 2061SOL    HW1 7082   1.289   1.898   2.299
 2061SOL    HW2 7083   1.149   1.860   2.374
 2062SOL     OW 7084   6.982   5.181   5.014
 2062SOL    HW1 7085   6.957   5.134   5.099
 2062SOL    HW2 7086   6.998   5.278   5.032
 2063SOL     OW 7087   0.980   6.635   5.360
 2063SOL    HW1 7088   1.077   6.645   5.379
 2063SOL    HW2 7089   0.966   6.620   5.263
 2064SOL     OW 7090   6.856   2.405   4.665
 2064SOL    HW1 7091   6.904   2.354   4.594
 2064SOL    HW2 7092   6.828   2.494   4.629
 2065SOL     OW 7093   5.899   2.429   5.604
 2065SOL    HW1 7094   5.926   2.351   5.660
 2065SOL    HW2 7095   5.859   2.500   5.662
 2066SOL     OW 7096   0.157   4.681   5.085
 2066SOL    HW1 7097   0.099   4.655   5.162
 2066SOL    HW2 7098   0.249   4.644   5.099
 2067SOL     OW 7099   0.079   5.500   0.565
 2067SOL    HW1 7100   0.087   5.530   0.470
 2067SOL    HW2 7101   7.016   5.534   0.603
 2068SOL     OW 7102   2.179   0.265   4.696
 2068SOL    HW1 7103   2.112   0.192   4.689
 2068SOL    HW2 7104   2.225   0.277   4.608
 2069SOL     OW 7105   6.487   2.909   4.002
 2069SOL    HW1 7106   6.483   2.837   4.070
 2069SOL    HW2 7107   6.539   2.877   3.922
 2070SOL     OW 7108   1.049   1.443   0.581
 2070SOL    HW1 7109   1.016   1.476   0.669
 2070SOL    HW2 7110   1.086   1.351   0.592
 2071SOL     OW 7111   5.832   0.492   5.684
 2071SOL    HW1 7112   5.773   0.572   5.674
 2071SOL    HW2 7113   5.778   0.415   5.719
 2072SOL     OW 7114   4.420   5.277   4.732
 2072SOL    HW1 7115   4.495   5.323   4.778
 2072SOL    HW2 7116   4.372   5.217   4.796
 2073SOL     OW 7117   4.657   6.720   5.034
 2073SOL    HW1 7118   4.589   6.709   5.107
 2073SOL    HW2 7119   4.704   6.808   5.045
 2074SOL     OW 7120   2.185   2.026   6.183
 2074SOL    HW1 7121   2.197   1.930   6.207
 2074SOL    HW2 7122   2.275   2.067   6.166
 2075SOL     OW 7123   7.017   2.555   3.314
 2075SOL    HW1 7124   0.021   2.647   3.342
 2075SOL    HW2 7125   0.010   2.491   3.388
 2076SOL     OW 7126   5.266   6.737   6.101
 2076SOL    HW1 7127   5.276   6.834   6.078
 2076SOL    HW2 7128   5.188   6.724   6.161
 2077SOL     OW 7129   6.868   2.012   2.488
 2077SOL    HW1 7130   6.961   2.016   2.524
 2077SOL    HW2 7131   6.808   1.968   2.554
 2078SOL     OW 7132   1.845   5.443   6.572
 2078SOL    HW1 7133   1.936   5.402   6.564
 2078SOL    HW2 7134   1.819   5.483   6.485
 2079SOL     OW 7135   6.974   1.798   3.066
 2079SOL    HW1 7136   6.924   1.885   3.056
 2079SOL    HW2 7137   7.008   1.791   3.160
 2080SOL     OW 7138   1.847   0.683   4.763
 2080SOL    HW1 7139   1.791   0.765   4.775
 2080SOL    HW2 7140   1.903   0.669   4.845
 2081SOL     OW 7141   0.678   6.277   4.538
 2081SOL    HW1 7142   0.748   6.259   4.608
 2081SOL    HW2 7143   0.709   6.241   4.450
 2082SOL     OW 7144   1.011   6.864   2.823
 2082SOL    HW1 7145   1.025   6.825   2.732
 2082SOL    HW2 7146   0.962   6.799   2.880
 2083SOL     OW 7147   1.253   5.201   5.853
 2083SOL    HW1 7148   1.240   5.167   5.946
 2083SOL    HW2 7149   1.350   5.221   5.837
 2084SOL     OW 7150   0.797   4.283   2.455
 2084SOL    HW1 7151   0.812   4.382   2.450
 2084SOL    HW2 7152   0.841   4.246   2.536
 2085SOL     OW 7153   4.565   0.943   1.056
 2085SOL    HW1 7154   4.530   1.018   1.000
 2085SOL    HW2 7155   4.571   0.860   1.000
 2086SOL     OW 7156   3.659   6.322   6.507
 2086SOL    HW1 7157   3.577   6.355   6.554
 2086SOL    HW2 7158   3.727   6.395   6.503
 2087SOL     OW 7159   5.511   1.482   1.812
 2087SOL    HW1 7160   5.474   1.464   1.903
 2087SOL    HW2 7161   5.451   1.440   1.743
 2088SOL     OW 7162   1.172   5.950   6.887
 2088SOL    HW1 7163   1.253   5.895   6.906
 2088SOL    HW2 7164   1.095   5.916   6.940
 2089SOL     OW 7165   4.779   2.807   6.172
 2089SOL    HW1 7166   4.704   2.741   6.168
 2089SOL    HW2 7167   4.756   2.879   6.238
 2090SOL     OW 7168   4.319   3.021   5.800
 2090SOL    HW1 7169   4.384   3.074   5.855
 2090SOL    HW2 7170   4.368   2.971   5.729
 2091SOL     OW 7171   6.682   4.928   0.640
 2091SOL    HW1 7172   6.605   4.945   0.579
 2091SOL    HW2 7173   6.649   4.921   0.734
 2092SOL     OW 7174   5.302   3.580   0.588
 2092SOL    HW1 7175   5.372   3.533   0.534
 2092SOL    HW2 7176   5.332   3.583   0.684
 2093SOL     OW 7177   3.135   2.323   1.691
 2093SOL    HW1 7178   3.223   2.290   1.727
 2093SOL    HW2 7179   3.071   2.333   1.767
 2094SOL     OW 7180   5.657   1.439   1.433
 2094SOL    HW1 7181   5.578   1.491   1.398
 2094SOL    HW2 7182   5.673   1.464   1.528
 2095SOL     OW 7183   6.274   6.532   5.046
 2095SOL    HW1 7184   6.329   6.588   4.985
 2095SOL    HW2 7185   6.185   6.576   5.062
 2096SOL     OW 7186   4.876   4.961   3.646
 2096SOL    HW1 7187   4.915   4.878   3.685
 2096SOL    HW2 7188   4.804   4.937   3.581
 2097SOL     OW 7189   3.202   2.832   6.270
 2097SOL    HW1 7190   3.134   2.898   6.237
 2097SOL    HW2 7191   3.241   2.864   6.356
 2098SOL     OW 7192   4.521   5.975   1.660
 2098SOL    HW1 7193   4.443   5.925   1.697
 2098SOL    HW2 7194   4.525   5.963   1.561
 2099SOL     OW 7195   3.571   1.592   6.984
 2099SOL    HW1 7196   3.528   1.556   0.043
 2099SOL    HW2 7197   3.556   1.529   6.908
 2100SOL     OW 7198   5.702   1.528   0.786
 2100SOL    HW1 7199   5.614   1.565   0.756
 2100SOL    HW2 7200   5.704   1.525   0.886
 2101SOL     OW 7201   0.464   6.927   1.218
 2101SOL    HW1 7202   0.423   6.895   1.304
 2101SOL    HW2 7203   0.392   6.941   1.150
 2102SOL     OW 7204   5.174   4.370   2.119
 2102SOL    HW1 7205   5.230   4.375   2.201
 2102SOL    HW2 7206   5.215   4.306   2.054
 2103SOL     OW 7207   3.373   3.586   6.879
 2103SOL    HW1 7208   3.443   3.572   6.950
 2103SOL    HW2 7209   3.310   3.509   6.878
 2104SOL     OW 7210   1.732   4.555   2.331
 2104SOL    HW1 7211   1.721   4.537   2.429
 2104SOL    HW2 7212   1.646   4.534   2.284
 2105SOL     OW 7213   4.760   4.285   6.051
 2105SOL    HW1 7214   4.663   4.277   6.074
 2105SOL    HW2 7215   4.811   4.214   6.099
 2106SOL     OW 7216   5.375   3.690   1.492
 2106SOL    HW1 7217   5.298   3.707   1.554
 2106SOL    HW2 7218   5.381   3.764   1.425
 2107SOL     OW 7219   6.409   2.362   5.457
 2107SOL    HW1 7220   6.397   2.389   5.362
 2107SOL    HW2 7221   6.382   2.438   5.517
 2108SOL     OW 7222   6.148   5.083   5.378
 2108SOL    HW1 7223   6.112   5.106   5.468
 2108SOL    HW2 7224   6.115   5.149   5.310
 2109SOL     OW 7225   3.813   6.259   2.246
 2109SOL    HW1 7226   3.907   6.294   2.247
 2109SOL    HW2 7227   3.796   6.208   2.331
 2110SOL     OW 7228   3.007   0.870   0.552
 2110SOL    HW1 7229   3.050   0.958   0.573
 2110SOL    HW2 7230   2.911   0.872   0.579
 2111SOL     OW 7231   1.919   3.247   6.696
 2111SOL    HW1 7232   2.000   3.260   6.640
 2111SOL    HW2 7233   1.944   3.250   6.793
 2112SOL     OW 7234   5.017   1.885   0.684
 2112SOL    HW1 7235   4.935   1.928   0.720
 2112SOL    HW2 7236   5.084   1.873   0.758
 2113SOL     OW 7237   2.569   1.195   4.992
 2113SOL    HW1 7238   2.513   1.204   5.075
 2113SOL    HW2 7239   2.554   1.104   4.952
 2114SOL     OW 7240   2.420   1.769   6.752
 2114SOL    HW1 7241   2.351   1.838   6.726
 2114SOL    HW2 7242   2.385   1.714   6.827
 2115SOL     OW 7243   0.355   4.433   2.113
 2115SOL    HW1 7244   0.300   4.361   2.155
 2115SOL    HW2 7245   0.297   4.489   2.054
 2116SOL     OW 7246   1.208   3.755   2.510
 2116SOL    HW1 7247   1.127   3.736   2.455
 2116SOL    HW2 7248   1.254   3.670   2.533
 2117SOL     OW 7249   6.052   3.860   1.503
 2117SOL    HW1 7250   6.091   3.808   1.579
 2117SOL    HW2 7251   6.014   3.796   1.435
 2118SOL     OW 7252   6.080   3.461   3.157
 2118SOL    HW1 7253   6.013   3.522   3.115
 2118SOL    HW2 7254   6.119   3.401   3.087
 2119SOL     OW 7255   2.246   0.269   0.911
 2119SOL    HW1 7256   2.292   0.309   0.991
 2119SOL    HW2 7257   2.154   0.238   0.936
 2120SOL     OW 7258   0.829   4.208   2.754
 2120SOL    HW1 7259   0.924   4.181   2.740
 2120SOL    HW2 7260   0.783   4.141   2.812
 2121SOL     OW 7261   1.556   2.465   5.493
 2121SOL    HW1 7262   1.553   2.374   5.534
 2121SOL    HW2 7263   1.462   2.497   5.476
 2122SOL     OW 7264   5.770   5.876   6.736
 2122SOL    HW1 7265   5.715   5.893   6.654
 2122SOL    HW2 7266   5.867   5.885   6.713
 2123SOL     OW 7267   6.622   5.637   1.568
 2123SOL    HW1 7268   6.633   5.673   1.475
 2123SOL    HW2 7269   6.540   5.678   1.609
 2124SOL     OW 7270   2.813   1.692   0.396
 2124SOL    HW1 7271   2.891   1.727   0.446
 2124SOL    HW2 7272   2.742   1.664   0.460
 2125SOL     OW 7273   1.141   6.151   1.944
 2125SOL    HW1 7274   1.096   6.063   1.930
 2125SOL    HW2 7275   1.073   6.224   1.936
 2126SOL     OW 7276   3.424   2.368   6.679
 2126SOL    HW1 7277   3.392   2.336   6.590
 2126SOL    HW2 7278   3.365   2.441   6.712
 2127SOL     OW 7279   0.675   1.875   5.912
 2127SOL    HW1 7280   0.581   1.846   5.896
 2127SOL    HW2 7281   0.736   1.833   5.845
 2128SOL     OW 7282   6.397   2.871   2.563
 2128SOL    HW1 7283   6.348   2.880   2.476
 2128SOL    HW2 7284   6.337   2.829   2.631
 2129SOL     OW 7285   4.915   4.431   5.095
 2129SOL    HW1 7286   4.875   4.402   5.007
 2129SOL    HW2 7287   4.896   4.362   5.164
 2130SOL     OW 7288   3.015   0.285   2.422
 2130SOL    HW1 7289   2.982   0.207   2.369
 2130SOL    HW2 7290   3.082   0.253   2.489
 2131SOL     OW 7291   4.889   1.638   0.945
 2131SOL    HW1 7292   4.931   1.593   0.866
 2131SOL    HW2 7293   4.812   1.694   0.914
 2132SOL     OW 7294   3.018   1.897   6.622
 2132SOL    HW1 7295   2.978   1.814   6.584
 2132SOL    HW2 7296   3.078   1.939   6.554
 2133SOL     OW 7297   3.505   2.878   1.009
 2133SOL    HW1 7298   3.501   2.848   1.104
 2133SOL    HW2 7299   3.428   2.840   0.958
 2134SOL     OW 7300   0.593   1.049   4.445
 2134SOL    HW1 7301   0.638   0.982   4.504
 2134SOL    HW2 7302   0.622   1.034   4.351
 2135SOL     OW 7303   0.569   1.619   4.435
 2135SOL    HW1 7304   0.512   1.543   4.465
 2135SOL    HW2 7305   0.659   1.584   4.409
 2136SOL     OW 7306   1.225   4.179   4.725
 2136SOL    HW1 7307   1.158   4.253   4.728
 2136SOL    HW2 7308   1.235   4.140   4.817
 2137SOL     OW 7309   6.807   6.206   4.559
 2137SOL    HW1 7310   6.756   6.206   4.645
 2137SOL    HW2 7311   6.902   6.180   4.576
 2138SOL     OW 7312   6.764   1.502   1.416
 2138SOL    HW1 7313   6.682   1.535   1.464
 2138SOL    HW2 7314   6.833   1.475   1.483
 2139SOL     OW 7315   3.773   0.663   2.873
 2139SOL    HW1 7316   3.830   0.741   2.848
 2139SOL    HW2 7317   3.799   0.584   2.817
 2140SOL     OW 7318   3.059   5.465   3.126
 2140SOL    HW1 7319   3.012   5.393   3.177
 2140SOL    HW2 7320   3.016   5.475   3.036
 2141SOL     OW 7321   6.634   4.132   0.880
 2141SOL    HW1 7322   6.608   4.164   0.789
 2141SOL    HW2 7323   6.663   4.036   0.874
 2142SOL     OW 7324   1.342   2.178   3.129
 2142SOL    HW1 7325   1.429   2.202   3.086
 2142SOL    HW2 7326   1.276   2.153   3.058
 2143SOL     OW 7327   3.381   5.028   1.330
 2143SOL    HW1 7328   3.415   5.064   1.416
 2143SOL    HW2 7329   3.423   5.078   1.254
 2144SOL     OW 7330   1.146   6.804   3.203
 2144SOL    HW1 7331   1.093   6.743   3.145
 2144SOL    HW2 7332   1.098   6.815   3.291
 2145SOL     OW 7333   3.550   5.873   4.096
 2145SOL    HW1 7334   3.479   5.943   4.102
 2145SOL    HW2 7335   3.640   5.917   4.096
 2146SOL     OW 7336   3.026   3.205   2.043
 2146SOL    HW1 7337   2.993   3.296   2.019
 2146SOL    HW2 7338   3.074   3.165   1.965
 2147SOL     OW 7339   0.178   0.814   6.766
 2147SOL    HW1 7340   0.241   0.887   6.738
 2147SOL    HW2 7341   0.089   0.854   6.788
 2148SOL     OW 7342   5.157   2.863   4.135
 2148SOL    HW1 7343   5.236   2.893   4.083
 2148SOL    HW2 7344   5.132   2.933   4.202
 2149SOL     OW 7345   3.776   1.082   1.540
 2149SOL    HW1 7346   3.733   1.160   1.585
 2149SOL    HW2 7347   3.729   0.998   1.568
 2150SOL     OW 7348   2.122   2.440   2.591
 2150SOL    HW1 7349   2.076   2.527   2.578
 2150SOL    HW2 7350   2.088   2.373   2.525
 2151SOL     OW 7351   1.884   1.489   3.894
 2151SOL    HW1 7352   1.934   1.572   3.916
 2151SOL    HW2 7353   1.823   1.465   3.970
 2152SOL     OW 7354   3.623   5.963   1.132
 2152SOL    HW1 7355   3.693   6.026   1.164
 2152SOL    HW2 7356   3.589   5.909   1.210
 2153SOL     OW 7357   3.776   0.074   3.000
 2153SOL    HW1 7358   3.774   0.044   3.096
 2153SOL    HW2 7359   3.803   7.021   2.942
 2154SOL     OW 7360   5.285   0.663   4.467
 2154SOL    HW1 7361   5.290   0.584   4.529
 2154SOL    HW2 7362   5.367   0.718   4.476
 2155SOL     OW 7363   2.152   5.293   0.581
 2155SOL    HW1 7364   2.105   5.271   0.666
 2155SOL    HW2 7365   2.198   5.382   0.591
 2156SOL     OW 7366   2.563   0.579   2.829
 2156SOL    HW1 7367   2.488   0.583   2.894
 2156SOL    HW2 7368   2.531   0.537   2.744
 2157SOL     OW 7369   6.002   1.287   3.200
 2157SOL    HW1 7370   6.068   1.213   3.187
 2157SOL    HW2 7371   5.941   1.293   3.120
 2158SOL     OW 7372   4.476   6.238   0.993
 2158SOL    HW1 7373   4.388   6.270   1.028
 2158SOL    HW2 7374   4.496   6.148   1.031
 2159SOL     OW 7375   2.048   5.496   5.751
 2159SOL    HW1 7376   2.003   5.521   5.665
 2159SOL    HW2 7377   1.998   5.535   5.828
 2160SOL     OW 7378   4.532   3.434   1.206
 2160SOL    HW1 7379   4.589   3.368   1.255
 2160SOL    HW2 7380   4.575   3.459   1.120
 2161SOL     OW 7381   5.297   2.993   3.684
 2161SOL    HW1 7382   5.350   3.006   3.768
 2161SOL    HW2 7383   5.202   2.975   3.707
 2162SOL     OW 7384   2.964   0.629   0.085
 2162SOL    HW1 7385   3.028   0.567   0.039
 2162SOL    HW2 7386   2.990   0.638   0.181
 2163SOL     OW 7387   0.479   5.220   6.032
 2163SOL    HW1 7388   0.467   5.159   5.954
 2163SOL    HW2 7389   0.391   5.261   6.056
 2164SOL     OW 7390   1.562   2.190   0.080
 2164SOL    HW1 7391   1.546   2.120   0.010
 2164SOL    HW2 7392   1.647   2.238   0.059
 2165SOL     OW 7393   1.084   1.645   2.395
 2165SOL    HW1 7394   1.124   1.592   2.321
 2165SOL    HW2 7395   0.985   1.630   2.396
 2166SOL     OW 7396   1.979   1.733   5.369
 2166SOL    HW1 7397   1.946   1.717   5.275
 2166SOL    HW2 7398   2.007   1.828   5.378
 2167SOL     OW 7399   1.701   1.261   3.721
 2167SOL    HW1 7400   1.605   1.250   3.693
 2167SOL    HW2 7401   1.735   1.349   3.688
 2168SOL     OW 7402   0.482   2.245   3.432
 2168SOL    HW1 7403   0.431   2.219   3.514
 2168SOL    HW2 7404   0.421   2.241   3.353
 2169SOL     OW 7405   6.048   2.209   5.694
 2169SOL    HW1 7406   6.108   2.164   5.627
 2169SOL    HW2 7407   6.015   2.141   5.759
 2170SOL     OW 7408   5.576   4.833   5.722
 2170SOL    HW1 7409   5.654   4.893   5.743
 2170SOL    HW2 7410   5.515   4.829   5.801
 2171SOL     OW 7411   6.401   3.030   1.252
 2171SOL    HW1 7412   6.375   3.068   1.340
 2171SOL    HW2 7413   6.430   2.935   1.263
 2172SOL     OW 7414   2.658   1.506   0.564
 2172SOL    HW1 7415   2.630   1.498   0.659
 2172SOL    HW2 7416   2.588   1.465   0.505
 2173SOL     OW 7417   3.795   0.019   5.258
 2173SOL    HW1 7418   3.701   7.016   5.279
 2173SOL    HW2 7419   3.812   0.008   5.160
 2174SOL     OW 7420   5.845   4.975   6.105
 2174SOL    HW1 7421   5.784   5.016   6.038
 2174SOL    HW2 7422   5.900   4.904   6.061
 2175SOL     OW 7423   3.128   1.929   3.582
 2175SOL    HW1 7424   3.219   1.936   3.541
 2175SOL    HW2 7425   3.129   1.857   3.652
 2176SOL     OW 7426   0.979   2.900   0.269
 2176SOL    HW1 7427   1.043   2.877   0.341
 2176SOL    HW2 7428   0.949   2.995   0.280
 2177SOL     OW 7429   6.675   0.427   3.105
 2177SOL    HW1 7430   6.600   0.408   3.168
 2177SOL    HW2 7431   6.762   0.416   3.153
 2178SOL     OW 7432   1.844   4.371   0.412
 2178SOL    HW1 7433   1.859   4.278   0.445
 2178SOL    HW2 7434   1.814   4.368   0.316
 2179SOL     OW 7435   1.737   5.513   4.641
 2179SOL    HW1 7436   1.790   5.510   4.726
 2179SOL    HW2 7437   1.796   5.486   4.565
 2180SOL     OW 7438   2.937   3.487   1.999
 2180SOL    HW1 7439   2.916   3.577   2.037
 2180SOL    HW2 7440   2.867   3.461   1.932
 2181SOL     OW 7441   5.753   4.331   5.818
 2181SOL    HW1 7442   5.783   4.250   5.769
 2181SOL    HW2 7443   5.830   4.394   5.829
 2182SOL     OW 7444   6.178   3.190   4.946
 2182SOL    HW1 7445   6.120   3.163   5.024
 2182SOL    HW2 7446   6.120   3.222   4.871
 2183SOL     OW 7447   3.245   3.735   6.414
 2183SOL    HW1 7448   3.306   3.683   6.474
 2183SOL    HW2 7449   3.210   3.815   6.462
 2184SOL     OW 7450   3.709   1.394   5.252
 2184SOL    HW1 7451   3.779   1.465   5.265
 2184SOL    HW2 7452   3.637   1.404   5.321
 2185SOL     OW 7453   1.469   2.337   0.431
 2185SOL    HW1 7454   1.395   2.336   0.498
 2185SOL    HW2 7455   1.531   2.260   0.448
 2186SOL     OW 7456   6.954   4.638   2.165
 2186SOL    HW1 7457   6.985   4.731   2.179
 2186SOL    HW2 7458   6.879   4.618   2.229
 2187SOL     OW 7459   0.389   2.033   1.996
 2187SOL    HW1 7460   0.452   1.978   2.050
 2187SOL    HW2 7461   0.365   1.984   1.912
 2188SOL     OW 7462   5.500   6.027   4.435
 2188SOL    HW1 7463   5.493   5.997   4.530
 2188SOL    HW2 7464   5.438   5.972   4.379
 2189SOL     OW 7465   2.065   6.352   6.490
 2189SOL    HW1 7466   2.040   6.431   6.434
 2189SOL    HW2 7467   2.149   6.372   6.540
 2190SOL     OW 7468   0.190   2.727   2.337
 2190SOL    HW1 7469   0.174   2.753   2.242
 2190SOL    HW2 7470   0.272   2.773   2.371
 2191SOL     OW 7471   3.193   1.450   6.157
 2191SOL    HW1 7472   3.193   1.411   6.065
 2191SOL    HW2 7473   3.181   1.549   6.152
 2192SOL     OW 7474   3.875   6.771   4.034
 2192SOL    HW1 7475   3.929   6.687   4.043
 2192SOL    HW2 7476   3.866   6.795   3.937
 2193SOL     OW 7477   0.349   5.830   6.008
 2193SOL    HW1 7478   0.417   5.770   5.965
 2193SOL    HW2 7479   0.373   5.845   6.104
 2194SOL     OW 7480   2.651   4.366   6.986
 2194SOL    HW1 7481   2.557   4.390   7.011
 2194SOL    HW2 7482   2.707   4.449   6.987
 2195SOL     OW 7483   0.480   6.795   2.984
 2195SOL    HW1 7484   0.538   6.716   3.007
 2195SOL    HW2 7485   0.416   6.812   3.059
 2196SOL     OW 7486   3.181   0.366   5.449
 2196SOL    HW1 7487   3.090   0.398   5.423
 2196SOL    HW2 7488   3.192   0.270   5.424
 2197SOL     OW 7489   4.477   3.681   1.605
 2197SOL    HW1 7490   4.561   3.729   1.632
 2197SOL    HW2 7491   4.399   3.744   1.613
 2198SOL     OW 7492   6.832   1.638   7.007
 2198SOL    HW1 7493   6.822   1.684   6.919
 2198SOL    HW2 7494   6.928   1.638   0.011
 2199SOL     OW 7495   5.683   1.107   1.874
 2199SOL    HW1 7496   5.678   1.062   1.785
 2199SOL    HW2 7497   5.597   1.095   1.922
 2200SOL     OW 7498   4.394   0.283   4.626
 2200SOL    HW1 7499   4.432   0.215   4.563
 2200SOL    HW2 7500   4.304   0.313   4.592
 2201SOL     OW 7501   6.630   2.801   2.255
 2201SOL    HW1 7502   6.585   2.809   2.344
 2201SOL    HW2 7503   6.717   2.754   2.266
 2202SOL     OW 7504   3.663   5.050   4.032
 2202SOL    HW1 7505   3.761   5.048   4.051
 2202SOL    HW2 7506   3.615   4.996   4.101
 2203SOL     OW 7507   2.171   2.492   1.789
 2203SOL    HW1 7508   2.247   2.511   1.852
 2203SOL    HW2 7509   2.085   2.524   1.829
 2204SOL     OW 7510   3.444   1.178   6.883
 2204SOL    HW1 7511   3.386   1.106   6.845
 2204SOL    HW2 7512   3.389   1.241   6.937
 2205SOL     OW 7513   1.920   0.100   6.326
 2205SOL    HW1 7514   1.951   0.130   6.416
 2205SOL    HW2 7515   1.850   0.164   6.293
 2206SOL     OW 7516   2.875   3.914   5.235
 2206SOL    HW1 7517   2.932   3.969   5.173
 2206SOL    HW2 7518   2.782   3.951   5.235
 2207SOL     OW 7519   2.126   3.903   6.193
 2207SOL    HW1 7520   2.189   3.948   6.256
 2207SOL    HW2 7521   2.177   3.867   6.115
 2208SOL     OW 7522   1.892   4.952   2.409
 2208SOL    HW1 7523   1.930   5.004   2.486
 2208SOL    HW2 7524   1.894   5.008   2.326
 2209SOL     OW 7525   1.437   5.275   6.263
 2209SOL    HW1 7526   1.468   5.370   6.267
 2209SOL    HW2 7527   1.352   5.266   6.316
 2210SOL     OW 7528   0.294   4.629   3.841
 2210SOL    HW1 7529   0.368   4.685   3.877
 2210SOL    HW2 7530   0.330   4.564   3.774
 2211SOL     OW 7531   5.450   1.293   6.919
 2211SOL    HW1 7532   5.405   1.351   6.852
 2211SOL    HW2 7533   5.461   1.344   7.005
 2212SOL     OW 7534   1.867   6.158   0.857
 2212SOL    HW1 7535   1.866   6.070   0.904
 2212SOL    HW2 7536   1.779   6.204   0.869
 2213SOL     OW 7537   3.884   2.568   5.341
 2213SOL    HW1 7538   3.969   2.577   5.288
 2213SOL    HW2 7539   3.814   2.628   5.303
 2214SOL     OW 7540   4.733   1.364   5.284
 2214SOL    HW1 7541   4.797   1.288   5.273
 2214SOL    HW2 7542   4.737   1.423   5.203
 2215SOL     OW 7543   6.687   2.004   6.122
 2215SOL    HW1 7544   6.717   1.980   6.215
 2215SOL    HW2 7545   6.764   2.000   6.059
 2216SOL     OW 7546   1.714   0.673   6.878
 2216SOL    HW1 7547   1.746   0.691   6.785
 2216SOL    HW2 7548   1.730   0.577   6.901
 2217SOL     OW 7549   3.146   0.186   1.724
 2217SOL    HW1 7550   3.090   0.245   1.666
 2217SOL    HW2 7551   3.105   0.179   1.815
 2218SOL     OW 7552   1.389   6.855   1.081
 2218SOL    HW1 7553   1.345   6.879   0.995
 2218SOL    HW2 7554   1.450   6.929   1.110
 2219SOL     OW 7555   0.606   3.928   3.179
 2219SOL    HW1 7556   0.659   3.952   3.260
 2219SOL    HW2 7557   0.591   3.830   3.176
 2220SOL     OW 7558   0.140   1.434   4.399
 2220SOL    HW1 7559   0.207   1.395   4.336
 2220SOL    HW2 7560   0.054   1.450   4.351
 2221SOL     OW 7561   6.829   1.120   6.722
 2221SOL    HW1 7562   6.821   1.187   6.796
 2221SOL    HW2 7563   6.891   1.155   6.652
 2222SOL     OW 7564   3.728   0.813   1.094
 2222SOL    HW1 7565   3.805   0.776   1.145
 2222SOL    HW2 7566   3.663   0.855   1.157
 2223SOL     OW 7567   5.718   6.079   3.860
 2223SOL    HW1 7568   5.625   6.086   3.894
 2223SOL    HW2 7569   5.771   6.158   3.890
 2224SOL     OW 7570   2.197   4.507   2.049
 2224SOL    HW1 7571   2.244   4.434   2.097
 2224SOL    HW2 7572   2.104   4.517   2.085
 2225SOL     OW 7573   6.095   5.896   2.942
 2225SOL    HW1 7574   6.059   5.871   3.032
 2225SOL    HW2 7575   6.048   5.978   2.909
 2226SOL     OW 7576   4.111   4.040   0.786
 2226SOL    HW1 7577   4.151   4.063   0.874
 2226SOL    HW2 7578   4.016   4.071   0.783
 2227SOL     OW 7579   5.918   4.122   0.224
 2227SOL    HW1 7580   6.016   4.134   0.208
 2227SOL    HW2 7581   5.891   4.167   0.308
 2228SOL     OW 7582   2.981   5.870   0.944
 2228SOL    HW1 7583   3.080   5.858   0.959
 2228SOL    HW2 7584   2.931   5.795   0.987
 2229SOL     OW 7585   4.289   1.202   4.574
 2229SOL    HW1 7586   4.267   1.119   4.625
 2229SOL    HW2 7587   4.381   1.232   4.598
 2230SOL     OW 7588   0.955   5.821   5.087
 2230SOL    HW1 7589   1.002   5.755   5.146
 2230SOL    HW2 7590   0.991   5.813   4.994
 2231SOL     OW 7591   1.891   1.102   1.339
 2231SOL    HW1 7592   1.967   1.049   1.303
 2231SOL    HW2 7593   1.902   1.198   1.314
 2232SOL     OW 7594   0.997   2.121   3.802
 2232SOL    HW1 7595   1.048   2.092   3.883
 2232SOL    HW2 7596   1.030   2.070   3.722
 2233SOL     OW 7597   2.193   4.574   0.818
 2233SOL    HW1 7598   2.222   4.552   0.725
 2233SOL    HW2 7599   2.250   4.524   0.883
 2234SOL     OW 7600   4.680   1.848   1.632
 2234SOL    HW1 7601   4.700   1.757   1.595
 2234SOL    HW2 7602   4.611   1.893   1.574
 2235SOL     OW 7603   1.916   6.942   0.615
 2235SOL    HW1 7604   1.827   6.898   0.623
 2235SOL    HW2 7605   1.977   6.908   0.687
 2236SOL     OW 7606   0.443   4.438   0.323
 2236SOL    HW1 7607   0.534   4.427   0.283
 2236SOL    HW2 7608   0.398   4.518   0.281
 2237SOL     OW 7609   5.379   4.053   4.228
 2237SOL    HW1 7610   5.452   4.025   4.290
 2237SOL    HW2 7611   5.324   3.974   4.202
 2238SOL     OW 7612   6.341   5.931   2.620
 2238SOL    HW1 7613   6.424   5.913   2.673
 2238SOL    HW2 7614   6.261   5.899   2.671
 2239SOL     OW 7615   3.647   5.564   3.911
 2239SOL    HW1 7616   3.663   5.465   3.920
 2239SOL    HW2 7617   3.550   5.584   3.923
 2240SOL     OW 7618   5.598   6.143   4.198
 2240SOL    HW1 7619   5.539   6.095   4.134
 2240SOL    HW2 7620   5.572   6.119   4.292
 2241SOL     OW 7621   0.301   6.836   2.084
 2241SOL    HW1 7622   0.280   6.928   2.051
 2241SOL    HW2 7623   0.343   6.783   2.010
 2242SOL     OW 7624   5.804   2.331   3.009
 2242SOL    HW1 7625   5.710   2.361   2.995
 2242SOL    HW2 7626   5.828   2.263   2.939
 2243SOL     OW 7627   3.047   6.055   5.090
 2243SOL    HW1 7628   3.088   5.994   5.158
 2243SOL    HW2 7629   2.964   6.014   5.053
 2244SOL     OW 7630   3.441   0.618   3.214
 2244SOL    HW1 7631   3.484   0.568   3.139
 2244SOL    HW2 7632   3.359   0.665   3.181
 2245SOL     OW 7633   0.505   2.274   1.405
 2245SOL    HW1 7634   0.522   2.355   1.350
 2245SOL    HW2 7635   0.575   2.205   1.387
 2246SOL     OW 7636   1.408   1.660   4.363
 2246SOL    HW1 7637   1.398   1.759   4.349
 2246SOL    HW2 7638   1.419   1.615   4.275
 2247SOL     OW 7639   2.604   2.555   6.492
 2247SOL    HW1 7640   2.656   2.498   6.429
 2247SOL    HW2 7641   2.647   2.645   6.498
 2248SOL     OW 7642   4.697   3.743   6.474
 2248SOL    HW1 7643   4.699   3.643   6.477
 2248SOL    HW2 7644   4.790   3.778   6.486
 2249SOL     OW 7645   5.466   6.503   3.091
 2249SOL    HW1 7646   5.452   6.575   3.022
 2249SOL    HW2 7647   5.385   6.445   3.095
 2250SOL     OW 7648   5.369   3.909   1.311
 2250SOL    HW1 7649   5.431   3.871   1.241
 2250SOL    HW2 7650   5.276   3.876   1.294
 2251SOL     OW 7651   5.498   1.605   6.859
 2251SOL    HW1 7652   5.473   1.579   6.952
 2251SOL    HW2 7653   5.430   1.669   6.823
 2252SOL     OW 7654   6.662   2.651   4.218
 2252SOL    HW1 7655   6.684   2.554   4.204
 2252SOL    HW2 7656   6.563   2.664   4.205
 2253SOL     OW 7657   1.347   3.037   0.393
 2253SOL    HW1 7658   1.352   2.960   0.457
 2253SOL    HW2 7659   1.431   3.041   0.339
 2254SOL     OW 7660   2.363   2.969   5.586
 2254SOL    HW1 7661   2.351   2.926   5.497
 2254SOL    HW2 7662   2.393   3.064   5.573
 2255SOL     OW 7663   6.019   2.549   0.797
 2255SOL    HW1 7664   5.994   2.638   0.834
 2255SOL    HW2 7665   6.111   2.525   0.827
 2256SOL     OW 7666   3.896   5.831   1.656
 2256SOL    HW1 7667   3.926   5.924   1.633
 2256SOL    HW2 7668   3.841   5.795   1.581
 2257SOL     OW 7669   0.065   3.115   4.425
 2257SOL    HW1 7670   0.008   3.063   4.489
 2257SOL    HW2 7671   0.154   3.070   4.417
 2258SOL     OW 7672   1.665   5.681   5.271
 2258SOL    HW1 7673   1.605   5.745   5.225
 2258SOL    HW2 7674   1.634   5.587   5.255
 2259SOL     OW 7675   4.704   3.487   6.420
 2259SOL    HW1 7676   4.665   3.418   6.481
 2259SOL    HW2 7677   4.664   3.477   6.329
 2260SOL     OW 7678   5.135   4.452   3.146
 2260SOL    HW1 7679   5.094   4.438   3.237
 2260SOL    HW2 7680   5.148   4.550   3.130
 2261SOL     OW 7681   6.159   6.827   0.757
 2261SOL    HW1 7682   6.234   6.864   0.813
 2261SOL    HW2 7683   6.196   6.791   0.672
 2262SOL     OW 7684   6.132   3.193   2.728
 2262SOL    HW1 7685   6.164   3.112   2.776
 2262SOL    HW2 7686   6.065   3.166   2.659
 2263SOL     OW 7687   3.028   5.582   5.971
 2263SOL    HW1 7688   3.056   5.620   6.060
 2263SOL    HW2 7689   2.929   5.571   5.969
 2264SOL     OW 7690   2.942   3.788   2.368
 2264SOL    HW1 7691   2.976   3.703   2.327
 2264SOL    HW2 7692   2.905   3.769   2.459
 2265SOL     OW 7693   0.401   0.553   3.610
 2265SOL    HW1 7694   0.489   0.583   3.573
 2265SOL    HW2 7695   0.381   0.461   3.578
 2266SOL     OW 7696   6.252   1.282   0.956
 2266SOL    HW1 7697   6.242   1.237   0.867
 2266SOL    HW2 7698   6.338   1.253   0.998
 2267SOL     OW 7699   5.622   2.619   4.838
 2267SOL    HW1 7700   5.708   2.582   4.803
 2267SOL    HW2 7701   5.616   2.716   4.816
 2268SOL     OW 7702   6.560   4.862   0.024
 2268SOL    HW1 7703   6.656   4.848   0.050
 2268SOL    HW2 7704   6.501   4.819   0.091
 2269SOL     OW 7705   5.754   5.760   5.304
 2269SOL    HW1 7706   5.748   5.757   5.404
 2269SOL    HW2 7707   5.825   5.825   5.276
 2270SOL     OW 7708   3.936   3.068   6.947
 2270SOL    HW1 7709   3.909   3.000   7.016
 2270SOL    HW2 7710   3.895   3.044   6.859
 2271SOL     OW 7711   5.684   4.130   0.906
 2271SOL    HW1 7712   5.767   4.161   0.858
 2271SOL    HW2 7713   5.689   4.031   0.919
 2272SOL     OW 7714   6.006   2.138   4.923
 2272SOL    HW1 7715   6.095   2.096   4.944
 2272SOL    HW2 7716   6.019   2.211   4.856
 2273SOL     OW 7717   1.831   1.441   1.743
 2273SOL    HW1 7718   1.844   1.374   1.815
 2273SOL    HW2 7719   1.763   1.407   1.678
 2274SOL     OW 7720   1.145   3.175   5.856
 2274SOL    HW1 7721   1.207   3.188   5.779
 2274SOL    HW2 7722   1.070   3.114   5.829
 2275SOL     OW 7723   5.277   0.451   4.654
 2275SOL    HW1 7724   5.346   0.409   4.713
 2275SOL    HW2 7725   5.222   0.379   4.611
 2276SOL     OW 7726   3.136   4.890   1.320
 2276SOL    HW1 7727   3.119   4.911   1.224
 2276SOL    HW2 7728   3.229   4.916   1.344
 2277SOL     OW 7729   3.029   3.845   4.568
 2277SOL    HW1 7730   3.119   3.820   4.605
 2277SOL    HW2 7731   3.028   3.942   4.546
 2278SOL     OW 7732   4.855   6.904   4.491
 2278SOL    HW1 7733   4.806   6.835   4.437
 2278SOL    HW2 7734   4.864   6.988   4.438
 2279SOL     OW 7735   5.272   5.538   4.240
 2279SOL    HW1 7736   5.183   5.493   4.249
 2279SOL    HW2 7737   5.337   5.496   4.303
 2280SOL     OW 7738   6.728   6.478   4.985
 2280SOL    HW1 7739   6.653   6.529   4.942
 2280SOL    HW2 7740   6.798   6.459   4.916
 2281SOL     OW 7741   3.655   1.131   1.864
 2281SOL    HW1 7742   3.665   1.172   1.773
 2281SOL    HW2 7743   3.558   1.127   1.888
 2282SOL     OW 7744   5.446   0.303   4.791
 2282SOL    HW1 7745   5.392   0.245   4.851
 2282SOL    HW2 7746   5.526   0.252   4.758
 2283SOL     OW 7747   0.201   4.766   1.187
 2283SOL    HW1 7748   0.196   4.667   1.198
 2283SOL    HW2 7749   0.279   4.789   1.128
 2284SOL     OW 7750   2.168   1.456   0.332
 2284SOL    HW1 7751   2.212   1.547   0.337
 2284SOL    HW2 7752   2.239   1.386   0.321
 2285SOL     OW 7753   1.847   3.546   6.975
 2285SOL    HW1 7754   1.917   3.496   6.924
 2285SOL    HW2 7755   1.779   3.583   6.912
 2286SOL     OW 7756   6.369   6.472   4.313
 2286SOL    HW1 7757   6.330   6.392   4.267
 2286SOL    HW2 7758   6.367   6.457   4.412
 2287SOL     OW 7759   2.566   2.476   1.863
 2287SOL    HW1 7760   2.513   2.555   1.894
 2287SOL    HW2 7761   2.634   2.506   1.797
 2288SOL     OW 7762   6.831   5.004   4.535
 2288SOL    HW1 7763   6.860   4.954   4.617
 2288SOL    HW2 7764   6.818   5.100   4.558
 2289SOL     OW 7765   6.471   3.884   2.791
 2289SOL    HW1 7766   6.536   3.958   2.774
 2289SOL    HW2 7767   6.453   3.835   2.705
 2290SOL     OW 7768   2.031   3.651   1.837
 2290SOL    HW1 7769   1.940   3.612   1.828
 2290SOL    HW2 7770   2.086   3.593   1.899
 2291SOL     OW 7771   2.094   2.029   0.308
 2291SOL    HW1 7772   2.152   2.004   0.386
 2291SOL    HW2 7773   1.998   2.011   0.330
 2292SOL     OW 7774   4.961   2.513   3.318
 2292SOL    HW1 7775   4.877   2.543   3.273
 2292SOL    HW2 7776   4.990   2.425   3.281
 2293SOL     OW 7777   6.276   0.248   0.498
 2293SOL    HW1 7778   6.238   0.272   0.587
 2293SOL    HW2 7779   6.364   0.293   0.485
 2294SOL     OW 7780   3.627   1.856   6.162
 2294SOL    HW1 7781   3.612   1.791   6.087
 2294SOL    HW2 7782   3.699   1.920   6.136
 2295SOL     OW 7783   0.498   1.349   3.080
 2295SOL    HW1 7784   0.584   1.336   3.030
 2295SOL    HW2 7785   0.465   1.443   3.067
 2296SOL     OW 7786   2.766   5.009   3.045
 2296SOL    HW1 7787   2.746   4.981   3.139
 2296SOL    HW2 7788   2.730   5.100   3.028
 2297SOL     OW 7789   4.999   4.657   6.075
 2297SOL    HW1 7790   5.042   4.681   6.162
 2297SOL    HW2 7791   5.011   4.560   6.058
 2298SOL     OW 7792   3.582   3.827   2.837
 2298SOL    HW1 7793   3.655   3.761   2.820
 2298SOL    HW2 7794   3.544   3.857   2.749
 2299SOL     OW 7795   5.158   4.553   5.019
 2299SOL    HW1 7796   5.073   4.511   5.053
 2299SOL    HW2 7797   5.174   4.523   4.925
 2300SOL     OW 7798   2.802   6.569   3.547
 2300SOL    HW1 7799   2.879   6.508   3.527
 2300SOL    HW2 7800   2.722   6.539   3.495
 2301SOL     OW 7801   3.883   3.020   3.667
 2301SOL    HW1 7802   3.949   3.092   3.686
 2301SOL    HW2 7803   3.855   2.977   3.753
 2302SOL     OW 7804   3.324   0.620   1.536
 2302SOL    HW1 7805   3.406   0.585   1.579
 2302SOL    HW2 7806   3.347   0.660   1.447
 2303SOL     OW 7807   2.335   3.121   1.146
 2303SOL    HW1 7808   2.239   3.124   1.117
 2303SOL    HW2 7809   2.360   3.209   1.186
 2304SOL     OW 7810   5.524   5.701   4.440
 2304SOL    HW1 7811   5.441   5.726   4.390
 2304SOL    HW2 7812   5.503   5.696   4.538
 2305SOL     OW 7813   2.178   0.408   3.437
 2305SOL    HW1 7814   2.239   0.358   3.499
 2305SOL    HW2 7815   2.195   0.506   3.445
 2306SOL     OW 7816   1.564   5.406   1.430
 2306SOL    HW1 7817   1.497   5.440   1.496
 2306SOL    HW2 7818   1.612   5.328   1.468
 2307SOL     OW 7819   0.517   3.213   5.563
 2307SOL    HW1 7820   0.560   3.262   5.639
 2307SOL    HW2 7821   0.423   3.190   5.588
 2308SOL     OW 7822   2.594   4.888   1.376
 2308SOL    HW1 7823   2.600   4.792   1.405
 2308SOL    HW2 7824   2.605   4.947   1.456
 2309SOL     OW 7825   1.954   1.112   4.684
 2309SOL    HW1 7826   1.936   1.055   4.764
 2309SOL    HW2 7827   1.919   1.068   4.602
 2310SOL     OW 7828   5.731   6.187   2.251
 2310SOL    HW1 7829   5.787   6.132   2.313
 2310SOL    HW2 7830   5.729   6.144   2.160
 2311SOL     OW 7831   2.867   6.063   0.076
 2311SOL    HW1 7832   2.934   6.136   0.093
 2311SOL    HW2 7833   2.869   6.038   7.003
 2312SOL     OW 7834   4.268   5.847   3.615
 2312SOL    HW1 7835   4.210   5.778   3.570
 2312SOL    HW2 7836   4.356   5.806   3.639
 2313SOL     OW 7837   4.838   5.332   2.325
 2313SOL    HW1 7838   4.779   5.308   2.403
 2313SOL    HW2 7839   4.797   5.408   2.275
 2314SOL     OW 7840   4.415   6.612   2.783
 2314SOL    HW1 7841   4.335   6.598   2.724
 2314SOL    HW2 7842   4.464   6.526   2.793
 2315SOL     OW 7843   5.284   3.265   5.957
 2315SOL    HW1 7844   5.351   3.232   6.024
 2315SOL    HW2 7845   5.215   3.194   5.941
 2316SOL     OW 7846   4.896   2.018   3.808
 2316SOL    HW1 7847   4.881   2.116   3.821
 2316SOL    HW2 7848   4.845   1.986   3.728
 2317SOL     OW 7849   0.417   5.573   3.231
 2317SOL    HW1 7850   0.381   5.557   3.139
 2317SOL    HW2 7851   0.349   5.544   3.299
 2318SOL     OW 7852   0.253   3.182   3.714
 2318SOL    HW1 7853   0.346   3.219   3.723
 2318SOL    HW2 7854   0.245   3.135   3.626
 2319SOL     OW 7855   1.345   4.700   4.533
 2319SOL    HW1 7856   1.342   4.608   4.493
 2319SOL    HW2 7857   1.275   4.708   4.604
 2320SOL     OW 7858   0.969   2.802   4.352
 2320SOL    HW1 7859   1.040   2.787   4.284
 2320SOL    HW2 7860   0.973   2.729   4.421
 2321SOL     OW 7861   3.328   1.246   5.236
 2321SOL    HW1 7862   3.262   1.185   5.194
 2321SOL    HW2 7863   3.386   1.194   5.299
 2322SOL     OW 7864   2.639   1.643   5.224
 2322SOL    HW1 7865   2.692   1.563   5.249
 2322SOL    HW2 7866   2.688   1.696   5.154
 2323SOL     OW 7867   2.728   4.793   2.578
 2323SOL    HW1 7868   2.820   4.832   2.571
 2323SOL    HW2 7869   2.661   4.858   2.542
 2324SOL     OW 7870   0.468   6.393   2.755
 2324SOL    HW1 7871   0.394   6.461   2.758
 2324SOL    HW2 7872   0.527   6.413   2.677
 2325SOL     OW 7873   0.943   4.036   1.424
 2325SOL    HW1 7874   0.979   3.948   1.394
 2325SOL    HW2 7875   0.962   4.048   1.522
 2326SOL     OW 7876   2.780   4.138   6.072
 2326SOL    HW1 7877   2.721   4.218   6.063
 2326SOL    HW2 7878   2.853   4.158   6.138
 2327SOL     OW 7879   5.231   2.642   4.819
 2327SOL    HW1 7880   5.273   2.661   4.730
 2327SOL    HW2 7881   5.235   2.725   4.875
 2328SOL     OW 7882   5.074   1.532   3.776
 2328SOL    HW1 7883   5.165   1.512   3.813
 2328SOL    HW2 7884   5.039   1.616   3.818
 2329SOL     OW 7885   1.708   5.347   4.896
 2329SOL    HW1 7886   1.798   5.370   4.933
 2329SOL    HW2 7887   1.654   5.301   4.967
 2330SOL     OW 7888   0.140   4.547   2.006
 2330SOL    HW1 7889   0.121   4.478   1.936
 2330SOL    HW2 7890   0.065   4.548   2.072
 2331SOL     OW 7891   6.130   5.061   6.709
 2331SOL    HW1 7892   6.206   4.996   6.716
 2331SOL    HW2 7893   6.142   5.118   6.628
 2332SOL     OW 7894   4.793   2.132   5.130
 2332SOL    HW1 7895   4.846   2.204   5.173
 2332SOL    HW2 7896   4.720   2.102   5.192
 2333SOL     OW 7897   6.789   4.950   2.927
 2333SOL    HW1 7898   6.717   5.011   2.959
 2333SOL    HW2 7899   6.867   5.005   2.897
 2334SOL     OW 7900   2.620   6.912   0.144
 2334SOL    HW1 7901   2.640   6.827   0.193
 2334SOL    HW2 7902   2.706   6.956   0.119
 2335SOL     OW 7903   6.127   0.678   2.892
 2335SOL    HW1 7904   6.083   0.688   2.803
 2335SOL    HW2 7905   6.139   0.768   2.934
 2336SOL     OW 7906   4.683   1.651   5.362
 2336SOL    HW1 7907   4.723   1.683   5.447
 2336SOL    HW2 7908   4.719   1.560   5.340
 2337SOL     OW 7909   5.049   0.863   3.560
 2337SOL    HW1 7910   5.080   0.799   3.489
 2337SOL    HW2 7911   4.986   0.929   3.519
 2338SOL     OW 7912   1.061   0.106   6.612
 2338SOL    HW1 7913   1.007   0.139   6.690
 2338SOL    HW2 7914   1.156   0.094   6.641
 2339SOL     OW 7915   3.897   3.894   5.224
 2339SOL    HW1 7916   3.826   3.825   5.237
 2339SOL    HW2 7917   3.986   3.857   5.251
 2340SOL     OW 7918   4.341   6.651   5.554
 2340SOL    HW1 7919   4.349   6.560   5.514
 2340SOL    HW2 7920   4.432   6.689   5.569
 2341SOL     OW 7921   4.835   4.100   1.182
 2341SOL    HW1 7922   4.786   4.187   1.172
 2341SOL    HW2 7923   4.887   4.101   1.267
 2342SOL     OW 7924   0.711   6.299   5.529
 2342SOL    HW1 7925   0.663   6.212   5.529
 2342SOL    HW2 7926   0.670   6.359   5.598
 2343SOL     OW 7927   1.909   6.434   1.200
 2343SOL    HW1 7928   1.991   6.452   1.254
 2343SOL    HW2 7929   1.930   6.370   1.127
 2344SOL     OW 7930   1.965   1.482   1.429
 2344SOL    HW1 7931   2.054   1.520   1.452
 2344SOL    HW2 7932   1.919   1.450   1.512
 2345SOL     OW 7933   1.748   6.532   5.621
 2345SOL    HW1 7934   1.780   6.591   5.547
 2345SOL    HW2 7935   1.700   6.588   5.689
 2346SOL     OW 7936   4.728   2.604   5.086
 2346SOL    HW1 7937   4.702   2.568   4.996
 2346SOL    HW2 7938   4.710   2.702   5.089
 2347SOL     OW 7939   1.487   4.281   2.003
 2347SOL    HW1 7940   1.455   4.297   1.910
 2347SOL    HW2 7941   1.461   4.359   2.060
 2348SOL     OW 7942   2.322   6.075   3.324
 2348SOL    HW1 7943   2.307   6.173   3.311
 2348SOL    HW2 7944   2.417   6.053   3.304
 2349SOL     OW 7945   1.009   6.724   0.215
 2349SOL    HW1 7946   1.001   6.626   0.233
 2349SOL    HW2 7947   0.990   6.775   0.299
 2350SOL     OW 7948   3.955   6.830   5.478
 2350SOL    HW1 7949   3.899   6.845   5.559
 2350SOL    HW2 7950   4.021   6.905   5.469
 2351SOL     OW 7951   3.309   5.323   3.498
 2351SOL    HW1 7952   3.270   5.380   3.570
 2351SOL    HW2 7953   3.409   5.326   3.504
 2352SOL     OW 7954   0.635   4.648   3.182
 2352SOL    HW1 7955   0.634   4.699   3.268
 2352SOL    HW2 7956   0.726   4.609   3.168
 2353SOL     OW 7957   2.543   4.517   4.512
 2353SOL    HW1 7958   2.553   4.607   4.553
 2353SOL    HW2 7959   2.601   4.510   4.431
 2354SOL     OW 7960   3.666   1.957   6.717
 2354SOL    HW1 7961   3.680   1.989   6.623
 2354SOL    HW2 7962   3.699   1.863   6.726
 2355SOL     OW 7963   0.487   5.967   0.660
 2355SOL    HW1 7964   0.505   5.942   0.755
 2355SOL    HW2 7965   0.450   5.888   0.611
 2356SOL     OW 7966   2.510   3.667   1.710
 2356SOL    HW1 7967   2.605   3.695   1.720
 2356SOL    HW2 7968   2.475   3.635   1.798
 2357SOL     OW 7969   4.201   5.014   4.040
 2357SOL    HW1 7970   4.206   5.111   4.015
 2357SOL    HW2 7971   4.285   4.987   4.086
 2358SOL     OW 7972   2.835   6.295   4.150
 2358SOL    HW1 7973   2.763   6.342   4.098
 2358SOL    HW2 7974   2.901   6.255   4.087
 2359SOL     OW 7975   1.826   0.668   6.205
 2359SOL    HW1 7976   1.738   0.622   6.214
 2359SOL    HW2 7977   1.812   0.759   6.166
 2360SOL     OW 7978   4.666   4.834   6.317
 2360SOL    HW1 7979   4.618   4.795   6.396
 2360SOL    HW2 7980   4.598   4.870   6.253
 2361SOL     OW 7981   2.742   6.670   4.115
 2361SOL    HW1 7982   2.681   6.747   4.097
 2361SOL    HW2 7983   2.694   6.584   4.094
 2362SOL     OW 7984   4.466   6.250   4.991
 2362SOL    HW1 7985   4.484   6.319   4.921
 2362SOL    HW2 7986   4.369   6.252   5.015
 2363SOL     OW 7987   4.911   2.456   5.208
 2363SOL    HW1 7988   5.007   2.486   5.204
 2363SOL    HW2 7989   4.855   2.515   5.150
 2364SOL     OW 7990   6.168   2.141   2.416
 2364SOL    HW1 7991   6.227   2.186   2.349
 2364SOL    HW2 7992   6.073   2.145   2.384
 2365SOL     OW 7993   5.735   4.469   5.566
 2365SOL    HW1 7994   5.830   4.438   5.560
 2365SOL    HW2 7995   5.697   4.440   5.653
 2366SOL     OW 7996   1.028   4.225   5.903
 2366SOL    HW1 7997   1.075   4.195   5.986
 2366SOL    HW2 7998   1.094   4.267   5.840
 2367SOL     OW 7999   1.002   3.340   6.432
 2367SOL    HW1 8000   1.025   3.437   6.424
 2367SOL    HW2 8001   1.035   3.291   6.351
 2368SOL     OW 8002   4.401   1.057   5.055
 2368SOL    HW1 8003   4.417   1.124   5.127
 2368SOL    HW2 8004   4.484   1.004   5.039
 2369SOL     OW 8005   1.963   2.053   3.849
 2369SOL    HW1 8006   2.028   2.054   3.925
 2369SOL    HW2 8007   1.929   2.146   3.832
 2370SOL     OW 8008   4.048   3.786   0.897
 2370SOL    HW1 8009   4.089   3.875   0.881
 2370SOL    HW2 8010   3.981   3.766   0.825
 2371SOL     OW 8011   1.492   6.055   2.419
 2371SOL    HW1 8012   1.502   5.960   2.392
 2371SOL    HW2 8013   1.401   6.088   2.392
 2372SOL     OW 8014   0.394   1.488   0.097
 2372SOL    HW1 8015   0.390   1.575   0.048
 2372SOL    HW2 8016   0.305   1.444   0.095
 2373SOL     OW 8017   6.521   1.186   6.438
 2373SOL    HW1 8018   6.538   1.126   6.516
 2373SOL    HW2 8019   6.443   1.245   6.458
 2374SOL     OW 8020   6.098   5.887   3.240
 2374SOL    HW1 8021   6.188   5.913   3.205
 2374SOL    HW2 8022   6.107   5.807   3.298
 2375SOL     OW 8023   0.739   0.457   4.248
 2375SOL    HW1 8024   0.717   0.461   4.151
 2375SOL    HW2 8025   0.838   0.457   4.261
 2376SOL     OW 8026   6.230   2.838   3.176
 2376SOL    HW1 8027   6.174   2.897   3.234
 2376SOL    HW2 8028   6.312   2.811   3.226
 2377SOL     OW 8029   3.235   3.826   4.294
 2377SOL    HW1 8030   3.223   3.761   4.218
 2377SOL    HW2 8031   3.219   3.778   4.380
 2378SOL     OW 8032   5.462   2.030   0.114
 2378SOL    HW1 8033   5.432   2.097   0.182
 2378SOL    HW2 8034   5.539   1.978   0.150
 2379SOL     OW 8035   6.711   3.497   0.204
 2379SOL    HW1 8036   6.632   3.439   0.225
 2379SOL    HW2 8037   6.766   3.453   0.133
 2380SOL     OW 8038   6.535   0.754   5.595
 2380SOL    HW1 8039   6.560   0.842   5.634
 2380SOL    HW2 8040   6.444   0.760   5.554
 2381SOL     OW 8041   1.478   4.563   5.039
 2381SOL    HW1 8042   1.419   4.555   4.959
 2381SOL    HW2 8043   1.512   4.472   5.064
 2382SOL     OW 8044   2.288   5.589   2.796
 2382SOL    HW1 8045   2.233   5.517   2.839
 2382SOL    HW2 8046   2.333   5.642   2.868
 2383SOL     OW 8047   5.548   6.414   6.396
 2383SOL    HW1 8048   5.478   6.344   6.411
 2383SOL    HW2 8049   5.515   6.480   6.329
 2384SOL     OW 8050   1.210   2.385   1.440
 2384SOL    HW1 8051   1.132   2.334   1.477
 2384SOL    HW2 8052   1.261   2.327   1.377
 2385SOL     OW 8053   0.589   0.638   0.826
 2385SOL    HW1 8054   0.639   0.558   0.861
 2385SOL    HW2 8055   0.652   0.715   0.817
 2386SOL     OW 8056   2.891   5.411   4.294
 2386SOL    HW1 8057   2.889   5.344   4.369
 2386SOL    HW2 8058   2.934   5.496   4.326
 2387SOL     OW 8059   6.474   3.040   4.385
 2387SOL    HW1 8060   6.500   3.134   4.408
 2387SOL    HW2 8061   6.440   3.037   4.291
 2388SOL     OW 8062   0.913   2.096   5.756
 2388SOL    HW1 8063   0.834   2.071   5.699
 2388SOL    HW2 8064   0.890   2.174   5.813
 2389SOL     OW 8065   4.265   4.754   3.918
 2389SOL    HW1 8066   4.210   4.818   3.972
 2389SOL    HW2 8067   4.304   4.684   3.979
 2390SOL     OW 8068   3.723   3.788   4.662
 2390SOL    HW1 8069   3.638   3.823   4.624
 2390SOL    HW2 8070   3.739   3.830   4.752
 2391SOL     OW 8071   3.736   3.976   6.172
 2391SOL    HW1 8072   3.742   4.029   6.257
 2391SOL    HW2 8073   3.809   3.908   6.170
 2392SOL     OW 8074   3.152   4.061   6.096
 2392SOL    HW1 8075   3.216   4.135   6.116
 2392SOL    HW2 8076   3.130   4.061   5.998
 2393SOL     OW 8077   3.972   5.314   1.129
 2393SOL    HW1 8078   3.973   5.251   1.207
 2393SOL    HW2 8079   3.961   5.408   1.162
 2394SOL     OW 8080   0.488   3.790   4.189
 2394SOL    HW1 8081   0.533   3.707   4.222
 2394SOL    HW2 8082   0.467   3.782   4.092
 2395SOL     OW 8083   6.910   2.872   6.586
 2395SOL    HW1 8084   6.842   2.802   6.606
 2395SOL    HW2 8085   6.869   2.963   6.597
 2396SOL     OW 8086   5.627   6.425   0.882
 2396SOL    HW1 8087   5.672   6.474   0.957
 2396SOL    HW2 8088   5.556   6.365   0.919
 2397SOL     OW 8089   6.528   4.966   0.417
 2397SOL    HW1 8090   6.622   4.962   0.385
 2397SOL    HW2 8091   6.467   4.983   0.340
 2398SOL     OW 8092   2.776   4.827   4.849
 2398SOL    HW1 8093   2.841   4.869   4.785
 2398SOL    HW2 8094   2.822   4.757   4.903
 2399SOL     OW 8095   3.653   1.907   3.777
 2399SOL    HW1 8096   3.734   1.963   3.795
 2399SOL    HW2 8097   3.579   1.965   3.744
 2400SOL     OW 8098   2.830   3.744   0.846
 2400SOL    HW1 8099   2.773   3.711   0.921
 2400SOL    HW2 8100   2.773   3.761   0.765
 2401SOL     OW 8101   3.381   0.418   4.263
 2401SOL    HW1 8102   3.440   0.459   4.333
 2401SOL    HW2 8103   3.292   0.462   4.265
 2402SOL     OW 8104   0.120   1.307   4.102
 2402SOL    HW1 8105   0.044   1.362   4.070
 2402SOL    HW2 8106   0.206   1.353   4.082
 2403SOL     OW 8107   3.277   2.829   0.601
 2403SOL    HW1 8108   3.224   2.764   0.547
 2403SOL    HW2 8109   3.217   2.876   0.666
 2404SOL     OW 8110   5.933   1.596   1.900
 2404SOL    HW1 8111   5.987   1.584   1.984
 2404SOL    HW2 8112   5.843   1.630   1.924
 2405SOL     OW 8113   3.707   3.890   5.508
 2405SOL    HW1 8114   3.732   3.880   5.604
 2405SOL    HW2 8115   3.743   3.976   5.473
 2406SOL     OW 8116   2.174   0.207   4.183
 2406SOL    HW1 8117   2.226   0.127   4.214
 2406SOL    HW2 8118   2.085   0.209   4.228
 2407SOL     OW 8119   4.600   2.642   2.625
 2407SOL    HW1 8120   4.637   2.716   2.681
 2407SOL    HW2 8121   4.614   2.662   2.528
 2408SOL     OW 8122   3.159   4.901   2.963
 2408SOL    HW1 8123   3.246   4.870   2.924
 2408SOL    HW2 8124   3.083   4.862   2.912
 2409SOL     OW 8125   2.018   2.806   1.060
 2409SOL    HW1 8126   2.008   2.775   0.965
 2409SOL    HW2 8127   2.001   2.905   1.065
 2410SOL     OW 8128   6.164   3.402   5.372
 2410SOL    HW1 8129   6.119   3.460   5.304
 2410SOL    HW2 8130   6.146   3.306   5.351
 2411SOL     OW 8131   3.263   3.484   5.484
 2411SOL    HW1 8132   3.241   3.519   5.576
 2411SOL    HW2 8133   3.179   3.454   5.439
 2412SOL     OW 8134   3.130   3.104   0.293
 2412SOL    HW1 8135   3.190   3.182   0.313
 2412SOL    HW2 8136   3.184   3.028   0.259
 2413SOL     OW 8137   5.470   3.645   6.332
 2413SOL    HW1 8138   5.449   3.573   6.266
 2413SOL    HW2 8139   5.561   3.629   6.370
 2414SOL     OW 8140   5.523   3.646   3.049
 2414SOL    HW1 8141   5.537   3.552   3.016
 2414SOL    HW2 8142   5.433   3.652   3.093
 2415SOL     OW 8143   2.062   0.282   1.921
 2415SOL    HW1 8144   1.992   0.344   1.885
 2415SOL    HW2 8145   2.034   0.249   2.011
 2416SOL     OW 8146   1.473   1.691   4.866
 2416SOL    HW1 8147   1.430   1.751   4.799
 2416SOL    HW2 8148   1.426   1.699   4.954
 2417SOL     OW 8149   5.353   2.067   1.002
 2417SOL    HW1 8150   5.261   2.036   0.977
 2417SOL    HW2 8151   5.361   2.165   0.982
 2418SOL     OW 8152   3.242   3.374   4.966
 2418SOL    HW1 8153   3.283   3.440   5.029
 2418SOL    HW2 8154   3.311   3.307   4.938
 2419SOL     OW 8155   1.387   6.963   5.065
 2419SOL    HW1 8156   1.348   7.023   5.136
 2419SOL    HW2 8157   1.322   6.953   4.990
 2420SOL     OW 8158   3.858   6.977   2.195
 2420SOL    HW1 8159   3.814   6.912   2.133
 2420SOL    HW2 8160   3.890   6.930   2.277
 2421SOL     OW 8161   3.288   6.738   4.125
 2421SOL    HW1 8162   3.287   6.713   4.222
 2421SOL    HW2 8163   3.202   6.711   4.083
 2422SOL     OW 8164   4.495   0.290   0.478
 2422SOL    HW1 8165   4.531   0.269   0.387
 2422SOL    HW2 8166   4.516   0.385   0.501
 2423SOL     OW 8167   1.838   5.124   1.943
 2423SOL    HW1 8168   1.780   5.200   1.912
 2423SOL    HW2 8169   1.861   5.066   1.865
 2424SOL     OW 8170   5.638   6.642   6.805
 2424SOL    HW1 8171   5.590   6.718   6.763
 2424SOL    HW2 8172   5.645   6.566   6.740
 2425SOL     OW 8173   5.889   6.691   6.088
 2425SOL    HW1 8174   5.903   6.789   6.078
 2425SOL    HW2 8175   5.960   6.642   6.038
 2426SOL     OW 8176   0.932   5.672   4.364
 2426SOL    HW1 8177   0.935   5.592   4.303
 2426SOL    HW2 8178   0.953   5.643   4.457
 2427SOL     OW 8179   5.697   5.888   0.109
 2427SOL    HW1 8180   5.713   5.948   0.031
 2427SOL    HW2 8181   5.773   5.898   0.174
 2428SOL     OW 8182   0.519   0.725   2.915
 2428SOL    HW1 8183   0.541   0.779   2.834
 2428SOL    HW2 8184   0.545   0.776   2.997
 2429SOL     OW 8185   6.201   4.541   3.165
 2429SOL    HW1 8186   6.251   4.621   3.198
 2429SOL    HW2 8187   6.108   4.542   3.202
 2430SOL     OW 8188   5.346   2.990   0.692
 2430SOL    HW1 8189   5.406   2.930   0.745
 2430SOL    HW2 8190   5.384   3.082   0.690
 2431SOL     OW 8191   4.316   1.117   0.954
 2431SOL    HW1 8192   4.377   1.130   1.031
 2431SOL    HW2 8193   4.221   1.113   0.987
 2432SOL     OW 8194   3.359   6.294   2.537
 2432SOL    HW1 8195   3.369   6.266   2.442
 2432SOL    HW2 8196   3.287   6.362   2.545
 2433SOL     OW 8197   1.824   6.406   0.158
 2433SOL    HW1 8198   1.902   6.464   0.135
 2433SOL    HW2 8199   1.817   6.331   0.092
 2434SOL     OW 8200   5.342   1.613   3.094
 2434SOL    HW1 8201   5.364   1.534   3.151
 2434SOL    HW2 8202   5.319   1.691   3.153
 2435SOL     OW 8203   5.262   4.698   0.466
 2435SOL    HW1 8204   5.319   4.686   0.547
 2435SOL    HW2 8205   5.185   4.758   0.488
 2436SOL     OW 8206   1.933   6.972   1.447
 2436SOL    HW1 8207   1.925   6.978   1.546
 2436SOL    HW2 8208   1.856   6.921   1.409
 2437SOL     OW 8209   5.291   6.731   1.617
 2437SOL    HW1 8210   5.199   6.731   1.655
 2437SOL    HW2 8211   5.357   6.708   1.688
 2438SOL     OW 8212   4.068   1.126   4.434
 2438SOL    HW1 8213   4.156   1.172   4.448
 2438SOL    HW2 8214   4.016   1.127   4.519
 2439SOL     OW 8215   0.850   3.893   0.399
 2439SOL    HW1 8216   0.897   3.976   0.369
 2439SOL    HW2 8217   0.917   3.829   0.437
 2440SOL     OW 8218   3.918   6.410   5.437
 2440SOL    HW1 8219   3.982   6.474   5.479
 2440SOL    HW2 8220   3.923   6.321   5.483
 2441SOL     OW 8221   5.987   0.726   6.879
 2441SOL    HW1 8222   6.038   0.781   6.946
 2441SOL    HW2 8223   6.001   0.629   6.898
 2442SOL     OW 8224   5.740   5.562   2.899
 2442SOL    HW1 8225   5.691   5.500   2.960
 2442SOL    HW2 8226   5.818   5.602   2.946
 2443SOL     OW 8227   3.201   0.084   6.372
 2443SOL    HW1 8228   3.142   0.164   6.385
 2443SOL    HW2 8229   3.293   0.115   6.345
 2444SOL     OW 8230   3.440   3.752   0.314
 2444SOL    HW1 8231   3.378   3.828   0.295
 2444SOL    HW2 8232   3.530   3.787   0.339
 2445SOL     OW 8233   6.177   1.095   1.791
 2445SOL    HW1 8234   6.183   1.182   1.741
 2445SOL    HW2 8235   6.265   1.049   1.788
 2446SOL     OW 8236   0.802   3.260   4.795
 2446SOL    HW1 8237   0.775   3.347   4.755
 2446SOL    HW2 8238   0.858   3.277   4.876
 2447SOL     OW 8239   2.397   1.280   1.148
 2447SOL    HW1 8240   2.432   1.214   1.214
 2447SOL    HW2 8241   2.425   1.372   1.173
 2448SOL     OW 8242   6.497   1.354   4.008
 2448SOL    HW1 8243   6.469   1.444   3.973
 2448SOL    HW2 8244   6.448   1.335   4.094
 2449SOL     OW 8245   0.565   4.131   1.860
 2449SOL    HW1 8246   0.540   4.047   1.908
 2449SOL    HW2 8247   0.592   4.201   1.926
 2450SOL     OW 8248   3.866   4.726   6.291
 2450SOL    HW1 8249   3.921   4.746   6.372
 2450SOL    HW2 8250   3.823   4.636   6.300
 2451SOL     OW 8251   1.492   6.870   3.510
 2451SOL    HW1 8252   1.428   6.826   3.573
 2451SOL    HW2 8253   1.477   6.834   3.417
 2452SOL     OW 8254   2.843   2.043   4.232
 2452SOL    HW1 8255   2.922   2.095   4.199
 2452SOL    HW2 8256   2.767   2.053   4.167
 2453SOL     OW 8257   0.234   3.605   0.571
 2453SOL    HW1 8258   0.233   3.528   0.635
 2453SOL    HW2 8259   0.191   3.578   0.485
 2454SOL     OW 8260   3.114   0.480   6.961
 2454SOL    HW1 8261   3.055   0.498   6.881
 2454SOL    HW2 8262   3.179   0.407   6.938
 2455SOL     OW 8263   3.785   0.485   0.357
 2455SOL    HW1 8264   3.778   0.535   0.271
 2455SOL    HW2 8265   3.697   0.487   0.404
 2456SOL     OW 8266   6.580   2.546   0.050
 2456SOL    HW1 8267   6.574   2.554   6.974
 2456SOL    HW2 8268   6.643   2.472   0.074
 2457SOL     OW 8269   6.888   1.047   6.188
 2457SOL    HW1 8270   6.929   0.993   6.262
 2457SOL    HW2 8271   6.956   1.063   6.117
 2458SOL     OW 8272   1.327   6.583   3.883
 2458SOL    HW1 8273   1.315   6.486   3.900
 2458SOL    HW2 8274   1.306   6.634   3.967
 2459SOL     OW 8275   3.007   5.871   5.910
 2459SOL    HW1 8276   2.992   5.904   6.004
 2459SOL    HW2 8277   2.976   5.776   5.902
 2460SOL     OW 8278   1.112   1.319   1.281
 2460SOL    HW1 8279   1.162   1.358   1.358
 2460SOL    HW2 8280   1.178   1.284   1.214
 2461SOL     OW 8281   5.100   0.736   3.081
 2461SOL    HW1 8282   5.167   0.665   3.101
 2461SOL    HW2 8283   5.040   0.705   3.008
 2462SOL     OW 8284   1.990   5.440   0.058
 2462SOL    HW1 8285   1.962   5.428   6.986
 2462SOL    HW2 8286   1.994   5.351   0.103
 2463SOL     OW 8287   5.959   1.931   6.748
 2463SOL    HW1 8288   6.031   1.983   6.794
 2463SOL    HW2 8289   5.990   1.903   6.658
 2464SOL     OW 8290   1.905   3.907   2.519
 2464SOL    HW1 8291   1.963   3.988   2.511
 2464SOL    HW2 8292   1.962   3.825   2.518
 2465SOL     OW 8293   1.103   6.851   6.771
 2465SOL    HW1 8294   1.007   6.866   6.747
 2465SOL    HW2 8295   1.137   6.770   6.724
 2466SOL     OW 8296   2.749   1.880   3.094
 2466SOL    HW1 8297   2.701   1.882   3.182
 2466SOL    HW2 8298   2.840   1.839   3.107
 2467SOL     OW 8299   5.332   1.753   4.747
 2467SOL    HW1 8300   5.296   1.721   4.659
 2467SOL    HW2 8301   5.413   1.810   4.731
 2468SOL     OW 8302   4.462   6.773   1.638
 2468SOL    HW1 8303   4.536   6.737   1.582
 2468SOL    HW2 8304   4.383   6.793   1.579
 2469SOL     OW 8305   4.450   3.858   5.364
 2469SOL    HW1 8306   4.442   3.768   5.322
 2469SOL    HW2 8307   4.374   3.916   5.334
 2470SOL     OW 8308   4.947   4.124   6.185
 2470SOL    HW1 8309   5.001   4.040   6.181
 2470SOL    HW2 8310   4.890   4.123   6.267
 2471SOL     OW 8311   2.824   6.063   0.830
 2471SOL    HW1 8312   2.861   6.065   0.737
 2471SOL    HW2 8313   2.879   6.000   0.886
 2472SOL     OW 8314   4.699   2.305   3.378
 2472SOL    HW1 8315   4.672   2.322   3.473
 2472SOL    HW2 8316   4.744   2.216   3.371
 2473SOL     OW 8317   2.147   3.599   4.681
 2473SOL    HW1 8318   2.112   3.671   4.742
 2473SOL    HW2 8319   2.123   3.622   4.586
 2474SOL     OW 8320   0.205   6.127   1.661
 2474SOL    HW1 8321   0.273   6.194   1.632
 2474SOL    HW2 8322   0.142   6.171   1.725
 2475SOL     OW 8323   3.925   0.939   3.390
 2475SOL    HW1 8324   3.965   0.864   3.336
 2475SOL    HW2 8325   3.886   0.902   3.474
 2476SOL     OW 8326   6.627   1.249   2.745
 2476SOL    HW1 8327   6.680   1.170   2.776
 2476SOL    HW2 8328   6.538   1.249   2.790
 2477SOL     OW 8329   4.212   1.324   2.028
 2477SOL    HW1 8330   4.161   1.358   1.949
 2477SOL    HW2 8331   4.160   1.253   2.074
 2478SOL     OW 8332   6.357   1.052   1.548
 2478SOL    HW1 8333   6.305   0.969   1.570
 2478SOL    HW2 8334   6.336   1.080   1.454
 2479SOL     OW 8335   1.150   3.528   1.913
 2479SOL    HW1 8336   1.153   3.626   1.894
 2479SOL    HW2 8337   1.054   3.498   1.914
 2480SOL     OW 8338   4.701   4.263   0.880
 2480SOL    HW1 8339   4.619   4.252   0.824
 2480SOL    HW2 8340   4.720   4.178   0.930
 2481SOL     OW 8341   2.756   0.100   0.658
 2481SOL    HW1 8342   2.670   0.083   0.609
 2481SOL    HW2 8343   2.830   0.050   0.614
 2482SOL     OW 8344   5.423   3.481   6.076
 2482SOL    HW1 8345   5.365   3.459   5.997
 2482SOL    HW2 8346   5.492   3.548   6.049
 2483SOL     OW 8347   2.089   1.293   0.717
 2483SOL    HW1 8348   2.044   1.257   0.634
 2483SOL    HW2 8349   2.039   1.261   0.798
 2484SOL     OW 8350   3.729   0.842   0.383
 2484SOL    HW1 8351   3.637   0.852   0.422
 2484SOL    HW2 8352   3.787   0.792   0.446
 2485SOL     OW 8353   6.395   3.668   1.468
 2485SOL    HW1 8354   6.466   3.601   1.488
 2485SOL    HW2 8355   6.306   3.623   1.467
 2486SOL     OW 8356   1.896   4.802   4.634
 2486SOL    HW1 8357   1.917   4.710   4.599
 2486SOL    HW2 8358   1.801   4.825   4.611
 2487SOL     OW 8359   3.905   6.073   0.720
 2487SOL    HW1 8360   3.962   6.060   0.802
 2487SOL    HW2 8361   3.964   6.088   0.641
 2488SOL     OW 8362   1.497   4.482   2.199
 2488SOL    HW1 8363   1.441   4.564   2.195
 2488SOL    HW2 8364   1.455   4.415   2.260
 2489SOL     OW 8365   1.334   5.464   3.088
 2489SOL    HW1 8366   1.415   5.502   3.043
 2489SOL    HW2 8367   1.310   5.520   3.167
 2490SOL     OW 8368   6.668   4.951   1.634
 2490SOL    HW1 8369   6.700   4.962   1.540
 2490SOL    HW2 8370   6.668   4.854   1.659
 2491SOL     OW 8371   2.024   5.405   1.009
 2491SOL    HW1 8372   1.974   5.360   1.083
 2491SOL    HW2 8373   2.121   5.409   1.032
 2492SOL     OW 8374   4.208   2.323   0.717
 2492SOL    HW1 8375   4.206   2.224   0.704
 2492SOL    HW2 8376   4.155   2.368   0.645
 2493SOL     OW 8377   5.639   0.548   1.728
 2493SOL    HW1 8378   5.550   0.536   1.773
 2493SOL    HW2 8379   5.701   0.475   1.756
 2494SOL     OW 8380   5.837   4.374   2.325
 2494SOL    HW1 8381   5.886   4.328   2.251
 2494SOL    HW2 8382   5.836   4.316   2.406
 2495SOL     OW 8383   5.807   0.339   4.466
 2495SOL    HW1 8384   5.897   0.314   4.430
 2495SOL    HW2 8385   5.810   0.433   4.499
 2496SOL     OW 8386   6.544   3.491   6.044
 2496SOL    HW1 8387   6.547   3.504   6.143
 2496SOL    HW2 8388   6.637   3.476   6.010
 2497SOL     OW 8389   0.350   0.316   0.726
 2497SOL    HW1 8390   0.323   0.412   0.729
 2497SOL    HW2 8391   0.404   0.299   0.643
 2498SOL     OW 8392   2.686   1.681   4.311
 2498SOL    HW1 8393   2.717   1.664   4.404
 2498SOL    HW2 8394   2.763   1.669   4.248
 2499SOL     OW 8395   6.587   2.165   2.579
 2499SOL    HW1 8396   6.647   2.103   2.527
 2499SOL    HW2 8397   6.495   2.127   2.582
 2500SOL     OW 8398   4.563   3.050   0.033
 2500SOL    HW1 8399   4.469   3.018   0.022
 2500SOL    HW2 8400   4.564   3.147   0.055
 2501SOL     OW 8401   5.792   5.294   0.441
 2501SOL    HW1 8402   5.705   5.256   0.411
 2501SOL    HW2 8403   5.819   5.367   0.378
 2502SOL     OW 8404   1.367   5.474   3.593
 2502SOL    HW1 8405   1.275   5.456   3.627
 2502SOL    HW2 8406   1.431   5.478   3.670
 2503SOL     OW 8407   2.850   5.722   3.810
 2503SOL    HW1 8408   2.905   5.639   3.821
 2503SOL    HW2 8409   2.761   5.710   3.854
 2504SOL     OW 8410   4.049   5.515   4.508
 2504SOL    HW1 8411   3.984   5.588   4.490
 2504SOL    HW2 8412   4.103   5.498   4.426
 2505SOL     OW 8413   1.564   6.169   3.198
 2505SOL    HW1 8414   1.538   6.119   3.116
 2505SOL    HW2 8415   1.502   6.248   3.210
 2506SOL     OW 8416   6.814   4.216   4.983
 2506SOL    HW1 8417   6.870   4.178   4.909
 2506SOL    HW2 8418   6.868   4.283   5.035
 2507SOL     OW 8419   0.990   4.147   1.062
 2507SOL    HW1 8420   1.078   4.099   1.060
 2507SOL    HW2 8421   0.940   4.122   1.144
 2508SOL     OW 8422   2.301   1.477   2.308
 2508SOL    HW1 8423   2.293   1.378   2.320
 2508SOL    HW2 8424   2.318   1.498   2.212
 2509SOL     OW 8425   6.832   2.396   1.715
 2509SOL    HW1 8426   6.750   2.397   1.773
 2509SOL    HW2 8427   6.890   2.474   1.739
 2510SOL     OW 8428   2.823   4.442   1.495
 2510SOL    HW1 8429   2.748   4.492   1.538
 2510SOL    HW2 8430   2.898   4.429   1.561
 2511SOL     OW 8431   2.863   2.336   4.272
 2511SOL    HW1 8432   2.781   2.332   4.328
 2511SOL    HW2 8433   2.838   2.361   4.178
 2512SOL     OW 8434   5.321   4.276   5.130
 2512SOL    HW1 8435   5.412   4.280   5.171
 2512SOL    HW2 8436   5.320   4.328   5.045
 2513SOL     OW 8437   1.243   4.067   4.996
 2513SOL    HW1 8438   1.340   4.090   4.993
 2513SOL    HW2 8439   1.228   3.996   5.065
 2514SOL     OW 8440   6.345   4.093   4.364
 2514SOL    HW1 8441   6.279   4.073   4.436
 2514SOL    HW2 8442   6.395   4.010   4.339
 2515SOL     OW 8443   1.526   6.384   0.575
 2515SOL    HW1 8444   1.583   6.366   0.495
 2515SOL    HW2 8445   1.434   6.347   0.560
 2516SOL     OW 8446   6.308   0.972   2.907
 2516SOL    HW1 8447   6.298   0.907   2.832
 2516SOL    HW2 8448   6.235   0.958   2.974
 2517SOL     OW 8449   1.158   5.872   5.706
 2517SOL    HW1 8450   1.227   5.943   5.695
 2517SOL    HW2 8451   1.068   5.914   5.712
 2518SOL     OW 8452   1.283   4.432   0.210
 2518SOL    HW1 8453   1.334   4.352   0.240
 2518SOL    HW2 8454   1.344   4.511   0.203
 2519SOL     OW 8455   4.675   6.733   3.199
 2519SOL    HW1 8456   4.715   6.659   3.252
 2519SOL    HW2 8457   4.730   6.748   3.116
 2520SOL     OW 8458   2.431   2.198   0.105
 2520SOL    HW1 8459   2.381   2.217   0.020
 2520SOL    HW2 8460   2.463   2.103   0.105
 2521SOL     OW 8461   1.271   0.206   5.028
 2521SOL    HW1 8462   1.311   0.156   4.951
 2521SOL    HW2 8463   1.211   0.277   4.993
 2522SOL     OW 8464   0.505   3.688   4.827
 2522SOL    HW1 8465   0.572   3.761   4.840
 2522SOL    HW2 8466   0.524   3.614   4.891
 2523SOL     OW 8467   0.098   2.908   1.509
 2523SOL    HW1 8468   0.146   2.913   1.597
 2523SOL    HW2 8469   0.039   2.827   1.509
 2524SOL     OW 8470   1.269   6.402   5.026
 2524SOL    HW1 8471   1.293   6.494   4.997
 2524SOL    HW2 8472   1.185   6.373   4.981
 2525SOL     OW 8473   0.872   2.306   5.176
 2525SOL    HW1 8474   0.965   2.311   5.140
 2525SOL    HW2 8475   0.812   2.364   5.122
 2526SOL     OW 8476   1.831   3.959   5.615
 2526SOL    HW1 8477   1.854   4.026   5.686
 2526SOL    HW2 8478   1.903   3.958   5.546
 2527SOL     OW 8479   5.192   6.088   4.793
 2527SOL    HW1 8480   5.145   6.132   4.716
 2527SOL    HW2 8481   5.134   6.018   4.832
 2528SOL     OW 8482   5.480   5.035   1.381
 2528SOL    HW1 8483   5.548   5.101   1.347
 2528SOL    HW2 8484   5.516   4.943   1.375
 2529SOL     OW 8485   0.213   6.461   6.340
 2529SOL    HW1 8486   0.184   6.554   6.360
 2529SOL    HW2 8487   0.215   6.446   6.241
 2530SOL     OW 8488   2.638   6.942   5.655
 2530SOL    HW1 8489   2.650   0.016   5.635
 2530SOL    HW2 8490   2.573   6.903   5.589
 2531SOL     OW 8491   4.779   5.992   4.412
 2531SOL    HW1 8492   4.768   5.996   4.511
 2531SOL    HW2 8493   4.690   5.980   4.368
 2532SOL     OW 8494   1.287   0.191   1.114
 2532SOL    HW1 8495   1.275   0.290   1.106
 2532SOL    HW2 8496   1.364   0.162   1.058
 2533SOL     OW 8497   3.056   6.881   2.873
 2533SOL    HW1 8498   3.041   6.791   2.831
 2533SOL    HW2 8499   2.988   6.945   2.838
 2534SOL     OW 8500   3.029   0.393   3.461
 2534SOL    HW1 8501   3.066   0.420   3.551
 2534SOL    HW2 8502   2.977   0.469   3.423
 2535SOL     OW 8503   3.234   2.172   5.508
 2535SOL    HW1 8504   3.204   2.084   5.470
 2535SOL    HW2 8505   3.308   2.156   5.574
 2536SOL     OW 8506   0.402   2.152   4.773
 2536SOL    HW1 8507   0.346   2.180   4.851
 2536SOL    HW2 8508   0.446   2.233   4.733
 2537SOL     OW 8509   3.630   0.211   6.165
 2537SOL    HW1 8510   3.682   0.143   6.217
 2537SOL    HW2 8511   3.626   0.182   6.069
 2538SOL     OW 8512   1.352   5.019   5.409
 2538SOL    HW1 8513   1.273   5.079   5.415
 2538SOL    HW2 8514   1.364   4.970   5.495
 2539SOL     OW 8515   4.885   0.804   5.555
 2539SOL    HW1 8516   4.939   0.849   5.484
 2539SOL    HW2 8517   4.854   0.715   5.522
 2540SOL     OW 8518   3.539   0.778   2.621
 2540SOL    HW1 8519   3.637   0.765   2.634
 2540SOL    HW2 8520   3.521   0.799   2.525
 2541SOL     OW 8521   2.338   6.828   4.739
 2541SOL    HW1 8522   2.405   6.754   4.739
 2541SOL    HW2 8523   2.251   6.796   4.776
 2542SOL     OW 8524   4.700   0.708   5.949
 2542SOL    HW1 8525   4.771   0.669   5.890
 2542SOL    HW2 8526   4.726   0.697   6.045
 2543SOL     OW 8527   1.765   1.509   2.765
 2543SOL    HW1 8528   1.778   1.524   2.863
 2543SOL    HW2 8529   1.693   1.441   2.751
 2544SOL     OW 8530   0.346   6.238   0.902
 2544SOL    HW1 8531   0.327   6.185   0.984
 2544SOL    HW2 8532   0.269   6.299   0.883
 2545SOL     OW 8533   2.193   1.044   1.546
 2545SOL    HW1 8534   2.178   1.020   1.450
 2545SOL    HW2 8535   2.212   1.142   1.553
 2546SOL     OW 8536   6.984   2.112   1.322
 2546SOL    HW1 8537   0.042   2.065   1.356
 2546SOL    HW2 8538   6.919   2.124   1.397
 2547SOL     OW 8539   5.901   4.263   0.508
 2547SOL    HW1 8540   5.996   4.247   0.532
 2547SOL    HW2 8541   5.874   4.355   0.536
 2548SOL     OW 8542   2.481   6.443   5.553
 2548SOL    HW1 8543   2.527   6.508   5.612
 2548SOL    HW2 8544   2.511   6.457   5.458
 2549SOL     OW 8545   2.266   0.788   0.762
 2549SOL    HW1 8546   2.220   0.702   0.739
 2549SOL    HW2 8547   2.308   0.779   0.853
 2550SOL     OW 8548   6.988   0.410   5.881
 2550SOL    HW1 8549   6.909   0.351   5.865
 2550SOL    HW2 8550   6.976   0.497   5.832
 2551SOL     OW 8551   3.673   4.605   0.475
 2551SOL    HW1 8552   3.619   4.682   0.442
 2551SOL    HW2 8553   3.663   4.528   0.411
 2552SOL     OW 8554   2.081   6.021   5.915
 2552SOL    HW1 8555   2.019   5.943   5.907
 2552SOL    HW2 8556   2.045   6.085   5.983
 2553SOL     OW 8557   4.303   2.894   6.039
 2553SOL    HW1 8558   4.310   2.943   5.952
 2553SOL    HW2 8559   4.310   2.796   6.023
 2554SOL     OW 8560   2.076   5.956   0.341
 2554SOL    HW1 8561   2.011   6.013   0.392
 2554SOL    HW2 8562   2.027   5.882   0.296
 2555SOL     OW 8563   6.024   0.067   6.470
 2555SOL    HW1 8564   6.049   0.087   6.564
 2555SOL    HW2 8565   6.040   0.147   6.413
 2556SOL     OW 8566   4.735   5.770   0.253
 2556SOL    HW1 8567   4.752   5.717   0.170
 2556SOL    HW2 8568   4.813   5.831   0.269
 2557SOL     OW 8569   2.682   3.276   6.257
 2557SOL    HW1 8570   2.585   3.295   6.241
 2557SOL    HW2 8571   2.715   3.333   6.333
 2558SOL     OW 8572   4.647   2.875   5.819
 2558SOL    HW1 8573   4.741   2.841   5.827
 2558SOL    HW2 8574   4.640   2.965   5.862
 2559SOL     OW 8575   6.188   4.278   3.810
 2559SOL    HW1 8576   6.219   4.225   3.730
 2559SOL    HW2 8577   6.134   4.356   3.779
 2560SOL     OW 8578   5.564   3.217   4.272
 2560SOL    HW1 8579   5.610   3.302   4.244
 2560SOL    HW2 8580   5.545   3.162   4.191
 2561SOL     OW 8581   2.681   6.303   4.780
 2561SOL    HW1 8582   2.668   6.367   4.704
 2561SOL    HW2 8583   2.625   6.221   4.764
 2562SOL     OW 8584   1.138   5.735   2.122
 2562SOL    HW1 8585   1.058   5.794   2.109
 2562SOL    HW2 8586   1.143   5.708   2.218
 2563SOL     OW 8587   3.865   2.144   0.777
 2563SOL    HW1 8588   3.842   2.049   0.755
 2563SOL    HW2 8589   3.827   2.204   0.707
 2564SOL     OW 8590   2.014   6.179   6.136
 2564SOL    HW1 8591   2.104   6.174   6.180
 2564SOL    HW2 8592   1.943   6.176   6.207
 2565SOL     OW 8593   0.289   6.981   6.925
 2565SOL    HW1 8594   0.235   6.940   6.998
 2565SOL    HW2 8595   0.286   0.057   6.932
 2566SOL     OW 8596   2.440   7.004   1.480
 2566SOL    HW1 8597   2.438   0.061   1.540
 2566SOL    HW2 8598   2.388   6.930   1.522
 2567SOL     OW 8599   1.101   1.506   1.044
 2567SOL    HW1 8600   1.096   1.596   1.088
 2567SOL    HW2 8601   1.054   1.439   1.101
 2568SOL     OW 8602   3.136   6.569   0.333
 2568SOL    HW1 8603   3.235   6.574   0.321
 2568SOL    HW2 8604   3.091   6.585   0.245
 2569SOL     OW 8605   2.787   1.197   1.555
 2569SOL    HW1 8606   2.688   1.208   1.560
 2569SOL    HW2 8607   2.825   1.188   1.647
 2570SOL     OW 8608   5.799   0.453   6.203
 2570SOL    HW1 8609   5.879   0.403   6.237
 2570SOL    HW2 8610   5.793   0.444   6.104
 2571SOL     OW 8611   2.253   4.336   4.965
 2571SOL    HW1 8612   2.290   4.374   5.050
 2571SOL    HW2 8613   2.271   4.237   4.963
 2572SOL     OW 8614   2.213   5.277   0.255
 2572SOL    HW1 8615   2.209   5.183   0.221
 2572SOL    HW2 8616   2.160   5.284   0.339
 2573SOL     OW 8617   6.425   2.141   1.825
 2573SOL    HW1 8618   6.473   2.060   1.858
 2573SOL    HW2 8619   6.335   2.147   1.869
 2574SOL     OW 8620   6.735   3.936   6.980
 2574SOL    HW1 8621   6.675   3.874   0.007
 2574SOL    HW2 8622   6.703   4.030   6.994
 2575SOL     OW 8623   5.458   5.672   6.896
 2575SOL    HW1 8624   5.513   5.626   6.966
 2575SOL    HW2 8625   5.518   5.704   6.823
 2576SOL     OW 8626   3.316   0.142   4.022
 2576SOL    HW1 8627   3.410   0.107   4.024
 2576SOL    HW2 8628   3.299   0.194   4.106
 2577SOL     OW 8629   3.528   6.828   1.654
 2577SOL    HW1 8630   3.451   6.882   1.622
 2577SOL    HW2 8631   3.495   6.754   1.712
 2578SOL     OW 8632   5.029   2.007   3.442
 2578SOL    HW1 8633   4.965   2.071   3.483
 2578SOL    HW2 8634   5.008   1.996   3.345
 2579SOL     OW 8635   1.350   6.361   2.371
 2579SOL    HW1 8636   1.289   6.284   2.355
 2579SOL    HW2 8637   1.322   6.409   2.454
 2580SOL     OW 8638   2.789   2.751   6.435
 2580SOL    HW1 8639   2.836   2.693   6.369
 2580SOL    HW2 8640   2.809   2.847   6.415
 2581SOL     OW 8641   0.653   4.399   0.940
 2581SOL    HW1 8642   0.680   4.374   0.847
 2581SOL    HW2 8643   0.681   4.493   0.959
 2582SOL     OW 8644   0.641   4.974   2.032
 2582SOL    HW1 8645   0.602   4.924   2.109
 2582SOL    HW2 8646   0.702   4.914   1.980
 2583SOL     OW 8647   0.686   1.101   0.232
 2583SOL    HW1 8648   0.715   1.116   0.326
 2583SOL    HW2 8649   0.647   1.185   0.195
 2584SOL     OW 8650   4.168   5.488   0.317
 2584SOL    HW1 8651   4.083   5.487   0.264
 2584SOL    HW2 8652   4.228   5.560   0.282
 2585SOL     OW 8653   4.919   2.172   0.590
 2585SOL    HW1 8654   4.911   2.175   0.689
 2585SOL    HW2 8655   5.014   2.151   0.564
 2586SOL     OW 8656   3.679   1.217   3.563
 2586SOL    HW1 8657   3.768   1.206   3.517
 2586SOL    HW2 8658   3.687   1.286   3.635
 2587SOL     OW 8659   0.237   1.000   3.405
 2587SOL    HW1 8660   0.274   0.908   3.389
 2587SOL    HW2 8661   0.264   1.060   3.330
 2588SOL     OW 8662   4.365   0.618   6.455
 2588SOL    HW1 8663   4.429   0.601   6.380
 2588SOL    HW2 8664   4.283   0.662   6.419
 2589SOL     OW 8665   0.421   6.131   6.199
 2589SOL    HW1 8666   0.509   6.157   6.159
 2589SOL    HW2 8667   0.423   6.035   6.225
 2590SOL     OW 8668   3.723   5.704   0.839
 2590SOL    HW1 8669   3.793   5.706   0.911
 2590SOL    HW2 8670   3.696   5.797   0.816
 2591SOL     OW 8671   0.038   5.969   2.527
 2591SOL    HW1 8672   0.118   5.950   2.585
 2591SOL    HW2 8673   0.001   6.058   2.552
 2592SOL     OW 8674   3.646   5.290   0.584
 2592SOL    HW1 8675   3.644   5.347   0.502
 2592SOL    HW2 8676   3.574   5.221   0.578
 2593SOL     OW 8677   3.388   5.438   0.454
 2593SOL    HW1 8678   3.364   5.532   0.430
 2593SOL    HW2 8679   3.341   5.375   0.392
 2594SOL     OW 8680   1.215   5.223   6.472
 2594SOL    HW1 8681   1.136   5.273   6.508
 2594SOL    HW2 8682   1.209   5.127   6.500
 2595SOL     OW 8683   6.518   1.984   4.187
 2595SOL    HW1 8684   6.484   2.042   4.113
 2595SOL    HW2 8685   6.557   1.901   4.148
 2596SOL     OW 8686   3.130   1.755   2.046
 2596SOL    HW1 8687   3.080   1.826   1.996
 2596SOL    HW2 8688   3.219   1.792   2.076
 2597SOL     OW 8689   1.506   4.683   5.951
 2597SOL    HW1 8690   1.422   4.735   5.963
 2597SOL    HW2 8691   1.488   4.585   5.963
 2598SOL     OW 8692   6.554   1.170   3.118
 2598SOL    HW1 8693   6.464   1.170   3.161
 2598SOL    HW2 8694   6.584   1.076   3.102
 2599SOL     OW 8695   2.486   6.691   1.425
 2599SOL    HW1 8696   2.467   6.719   1.331
 2599SOL    HW2 8697   2.495   6.591   1.429
 2600SOL     OW 8698   5.387   3.146   4.878
 2600SOL    HW1 8699   5.296   3.181   4.857
 2600SOL    HW2 8700   5.456   3.203   4.833
 2601SOL     OW 8701   2.431   1.569   1.180
 2601SOL    HW1 8702   2.487   1.596   1.258
 2601SOL    HW2 8703   2.397   1.651   1.134
 2602SOL     OW 8704   0.911   3.967   4.422
 2602SOL    HW1 8705   0.993   3.964   4.479
 2602SOL    HW2 8706   0.930   3.920   4.335
 2603SOL     OW 8707   2.256   1.137   4.135
 2603SOL    HW1 8708   2.352   1.164   4.132
 2603SOL    HW2 8709   2.223   1.123   4.042
 2604SOL     OW 8710   4.517   1.834   2.679
 2604SOL    HW1 8711   4.423   1.863   2.662
 2604SOL    HW2 8712   4.580   1.889   2.624
 2605SOL     OW 8713   2.086   3.516   2.783
 2605SOL    HW1 8714   2.020   3.449   2.817
 2605SOL    HW2 8715   2.083   3.598   2.840
 2606SOL     OW 8716   5.572   4.511   2.000
 2606SOL    HW1 8717   5.478   4.491   1.970
 2606SOL    HW2 8718   5.587   4.609   1.999
 2607SOL     OW 8719   1.410   1.526   0.680
 2607SOL    HW1 8720   1.334   1.507   0.618
 2607SOL    HW2 8721   1.418   1.624   0.695
 2608SOL     OW 8722   4.588   4.963   1.408
 2608SOL    HW1 8723   4.621   4.890   1.348
 2608SOL    HW2 8724   4.657   5.035   1.414
 2609SOL     OW 8725   6.619   1.058   1.009
 2609SOL    HW1 8726   6.719   1.066   1.010
 2609SOL    HW2 8727   6.592   0.967   1.037
 2610SOL     OW 8728   1.156   4.552   5.024
 2610SOL    HW1 8729   1.092   4.587   4.955
 2610SOL    HW2 8730   1.133   4.457   5.045
 2611SOL     OW 8731   4.481   6.778   1.258
 2611SOL    HW1 8732   4.412   6.840   1.221
 2611SOL    HW2 8733   4.437   6.694   1.289
 2612SOL     OW 8734   6.282   0.125   6.318
 2612SOL    HW1 8735   6.353   0.159   6.257
 2612SOL    HW2 8736   6.204   0.187   6.316
 2613SOL     OW 8737   2.893   6.344   6.242
 2613SOL    HW1 8738   2.815   6.327   6.181
 2613SOL    HW2 8739   2.866   6.410   6.312
 2614SOL     OW 8740   6.778   0.543   5.727
 2614SOL    HW1 8741   6.868   0.557   5.685
 2614SOL    HW2 8742   6.719   0.494   5.663
 2615SOL     OW 8743   6.823   3.109   2.940
 2615SOL    HW1 8744   6.893   3.172   2.907
 2615SOL    HW2 8745   6.807   3.126   3.038
 2616SOL     OW 8746   3.416   3.054   5.646
 2616SOL    HW1 8747   3.331   3.010   5.619
 2616SOL    HW2 8748   3.460   3.000   5.717
 2617SOL     OW 8749   3.967   6.392   0.385
 2617SOL    HW1 8750   3.959   6.381   0.286
 2617SOL    HW2 8751   4.028   6.469   0.405
 2618SOL     OW 8752   6.990   0.523   4.275
 2618SOL    HW1 8753   0.031   0.449   4.296
 2618SOL    HW2 8754   6.924   0.532   4.350
 2619SOL     OW 8755   3.888   1.598   3.089
 2619SOL    HW1 8756   3.900   1.675   3.026
 2619SOL    HW2 8757   3.977   1.559   3.112
 2620SOL     OW 8758   6.539   6.940   3.943
 2620SOL    HW1 8759   6.464   6.972   4.001
 2620SOL    HW2 8760   6.556   6.843   3.961
 2621SOL     OW 8761   0.813   5.341   2.225
 2621SOL    HW1 8762   0.747   5.296   2.285
 2621SOL    HW2 8763   0.846   5.425   2.268
 2622SOL     OW 8764   1.664   3.618   5.280
 2622SOL    HW1 8765   1.684   3.593   5.375
 2622SOL    HW2 8766   1.724   3.567   5.219
 2623SOL     OW 8767   1.194   0.798   5.481
 2623SOL    HW1 8768   1.113   0.794   5.540
 2623SOL    HW2 8769   1.239   0.887   5.492
 2624SOL     OW 8770   6.635   1.238   5.613
 2624SOL    HW1 8771   6.626   1.152   5.664
 2624SOL    HW2 8772   6.623   1.315   5.675
 2625SOL     OW 8773   2.289   3.204   5.324
 2625SOL    HW1 8774   2.205   3.192   5.271
 2625SOL    HW2 8775   2.367   3.171   5.271
 2626SOL     OW 8776   0.509   0.355   5.974
 2626SOL    HW1 8777   0.451   0.306   5.909
 2626SOL    HW2 8778   0.578   0.407   5.924
 2627SOL     OW 8779   0.474   1.363   6.031
 2627SOL    HW1 8780   0.437   1.373   5.938
 2627SOL    HW2 8781   0.540   1.436   6.048
 2628SOL     OW 8782   2.125   4.768   6.009
 2628SOL    HW1 8783   2.193   4.795   5.941
 2628SOL    HW2 8784   2.081   4.682   5.980
 2629SOL     OW 8785   3.291   3.400   2.432
 2629SOL    HW1 8786   3.326   3.310   2.460
 2629SOL    HW2 8787   3.364   3.452   2.388
 2630SOL     OW 8788   3.415   2.146   2.914
 2630SOL    HW1 8789   3.367   2.165   2.828
 2630SOL    HW2 8790   3.358   2.175   2.991
 2631SOL     OW 8791   5.281   0.891   5.991
 2631SOL    HW1 8792   5.288   0.951   5.911
 2631SOL    HW2 8793   5.344   0.814   5.981
 2632SOL     OW 8794   5.323   3.375   6.309
 2632SOL    HW1 8795   5.410   3.368   6.358
 2632SOL    HW2 8796   5.341   3.379   6.211
 2633SOL     OW 8797   6.999   2.715   4.558
 2633SOL    HW1 8798   0.028   2.630   4.551
 2633SOL    HW2 8799   6.904   2.698   4.534
 2634SOL     OW 8800   0.664   4.758   3.427
 2634SOL    HW1 8801   0.576   4.737   3.470
 2634SOL    HW2 8802   0.732   4.775   3.497
 2635SOL     OW 8803   6.652   5.650   5.710
 2635SOL    HW1 8804   6.692   5.638   5.619
 2635SOL    HW2 8805   6.555   5.628   5.706
 2636SOL     OW 8806   3.682   0.501   4.695
 2636SOL    HW1 8807   3.639   0.420   4.736
 2636SOL    HW2 8808   3.701   0.568   4.766
 2637SOL     OW 8809   5.370   1.365   3.227
 2637SOL    HW1 8810   5.363   1.342   3.325
 2637SOL    HW2 8811   5.307   1.307   3.175
 2638SOL     OW 8812   6.889   0.187   3.839
 2638SOL    HW1 8813   6.824   0.179   3.913
 2638SOL    HW2 8814   6.874   0.114   3.773
 2639SOL     OW 8815   0.338   6.087   1.155
 2639SOL    HW1 8816   0.365   6.038   1.238
 2639SOL    HW2 8817   0.246   6.058   1.128
 2640SOL     OW 8818   0.611   6.071   5.640
 2640SOL    HW1 8819   0.655   6.070   5.730
 2640SOL    HW2 8820   0.513   6.054   5.651
 2641SOL     OW 8821   5.997   2.802   2.101
 2641SOL    HW1 8822   6.065   2.832   2.035
 2641SOL    HW2 8823   5.954   2.881   2.144
 2642SOL     OW 8824   5.090   6.945   3.567
 2642SOL    HW1 8825   5.163   7.011   3.551
 2642SOL    HW2 8826   5.111   6.892   3.649
 2643SOL     OW 8827   0.628   3.662   3.557
 2643SOL    HW1 8828   0.633   3.750   3.603
 2643SOL    HW2 8829   0.533   3.629   3.557
 2644SOL     OW 8830   4.720   6.547   5.374
 2644SOL    HW1 8831   4.687   6.465   5.329
 2644SOL    HW2 8832   4.815   6.533   5.402
 2645SOL     OW 8833   3.936   5.656   3.889
 2645SOL    HW1 8834   3.846   5.614   3.877
 2645SOL    HW2 8835   3.970   5.636   3.981
 2646SOL     OW 8836   5.729   1.052   6.798
 2646SOL    HW1 8837   5.634   1.077   6.785
 2646SOL    HW2 8838   5.754   1.063   6.895
 2647SOL     OW 8839   6.563   6.988   1.986
 2647SOL    HW1 8840   6.469   6.995   2.019
 2647SOL    HW2 8841   6.621   6.949   2.057
 2648SOL     OW 8842   0.684   6.863   3.737
 2648SOL    HW1 8843   0.676   6.844   3.835
 2648SOL    HW2 8844   0.763   6.924   3.722
 2649SOL     OW 8845   6.481   3.321   0.219
 2649SOL    HW1 8846   6.429   3.328   0.134
 2649SOL    HW2 8847   6.450   3.242   0.271
 2650SOL     OW 8848   0.920   4.832   4.007
 2650SOL    HW1 8849   0.987   4.882   3.952
 2650SOL    HW2 8850   0.966   4.759   4.058
 2651SOL     OW 8851   2.075   1.550   1.117
 2651SOL    HW1 8852   2.161   1.524   1.160
 2651SOL    HW2 8853   2.010   1.474   1.125
 2652SOL     OW 8854   4.039   3.774   4.962
 2652SOL    HW1 8855   4.019   3.870   4.942
 2652SOL    HW2 8856   3.954   3.721   4.955
 2653SOL     OW 8857   4.581   6.948   5.476
 2653SOL    HW1 8858   4.598   6.925   5.381
 2653SOL    HW2 8859   4.583   6.865   5.532
 2654SOL     OW 8860   4.341   0.488   2.381
 2654SOL    HW1 8861   4.341   0.573   2.434
 2654SOL    HW2 8862   4.247   0.464   2.357
 2655SOL     OW 8863   4.959   6.568   4.012
 2655SOL    HW1 8864   4.956   6.606   4.105
 2655SOL    HW2 8865   4.977   6.470   4.017
 2656SOL     OW 8866   3.571   5.187   4.692
 2656SOL    HW1 8867   3.601   5.097   4.660
 2656SOL    HW2 8868   3.638   5.256   4.665
 2657SOL     OW 8869   0.884   4.164   0.043
 2657SOL    HW1 8870   0.950   4.091   0.062
 2657SOL    HW2 8871   0.841   4.148   6.978
 2658SOL     OW 8872   5.006   4.475   1.033
 2658SOL    HW1 8873   5.015   4.396   0.972
 2658SOL    HW2 8874   5.073   4.544   1.008
 2659SOL     OW 8875   5.032   3.131   4.554
 2659SOL    HW1 8876   5.056   3.087   4.640
 2659SOL    HW2 8877   5.099   3.202   4.533
 2660SOL     OW 8878   1.870   6.877   2.012
 2660SOL    HW1 8879   1.784   6.828   2.002
 2660SOL    HW2 8880   1.945   6.811   2.021
 2661SOL     OW 8881   2.223   0.077   1.750
 2661SOL    HW1 8882   2.193   0.104   1.841
 2661SOL    HW2 8883   2.181   7.013   1.725
 2662SOL     OW 8884   4.184   6.540   5.234
 2662SOL    HW1 8885   4.115   6.478   5.199
 2662SOL    HW2 8886   4.142   6.627   5.259
 2663SOL     OW 8887   3.272   4.333   6.510
 2663SOL    HW1 8888   3.248   4.307   6.603
 2663SOL    HW2 8889   3.193   4.376   6.466
 2664SOL     OW 8890   4.532   3.315   5.536
 2664SOL    HW1 8891   4.585   3.230   5.536
 2664SOL    HW2 8892   4.535   3.356   5.628
 2665SOL     OW 8893   2.700   2.998   5.390
 2665SOL    HW1 8894   2.636   3.016   5.316
 2665SOL    HW2 8895   2.741   2.908   5.377
 2666SOL     OW 8896   6.706   5.257   1.281
 2666SOL    HW1 8897   6.654   5.332   1.241
 2666SOL    HW2 8898   6.749   5.203   1.208
 2667SOL     OW 8899   0.551   5.702   4.465
 2667SOL    HW1 8900   0.465   5.728   4.507
 2667SOL    HW2 8901   0.551   5.603   4.448
 2668SOL     OW 8902   0.187   3.575   5.108
 2668SOL    HW1 8903   0.134   3.643   5.158
 2668SOL    HW2 8904   0.144   3.556   5.020
 2669SOL     OW 8905   3.008   4.759   5.809
 2669SOL    HW1 8906   2.984   4.774   5.713
 2669SOL    HW2 8907   2.985   4.665   5.834
 2670SOL     OW 8908   5.357   3.239   5.708
 2670SOL    HW1 8909   5.391   3.320   5.659
 2670SOL    HW2 8910   5.326   3.266   5.799
 2671SOL     OW 8911   4.589   5.273   6.690
 2671SOL    HW1 8912   4.527   5.218   6.747
 2671SOL    HW2 8913   4.546   5.292   6.602
 2672SOL     OW 8914   1.986   4.801   0.367
 2672SOL    HW1 8915   2.040   4.719   0.351
 2672SOL    HW2 8916   1.921   4.814   0.293
 2673SOL     OW 8917   6.441   1.103   2.044
 2673SOL    HW1 8918   6.527   1.083   2.090
 2673SOL    HW2 8919   6.365   1.086   2.107
 2674SOL     OW 8920   1.553   4.818   3.950
 2674SOL    HW1 8921   1.616   4.758   3.900
 2674SOL    HW2 8922   1.465   4.774   3.960
 2675SOL     OW 8923   6.253   5.133   4.244
 2675SOL    HW1 8924   6.306   5.139   4.329
 2675SOL    HW2 8925   6.182   5.064   4.255
 2676SOL     OW 8926   3.981   2.807   1.164
 2676SOL    HW1 8927   3.913   2.880   1.166
 2676SOL    HW2 8928   3.964   2.749   1.084
 2677SOL     OW 8929   2.652   3.861   0.021
 2677SOL    HW1 8930   2.552   3.854   0.028
 2677SOL    HW2 8931   2.694   3.802   0.089
 2678SOL     OW 8932   0.010   2.367   1.428
 2678SOL    HW1 8933   0.002   2.281   1.376
 2678SOL    HW2 8934   6.942   2.405   1.444
 2679SOL     OW 8935   1.907   4.423   1.620
 2679SOL    HW1 8936   1.974   4.408   1.692
 2679SOL    HW2 8937   1.821   4.378   1.644
 2680SOL     OW 8938   1.390   1.800   0.587
 2680SOL    HW1 8939   1.426   1.880   0.634
 2680SOL    HW2 8940   1.292   1.791   0.608
 2681SOL     OW 8941   1.701   2.134   5.084
 2681SOL    HW1 8942   1.643   2.210   5.113
 2681SOL    HW2 8943   1.646   2.067   5.034
 2682SOL     OW 8944   4.881   4.292   3.198
 2682SOL    HW1 8945   4.832   4.323   3.116
 2682SOL    HW2 8946   4.977   4.320   3.192
 2683SOL     OW 8947   2.844   5.468   1.764
 2683SOL    HW1 8948   2.843   5.406   1.842
 2683SOL    HW2 8949   2.939   5.488   1.738
 2684SOL     OW 8950   4.667   6.146   1.814
 2684SOL    HW1 8951   4.625   6.090   1.742
 2684SOL    HW2 8952   4.604   6.219   1.840
 2685SOL     OW 8953   5.782   6.104   6.093
 2685SOL    HW1 8954   5.819   6.085   6.184
 2685SOL    HW2 8955   5.687   6.134   6.102
 2686SOL     OW 8956   2.010   1.301   5.682
 2686SOL    HW1 8957   2.016   1.379   5.745
 2686SOL    HW2 8958   2.046   1.327   5.593
 2687SOL     OW 8959   5.182   5.078   1.383
 2687SOL    HW1 8960   5.144   5.064   1.475
 2687SOL    HW2 8961   5.281   5.091   1.390
 2688SOL     OW 8962   3.052   3.640   0.465
 2688SOL    HW1 8963   2.966   3.602   0.499
 2688SOL    HW2 8964   3.033   3.717   0.405
 2689SOL     OW 8965   1.110   4.420   2.964
 2689SOL    HW1 8966   1.138   4.380   3.052
 2689SOL    HW2 8967   1.188   4.420   2.901
 2690SOL     OW 8968   3.831   2.887   5.007
 2690SOL    HW1 8969   3.875   2.954   4.948
 2690SOL    HW2 8970   3.901   2.831   5.051
 2691SOL     OW 8971   1.465   5.299   3.405
 2691SOL    HW1 8972   1.403   5.338   3.472
 2691SOL    HW2 8973   1.413   5.268   3.325
 2692SOL     OW 8974   2.924   5.770   3.049
 2692SOL    HW1 8975   2.999   5.821   3.090
 2692SOL    HW2 8976   2.888   5.821   2.971
 2693SOL     OW 8977   2.149   5.037   3.693
 2693SOL    HW1 8978   2.099   5.075   3.771
 2693SOL    HW2 8979   2.106   5.069   3.608
 2694SOL     OW 8980   4.081   6.344   2.796
 2694SOL    HW1 8981   4.176   6.353   2.766
 2694SOL    HW2 8982   4.033   6.431   2.783
 2695SOL     OW 8983   5.862   1.262   1.661
 2695SOL    HW1 8984   5.816   1.351   1.661
 2695SOL    HW2 8985   5.804   1.194   1.618
 2696SOL     OW 8986   3.580   3.238   5.806
 2696SOL    HW1 8987   3.504   3.247   5.741
 2696SOL    HW2 8988   3.638   3.320   5.802
 2697SOL     OW 8989   3.486   1.043   3.171
 2697SOL    HW1 8990   3.571   0.991   3.174
 2697SOL    HW2 8991   3.433   1.016   3.090
 2698SOL     OW 8992   1.742   5.037   0.671
 2698SOL    HW1 8993   1.665   4.977   0.650
 2698SOL    HW2 8994   1.826   4.998   0.633
 2699SOL     OW 8995   2.357   5.494   0.669
 2699SOL    HW1 8996   2.390   5.482   0.575
 2699SOL    HW2 8997   2.296   5.573   0.673
 2700SOL     OW 8998   3.259   2.868   0.080
 2700SOL    HW1 8999   3.321   2.925   0.134
 2700SOL    HW2 9000   3.232   2.918   7.021
 2701SOL     OW 9001   5.377   1.549   5.687
 2701SOL    HW1 9002   5.328   1.474   5.643
 2701SOL    HW2 9003   5.367   1.632   5.631
 2702SOL     OW 9004   0.222   3.033   3.471
 2702SOL    HW1 9005   0.127   3.006   3.486
 2702SOL    HW2 9006   0.225   3.108   3.404
 2703SOL     OW 9007   1.577   0.578   0.864
 2703SOL    HW1 9008   1.674   0.572   0.890
 2703SOL    HW2 9009   1.552   0.495   0.814
 2704SOL     OW 9010   6.678   5.568   1.822
 2704SOL    HW1 9011   6.597   5.525   1.860
 2704SOL    HW2 9012   6.665   5.583   1.724
 2705SOL     OW 9013   0.249   6.003   4.412
 2705SOL    HW1 9014   0.265   6.095   4.377
 2705SOL    HW2 9015   0.189   5.953   4.349
 2706SOL     OW 9016   6.514   5.081   2.622
 2706SOL    HW1 9017   6.518   5.137   2.540
 2706SOL    HW2 9018   6.501   5.139   2.702
 2707SOL     OW 9019   3.925   0.262   4.193
 2707SOL    HW1 9020   4.006   0.277   4.137
 2707SOL    HW2 9021   3.939   0.181   4.251
 2708SOL     OW 9022   0.086   2.749   1.219
 2708SOL    HW1 9023   0.167   2.804   1.238
 2708SOL    HW2 9024   0.109   2.676   1.154
 2709SOL     OW 9025   4.979   0.217   6.798
 2709SOL    HW1 9026   5.074   0.244   6.811
 2709SOL    HW2 9027   4.961   0.133   6.849
 2710SOL     OW 9028   1.118   3.705   4.341
 2710SOL    HW1 9029   1.154   3.637   4.277
 2710SOL    HW2 9030   1.072   3.657   4.416
 2711SOL     OW 9031   2.199   0.547   3.802
 2711SOL    HW1 9032   2.209   0.537   3.901
 2711SOL    HW2 9033   2.214   0.642   3.776
 2712SOL     OW 9034   2.614   4.223   1.631
 2712SOL    HW1 9035   2.605   4.320   1.652
 2712SOL    HW2 9036   2.525   4.178   1.640
 2713SOL     OW 9037   2.233   2.578   5.180
 2713SOL    HW1 9038   2.221   2.494   5.128
 2713SOL    HW2 9039   2.176   2.574   5.263
 2714SOL     OW 9040   3.717   2.624   6.991
 2714SOL    HW1 9041   3.620   2.608   7.006
 2714SOL    HW2 9042   3.759   2.541   6.954
 2715SOL     OW 9043   4.677   2.057   1.183
 2715SOL    HW1 9044   4.701   2.052   1.086
 2715SOL    HW2 9045   4.621   2.138   1.199
 2716SOL     OW 9046   5.745   3.204   2.574
 2716SOL    HW1 9047   5.782   3.284   2.528
 2716SOL    HW2 9048   5.673   3.231   2.637
 2717SOL     OW 9049   0.592   0.325   2.501
 2717SOL    HW1 9050   0.555   0.400   2.555
 2717SOL    HW2 9051   0.561   0.238   2.538
 2718SOL     OW 9052   1.685   1.454   4.960
 2718SOL    HW1 9053   1.605   1.510   4.941
 2718SOL    HW2 9054   1.711   1.463   5.056
 2719SOL     OW 9055   0.456   5.155   1.541
 2719SOL    HW1 9056   0.461   5.255   1.547
 2719SOL    HW2 9057   0.531   5.115   1.593
 2720SOL     OW 9058   1.936   5.698   1.838
 2720SOL    HW1 9059   1.953   5.670   1.932
 2720SOL    HW2 9060   2.020   5.689   1.784
 2721SOL     OW 9061   3.236   6.734   3.518
 2721SOL    HW1 9062   3.178   6.781   3.452
 2721SOL    HW2 9063   3.329   6.772   3.514
 2722SOL     OW 9064   6.441   5.265   0.651
 2722SOL    HW1 9065   6.347   5.235   0.671
 2722SOL    HW2 9066   6.454   5.267   0.552
 2723SOL     OW 9067   0.963   6.148   6.448
 2723SOL    HW1 9068   1.019   6.212   6.501
 2723SOL    HW2 9069   0.871   6.143   6.487
 2724SOL     OW 9070   2.217   6.240   0.069
 2724SOL    HW1 9071   2.164   6.222   7.010
 2724SOL    HW2 9072   2.264   6.156   0.097
 2725SOL     OW 9073   4.910   4.759   4.523
 2725SOL    HW1 9074   4.951   4.668   4.535
 2725SOL    HW2 9075   4.952   4.823   4.586
 2726SOL     OW 9076   0.110   1.716   1.055
 2726SOL    HW1 9077   0.062   1.697   1.140
 2726SOL    HW2 9078   0.198   1.760   1.075
 2727SOL     OW 9079   1.036   5.173   3.626
 2727SOL    HW1 9080   1.085   5.128   3.551
 2727SOL    HW2 9081   0.945   5.133   3.635
 2728SOL     OW 9082   4.234   6.322   5.601
 2728SOL    HW1 9083   4.150   6.368   5.629
 2728SOL    HW2 9084   4.211   6.240   5.547
 2729SOL     OW 9085   7.005   6.431   0.324
 2729SOL    HW1 9086   0.049   6.450   0.253
 2729SOL    HW2 9087   7.021   6.339   0.361
 2730SOL     OW 9088   2.093   5.793   1.530
 2730SOL    HW1 9089   2.110   5.728   1.457
 2730SOL    HW2 9090   2.144   5.766   1.612
 2731SOL     OW 9091   2.902   3.531   3.021
 2731SOL    HW1 9092   2.939   3.573   3.104
 2731SOL    HW2 9093   2.885   3.603   2.953
 2732SOL     OW 9094   5.224   2.468   1.998
 2732SOL    HW1 9095   5.187   2.441   2.087
 2732SOL    HW2 9096   5.323   2.478   2.005
 2733SOL     OW 9097   6.346   1.953   4.418
 2733SOL    HW1 9098   6.393   1.973   4.504
 2733SOL    HW2 9099   6.412   1.923   4.350
 2734SOL     OW 9100   3.366   5.371   0.723
 2734SOL    HW1 9101   3.461   5.374   0.752
 2734SOL    HW2 9102   3.357   5.410   0.632
 2735SOL     OW 9103   1.257   3.580   1.362
 2735SOL    HW1 9104   1.344   3.626   1.378
 2735SOL    HW2 9105   1.235   3.524   1.442
 2736SOL     OW 9106   5.382   6.448   5.001
 2736SOL    HW1 9107   5.358   6.479   5.094
 2736SOL    HW2 9108   5.466   6.494   4.972
 2737SOL     OW 9109   2.645   4.007   5.581
 2737SOL    HW1 9110   2.731   3.958   5.598
 2737SOL    HW2 9111   2.654   4.101   5.614
 2738SOL     OW 9112   4.967   6.241   1.949
 2738SOL    HW1 9113   4.897   6.189   1.899
 2738SOL    HW2 9114   5.014   6.302   1.886
 2739SOL     OW 9115   1.105   4.690   1.034
 2739SOL    HW1 9116   1.064   4.599   1.043
 2739SOL    HW2 9117   1.197   4.682   0.998
 2740SOL     OW 9118   6.833   4.277   1.955
 2740SOL    HW1 9119   6.803   4.281   1.860
 2740SOL    HW2 9120   6.908   4.211   1.964
 2741SOL     OW 9121   6.455   0.924   4.974
 2741SOL    HW1 9122   6.489   0.856   5.038
 2741SOL    HW2 9123   6.503   1.010   4.988
 2742SOL     OW 9124   2.306   4.994   0.285
 2742SOL    HW1 9125   2.391   4.998   0.233
 2742SOL    HW2 9126   2.237   4.945   0.232
 2743SOL     OW 9127   6.375   4.735   2.372
 2743SOL    HW1 9128   6.382   4.646   2.327
 2743SOL    HW2 9129   6.433   4.801   2.325
 2744SOL     OW 9130   4.048   2.138   0.398
 2744SOL    HW1 9131   3.951   2.121   0.415
 2744SOL    HW2 9132   4.075   2.223   0.444
 2745SOL     OW 9133   6.704   0.486   5.278
 2745SOL    HW1 9134   6.789   0.439   5.252
 2745SOL    HW2 9135   6.644   0.492   5.198
 2746SOL     OW 9136   1.551   2.031   4.897
 2746SOL    HW1 9137   1.556   2.126   4.866
 2746SOL    HW2 9138   1.612   1.975   4.842
 2747SOL     OW 9139   5.375   4.278   6.744
 2747SOL    HW1 9140   5.399   4.351   6.808
 2747SOL    HW2 9141   5.320   4.315   6.670
 2748SOL     OW 9142   4.910   1.309   2.026
 2748SOL    HW1 9143   4.911   1.351   2.116
 2748SOL    HW2 9144   4.999   1.324   1.982
 2749SOL     OW 9145   0.294   4.698   1.554
 2749SOL    HW1 9146   0.215   4.702   1.614
 2749SOL    HW2 9147   0.284   4.765   1.481
 2750SOL     OW 9148   1.030   4.274   1.345
 2750SOL    HW1 9149   0.949   4.331   1.328
 2750SOL    HW2 9150   1.001   4.180   1.365
 2751SOL     OW 9151   0.875   3.720   1.767
 2751SOL    HW1 9152   0.811   3.649   1.795
 2751SOL    HW2 9153   0.956   3.717   1.826
 2752SOL     OW 9154   3.763   5.183   5.385
 2752SOL    HW1 9155   3.829   5.108   5.392
 2752SOL    HW2 9156   3.686   5.165   5.446
 2753SOL     OW 9157   0.348   6.381   5.204
 2753SOL    HW1 9158   0.376   6.352   5.296
 2753SOL    HW2 9159   0.320   6.477   5.206
 2754SOL     OW 9160   0.818   0.591   1.775
 2754SOL    HW1 9161   0.912   0.562   1.796
 2754SOL    HW2 9162   0.757   0.561   1.848
 2755SOL     OW 9163   2.036   0.216   2.950
 2755SOL    HW1 9164   2.126   0.238   2.912
 2755SOL    HW2 9165   1.987   0.155   2.887
 2756SOL     OW 9166   5.826   5.605   0.034
 2756SOL    HW1 9167   5.871   5.516   0.031
 2756SOL    HW2 9168   5.790   5.628   6.967
 2757SOL     OW 9169   2.355   0.168   6.496
 2757SOL    HW1 9170   2.372   0.248   6.438
 2757SOL    HW2 9171   2.396   0.183   6.586
 2758SOL     OW 9172   3.701   6.410   3.968
 2758SOL    HW1 9173   3.601   6.416   3.963
 2758SOL    HW2 9174   3.732   6.447   4.055
 2759SOL     OW 9175   5.421   0.248   5.808
 2759SOL    HW1 9176   5.446   0.281   5.717
 2759SOL    HW2 9177   5.335   0.198   5.803
 2760SOL     OW 9178   0.209   6.043   2.051
 2760SOL    HW1 9179   0.263   6.128   2.047
 2760SOL    HW2 9180   0.262   5.968   2.011
 2761SOL     OW 9181   1.861   5.664   4.935
 2761SOL    HW1 9182   1.834   5.731   5.003
 2761SOL    HW2 9183   1.895   5.581   4.980
 2762SOL     OW 9184   1.200   1.220   4.910
 2762SOL    HW1 9185   1.138   1.265   4.975
 2762SOL    HW2 9186   1.270   1.284   4.881
 2763SOL     OW 9187   5.091   1.532   3.355
 2763SOL    HW1 9188   5.129   1.622   3.334
 2763SOL    HW2 9189   5.047   1.494   3.273
 2764SOL     OW 9190   5.509   0.726   1.146
 2764SOL    HW1 9191   5.491   0.701   1.051
 2764SOL    HW2 9192   5.480   0.652   1.206
 2765SOL     OW 9193   5.991   0.240   0.815
 2765SOL    HW1 9194   5.962   0.316   0.757
 2765SOL    HW2 9195   5.919   0.219   0.882
 2766SOL     OW 9196   5.008   2.673   1.164
 2766SOL    HW1 9197   4.961   2.624   1.091
 2766SOL    HW2 9198   4.943   2.697   1.235
 2767SOL     OW 9199   0.014   5.596   0.032
 2767SOL    HW1 9200   6.983   5.569   6.977
 2767SOL    HW2 9201   0.066   5.518   0.066
 2768SOL     OW 9202   4.283   0.684   1.153
 2768SOL    HW1 9203   4.260   0.778   1.174
 2768SOL    HW2 9204   4.378   0.666   1.180
 2769SOL     OW 9205   2.329   4.674   4.303
 2769SOL    HW1 9206   2.270   4.715   4.233
 2769SOL    HW2 9207   2.317   4.722   4.389
 2770SOL     OW 9208   4.698   6.372   6.161
 2770SOL    HW1 9209   4.635   6.296   6.180
 2770SOL    HW2 9210   4.764   6.344   6.091
 2771SOL     OW 9211   6.869   1.036   3.934
 2771SOL    HW1 9212   6.860   1.103   3.860
 2771SOL    HW2 9213   6.960   1.043   3.975
 2772SOL     OW 9214   4.134   1.535   0.535
 2772SOL    HW1 9215   4.107   1.440   0.517
 2772SOL    HW2 9216   4.223   1.553   0.493
 2773SOL     OW 9217   6.430   1.669   5.208
 2773SOL    HW1 9218   6.389   1.686   5.298
 2773SOL    HW2 9219   6.402   1.741   5.144
 2774SOL     OW 9220   5.524   3.336   2.665
 2774SOL    HW1 9221   5.426   3.320   2.653
 2774SOL    HW2 9222   5.546   3.431   2.644
 2775SOL     OW 9223   6.638   4.895   5.927
 2775SOL    HW1 9224   6.686   4.982   5.930
 2775SOL    HW2 9225   6.540   4.910   5.934
 2776SOL     OW 9226   4.328   4.788   5.751
 2776SOL    HW1 9227   4.397   4.841   5.703
 2776SOL    HW2 9228   4.276   4.733   5.686
 2777SOL     OW 9229   2.990   1.543   2.072
 2777SOL    HW1 9230   2.895   1.566   2.091
 2777SOL    HW2 9231   3.047   1.625   2.081
 2778SOL     OW 9232   1.950   0.081   5.497
 2778SOL    HW1 9233   1.949   0.089   5.597
 2778SOL    HW2 9234   1.859   0.102   5.461
 2779SOL     OW 9235   4.720   6.509   1.608
 2779SOL    HW1 9236   4.645   6.453   1.572
 2779SOL    HW2 9237   4.763   6.559   1.534
 2780SOL     OW 9238   6.483   6.582   7.004
 2780SOL    HW1 9239   6.575   6.547   6.988
 2780SOL    HW2 9240   6.461   6.650   6.934
 2781SOL     OW 9241   5.556   6.473   1.787
 2781SOL    HW1 9242   5.634   6.445   1.843
 2781SOL    HW2 9243   5.566   6.435   1.695
 2782SOL     OW 9244   4.918   1.829   6.329
 2782SOL    HW1 9245   4.886   1.771   6.405
 2782SOL    HW2 9246   4.871   1.917   6.332
 2783SOL     OW 9247   5.467   4.345   3.641
 2783SOL    HW1 9248   5.542   4.398   3.680
 2783SOL    HW2 9249   5.504   4.264   3.594
 2784SOL     OW 9250   3.243   1.814   2.506
 2784SOL    HW1 9251   3.290   1.902   2.506
 2784SOL    HW2 9252   3.150   1.826   2.470
 2785SOL     OW 9253   5.158   2.042   0.502
 2785SOL    HW1 9254   5.140   2.017   0.407
 2785SOL    HW2 9255   5.133   1.966   0.562
 2786SOL     OW 9256   4.906   0.127   2.481
 2786SOL    HW1 9257   4.810   0.104   2.495
 2786SOL    HW2 9258   4.944   0.165   2.565
 2787SOL     OW 9259   4.713   1.221   6.236
 2787SOL    HW1 9260   4.733   1.263   6.324
 2787SOL    HW2 9261   4.791   1.234   6.174
 2788SOL     OW 9262   2.407   5.322   6.113
 2788SOL    HW1 9263   2.382   5.407   6.159
 2788SOL    HW2 9264   2.326   5.281   6.072
 2789SOL     OW 9265   1.504   2.507   3.652
 2789SOL    HW1 9266   1.498   2.431   3.587
 2789SOL    HW2 9267   1.583   2.564   3.630
 2790SOL     OW 9268   3.382   5.430   2.275
 2790SOL    HW1 9269   3.451   5.381   2.220
 2790SOL    HW2 9270   3.416   5.442   2.368
 2791SOL     OW 9271   0.621   2.959   3.831
 2791SOL    HW1 9272   0.656   2.993   3.744
 2791SOL    HW2 9273   0.546   2.895   3.815
 2792SOL     OW 9274   1.777   6.855   3.869
 2792SOL    HW1 9275   1.699   6.909   3.838
 2792SOL    HW2 9276   1.746   6.762   3.890
 2793SOL     OW 9277   5.884   4.262   2.088
 2793SOL    HW1 9278   5.887   4.334   2.019
 2793SOL    HW2 9279   5.831   4.185   2.054
 2794SOL     OW 9280   0.153   2.822   6.661
 2794SOL    HW1 9281   0.176   2.786   6.751
 2794SOL    HW2 9282   0.054   2.820   6.648
 2795SOL     OW 9283   1.529   3.310   0.706
 2795SOL    HW1 9284   1.447   3.334   0.759
 2795SOL    HW2 9285   1.602   3.282   0.768
 2796SOL     OW 9286   6.980   6.192   3.283
 2796SOL    HW1 9287   6.935   6.231   3.364
 2796SOL    HW2 9288   0.052   6.220   3.282
 2797SOL     OW 9289   5.074   5.359   4.351
 2797SOL    HW1 9290   5.062   5.384   4.447
 2797SOL    HW2 9291   4.985   5.358   4.306
 2798SOL     OW 9292   0.464   5.426   1.638
 2798SOL    HW1 9293   0.371   5.430   1.676
 2798SOL    HW2 9294   0.530   5.421   1.713
 2799SOL     OW 9295   5.986   5.318   6.423
 2799SOL    HW1 9296   6.065   5.302   6.482
 2799SOL    HW2 9297   6.014   5.370   6.342
 2800SOL     OW 9298   5.062   6.317   0.148
 2800SOL    HW1 9299   4.986   6.252   0.156
 2800SOL    HW2 9300   5.026   6.408   0.130
 2801SOL     OW 9301   6.561   5.518   6.356
 2801SOL    HW1 9302   6.660   5.508   6.345
 2801SOL    HW2 9303   6.532   5.605   6.316
 2802SOL     OW 9304   4.723   0.911   5.217
 2802SOL    HW1 9305   4.767   0.952   5.298
 2802SOL    HW2 9306   4.690   0.820   5.241
 2803SOL     OW 9307   4.091   5.224   6.733
 2803SOL    HW1 9308   4.067   5.221   6.830
 2803SOL    HW2 9309   4.048   5.146   6.686
 2804SOL     OW 9310   0.341   5.109   5.401
 2804SOL    HW1 9311   0.289   5.092   5.317
 2804SOL    HW2 9312   0.278   5.111   5.478
 2805SOL     OW 9313   5.880   2.844   1.784
 2805SOL    HW1 9314   5.861   2.941   1.770
 2805SOL    HW2 9315   5.976   2.825   1.765
 2806SOL     OW 9316   0.219   4.484   6.165
 2806SOL    HW1 9317   0.186   4.478   6.071
 2806SOL    HW2 9318   0.214   4.394   6.208
 2807SOL     OW 9319   4.263   6.124   4.511
 2807SOL    HW1 9320   4.274   6.032   4.547
 2807SOL    HW2 9321   4.337   6.182   4.543
 2808SOL     OW 9322   6.125   4.827   1.729
 2808SOL    HW1 9323   6.202   4.808   1.669
 2808SOL    HW2 9324   6.081   4.742   1.756
 2809SOL     OW 9325   5.663   2.771   1.076
 2809SOL    HW1 9326   5.724   2.739   1.148
 2809SOL    HW2 9327   5.680   2.867   1.056
 2810SOL     OW 9328   3.563   4.899   3.790
 2810SOL    HW1 9329   3.629   4.954   3.840
 2810SOL    HW2 9330   3.562   4.806   3.826
 2811SOL     OW 9331   0.875   2.046   3.150
 2811SOL    HW1 9332   0.899   2.036   3.246
 2811SOL    HW2 9333   0.909   2.134   3.117
 2812SOL     OW 9334   5.376   3.956   6.730
 2812SOL    HW1 9335   5.333   3.880   6.681
 2812SOL    HW2 9336   5.422   4.016   6.664
 2813SOL     OW 9337   0.455   0.142   6.653
 2813SOL    HW1 9338   0.470   0.044   6.665
 2813SOL    HW2 9339   0.529   0.181   6.599
 2814SOL     OW 9340   4.248   3.775   5.566
 2814SOL    HW1 9341   4.254   3.678   5.590
 2814SOL    HW2 9342   4.328   3.802   5.512
 2815SOL     OW 9343   5.940   0.109   5.350
 2815SOL    HW1 9344   6.037   0.118   5.326
 2815SOL    HW2 9345   5.907   0.020   5.319
 2816SOL     OW 9346   6.409   5.290   3.413
 2816SOL    HW1 9347   6.342   5.358   3.444
 2816SOL    HW2 9348   6.500   5.331   3.414
 2817SOL     OW 9349   2.882   6.646   1.936
 2817SOL    HW1 9350   2.931   6.589   1.871
 2817SOL    HW2 9351   2.944   6.673   2.010
 2818SOL     OW 9352   0.638   0.348   1.293
 2818SOL    HW1 9353   0.717   0.405   1.272
 2818SOL    HW2 9354   0.565   0.404   1.332
 2819SOL     OW 9355   0.729   0.851   1.667
 2819SOL    HW1 9356   0.664   0.839   1.592
 2819SOL    HW2 9357   0.744   0.763   1.713
 2820SOL     OW 9358   0.726   2.734   2.879
 2820SOL    HW1 9359   0.659   2.796   2.920
 2820SOL    HW2 9360   0.798   2.788   2.836
 2821SOL     OW 9361   4.412   3.456   6.368
 2821SOL    HW1 9362   4.428   3.545   6.411
 2821SOL    HW2 9363   4.318   3.428   6.384
 2822SOL     OW 9364   3.846   1.937   0.158
 2822SOL    HW1 9365   3.817   1.978   0.244
 2822SOL    HW2 9366   3.768   1.931   0.096
 2823SOL     OW 9367   4.133   0.432   0.264
 2823SOL    HW1 9368   4.227   0.460   0.283
 2823SOL    HW2 9369   4.074   0.460   0.340
 2824SOL     OW 9370   2.122   1.365   3.475
 2824SOL    HW1 9371   2.212   1.332   3.447
 2824SOL    HW2 9372   2.112   1.355   3.574
 2825SOL     OW 9373   5.898   0.484   6.518
 2825SOL    HW1 9374   5.876   0.399   6.565
 2825SOL    HW2 9375   5.850   0.560   6.562
 2826SOL     OW 9376   4.772   1.020   6.548
 2826SOL    HW1 9377   4.746   0.982   6.459
 2826SOL    HW2 9378   4.825   0.951   6.599
 2827SOL     OW 9379   0.557   0.903   5.502
 2827SOL    HW1 9380   0.570   0.945   5.591
 2827SOL    HW2 9381   0.625   0.831   5.489
 2828SOL     OW 9382   2.269   0.971   0.303
 2828SOL    HW1 9383   2.170   0.986   0.300
 2828SOL    HW2 9384   2.315   1.049   0.261
 2829SOL     OW 9385   3.610   3.327   5.052
 2829SOL    HW1 9386   3.610   3.409   5.110
 2829SOL    HW2 9387   3.614   3.354   4.956
 2830SOL     OW 9388   1.809   2.911   5.705
 2830SOL    HW1 9389   1.768   2.820   5.716
 2830SOL    HW2 9390   1.875   2.909   5.630
 2831SOL     OW 9391   0.868   4.780   3.652
 2831SOL    HW1 9392   0.951   4.732   3.681
 2831SOL    HW2 9393   0.884   4.879   3.657
 2832SOL     OW 9394   1.017   3.123   2.245
 2832SOL    HW1 9395   1.031   3.222   2.254
 2832SOL    HW2 9396   0.939   3.095   2.300
 2833SOL     OW 9397   3.254   2.109   2.649
 2833SOL    HW1 9398   3.306   2.099   2.565
 2833SOL    HW2 9399   3.166   2.153   2.629
 2834SOL     OW 9400   3.818   5.612   6.234
 2834SOL    HW1 9401   3.848   5.600   6.329
 2834SOL    HW2 9402   3.879   5.563   6.173
 2835SOL     OW 9403   0.661   6.814   2.088
 2835SOL    HW1 9404   0.647   6.790   2.184
 2835SOL    HW2 9405   0.591   6.879   2.059
 2836SOL     OW 9406   6.743   0.027   2.333
 2836SOL    HW1 9407   6.682   0.072   2.266
 2836SOL    HW2 9408   6.795   6.979   2.287
 2837SOL     OW 9409   5.077   5.256   2.514
 2837SOL    HW1 9410   5.018   5.250   2.433
 2837SOL    HW2 9411   5.160   5.202   2.499
 2838SOL     OW 9412   3.006   3.973   0.922
 2838SOL    HW1 9413   2.952   4.012   0.996
 2838SOL    HW2 9414   2.954   3.900   0.877
 2839SOL     OW 9415   6.736   2.462   2.909
 2839SOL    HW1 9416   6.775   2.517   2.983
 2839SOL    HW2 9417   6.639   2.484   2.898
 2840SOL     OW 9418   1.105   0.046   3.170
 2840SOL    HW1 9419   1.201   0.067   3.156
 2840SOL    HW2 9420   1.095   6.973   3.195
 2841SOL     OW 9421   0.583   0.858   6.288
 2841SOL    HW1 9422   0.496   0.829   6.248
 2841SOL    HW2 9423   0.655   0.794   6.262
 2842SOL     OW 9424   0.292   4.056   4.093
 2842SOL    HW1 9425   0.201   4.039   4.130
 2842SOL    HW2 9426   0.351   4.096   4.163
 2843SOL     OW 9427   2.352   2.562   2.632
 2843SOL    HW1 9428   2.282   2.490   2.640
 2843SOL    HW2 9429   2.328   2.624   2.558
 2844SOL     OW 9430   6.792   5.047   0.322
 2844SOL    HW1 9431   6.885   5.053   0.360
 2844SOL    HW2 9432   6.781   5.118   0.252
 2845SOL     OW 9433   6.174   2.884   1.545
 2845SOL    HW1 9434   6.103   2.888   1.474
 2845SOL    HW2 9435   6.194   2.977   1.577
 2846SOL     OW 9436   4.025   1.364   6.959
 2846SOL    HW1 9437   4.056   1.452   6.922
 2846SOL    HW2 9438   4.054   1.356   0.031
 2847SOL     OW 9439   5.025   3.696   3.443
 2847SOL    HW1 9440   5.120   3.668   3.439
 2847SOL    HW2 9441   5.018   3.795   3.431
 2848SOL     OW 9442   1.769   2.678   5.107
 2848SOL    HW1 9443   1.848   2.731   5.076
 2848SOL    HW2 9444   1.786   2.645   5.200
 2849SOL     OW 9445   4.004   6.693   0.549
 2849SOL    HW1 9446   4.089   6.745   0.554
 2849SOL    HW2 9447   3.977   6.662   0.640
 2850SOL     OW 9448   1.382   0.230   2.577
 2850SOL    HW1 9449   1.387   0.311   2.519
 2850SOL    HW2 9450   1.397   0.256   2.673
 2851SOL     OW 9451   5.924   1.339   5.940
 2851SOL    HW1 9452   5.878   1.427   5.947
 2851SOL    HW2 9453   5.899   1.281   6.017
 2852SOL     OW 9454   6.320   3.889   6.866
 2852SOL    HW1 9455   6.234   3.848   6.836
 2852SOL    HW2 9456   6.374   3.821   6.915
 2853SOL     OW 9457   1.355   1.066   6.467
 2853SOL    HW1 9458   1.307   1.087   6.382
 2853SOL    HW2 9459   1.450   1.045   6.446
 2854SOL     OW 9460   4.243   1.280   4.853
 2854SOL    HW1 9461   4.165   1.312   4.907
 2854SOL    HW2 9462   4.328   1.297   4.903
 2855SOL     OW 9463   2.224   1.334   6.160
 2855SOL    HW1 9464   2.206   1.402   6.231
 2855SOL    HW2 9465   2.142   1.324   6.103
 2856SOL     OW 9466   0.811   2.949   5.366
 2856SOL    HW1 9467   0.895   2.943   5.419
 2856SOL    HW2 9468   0.753   2.870   5.384
 2857SOL     OW 9469   2.488   2.075   2.441
 2857SOL    HW1 9470   2.498   2.157   2.497
 2857SOL    HW2 9471   2.569   2.017   2.452
 2858SOL     OW 9472   4.696   4.227   2.188
 2858SOL    HW1 9473   4.630   4.252   2.118
 2858SOL    HW2 9474   4.778   4.188   2.144
 2859SOL     OW 9475   5.886   0.898   6.664
 2859SOL    HW1 9476   5.824   0.951   6.721
 2859SOL    HW2 9477   5.939   0.836   6.721
 2860SOL     OW 9478   2.971   1.386   1.429
 2860SOL    HW1 9479   2.898   1.343   1.482
 2860SOL    HW2 9480   2.964   1.358   1.333
 2861SOL     OW 9481   4.217   4.281   6.069
 2861SOL    HW1 9482   4.145   4.261   6.002
 2861SOL    HW2 9483   4.216   4.379   6.089
 2862SOL     OW 9484   5.826   1.569   2.600
 2862SOL    HW1 9485   5.782   1.526   2.522
 2862SOL    HW2 9486   5.860   1.659   2.574
 2863SOL     OW 9487   4.925   1.122   6.795
 2863SOL    HW1 9488   4.988   1.143   6.721
 2863SOL    HW2 9489   4.857   1.057   6.763
 2864SOL     OW 9490   4.268   1.575   2.100
 2864SOL    HW1 9491   4.268   1.595   2.198
 2864SOL    HW2 9492   4.253   1.477   2.086
 2865SOL     OW 9493   4.033   4.877   6.102
 2865SOL    HW1 9494   3.958   4.934   6.069
 2865SOL    HW2 9495   4.003   4.825   6.182
 2866SOL     OW 9496   6.654   5.633   6.705
 2866SOL    HW1 9497   6.704   5.654   6.621
 2866SOL    HW2 9498   6.566   5.679   6.705
 2867SOL     OW 9499   0.050   5.971   2.927
 2867SOL    HW1 9500   0.078   6.020   3.009
 2867SOL    HW2 9501   0.040   6.036   2.851
 2868SOL     OW 9502   0.912   0.996   5.179
 2868SOL    HW1 9503   0.948   0.995   5.086
 2868SOL    HW2 9504   0.814   1.017   5.177
 2869SOL     OW 9505   6.854   1.389   3.598
 2869SOL    HW1 9506   6.828   1.459   3.664
 2869SOL    HW2 9507   6.865   1.431   3.508
 2870SOL     OW 9508   0.511   1.348   4.951
 2870SOL    HW1 9509   0.478   1.389   5.036
 2870SOL    HW2 9510   0.434   1.332   4.890
 2871SOL     OW 9511   0.140   2.050   6.495
 2871SOL    HW1 9512   0.210   2.081   6.559
 2871SOL    HW2 9513   0.070   2.000   6.544
 2872SOL     OW 9514   2.721   1.952   2.471
 2872SOL    HW1 9515   2.740   1.955   2.569
 2872SOL    HW2 9516   2.701   1.858   2.444
 2873SOL     OW 9517   0.248   5.506   2.971
 2873SOL    HW1 9518   0.165   5.561   2.979
 2873SOL    HW2 9519   0.236   5.419   3.019
 2874SOL     OW 9520   4.403   6.335   3.100
 2874SOL    HW1 9521   4.322   6.354   3.044
 2874SOL    HW2 9522   4.464   6.414   3.099
 2875SOL     OW 9523   4.547   0.047   0.886
 2875SOL    HW1 9524   4.593   7.004   0.945
 2875SOL    HW2 9525   4.509   0.121   0.942
 2876SOL     OW 9526   1.628   0.223   2.388
 2876SOL    HW1 9527   1.554   0.283   2.357
 2876SOL    HW2 9528   1.657   0.165   2.311
 2877SOL     OW 9529   2.932   2.462   5.289
 2877SOL    HW1 9530   2.993   2.401   5.238
 2877SOL    HW2 9531   2.837   2.441   5.267
 2878SOL     OW 9532   3.248   4.763   5.231
 2878SOL    HW1 9533   3.169   4.712   5.266
 2878SOL    HW2 9534   3.329   4.740   5.285
 2879SOL     OW 9535   5.343   5.182   0.086
 2879SOL    HW1 9536   5.298   5.119   0.149
 2879SOL    HW2 9537   5.292   5.186   0.000
 2880SOL     OW 9538   7.013   0.861   1.759
 2880SOL    HW1 9539   7.007   0.796   1.835
 2880SOL    HW2 9540   6.921   0.892   1.735
 2881SOL     OW 9541   5.468   6.124   6.451
 2881SOL    HW1 9542   5.432   6.055   6.389
 2881SOL    HW2 9543   5.408   6.132   6.531
 2882SOL     OW 9544   0.471   5.266   2.595
 2882SOL    HW1 9545   0.383   5.233   2.560
 2882SOL    HW2 9546   0.455   5.342   2.659
 2883SOL     OW 9547   5.288   0.288   3.092
 2883SOL    HW1 9548   5.314   0.248   3.004
 2883SOL    HW2 9549   5.300   0.220   3.164
 2884SOL     OW 9550   0.904   0.223   2.534
 2884SOL    HW1 9551   0.830   0.291   2.537
 2884SOL    HW2 9552   0.864   0.131   2.535
 2885SOL     OW 9553   1.056   3.707   3.685
 2885SOL    HW1 9554   0.978   3.648   3.663
 2885SOL    HW2 9555   1.023   3.790   3.730
 2886SOL     OW 9556   1.453   3.903   5.891
 2886SOL    HW1 9557   1.521   3.970   5.919
 2886SOL    HW2 9558   1.413   3.930   5.803
 2887SOL     OW 9559   0.462   0.348   5.068
 2887SOL    HW1 9560   0.463   0.439   5.108
 2887SOL    HW2 9561   0.381   0.339   5.009
 2888SOL     OW 9562   0.472   4.053   0.140
 2888SOL    HW1 9563   0.396   4.038   0.203
 2888SOL    HW2 9564   0.500   3.966   0.099
 2889SOL     OW 9565   2.601   5.941   2.600
 2889SOL    HW1 9566   2.570   5.856   2.643
 2889SOL    HW2 9567   2.561   5.948   2.509
 2890SOL     OW 9568   2.291   6.015   0.534
 2890SOL    HW1 9569   2.249   6.104   0.553
 2890SOL    HW2 9570   2.227   5.958   0.484
 2891SOL     OW 9571   1.099   4.648   3.362
 2891SOL    HW1 9572   1.032   4.618   3.429
 2891SOL    HW2 9573   1.053   4.669   3.276
 2892SOL     OW 9574   5.790   3.360   0.265
 2892SOL    HW1 9575   5.758   3.303   0.341
 2892SOL    HW2 9576   5.774   3.312   0.178
 2893SOL     OW 9577   0.047   6.138   4.614
 2893SOL    HW1 9578   0.088   6.126   4.704
 2893SOL    HW2 9579   0.118   6.137   4.544
 2894SOL     OW 9580   1.153   3.425   2.230
 2894SOL    HW1 9581   1.203   3.377   2.158
 2894SOL    HW2 9582   1.185   3.520   2.235
 2895SOL     OW 9583   5.071   2.680   5.324
 2895SOL    HW1 9584   4.976   2.652   5.317
 2895SOL    HW2 9585   5.087   2.759   5.264
 2896SOL     OW 9586   4.690   5.467   5.833
 2896SOL    HW1 9587   4.758   5.394   5.821
 2896SOL    HW2 9588   4.700   5.508   5.924
 2897SOL     OW 9589   4.415   5.013   3.242
 2897SOL    HW1 9590   4.422   5.031   3.143
 2897SOL    HW2 9591   4.384   4.919   3.257
 2898SOL     OW 9592   4.637   4.815   4.493
 2898SOL    HW1 9593   4.730   4.796   4.525
 2898SOL    HW2 9594   4.571   4.785   4.562
 2899SOL     OW 9595   1.132   1.766   7.017
 2899SOL    HW1 9596   1.231   1.758   0.006
 2899SOL    HW2 9597   1.100   1.689   6.961
 2900SOL     OW 9598   2.093   3.353   5.893
 2900SOL    HW1 9599   2.128   3.413   5.820
 2900SOL    HW2 9600   2.061   3.267   5.853
 2901SOL     OW 9601   2.748   5.167   3.492
 2901SOL    HW1 9602   2.840   5.162   3.454
 2901SOL    HW2 9603   2.745   5.115   3.578
 2902SOL     OW 9604   5.416   6.525   2.733
 2902SOL    HW1 9605   5.410   6.426   2.742
 2902SOL    HW2 9606   5.328   6.566   2.759
 2903SOL     OW 9607   2.931   0.423   0.471
 2903SOL    HW1 9608   2.970   0.512   0.450
 2903SOL    HW2 9609   2.972   0.388   0.556
 2904SOL     OW 9610   2.302   4.225   4.362
 2904SOL    HW1 9611   2.316   4.257   4.456
 2904SOL    HW2 9612   2.301   4.125   4.361
 2905SOL     OW 9613   1.617   2.720   4.753
 2905SOL    HW1 9614   1.682   2.708   4.677
 2905SOL    HW2 9615   1.620   2.641   4.813
 2906SOL     OW 9616   4.043   5.582   1.679
 2906SOL    HW1 9617   4.005   5.673   1.663
 2906SOL    HW2 9618   4.016   5.521   1.605
 2907SOL     OW 9619   0.705   1.402   3.394
 2907SOL    HW1 9620   0.789   1.424   3.346
 2907SOL    HW2 9621   0.670   1.314   3.363
 2908SOL     OW 9622   4.864   6.174   3.537
 2908SOL    HW1 9623   4.853   6.208   3.630
 2908SOL    HW2 9624   4.802   6.098   3.521
 2909SOL     OW 9625   1.608   5.365   3.930
 2909SOL    HW1 9626   1.595   5.437   3.862
 2909SOL    HW2 9627   1.522   5.315   3.943
 2910SOL     OW 9628   4.997   0.497   4.790
 2910SOL    HW1 9629   5.095   0.495   4.769
 2910SOL    HW2 9630   4.946   0.522   4.708
 2911SOL     OW 9631   0.727   5.373   3.597
 2911SOL    HW1 9632   0.672   5.444   3.640
 2911SOL    HW2 9633   0.800   5.416   3.542
 2912SOL     OW 9634   4.605   0.613   0.120
 2912SOL    HW1 9635   4.644   0.530   0.082
 2912SOL    HW2 9636   4.538   0.651   0.057
 2913SOL     OW 9637   2.907   4.823   2.847
 2913SOL    HW1 9638   2.845   4.751   2.815
 2913SOL    HW2 9639   2.864   4.873   2.922
 2914SOL     OW 9640   6.603   6.395   6.625
 2914SOL    HW1 9641   6.671   6.457   6.584
 2914SOL    HW2 9642   6.636   6.301   6.618
 2915SOL     OW 9643   4.955   1.711   3.956
 2915SOL    HW1 9644   4.940   1.658   4.040
 2915SOL    HW2 9645   5.039   1.765   3.966
 2916SOL     OW 9646   1.098   6.721   0.580
 2916SOL    HW1 9647   1.082   6.624   0.598
 2916SOL    HW2 9648   1.189   6.733   0.540
 2917SOL     OW 9649   2.860   6.966   3.460
 2917SOL    HW1 9650   2.779   6.945   3.405
 2917SOL    HW2 9651   2.942   6.959   3.402
 2918SOL     OW 9652   6.317   5.000   5.005
 2918SOL    HW1 9653   6.250   5.063   4.964
 2918SOL    HW2 9654   6.274   4.951   5.081
 2919SOL     OW 9655   6.782   0.826   2.281
 2919SOL    HW1 9656   6.768   0.925   2.286
 2919SOL    HW2 9657   6.708   0.779   2.330
 2920SOL     OW 9658   2.752   1.714   1.602
 2920SOL    HW1 9659   2.835   1.729   1.548
 2920SOL    HW2 9660   2.700   1.799   1.609
 2921SOL     OW 9661   0.888   0.180   4.177
 2921SOL    HW1 9662   0.788   0.184   4.181
 2921SOL    HW2 9663   0.917   0.164   4.082
 2922SOL     OW 9664   4.790   1.094   0.457
 2922SOL    HW1 9665   4.760   1.149   0.379
 2922SOL    HW2 9666   4.714   1.038   0.490
 2923SOL     OW 9667   6.503   5.263   2.416
 2923SOL    HW1 9668   6.580   5.322   2.439
 2923SOL    HW2 9669   6.494   5.257   2.316
 2924SOL     OW 9670   6.657   2.455   5.616
 2924SOL    HW1 9671   6.586   2.476   5.549
 2924SOL    HW2 9672   6.747   2.471   5.575
 2925SOL     OW 9673   5.005   1.214   2.415
 2925SOL    HW1 9674   4.964   1.148   2.352
 2925SOL    HW2 9675   5.037   1.293   2.364
 2926SOL     OW 9676   0.050   1.858   4.025
 2926SOL    HW1 9677   0.000   1.826   4.105
 2926SOL    HW2 9678   0.139   1.812   4.020
 2927SOL     OW 9679   1.310   3.336   1.814
 2927SOL    HW1 9680   1.262   3.405   1.867
 2927SOL    HW2 9681   1.293   3.246   1.855
 2928SOL     OW 9682   6.955   1.737   6.349
 2928SOL    HW1 9683   0.021   1.735   6.305
 2928SOL    HW2 9684   6.963   1.704   6.443
 2929SOL     OW 9685   0.188   2.255   6.978
 2929SOL    HW1 9686   0.179   2.314   0.035
 2929SOL    HW2 9687   0.252   2.297   6.914
 2930SOL     OW 9688   4.134   0.551   4.790
 2930SOL    HW1 9689   4.144   0.640   4.835
 2930SOL    HW2 9690   4.071   0.559   4.713
 2931SOL     OW 9691   5.544   4.617   0.473
 2931SOL    HW1 9692   5.542   4.639   0.376
 2931SOL    HW2 9693   5.476   4.546   0.493
 2932SOL     OW 9694   1.029   5.899   1.584
 2932SOL    HW1 9695   0.942   5.869   1.545
 2932SOL    HW2 9696   1.020   5.908   1.683
 2933SOL     OW 9697   7.009   5.279   3.253
 2933SOL    HW1 9698   7.018   5.196   3.307
 2933SOL    HW2 9699   0.063   5.289   3.191
 2934SOL     OW 9700   4.600   1.067   0.247
 2934SOL    HW1 9701   4.513   1.040   0.206
 2934SOL    HW2 9702   4.673   1.057   0.179
 2935SOL     OW 9703   6.318   3.641   0.179
 2935SOL    HW1 9704   6.268   3.556   0.197
 2935SOL    HW2 9705   6.252   3.716   0.166
 2936SOL     OW 9706   3.869   6.424   1.002
 2936SOL    HW1 9707   3.835   6.516   1.020
 2936SOL    HW2 9708   3.921   6.424   0.916
 2937SOL     OW 9709   5.099   4.419   0.591
 2937SOL    HW1 9710   5.047   4.416   0.677
 2937SOL    HW2 9711   5.061   4.491   0.532
 2938SOL     OW 9712   5.065   4.639   6.670
 2938SOL    HW1 9713   5.100   4.730   6.646
 2938SOL    HW2 9714   5.130   4.569   6.639
 2939SOL     OW 9715   1.256   1.062   2.690
 2939SOL    HW1 9716   1.329   1.080   2.624
 2939SOL    HW2 9717   1.263   1.127   2.766
 2940SOL     OW 9718   5.404   5.081   6.170
 2940SOL    HW1 9719   5.333   5.015   6.193
 2940SOL    HW2 9720   5.472   5.084   6.244
 2941SOL     OW 9721   1.705   2.373   4.476
 2941SOL    HW1 9722   1.647   2.350   4.397
 2941SOL    HW2 9723   1.793   2.326   4.467
 2942SOL     OW 9724   2.736   2.743   0.419
 2942SOL    HW1 9725   2.753   2.802   0.340
 2942SOL    HW2 9726   2.658   2.684   0.399
 2943SOL     OW 9727   4.693   4.387   3.378
 2943SOL    HW1 9728   4.778   4.366   3.329
 2943SOL    HW2 9729   4.616   4.375   3.316
 2944SOL     OW 9730   2.825   5.883   4.448
 2944SOL    HW1 9731   2.863   5.956   4.504
 2944SOL    HW2 9732   2.865   5.889   4.356
 2945SOL     OW 9733   3.647   4.163   3.732
 2945SOL    HW1 9734   3.575   4.183   3.798
 2945SOL    HW2 9735   3.730   4.134   3.780
 2946SOL     OW 9736   0.946   4.858   6.216
 2946SOL    HW1 9737   0.902   4.905   6.140
 2946SOL    HW2 9738   1.030   4.907   6.240
 2947SOL     OW 9739   0.521   3.611   0.832
 2947SOL    HW1 9740   0.539   3.636   0.927
 2947SOL    HW2 9741   0.567   3.675   0.771
 2948SOL     OW 9742   0.818   4.040   5.841
 2948SOL    HW1 9743   0.892   4.095   5.881
 2948SOL    HW2 9744   0.848   4.005   5.753
 2949SOL     OW 9745   2.756   5.543   0.765
 2949SOL    HW1 9746   2.702   5.617   0.724
 2949SOL    HW2 9747   2.853   5.557   0.743
 2950SOL     OW 9748   5.086   4.158   4.176
 2950SOL    HW1 9749   5.008   4.097   4.192
 2950SOL    HW2 9750   5.165   4.126   4.228
 2951SOL     OW 9751   5.607   1.194   0.825
 2951SOL    HW1 9752   5.670   1.242   0.885
 2951SOL    HW2 9753   5.616   1.095   0.840
 2952SOL     OW 9754   0.970   4.950   5.382
 2952SOL    HW1 9755   1.030   4.881   5.341
 2952SOL    HW2 9756   0.910   4.988   5.312
 2953SOL     OW 9757   5.013   2.752   2.358
 2953SOL    HW1 9758   5.045   2.809   2.282
 2953SOL    HW2 9759   4.968   2.810   2.426
 2954SOL     OW 9760   0.893   5.508   1.607
 2954SOL    HW1 9761   0.906   5.421   1.655
 2954SOL    HW2 9762   0.975   5.529   1.554
 2955SOL     OW 9763   0.424   4.466   1.472
 2955SOL    HW1 9764   0.367   4.544   1.498
 2955SOL    HW2 9765   0.438   4.407   1.551
 2956SOL     OW 9766   5.500   6.452   3.504
 2956SOL    HW1 9767   5.533   6.440   3.598
 2956SOL    HW2 9768   5.548   6.389   3.444
 2957SOL     OW 9769   6.001   3.064   1.389
 2957SOL    HW1 9770   5.933   3.092   1.457
 2957SOL    HW2 9771   6.086   3.114   1.404
 2958SOL     OW 9772   2.030   5.188   4.147
 2958SOL    HW1 9773   2.054   5.137   4.229
 2958SOL    HW2 9774   1.996   5.279   4.173
 2959SOL     OW 9775   4.780   4.458   0.698
 2959SOL    HW1 9776   4.734   4.407   0.625
 2959SOL    HW2 9777   4.774   4.407   0.783
 2960SOL     OW 9778   2.956   0.521   6.733
 2960SOL    HW1 9779   2.863   0.491   6.711
 2960SOL    HW2 9780   2.979   0.601   6.678
 2961SOL     OW 9781   5.085   3.610   2.676
 2961SOL    HW1 9782   5.003   3.645   2.631
 2961SOL    HW2 9783   5.115   3.676   2.745
 2962SOL     OW 9784   4.844   0.327   3.154
 2962SOL    HW1 9785   4.797   0.299   3.238
 2962SOL    HW2 9786   4.888   0.415   3.168
 2963SOL     OW 9787   2.227   0.426   6.012
 2963SOL    HW1 9788   2.162   0.465   6.077
 2963SOL    HW2 9789   2.191   0.435   5.919
 2964SOL     OW 9790   0.817   0.589   3.215
 2964SOL    HW1 9791   0.821   0.498   3.174
 2964SOL    HW2 9792   0.881   0.650   3.168
 2965SOL     OW 9793   6.751   1.873   4.540
 2965SOL    HW1 9794   6.731   1.779   4.511
 2965SOL    HW2 9795   6.750   1.933   4.461
 2966SOL     OW 9796   5.435   6.096   4.007
 2966SOL    HW1 9797   5.440   6.017   3.946
 2966SOL    HW2 9798   5.340   6.110   4.036
 2967SOL     OW 9799   6.611   0.648   4.784
 2967SOL    HW1 9800   6.682   0.715   4.802
 2967SOL    HW2 9801   6.574   0.661   4.692
 2968SOL     OW 9802   1.127   2.867   6.689
 2968SOL    HW1 9803   1.209   2.821   6.657
 2968SOL    HW2 9804   1.143   2.966   6.692
 2969SOL     OW 9805   4.833   1.341   4.351
 2969SOL    HW1 9806   4.832   1.380   4.443
 2969SOL    HW2 9807   4.817   1.242   4.357
 2970SOL     OW 9808   1.830   4.727   6.192
 2970SOL    HW1 9809   1.786   4.676   6.118
 2970SOL    HW2 9810   1.828   4.825   6.171
 2971SOL     OW 9811   4.848   4.168   0.539
 2971SOL    HW1 9812   4.786   4.178   0.461
 2971SOL    HW2 9813   4.820   4.091   0.595
 2972SOL     OW 9814   6.116   4.643   6.510
 2972SOL    HW1 9815   6.160   4.638   6.600
 2972SOL    HW2 9816   6.167   4.707   6.452
 2973SOL     OW 9817   5.415   6.906   2.487
 2973SOL    HW1 9818   5.423   6.808   2.468
 2973SOL    HW2 9819   5.362   6.920   2.570
 2974SOL     OW 9820   0.801   4.555   2.527
 2974SOL    HW1 9821   0.865   4.558   2.604
 2974SOL    HW2 9822   0.809   4.639   2.474
 2975SOL     OW 9823   5.487   3.703   4.108
 2975SOL    HW1 9824   5.465   3.633   4.040
 2975SOL    HW2 9825   5.407   3.720   4.166
 2976SOL     OW 9826   4.423   2.251   3.307
 2976SOL    HW1 9827   4.367   2.294   3.236
 2976SOL    HW2 9828   4.520   2.262   3.285
 2977SOL     OW 9829   2.696   0.343   2.970
 2977SOL    HW1 9830   2.716   0.408   2.896
 2977SOL    HW2 9831   2.744   0.257   2.953
 2978SOL     OW 9832   4.931   4.325   0.255
 2978SOL    HW1 9833   4.962   4.230   0.258
 2978SOL    HW2 9834   4.842   4.330   0.210
 2979SOL     OW 9835   3.992   0.846   4.320
 2979SOL    HW1 9836   4.042   0.925   4.355
 2979SOL    HW2 9837   3.906   0.836   4.370
 2980SOL     OW 9838   1.101   5.944   4.414
 2980SOL    HW1 9839   1.201   5.947   4.408
 2980SOL    HW2 9840   1.064   5.897   4.334
 2981SOL     OW 9841   1.831   1.127   5.825
 2981SOL    HW1 9842   1.749   1.180   5.845
 2981SOL    HW2 9843   1.894   1.182   5.770
 2982SOL     OW 9844   4.078   4.761   2.999
 2982SOL    HW1 9845   3.982   4.741   3.017
 2982SOL    HW2 9846   4.095   4.759   2.900
 2983SOL     OW 9847   0.995   1.261   2.763
 2983SOL    HW1 9848   0.998   1.271   2.663
 2983SOL    HW2 9849   1.048   1.335   2.805
 2984SOL     OW 9850   5.613   5.641   1.360
 2984SOL    HW1 9851   5.605   5.733   1.322
 2984SOL    HW2 9852   5.573   5.575   1.296
 2985SOL     OW 9853   1.407   2.539   5.779
 2985SOL    HW1 9854   1.351   2.490   5.712
 2985SOL    HW2 9855   1.503   2.514   5.767
 2986SOL     OW 9856   3.128   4.083   4.515
 2986SOL    HW1 9857   3.067   4.160   4.535
 2986SOL    HW2 9858   3.212   4.093   4.567
 2987SOL     OW 9859   6.376   1.305   4.258
 2987SOL    HW1 9860   6.394   1.207   4.248
 2987SOL    HW2 9861   6.279   1.319   4.280
 2988SOL     OW 9862   1.441   5.974   3.040
 2988SOL    HW1 9863   1.502   5.914   3.091
 2988SOL    HW2 9864   1.348   5.937   3.041
 2989SOL     OW 9865   6.168   5.567   6.306
 2989SOL    HW1 9866   6.163   5.662   6.274
 2989SOL    HW2 9867   6.190   5.567   6.404
 2990SOL     OW 9868   3.728   1.931   4.699
 2990SOL    HW1 9869   3.742   1.849   4.754
 2990SOL    HW2 9870   3.630   1.948   4.689
 2991SOL     OW 9871   6.805   4.505   5.850
 2991SOL    HW1 9872   6.762   4.493   5.939
 2991SOL    HW2 9873   6.734   4.512   5.779
 2992SOL     OW 9874   3.055   5.856   4.830
 2992SOL    HW1 9875   3.082   5.913   4.907
 2992SOL    HW2 9876   2.996   5.909   4.768
 2993SOL     OW 9877   0.389   5.321   1.219
 2993SOL    HW1 9878   0.489   5.320   1.216
 2993SOL    HW2 9879   0.355   5.227   1.226
 2994SOL     OW 9880   4.564   6.403   0.102
 2994SOL    HW1 9881   4.556   6.348   0.186
 2994SOL    HW2 9882   4.604   6.492   0.124
 2995SOL     OW 9883   3.005   2.130   5.768
 2995SOL    HW1 9884   2.959   2.048   5.801
 2995SOL    HW2 9885   2.938   2.193   5.728
 2996SOL     OW 9886   1.629   0.950   3.403
 2996SOL    HW1 9887   1.624   1.009   3.323
 2996SOL    HW2 9888   1.539   0.946   3.447
 2997SOL     OW 9889   6.114   0.332   2.738
 2997SOL    HW1 9890   6.184   0.328   2.809
 2997SOL    HW2 9891   6.025   0.348   2.780
 2998SOL     OW 9892   4.340   6.799   4.501
 2998SOL    HW1 9893   4.419   6.762   4.550
 2998SOL    HW2 9894   4.284   6.853   4.564
 2999SOL     OW 9895   2.957   4.909   4.686
 2999SOL    HW1 9896   3.039   4.957   4.717
 2999SOL    HW2 9897   2.969   4.879   4.592
 3000SOL     OW 9898   2.401   3.606   6.789
 3000SOL    HW1 9899   2.359   3.559   6.711
 3000SOL    HW2 9900   2.330   3.652   6.842
 3001SOL     OW 9901   5.519   0.187   6.314
 3001SOL    HW1 9902   5.553   0.240   6.392
 3001SOL    HW2 9903   5.589   0.123   6.283
 3002SOL     OW 9904   3.572   1.391   6.777
 3002SOL    HW1 9905   3.659   1.379   6.730
 3002SOL    HW2 9906   3.539   1.303   6.808
 3003SOL     OW 9907   1.714   6.301   0.394
 3003SOL    HW1 9908   1.803   6.268   0.427
 3003SOL    HW2 9909   1.725   6.343   0.304
 3004SOL     OW 9910   1.151   4.774   2.474
 3004SOL    HW1 9911   1.241   4.803   2.441
 3004SOL    HW2 9912   1.105   4.852   2.517
 3005SOL     OW 9913   3.298   1.817   0.512
 3005SOL    HW1 9914   3.267   1.827   0.417
 3005SOL    HW2 9915   3.292   1.905   0.559
 3006SOL     OW 9916   5.029   1.619   5.377
 3006SOL    HW1 9917   4.987   1.653   5.293
 3006SOL    HW2 9918   5.046   1.696   5.439
 3007SOL     OW 9919   5.722   5.178   1.564
 3007SOL    HW1 9920   5.773   5.217   1.641
 3007SOL    HW2 9921   5.739   5.080   1.559
 3008SOL     OW 9922   4.110   1.849   6.067
 3008SOL    HW1 9923   4.033   1.847   6.130
 3008SOL    HW2 9924   4.126   1.757   6.031
 3009SOL     OW 9925   0.726   1.747   2.666
 3009SOL    HW1 9926   0.645   1.805   2.653
 3009SOL    HW2 9927   0.797   1.774   2.602
 3010SOL     OW 9928   3.683   4.976   3.381
 3010SOL    HW1 9929   3.584   4.990   3.388
 3010SOL    HW2 9930   3.730   5.034   3.448
 3011SOL     OW 9931   6.262   1.536   1.548
 3011SOL    HW1 9932   6.207   1.455   1.567
 3011SOL    HW2 9933   6.239   1.572   1.457
 3012SOL     OW 9934   1.679   3.790   6.115
 3012SOL    HW1 9935   1.746   3.862   6.136
 3012SOL    HW2 9936   1.710   3.739   6.034
 3013SOL     OW 9937   5.817   6.071   4.927
 3013SOL    HW1 9938   5.856   6.142   4.868
 3013SOL    HW2 9939   5.884   5.998   4.940
 3014SOL     OW 9940   4.472   2.519   4.455
 3014SOL    HW1 9941   4.559   2.527   4.407
 3014SOL    HW2 9942   4.404   2.578   4.411
 3015SOL     OW 9943   3.487   1.751   0.849
 3015SOL    HW1 9944   3.526   1.712   0.932
 3015SOL    HW2 9945   3.548   1.733   0.772
 3016SOL     OW 9946   2.223   6.224   3.630
 3016SOL    HW1 9947   2.212   6.311   3.583
 3016SOL    HW2 9948   2.282   6.236   3.710
 3017SOL     OW 9949   6.731   4.730   2.408
 3017SOL    HW1 9950   6.678   4.773   2.335
 3017SOL    HW2 9951   6.740   4.792   2.485
 3018SOL     OW 9952   3.298   6.235   6.054
 3018SOL    HW1 9953   3.335   6.149   6.090
 3018SOL    HW2 9954   3.303   6.235   5.955
 3019SOL     OW 9955   0.786   6.875   6.746
 3019SOL    HW1 9956   0.782   6.921   6.834
 3019SOL    HW2 9957   0.712   6.909   6.687
 3020SOL     OW 9958   4.155   3.017   1.432
 3020SOL    HW1 9959   4.150   3.079   1.353
 3020SOL    HW2 9960   4.146   2.923   1.401
 3021SOL     OW 9961   3.116   6.736   6.586
 3021SOL    HW1 9962   3.165   6.687   6.514
 3021SOL    HW2 9963   3.111   6.833   6.564
 3022SOL     OW 9964   3.639   5.665   4.224
 3022SOL    HW1 9965   3.649   5.580   4.172
 3022SOL    HW2 9966   3.598   5.735   4.165
 3023SOL     OW 9967   3.946   0.480   2.732
 3023SOL    HW1 9968   3.968   0.457   2.826
 3023SOL    HW2 9969   3.979   0.408   2.671
 3024SOL     OW 9970   4.287   6.831   4.925
 3024SOL    HW1 9971   4.211   6.768   4.940
 3024SOL    HW2 9972   4.373   6.785   4.950
 3025SOL     OW 9973   3.069   0.694   0.345
 3025SOL    HW1 9974   3.115   0.748   0.275
 3025SOL    HW2 9975   3.048   0.751   0.424
 3026SOL     OW 9976   1.588   0.400   0.355
 3026SOL    HW1 9977   1.658   0.442   0.412
 3026SOL    HW2 9978   1.508   0.460   0.349
 3027SOL     OW 9979   4.131   0.480   3.342
 3027SOL    HW1 9980   4.079   0.565   3.336
 3027SOL    HW2 9981   4.068   0.403   3.351
 3028SOL     OW 9982   1.305   4.027   5.559
 3028SOL    HW1 9983   1.226   3.970   5.581
 3028SOL    HW2 9984   1.366   3.977   5.497
 3029SOL     OW 9985   7.006   2.827   5.303
 3029SOL    HW1 9986   7.009   2.750   5.240
 3029SOL    HW2 9987   0.074   2.863   5.317
 3030SOL     OW 9988   0.023   3.256   6.608
 3030SOL    HW1 9989   6.962   3.211   6.635
 3030SOL    HW2 9990   0.028   3.347   6.651
 3031SOL     OW 9991   0.524   4.137   0.512
 3031SOL    HW1 9992   0.585   4.175   0.444
 3031SOL    HW2 9993   0.551   4.042   0.532
 3032SOL     OW 9994   3.337   0.227   1.300
 3032SOL    HW1 9995   3.379   0.137   1.292
 3032SOL    HW2 9996   3.362   0.282   1.220
 3033SOL     OW 9997   6.084   2.157   1.484
 3033SOL    HW1 9998   6.063   2.121   1.393
 3033SOL    HW2 9999   6.115   2.083   1.543
 3034SOL     OW10000   1.552   5.591   2.981
 3034SOL    HW110001   1.559   5.682   3.022
 3034SOL    HW210002   1.639   5.566   2.938
 3035SOL     OW10003   0.262   3.180   6.842
 3035SOL    HW110004   0.211   3.216   6.764
 3035SOL    HW210005   0.360   3.183   6.822
 3036SOL     OW10006   1.645   1.300   6.591
 3036SOL    HW110007   1.712   1.228   6.607
 3036SOL    HW210008   1.649   1.330   6.496
 3037SOL     OW10009   6.068   5.656   5.381
 3037SOL    HW110010   6.038   5.746   5.347
 3037SOL    HW210011   6.167   5.648   5.369
 3038SOL     OW10012   5.522   6.223   6.099
 3038SOL    HW110013   5.434   6.205   6.055
 3038SOL    HW210014   5.519   6.312   6.145
 3039SOL     OW10015   6.825   3.896   0.704
 3039SOL    HW110016   6.826   3.796   0.714
 3039SOL    HW210017   6.912   3.933   0.735
 3040SOL     OW10018   3.669   3.629   6.043
 3040SOL    HW110019   3.578   3.631   6.001
 3040SOL    HW210020   3.660   3.643   6.142
 3041SOL     OW10021   2.164   2.802   4.287
 3041SOL    HW110022   2.138   2.764   4.198
 3041SOL    HW210023   2.112   2.885   4.304
 3042SOL     OW10024   4.608   6.084   2.079
 3042SOL    HW110025   4.665   6.120   2.005
 3042SOL    HW210026   4.666   6.057   2.156
 3043SOL     OW10027   2.487   4.819   1.754
 3043SOL    HW110028   2.574   4.789   1.793
 3043SOL    HW210029   2.500   4.903   1.702
 3044SOL     OW10030   3.816   3.939   5.769
 3044SOL    HW110031   3.824   3.900   5.861
 3044SOL    HW210032   3.803   4.038   5.777
 3045SOL     OW10033   4.928   0.631   2.886
 3045SOL    HW110034   4.892   0.699   2.822
 3045SOL    HW210035   4.854   0.573   2.919
 3046SOL     OW10036   2.304   0.741   6.216
 3046SOL    HW110037   2.246   0.822   6.219
 3046SOL    HW210038   2.247   0.659   6.208
 3047SOL     OW10039   6.226   0.406   1.790
 3047SOL    HW110040   6.136   0.367   1.771
 3047SOL    HW210041   6.297   0.347   1.753
 3048SOL     OW10042   3.968   2.168   1.916
 3048SOL    HW110043   3.901   2.242   1.911
 3048SOL    HW210044   3.999   2.144   1.824
 3049SOL     OW10045   1.550   6.835   2.508
 3049SOL    HW110046   1.557   6.740   2.538
 3049SOL    HW210047   1.483   6.883   2.564
 3050SOL     OW10048   3.071   1.401   1.855
 3050SOL    HW110049   3.112   1.458   1.784
 3050SOL    HW210050   3.037   1.459   1.929
 3051SOL     OW10051   2.366   3.818   0.046
 3051SOL    HW110052   2.307   3.827   6.990
 3051SOL    HW210053   2.321   3.760   0.114
 3052SOL     OW10054   5.436   6.979   1.585
 3052SOL    HW110055   5.378   0.013   1.642
 3052SOL    HW210056   5.391   6.890   1.572
 3053SOL     OW10057   0.079   1.639   0.049
 3053SOL    HW110058   0.159   1.684   0.011
 3053SOL    HW210059   0.100   1.544   0.069
 3054SOL     OW10060   6.636   2.040   0.545
 3054SOL    HW110061   6.597   1.982   0.474
 3054SOL    HW210062   6.612   2.003   0.635
 3055SOL     OW10063   5.422   0.374   4.284
 3055SOL    HW110064   5.459   0.421   4.204
 3055SOL    HW210065   5.337   0.420   4.313
 3056SOL     OW10066   6.158   0.560   4.907
 3056SOL    HW110067   6.167   0.616   4.989
 3056SOL    HW210068   6.209   0.602   4.832
 3057SOL     OW10069   4.062   5.852   2.749
 3057SOL    HW110070   4.049   5.759   2.714
 3057SOL    HW210071   3.995   5.870   2.821
 3058SOL     OW10072   0.351   5.019   1.338
 3058SOL    HW110073   0.253   5.002   1.348
 3058SOL    HW210074   0.384   5.071   1.416
 3059SOL     OW10075   2.266   2.519   4.273
 3059SOL    HW110076   2.323   2.523   4.355
 3059SOL    HW210077   2.240   2.612   4.246
 3060SOL     OW10078   0.903   5.764   0.550
 3060SOL    HW110079   0.976   5.750   0.483
 3060SOL    HW210080   0.851   5.845   0.526
 3061SOL     OW10081   6.997   0.141   4.999
 3061SOL    HW110082   6.988   0.054   5.047
 3061SOL    HW210083   0.067   0.150   4.964
 3062SOL     OW10084   2.167   0.223   0.356
 3062SOL    HW110085   2.173   0.237   0.454
 3062SOL    HW210086   2.113   0.296   0.315
 3063SOL     OW10087   2.618   5.063   1.916
 3063SOL    HW110088   2.647   4.970   1.894
 3063SOL    HW210089   2.519   5.071   1.904
 3064SOL     OW10090   6.048   3.957   2.751
 3064SOL    HW110091   5.998   4.003   2.825
 3064SOL    HW210092   6.135   4.002   2.736
 3065SOL     OW10093   2.352   0.715   0.450
 3065SOL    HW110094   2.273   0.682   0.502
 3065SOL    HW210095   2.320   0.775   0.376
 3066SOL     OW10096   4.994   5.221   0.785
 3066SOL    HW110097   4.959   5.202   0.693
 3066SOL    HW210098   5.034   5.138   0.823
 3067SOL     OW10099   3.628   2.177   5.235
 3067SOL    HW110100   3.613   2.135   5.325
 3067SOL    HW210101   3.540   2.197   5.192
 3068SOL     OW10102   6.259   0.234   0.773
 3068SOL    HW110103   6.161   0.218   0.779
 3068SOL    HW210104   6.307   0.148   0.794
 3069SOL     OW10105   6.460   6.608   1.605
 3069SOL    HW110106   6.518   6.689   1.596
 3069SOL    HW210107   6.375   6.622   1.555
 3070SOL     OW10108   2.199   1.588   0.836
 3070SOL    HW110109   2.182   1.551   0.927
 3070SOL    HW210110   2.154   1.531   0.768
 3071SOL     OW10111   5.585   6.323   3.279
 3071SOL    HW110112   5.566   6.394   3.211
 3071SOL    HW210113   5.684   6.312   3.288
 3072SOL     OW10114   1.815   6.120   0.074
 3072SOL    HW110115   1.717   6.125   0.057
 3072SOL    HW210116   1.831   6.087   0.167
 3073SOL     OW10117   5.738   3.373   4.075
 3073SOL    HW110118   5.834   3.347   4.089
 3073SOL    HW210119   5.733   3.471   4.057
 3074SOL     OW10120   6.021   4.159   1.358
 3074SOL    HW110121   5.951   4.120   1.298
 3074SOL    HW210122   6.044   4.092   1.429
 3075SOL     OW10123   2.914   6.193   1.711
 3075SOL    HW110124   2.827   6.178   1.759
 3075SOL    HW210125   2.920   6.130   1.633
 3076SOL     OW10126   6.810   0.510   4.519
 3076SOL    HW110127   6.721   0.482   4.483
 3076SOL    HW210128   6.866   0.429   4.536
 3077SOL     OW10129   5.196   6.306   2.135
 3077SOL    HW110130   5.118   6.286   2.076
 3077SOL    HW210131   5.218   6.404   2.130
 3078SOL     OW10132   0.232   2.810   2.738
 3078SOL    HW110133   0.237   2.744   2.663
 3078SOL    HW210134   0.221   2.761   2.825
 3079SOL     OW10135   2.308   2.900   3.019
 3079SOL    HW110136   2.254   2.921   3.100
 3079SOL    HW210137   2.356   2.813   3.033
 3080SOL     OW10138   4.754   4.057   2.744
 3080SOL    HW110139   4.798   3.975   2.707
 3080SOL    HW210140   4.745   4.047   2.843
 3081SOL     OW10141   0.643   2.550   5.664
 3081SOL    HW110142   0.717   2.483   5.664
 3081SOL    HW210143   0.587   2.540   5.746
 3082SOL     OW10144   2.987   5.948   3.934
 3082SOL    HW110145   2.944   5.863   3.904
 3082SOL    HW210146   2.943   6.026   3.890
 3083SOL     OW10147   3.388   5.690   3.922
 3083SOL    HW110148   3.330   5.764   3.888
 3083SOL    HW210149   3.458   5.728   3.982
 3084SOL     OW10150   6.634   4.415   4.878
 3084SOL    HW110151   6.672   4.324   4.895
 3084SOL    HW210152   6.548   4.425   4.926
 3085SOL     OW10153   6.126   4.345   0.961
 3085SOL    HW110154   6.216   4.321   0.997
 3085SOL    HW210155   6.133   4.358   0.862
 3086SOL     OW10156   4.340   1.374   1.232
 3086SOL    HW110157   4.424   1.379   1.176
 3086SOL    HW210158   4.262   1.403   1.177
 3087SOL     OW10159   0.430   5.291   3.769
 3087SOL    HW110160   0.487   5.361   3.726
 3087SOL    HW210161   0.463   5.200   3.742
 3088SOL     OW10162   2.053   4.874   5.015
 3088SOL    HW110163   2.038   4.955   5.072
 3088SOL    HW210164   2.104   4.806   5.067
 3089SOL     OW10165   1.304   3.280   6.795
 3089SOL    HW110166   1.301   3.289   6.695
 3089SOL    HW210167   1.335   3.188   6.820
 3090SOL     OW10168   2.473   2.288   1.553
 3090SOL    HW110169   2.452   2.386   1.564
 3090SOL    HW210170   2.439   2.256   1.465
 3091SOL     OW10171   1.628   1.246   0.930
 3091SOL    HW110172   1.539   1.258   0.885
 3091SOL    HW210173   1.666   1.157   0.906
 3092SOL     OW10174   4.829   0.784   0.086
 3092SOL    HW110175   4.761   0.721   0.123
 3092SOL    HW210176   4.900   0.799   0.155
 3093SOL     OW10177   5.859   6.779   5.704
 3093SOL    HW110178   5.791   6.796   5.632
 3093SOL    HW210179   5.817   6.725   5.777
 3094SOL     OW10180   1.608   6.650   4.428
 3094SOL    HW110181   1.673   6.656   4.504
 3094SOL    HW210182   1.515   6.647   4.464
 3095SOL     OW10183   1.947   5.053   5.410
 3095SOL    HW110184   1.894   4.968   5.413
 3095SOL    HW210185   1.986   5.071   5.501
 3096SOL     OW10186   1.834   6.000   5.525
 3096SOL    HW110187   1.900   5.928   5.506
 3096SOL    HW210188   1.779   6.017   5.444
 3097SOL     OW10189   5.982   1.776   0.103
 3097SOL    HW110190   6.006   1.872   0.110
 3097SOL    HW210191   5.949   1.743   0.191
 3098SOL     OW10192   2.502   3.026   0.959
 3098SOL    HW110193   2.546   2.945   0.998
 3098SOL    HW210194   2.435   3.062   1.024
 3099SOL     OW10195   0.673   7.006   3.069
 3099SOL    HW110196   0.592   6.951   3.048
 3099SOL    HW210197   0.703   0.030   2.986
 3100SOL     OW10198   6.434   6.027   4.267
 3100SOL    HW110199   6.358   6.030   4.332
 3100SOL    HW210200   6.516   6.064   4.310
 3101SOL     OW10201   5.508   6.824   6.636
 3101SOL    HW110202   5.429   6.883   6.655
 3101SOL    HW210203   5.572   6.872   6.577
 3102SOL     OW10204   0.097   5.385   1.834
 3102SOL    HW110205   0.005   5.365   1.801
 3102SOL    HW210206   0.156   5.305   1.818
 3103SOL     OW10207   4.270   0.925   2.363
 3103SOL    HW110208   4.369   0.919   2.366
 3103SOL    HW210209   4.231   0.836   2.387
 3104SOL     OW10210   4.894   0.730   4.954
 3104SOL    HW110211   4.909   0.650   4.896
 3104SOL    HW210212   4.840   0.798   4.904
 3105SOL     OW10213   6.429   4.444   1.502
 3105SOL    HW110214   6.374   4.408   1.427
 3105SOL    HW210215   6.524   4.455   1.471
 3106SOL     OW10216   6.525   0.979   3.366
 3106SOL    HW110217   6.594   1.052   3.374
 3106SOL    HW210218   6.532   0.937   3.276
 3107SOL     OW10219   4.522   1.173   4.779
 3107SOL    HW110220   4.525   1.254   4.720
 3107SOL    HW210221   4.484   1.199   4.868
 3108SOL     OW10222   0.988   6.193   4.380
 3108SOL    HW110223   1.005   6.097   4.402
 3108SOL    HW210224   0.910   6.199   4.317
 3109SOL     OW10225   5.723   6.107   2.795
 3109SOL    HW110226   5.655   6.105   2.722
 3109SOL    HW210227   5.681   6.078   2.881
 3110SOL     OW10228   1.344   2.430   2.459
 3110SOL    HW110229   1.253   2.467   2.438
 3110SOL    HW210230   1.412   2.476   2.402
 3111SOL     OW10231   6.539   5.450   3.882
 3111SOL    HW110232   6.518   5.446   3.785
 3111SOL    HW210233   6.467   5.498   3.931
 3112SOL     OW10234   5.203   2.584   6.903
 3112SOL    HW110235   5.133   2.545   6.843
 3112SOL    HW210236   5.201   2.684   6.897
 3113SOL     OW10237   2.877   5.668   3.528
 3113SOL    HW110238   2.893   5.692   3.624
 3113SOL    HW210239   2.891   5.569   3.516
 3114SOL     OW10240   4.165   1.441   1.042
 3114SOL    HW110241   4.115   1.510   1.094
 3114SOL    HW210242   4.222   1.486   0.973
 3115SOL     OW10243   3.698   3.512   6.491
 3115SOL    HW110244   3.770   3.459   6.446
 3115SOL    HW210245   3.615   3.510   6.435
 3116SOL     OW10246   0.898   3.004   6.871
 3116SOL    HW110247   0.822   2.962   6.822
 3116SOL    HW210248   0.952   3.060   6.809
 3117SOL     OW10249   4.482   3.568   5.365
 3117SOL    HW110250   4.490   3.485   5.419
 3117SOL    HW210251   4.562   3.577   5.305
 3118SOL     OW10252   0.865   5.640   1.872
 3118SOL    HW110253   0.860   5.594   1.783
 3118SOL    HW210254   0.940   5.600   1.925
 3119SOL     OW10255   1.907   3.425   6.067
 3119SOL    HW110256   1.976   3.388   6.005
 3119SOL    HW210257   1.847   3.487   6.016
 3120SOL     OW10258   3.082   6.750   4.548
 3120SOL    HW110259   2.998   6.707   4.513
 3120SOL    HW210260   3.074   6.763   4.646
 3121SOL     OW10261   0.388   1.017   3.648
 3121SOL    HW110262   0.356   1.044   3.557
 3121SOL    HW210263   0.320   0.956   3.690
 3122SOL     OW10264   4.036   6.307   5.961
 3122SOL    HW110265   4.101   6.282   5.889
 3122SOL    HW210266   4.062   6.395   6.001
 3123SOL     OW10267   3.266   1.671   3.696
 3123SOL    HW110268   3.321   1.652   3.614
 3123SOL    HW210269   3.326   1.673   3.776
 3124SOL     OW10270   3.960   0.032   4.651
 3124SOL    HW110271   3.935   0.129   4.650
 3124SOL    HW210272   3.887   7.003   4.695
 3125SOL     OW10273   6.682   2.181   4.973
 3125SOL    HW110274   6.666   2.107   5.038
 3125SOL    HW210275   6.732   2.146   4.894
 3126SOL     OW10276   4.849   4.776   5.735
 3126SOL    HW110277   4.906   4.696   5.717
 3126SOL    HW210278   4.901   4.843   5.788
 3127SOL     OW10279   1.516   3.225   4.726
 3127SOL    HW110280   1.513   3.302   4.791
 3127SOL    HW210281   1.594   3.167   4.747
 3128SOL     OW10282   2.574   0.449   5.824
 3128SOL    HW110283   2.515   0.370   5.840
 3128SOL    HW210284   2.643   0.454   5.896
 3129SOL     OW10285   6.251   3.641   6.148
 3129SOL    HW110286   6.272   3.688   6.062
 3129SOL    HW210287   6.333   3.593   6.180
 3130SOL     OW10288   1.650   4.077   1.462
 3130SOL    HW110289   1.591   4.058   1.383
 3130SOL    HW210290   1.596   4.121   1.534
 3131SOL     OW10291   0.322   2.150   1.207
 3131SOL    HW110292   0.257   2.094   1.258
 3131SOL    HW210293   0.361   2.219   1.267
 3132SOL     OW10294   4.044   5.237   5.919
 3132SOL    HW110295   4.100   5.195   5.990
 3132SOL    HW210296   3.973   5.173   5.890
 3133SOL     OW10297   3.616   1.936   4.417
 3133SOL    HW110298   3.715   1.943   4.426
 3133SOL    HW210299   3.573   1.975   4.498
 3134SOL     OW10300   4.813   4.162   1.697
 3134SOL    HW110301   4.753   4.236   1.665
 3134SOL    HW210302   4.775   4.124   1.782
 3135SOL     OW10303   4.662   0.583   5.544
 3135SOL    HW110304   4.645   0.522   5.467
 3135SOL    HW210305   4.585   0.646   5.554
 3136SOL     OW10306   5.212   0.874   0.878
 3136SOL    HW110307   5.226   0.891   0.975
 3136SOL    HW210308   5.267   0.938   0.825
 3137SOL     OW10309   6.650   0.687   3.396
 3137SOL    HW110310   6.721   0.693   3.325
 3137SOL    HW210311   6.579   0.754   3.378
 3138SOL     OW10312   6.136   4.504   4.014
 3138SOL    HW110313   6.054   4.446   4.017
 3138SOL    HW210314   6.179   4.496   3.924
 3139SOL     OW10315   5.119   6.563   0.565
 3139SOL    HW110316   5.169   6.615   0.634
 3139SOL    HW210317   5.126   6.465   0.586
 3140SOL     OW10318   6.517   0.452   0.260
 3140SOL    HW110319   6.513   0.431   0.162
 3140SOL    HW210320   6.424   0.471   0.293
 3141SOL     OW10321   6.936   6.099   6.254
 3141SOL    HW110322   6.933   6.194   6.285
 3141SOL    HW210323   0.006   6.076   6.227
 3142SOL     OW10324   3.759   6.722   2.077
 3142SOL    HW110325   3.774   6.686   1.985
 3142SOL    HW210326   3.662   6.722   2.098
 3143SOL     OW10327   6.481   1.678   6.593
 3143SOL    HW110328   6.479   1.655   6.495
 3143SOL    HW210329   6.391   1.712   6.620
 3144SOL     OW10330   4.515   3.981   1.681
 3144SOL    HW110331   4.498   4.047   1.754
 3144SOL    HW210332   4.429   3.960   1.634
 3145SOL     OW10333   2.072   5.912   1.226
 3145SOL    HW110334   2.109   6.000   1.254
 3145SOL    HW210335   2.132   5.838   1.258
 3146SOL     OW10336   1.281   0.308   3.570
 3146SOL    HW110337   1.239   0.361   3.496
 3146SOL    HW210338   1.237   0.331   3.657
 3147SOL     OW10339   3.672   4.942   0.716
 3147SOL    HW110340   3.614   4.998   0.657
 3147SOL    HW210341   3.629   4.931   0.805
 3148SOL     OW10342   5.432   5.934   4.680
 3148SOL    HW110343   5.346   5.973   4.711
 3148SOL    HW210344   5.492   5.917   4.758
 3149SOL     OW10345   2.320   0.950   5.856
 3149SOL    HW110346   2.408   0.948   5.809
 3149SOL    HW210347   2.333   0.979   5.951
 3150SOL     OW10348   6.120   5.955   4.226
 3150SOL    HW110349   6.030   5.995   4.244
 3150SOL    HW210350   6.116   5.856   4.242
 3151SOL     OW10351   5.617   1.607   5.116
 3151SOL    HW110352   5.602   1.675   5.188
 3151SOL    HW210353   5.531   1.560   5.097
 3152SOL     OW10354   1.302   5.526   0.492
 3152SOL    HW110355   1.322   5.580   0.574
 3152SOL    HW210356   1.383   5.523   0.434
 3153SOL     OW10357   5.804   5.130   1.875
 3153SOL    HW110358   5.712   5.144   1.911
 3153SOL    HW210359   5.818   5.032   1.858
 3154SOL     OW10360   6.082   1.015   6.319
 3154SOL    HW110361   6.153   1.000   6.388
 3154SOL    HW210362   6.006   0.953   6.336
 3155SOL     OW10363   6.341   4.286   1.086
 3155SOL    HW110364   6.418   4.319   1.033
 3155SOL    HW210365   6.366   4.201   1.133
 3156SOL     OW10366   3.225   2.967   3.323
 3156SOL    HW110367   3.248   3.011   3.409
 3156SOL    HW210368   3.171   2.885   3.341
 3157SOL     OW10369   2.436   2.073   4.515
 3157SOL    HW110370   2.409   2.130   4.437
 3157SOL    HW210371   2.517   2.020   4.490
 3158SOL     OW10372   4.469   0.854   2.884
 3158SOL    HW110373   4.434   0.780   2.941
 3158SOL    HW210374   4.543   0.901   2.931
 3159SOL     OW10375   5.474   1.480   6.425
 3159SOL    HW110376   5.561   1.451   6.384
 3159SOL    HW210377   5.449   1.570   6.390
 3160SOL     OW10378   0.396   6.347   5.478
 3160SOL    HW110379   0.459   6.386   5.545
 3160SOL    HW210380   0.377   6.252   5.500
 3161SOL     OW10381   1.777   1.573   3.034
 3161SOL    HW110382   1.754   1.550   3.129
 3161SOL    HW210383   1.765   1.671   3.020
 3162SOL     OW10384   1.258   6.439   1.943
 3162SOL    HW110385   1.243   6.345   1.973
 3162SOL    HW210386   1.305   6.489   2.016
 3163SOL     OW10387   4.353   2.803   6.350
 3163SOL    HW110388   4.364   2.719   6.297
 3163SOL    HW210389   4.262   2.842   6.333
 3164SOL     OW10390   4.539   4.525   1.265
 3164SOL    HW110391   4.595   4.523   1.182
 3164SOL    HW210392   4.452   4.570   1.245
 3165SOL     OW10393   0.635   6.768   1.047
 3165SOL    HW110394   0.720   6.777   1.099
 3165SOL    HW210395   0.578   6.848   1.064
 3166SOL     OW10396   4.338   1.905   4.794
 3166SOL    HW110397   4.372   1.821   4.835
 3166SOL    HW210398   4.364   1.984   4.850
 3167SOL     OW10399   6.653   3.737   1.255
 3167SOL    HW110400   6.682   3.800   1.183
 3167SOL    HW210401   6.554   3.746   1.269
 3168SOL     OW10402   4.391   2.382   6.808
 3168SOL    HW110403   4.303   2.380   6.856
 3168SOL    HW210404   4.463   2.346   6.868
 3169SOL     OW10405   1.347   3.649   4.867
 3169SOL    HW110406   1.374   3.653   4.963
 3169SOL    HW210407   1.428   3.647   4.809
 3170SOL     OW10408   3.915   0.709   1.339
 3170SOL    HW110409   3.965   0.635   1.294
 3170SOL    HW210410   3.969   0.742   1.417
 3171SOL     OW10411   0.430   0.291   1.101
 3171SOL    HW110412   0.417   0.211   1.160
 3171SOL    HW210413   0.365   0.289   1.026
 3172SOL     OW10414   0.215   4.789   0.059
 3172SOL    HW110415   0.225   4.708   0.001
 3172SOL    HW210416   0.219   4.872   0.003
 3173SOL     OW10417   2.579   2.294   0.327
 3173SOL    HW110418   2.553   2.258   0.237
 3173SOL    HW210419   2.577   2.220   0.395
 3174SOL     OW10420   2.959   2.602   6.277
 3174SOL    HW110421   3.037   2.548   6.308
 3174SOL    HW210422   2.981   2.645   6.189
 3175SOL     OW10423   6.899   0.870   0.398
 3175SOL    HW110424   6.812   0.822   0.410
 3175SOL    HW210425   6.892   0.935   0.323
 3176SOL     OW10426   1.156   4.761   4.720
 3176SOL    HW110427   1.157   4.854   4.754
 3176SOL    HW210428   1.080   4.711   4.761
 3177SOL     OW10429   4.834   4.022   4.186
 3177SOL    HW110430   4.839   3.929   4.223
 3177SOL    HW210431   4.805   4.085   4.258
 3178SOL     OW10432   5.890   1.708   0.359
 3178SOL    HW110433   5.860   1.736   0.450
 3178SOL    HW210434   5.965   1.643   0.367
 3179SOL     OW10435   1.719   3.260   2.354
 3179SOL    HW110436   1.750   3.280   2.261
 3179SOL    HW210437   1.646   3.191   2.351
 3180SOL     OW10438   4.457   1.435   0.007
 3180SOL    HW110439   4.389   1.508   0.011
 3180SOL    HW210440   4.540   1.465   0.054
 3181SOL     OW10441   0.302   1.458   2.498
 3181SOL    HW110442   0.309   1.458   2.598
 3181SOL    HW210443   0.280   1.366   2.466
 3182SOL     OW10444   2.741   1.410   4.752
 3182SOL    HW110445   2.648   1.427   4.786
 3182SOL    HW210446   2.753   1.456   4.664
 3183SOL     OW10447   4.218   4.133   1.714
 3183SOL    HW110448   4.176   4.049   1.746
 3183SOL    HW210449   4.295   4.157   1.773
 3184SOL     OW10450   1.203   2.810   2.513
 3184SOL    HW110451   1.138   2.755   2.566
 3184SOL    HW210452   1.250   2.752   2.447
 3185SOL     OW10453   6.324   5.802   0.236
 3185SOL    HW110454   6.382   5.871   0.193
 3185SOL    HW210455   6.279   5.747   0.166
 3186SOL     OW10456   4.021   1.772   2.079
 3186SOL    HW110457   3.965   1.794   1.999
 3186SOL    HW210458   4.108   1.733   2.050
 3187SOL     OW10459   4.298   4.026   0.598
 3187SOL    HW110460   4.299   3.933   0.560
 3187SOL    HW210461   4.219   4.036   0.658
 3188SOL     OW10462   3.259   6.538   4.336
 3188SOL    HW110463   3.174   6.538   4.389
 3188SOL    HW210464   3.287   6.444   4.319
 3189SOL     OW10465   1.638   1.515   2.019
 3189SOL    HW110466   1.712   1.448   2.017
 3189SOL    HW210467   1.672   1.604   1.990
 3190SOL     OW10468   0.005   6.603   0.546
 3190SOL    HW110469   0.008   6.554   0.458
 3190SOL    HW210470   0.039   6.696   0.533
 3191SOL     OW10471   4.654   6.909   1.066
 3191SOL    HW110472   4.690   6.831   1.016
 3191SOL    HW210473   4.606   6.877   1.148
 3192SOL     OW10474   6.962   2.611   0.745
 3192SOL    HW110475   6.924   2.685   0.689
 3192SOL    HW210476   6.887   2.558   0.786
 3193SOL     OW10477   4.070   1.735   6.499
 3193SOL    HW110478   4.071   1.667   6.426
 3193SOL    HW210479   4.162   1.773   6.510
 3194SOL     OW10480   0.764   3.315   5.732
 3194SOL    HW110481   0.744   3.408   5.766
 3194SOL    HW210482   0.782   3.255   5.810
 3195SOL     OW10483   2.498   2.485   3.260
 3195SOL    HW110484   2.579   2.427   3.257
 3195SOL    HW210485   2.471   2.499   3.355
 3196SOL     OW10486   0.766   0.466   5.370
 3196SOL    HW110487   0.809   0.548   5.407
 3196SOL    HW210488   0.829   0.421   5.307
 3197SOL     OW10489   1.855   6.307   3.641
 3197SOL    HW110490   1.802   6.389   3.620
 3197SOL    HW210491   1.792   6.231   3.660
 3198SOL     OW10492   6.226   2.116   5.517
 3198SOL    HW110493   6.168   2.072   5.447
 3198SOL    HW210494   6.288   2.180   5.472
 3199SOL     OW10495   4.706   2.750   1.901
 3199SOL    HW110496   4.759   2.715   1.979
 3199SOL    HW210497   4.693   2.849   1.911
 3200SOL     OW10498   6.962   2.638   1.810
 3200SOL    HW110499   0.031   2.650   1.776
 3200SOL    HW210500   6.947   2.697   1.889
 3201SOL     OW10501   5.027   4.084   4.500
 3201SOL    HW110502   5.106   4.145   4.500
 3201SOL    HW210503   5.019   4.039   4.588
 3202SOL     OW10504   0.966   4.540   1.535
 3202SOL    HW110505   0.887   4.531   1.595
 3202SOL    HW210506   0.948   4.495   1.447
 3203SOL     OW10507   6.299   2.759   6.344
 3203SOL    HW110508   6.377   2.781   6.404
 3203SOL    HW210509   6.214   2.786   6.390
 3204SOL     OW10510   5.028   6.380   1.617
 3204SOL    HW110511   4.951   6.443   1.624
 3204SOL    HW210512   5.100   6.409   1.680
 3205SOL     OW10513   0.028   3.277   0.165
 3205SOL    HW110514   7.014   3.364   0.136
 3205SOL    HW210515   6.978   3.216   0.195
 3206SOL     OW10516   0.311   6.684   5.895
 3206SOL    HW110517   0.230   6.646   5.939
 3206SOL    HW210518   0.292   6.778   5.866
 3207SOL     OW10519   1.173   0.698   5.235
 3207SOL    HW110520   1.185   0.731   5.329
 3207SOL    HW210521   1.252   0.641   5.209
 3208SOL     OW10522   4.633   6.672   5.614
 3208SOL    HW110523   4.695   6.734   5.661
 3208SOL    HW210524   4.672   6.646   5.526
 3209SOL     OW10525   3.925   5.447   3.304
 3209SOL    HW110526   3.965   5.360   3.331
 3209SOL    HW210527   3.849   5.432   3.242
 3210SOL     OW10528   0.610   3.923   1.315
 3210SOL    HW110529   0.641   3.838   1.358
 3210SOL    HW210530   0.519   3.946   1.349
 3211SOL     OW10531   1.728   3.321   1.237
 3211SOL    HW110532   1.792   3.252   1.272
 3211SOL    HW210533   1.655   3.335   1.304
 3212SOL     OW10534   2.785   1.075   0.450
 3212SOL    HW110535   2.844   1.032   0.382
 3212SOL    HW210536   2.768   1.011   0.525
 3213SOL     OW10537   6.888   6.165   2.212
 3213SOL    HW110538   6.880   6.192   2.116
 3213SOL    HW210539   6.871   6.066   2.221
 3214SOL     OW10540   4.811   5.695   0.681
 3214SOL    HW110541   4.787   5.661   0.590
 3214SOL    HW210542   4.911   5.701   0.688
 3215SOL     OW10543   0.646   3.271   0.882
 3215SOL    HW110544   0.564   3.244   0.933
 3215SOL    HW210545   0.725   3.271   0.943
 3216SOL     OW10546   5.778   5.715   1.566
 3216SOL    HW110547   5.856   5.656   1.545
 3216SOL    HW210548   5.709   5.704   1.494
 3217SOL     OW10549   0.449   5.451   2.777
 3217SOL    HW110550   0.519   5.522   2.769
 3217SOL    HW210551   0.383   5.477   2.848
 3218SOL     OW10552   4.005   6.832   4.254
 3218SOL    HW110553   3.963   6.812   4.165
 3218SOL    HW210554   4.096   6.791   4.259
 3219SOL     OW10555   0.222   2.190   3.295
 3219SOL    HW110556   0.205   2.178   3.197
 3219SOL    HW210557   0.171   2.120   3.346
 3220SOL     OW10558   6.765   6.450   5.812
 3220SOL    HW110559   6.850   6.427   5.765
 3220SOL    HW210560   6.779   6.530   5.869
 3221SOL     OW10561   3.288   6.964   1.687
 3221SOL    HW110562   3.243   0.028   1.667
 3221SOL    HW210563   3.226   6.889   1.663
 3222SOL     OW10564   4.151   1.518   2.817
 3222SOL    HW110565   4.224   1.532   2.750
 3222SOL    HW210566   4.188   1.530   2.909
 3223SOL     OW10567   2.242   5.302   6.823
 3223SOL    HW110568   2.225   5.379   6.762
 3223SOL    HW210569   2.306   5.329   6.894
 3224SOL     OW10570   4.591   3.287   6.563
 3224SOL    HW110571   4.550   3.307   6.652
 3224SOL    HW210572   4.525   3.239   6.506
 3225SOL     OW10573   4.476   3.419   5.808
 3225SOL    HW110574   4.417   3.432   5.888
 3225SOL    HW210575   4.561   3.468   5.821
 3226SOL     OW10576   1.398   2.017   4.550
 3226SOL    HW110577   1.338   2.095   4.566
 3226SOL    HW210578   1.385   1.949   4.622
 3227SOL     OW10579   2.999   2.016   6.087
 3227SOL    HW110580   2.920   2.021   6.026
 3227SOL    HW210581   3.028   2.109   6.112
 3228SOL     OW10582   5.652   4.119   2.876
 3228SOL    HW110583   5.646   4.217   2.861
 3228SOL    HW210584   5.572   4.074   2.836
 3229SOL     OW10585   3.177   1.961   5.343
 3229SOL    HW110586   3.106   1.898   5.373
 3229SOL    HW210587   3.172   1.972   5.244
 3230SOL     OW10588   1.212   3.496   4.162
 3230SOL    HW110589   1.211   3.397   4.170
 3230SOL    HW210590   1.306   3.528   4.150
 3231SOL     OW10591   2.729   0.444   1.819
 3231SOL    HW110592   2.632   0.419   1.814
 3231SOL    HW210593   2.778   0.402   1.743
 3232SOL     OW10594   4.033   5.120   4.693
 3232SOL    HW110595   4.059   5.078   4.780
 3232SOL    HW210596   3.973   5.198   4.711
 3233SOL     OW10597   0.812   2.779   1.718
 3233SOL    HW110598   0.841   2.781   1.813
 3233SOL    HW210599   0.841   2.864   1.672
 3234SOL     OW10600   0.086   1.395   0.388
 3234SOL    HW110601   0.049   1.385   0.480
 3234SOL    HW210602   0.184   1.413   0.393
 3235SOL     OW10603   4.944   0.831   1.361
 3235SOL    HW110604   4.899   0.901   1.305
 3235SOL    HW210605   5.028   0.800   1.316
 3236SOL     OW10606   1.630   3.074   0.593
 3236SOL    HW110607   1.578   3.156   0.615
 3236SOL    HW210608   1.677   3.088   0.505
 3237SOL     OW10609   5.472   1.472   3.663
 3237SOL    HW110610   5.416   1.401   3.619
 3237SOL    HW210611   5.566   1.465   3.630
 3238SOL     OW10612   0.309   5.235   0.845
 3238SOL    HW110613   0.409   5.230   0.837
 3238SOL    HW210614   0.269   5.241   0.754
 3239SOL     OW10615   6.461   1.681   0.580
 3239SOL    HW110616   6.390   1.652   0.644
 3239SOL    HW210617   6.544   1.706   0.632
 3240SOL     OW10618   1.372   6.045   5.680
 3240SOL    HW110619   1.359   6.142   5.660
 3240SOL    HW210620   1.464   6.029   5.716
 3241SOL     OW10621   4.543   1.368   4.598
 3241SOL    HW110622   4.641   1.355   4.580
 3241SOL    HW210623   4.526   1.464   4.622
 3242SOL     OW10624   3.078   4.683   1.108
 3242SOL    HW110625   2.993   4.717   1.149
 3242SOL    HW210626   3.069   4.680   1.009
 3243SOL     OW10627   5.389   4.385   0.562
 3243SOL    HW110628   5.423   4.312   0.503
 3243SOL    HW210629   5.297   4.411   0.534
 3244SOL     OW10630   4.964   6.033   0.676
 3244SOL    HW110631   5.002   6.007   0.587
 3244SOL    HW210632   5.016   5.989   0.749
 3245SOL     OW10633   4.971   2.298   4.962
 3245SOL    HW110634   5.033   2.365   5.004
 3245SOL    HW210635   4.967   2.217   5.019
 3246SOL     OW10636   5.987   0.794   2.679
 3246SOL    HW110637   5.927   0.869   2.707
 3246SOL    HW210638   5.947   0.745   2.603
 3247SOL     OW10639   6.226   4.538   3.462
 3247SOL    HW110640   6.215   4.448   3.420
 3247SOL    HW210641   6.318   4.547   3.500
 3248SOL     OW10642   6.554   3.451   1.486
 3248SOL    HW110643   6.490   3.408   1.550
 3248SOL    HW210644   6.638   3.476   1.535
 3249SOL     OW10645   3.512   3.884   4.543
 3249SOL    HW110646   3.524   3.831   4.459
 3249SOL    HW210647   3.424   3.861   4.584
 3250SOL     OW10648   5.187   0.082   2.240
 3250SOL    HW110649   5.267   0.102   2.297
 3250SOL    HW210650   5.118   0.034   2.295
 3251SOL     OW10651   3.716   0.818   1.887
 3251SOL    HW110652   3.711   0.918   1.899
 3251SOL    HW210653   3.753   0.798   1.796
 3252SOL     OW10654   2.413   2.110   2.171
 3252SOL    HW110655   2.418   2.097   2.270
 3252SOL    HW210656   2.479   2.181   2.144
 3253SOL     OW10657   6.040   3.469   2.303
 3253SOL    HW110658   5.993   3.462   2.391
 3253SOL    HW210659   6.139   3.466   2.317
 3254SOL     OW10660   4.912   5.842   5.609
 3254SOL    HW110661   4.896   5.809   5.702
 3254SOL    HW210662   4.974   5.921   5.611
 3255SOL     OW10663   5.158   6.488   1.828
 3255SOL    HW110664   5.137   6.568   1.885
 3255SOL    HW210665   5.256   6.485   1.811
 3256SOL     OW10666   4.410   0.517   0.309
 3256SOL    HW110667   4.456   0.538   0.395
 3256SOL    HW210668   4.444   0.577   0.237
 3257SOL     OW10669   1.461   2.230   1.522
 3257SOL    HW110670   1.551   2.186   1.526
 3257SOL    HW210671   1.454   2.297   1.596
 3258SOL     OW10672   3.869   4.840   1.952
 3258SOL    HW110673   3.780   4.812   1.987
 3258SOL    HW210674   3.911   4.763   1.904
 3259SOL     OW10675   4.492   5.694   3.652
 3259SOL    HW110676   4.524   5.611   3.697
 3259SOL    HW210677   4.563   5.764   3.656
 3260SOL     OW10678   1.539   1.802   1.291
 3260SOL    HW110679   1.589   1.826   1.208
 3260SOL    HW210680   1.455   1.856   1.296
 3261SOL     OW10681   4.864   6.544   0.684
 3261SOL    HW110682   4.832   6.460   0.640
 3261SOL    HW210683   4.957   6.565   0.654
 3262SOL     OW10684   3.611   1.939   3.007
 3262SOL    HW110685   3.546   1.992   2.952
 3262SOL    HW210686   3.671   1.886   2.947
 3263SOL     OW10687   3.530   1.443   3.997
 3263SOL    HW110688   3.579   1.465   4.082
 3263SOL    HW210689   3.583   1.376   3.945
 3264SOL     OW10690   1.461   4.278   1.160
 3264SOL    HW110691   1.422   4.253   1.071
 3264SOL    HW210692   1.561   4.272   1.156
 3265SOL     OW10693   4.628   1.567   5.711
 3265SOL    HW110694   4.626   1.518   5.799
 3265SOL    HW210695   4.719   1.604   5.696
 3266SOL     OW10696   0.650   2.579   0.388
 3266SOL    HW110697   0.712   2.532   0.325
 3266SOL    HW210698   0.700   2.647   0.441
 3267SOL     OW10699   4.138   1.082   0.137
 3267SOL    HW110700   4.145   1.122   0.046
 3267SOL    HW210701   4.171   1.147   0.205
 3268SOL     OW10702   1.666   4.588   0.264
 3268SOL    HW110703   1.646   4.574   0.361
 3268SOL    HW210704   1.705   4.679   0.251
 3269SOL     OW10705   4.621   4.762   2.011
 3269SOL    HW110706   4.574   4.681   2.046
 3269SOL    HW210707   4.676   4.803   2.085
 3270SOL     OW10708   1.414   4.541   5.297
 3270SOL    HW110709   1.325   4.580   5.322
 3270SOL    HW210710   1.446   4.584   5.213
 3271SOL     OW10711   5.471   3.767   2.801
 3271SOL    HW110712   5.500   3.720   2.884
 3271SOL    HW210713   5.461   3.864   2.819
 3272SOL     OW10714   3.442   4.102   6.706
 3272SOL    HW110715   3.528   4.154   6.710
 3272SOL    HW210716   3.367   4.160   6.737
 3273SOL     OW10717   0.572   6.459   2.077
 3273SOL    HW110718   0.473   6.473   2.084
 3273SOL    HW210719   0.615   6.475   2.165
 3274SOL     OW10720   4.049   1.192   1.071
 3274SOL    HW110721   4.023   1.162   1.163
 3274SOL    HW210722   4.088   1.284   1.076
 3275SOL     OW10723   0.690   0.617   6.183
 3275SOL    HW110724   0.642   0.565   6.253
 3275SOL    HW210725   0.781   0.578   6.168
 3276SOL     OW10726   3.757   5.851   0.531
 3276SOL    HW110727   3.750   5.914   0.607
 3276SOL    HW210728   3.844   5.867   0.483
 3277SOL     OW10729   5.269   0.186   6.804
 3277SOL    HW110730   5.307   0.099   6.836
 3277SOL    HW210731   5.326   0.222   6.730
 3278SOL     OW10732   0.215   0.806   5.701
 3278SOL    HW110733   0.261   0.717   5.698
 3278SOL    HW210734   0.136   0.805   5.640
 3279SOL     OW10735   6.932   0.837   0.905
 3279SOL    HW110736   6.890   0.810   0.993
 3279SOL    HW210737   6.975   0.927   0.915
 3280SOL     OW10738   3.748   4.859   5.487
 3280SOL    HW110739   3.747   4.794   5.563
 3280SOL    HW210740   3.673   4.924   5.499
 3281SOL     OW10741   2.017   5.218   0.811
 3281SOL    HW110742   1.925   5.204   0.773
 3281SOL    HW210743   2.014   5.292   0.878
 3282SOL     OW10744   1.580   5.623   4.920
 3282SOL    HW110745   1.568   5.587   4.827
 3282SOL    HW210746   1.606   5.549   4.982
 3283SOL     OW10747   3.279   1.245   1.002
 3283SOL    HW110748   3.260   1.160   1.051
 3283SOL    HW210749   3.350   1.229   0.934
 3284SOL     OW10750   6.133   6.241   6.791
 3284SOL    HW110751   6.069   6.199   6.855
 3284SOL    HW210752   6.188   6.309   6.840
 3285SOL     OW10753   5.544   2.666   3.246
 3285SOL    HW110754   5.483   2.730   3.199
 3285SOL    HW210755   5.494   2.582   3.268
 3286SOL     OW10756   3.875   3.529   2.512
 3286SOL    HW110757   3.816   3.471   2.456
 3286SOL    HW210758   3.945   3.472   2.555
 3287SOL     OW10759   2.040   6.125   6.862
 3287SOL    HW110760   2.019   6.060   6.934
 3287SOL    HW210761   2.009   6.089   6.774
 3288SOL     OW10762   0.873   5.741   6.842
 3288SOL    HW110763   0.940   5.784   6.902
 3288SOL    HW210764   0.833   5.811   6.782
 3289SOL     OW10765   2.364   6.626   5.113
 3289SOL    HW110766   2.374   6.543   5.058
 3289SOL    HW210767   2.271   6.631   5.149
 3290SOL     OW10768   0.574   0.035   1.708
 3290SOL    HW110769   0.511   0.091   1.654
 3290SOL    HW210770   0.662   0.030   1.662
 3291SOL     OW10771   1.327   6.217   0.082
 3291SOL    HW110772   1.338   6.306   0.038
 3291SOL    HW210773   1.276   6.229   0.167
 3292SOL     OW10774   0.462   0.723   0.026
 3292SOL    HW110775   0.542   0.721   6.990
 3292SOL    HW210776   0.470   0.652   0.096
 3293SOL     OW10777   6.472   3.554   3.282
 3293SOL    HW110778   6.502   3.576   3.189
 3293SOL    HW210779   6.402   3.482   3.278
 3294SOL     OW10780   0.755   1.164   5.910
 3294SOL    HW110781   0.801   1.221   5.842
 3294SOL    HW210782   0.790   1.186   6.001
 3295SOL     OW10783   1.803   3.180   2.057
 3295SOL    HW110784   1.896   3.215   2.071
 3295SOL    HW210785   1.790   3.155   1.961
 3296SOL     OW10786   1.921   6.408   1.886
 3296SOL    HW110787   1.849   6.359   1.836
 3296SOL    HW210788   1.886   6.436   1.976
 3297SOL     OW10789   2.959   0.028   4.627
 3297SOL    HW110790   2.974   6.976   4.563
 3297SOL    HW210791   2.990   0.114   4.585
 3298SOL     OW10792   5.978   2.248   4.146
 3298SOL    HW110793   6.063   2.301   4.156
 3298SOL    HW210794   5.923   2.288   4.073
 3299SOL     OW10795   1.650   6.390   4.356
 3299SOL    HW110796   1.591   6.394   4.275
 3299SOL    HW210797   1.660   6.481   4.395
 3300SOL     OW10798   0.537   0.706   5.967
 3300SOL    HW110799   0.602   0.665   6.031
 3300SOL    HW210800   0.483   0.775   6.015
 3301SOL     OW10801   2.036   3.503   3.203
 3301SOL    HW110802   2.042   3.579   3.268
 3301SOL    HW210803   2.092   3.525   3.123
 3302SOL     OW10804   1.673   5.624   5.788
 3302SOL    HW110805   1.584   5.650   5.824
 3302SOL    HW210806   1.672   5.631   5.688
 3303SOL     OW10807   3.724   2.799   1.377
 3303SOL    HW110808   3.775   2.726   1.333
 3303SOL    HW210809   3.712   2.875   1.312
 3304SOL     OW10810   1.668   5.309   4.405
 3304SOL    HW110811   1.637   5.296   4.499
 3304SOL    HW210812   1.590   5.331   4.347
 3305SOL     OW10813   1.944   1.265   3.303
 3305SOL    HW110814   1.997   1.311   3.374
 3305SOL    HW210815   1.914   1.175   3.337
 3306SOL     OW10816   2.006   5.327   3.767
 3306SOL    HW110817   2.099   5.323   3.732
 3306SOL    HW210818   2.001   5.391   3.844
 3307SOL     OW10819   6.851   5.865   6.324
 3307SOL    HW110820   6.864   5.801   6.248
 3307SOL    HW210821   6.879   5.957   6.295
 3308SOL     OW10822   4.719   6.066   6.777
 3308SOL    HW110823   4.733   6.164   6.792
 3308SOL    HW210824   4.762   6.014   6.851
 3309SOL     OW10825   0.750   4.972   2.432
 3309SOL    HW110826   0.714   5.045   2.374
 3309SOL    HW210827   0.689   4.959   2.511
 3310SOL     OW10828   6.441   4.413   5.183
 3310SOL    HW110829   6.497   4.457   5.253
 3310SOL    HW210830   6.395   4.483   5.128
 3311SOL     OW10831   2.314   3.967   1.773
 3311SOL    HW110832   2.301   4.065   1.761
 3311SOL    HW210833   2.351   3.927   1.690
 3312SOL     OW10834   3.580   4.526   5.779
 3312SOL    HW110835   3.611   4.560   5.868
 3312SOL    HW210836   3.480   4.536   5.773
 3313SOL     OW10837   0.041   5.678   2.494
 3313SOL    HW110838   0.131   5.678   2.451
 3313SOL    HW210839   7.022   5.768   2.482
 3314SOL     OW10840   1.804   1.804   4.182
 3314SOL    HW110841   1.710   1.802   4.147
 3314SOL    HW210842   1.818   1.888   4.233
 3315SOL     OW10843   6.195   3.489   4.420
 3315SOL    HW110844   6.121   3.535   4.371
 3315SOL    HW210845   6.169   3.394   4.438
 3316SOL     OW10846   4.070   1.548   6.296
 3316SOL    HW110847   4.097   1.465   6.344
 3316SOL    HW210848   4.134   1.566   6.221
 3317SOL     OW10849   4.613   3.259   1.679
 3317SOL    HW110850   4.596   3.177   1.734
 3317SOL    HW210851   4.526   3.304   1.659
 3318SOL     OW10852   3.037   0.194   0.750
 3318SOL    HW110853   3.006   0.112   0.701
 3318SOL    HW210854   3.023   0.182   0.848
 3319SOL     OW10855   6.028   6.878   4.590
 3319SOL    HW110856   6.003   6.789   4.628
 3319SOL    HW210857   6.125   6.877   4.564
 3320SOL     OW10858   5.618   0.928   5.327
 3320SOL    HW110859   5.678   0.878   5.390
 3320SOL    HW210860   5.666   1.008   5.291
 3321SOL     OW10861   3.745   2.262   1.603
 3321SOL    HW110862   3.736   2.272   1.702
 3321SOL    HW210863   3.766   2.350   1.562
 3322SOL     OW10864   5.465   3.171   1.532
 3322SOL    HW110865   5.468   3.261   1.488
 3322SOL    HW210866   5.464   3.100   1.461
 3323SOL     OW10867   2.566   3.963   6.288
 3323SOL    HW110868   2.656   3.988   6.324
 3323SOL    HW210869   2.552   3.865   6.298
 3324SOL     OW10870   1.356   3.734   6.120
 3324SOL    HW110871   1.371   3.755   6.217
 3324SOL    HW210872   1.419   3.786   6.064
 3325SOL     OW10873   2.368   2.572   6.342
 3325SOL    HW110874   2.457   2.563   6.387
 3325SOL    HW210875   2.312   2.637   6.394
 3326SOL     OW10876   6.236   1.487   2.075
 3326SOL    HW110877   6.167   1.559   2.078
 3326SOL    HW210878   6.235   1.436   2.161
 3327SOL     OW10879   3.310   6.300   1.624
 3327SOL    HW110880   3.277   6.314   1.531
 3327SOL    HW210881   3.239   6.328   1.689
 3328SOL     OW10882   4.196   1.777   2.395
 3328SOL    HW110883   4.146   1.818   2.319
 3328SOL    HW210884   4.294   1.795   2.384
 3329SOL     OW10885   5.494   0.552   4.087
 3329SOL    HW110886   5.452   0.637   4.120
 3329SOL    HW210887   5.583   0.572   4.045
 3330SOL     OW10888   6.214   6.158   1.365
 3330SOL    HW110889   6.304   6.201   1.362
 3330SOL    HW210890   6.170   6.166   1.276
 3331SOL     OW10891   0.555   3.462   2.296
 3331SOL    HW110892   0.519   3.492   2.208
 3331SOL    HW210893   0.583   3.542   2.349
 3332SOL     OW10894   6.272   4.389   0.681
 3332SOL    HW110895   6.343   4.450   0.715
 3332SOL    HW210896   6.239   4.422   0.592
 3333SOL     OW10897   2.647   3.820   6.782
 3333SOL    HW110898   2.649   3.870   6.868
 3333SOL    HW210899   2.657   3.722   6.800
 3334SOL     OW10900   2.200   3.939   2.395
 3334SOL    HW110901   2.192   3.893   2.306
 3334SOL    HW210902   2.246   4.027   2.383
 3335SOL     OW10903   4.442   0.096   6.055
 3335SOL    HW110904   4.512   0.026   6.042
 3335SOL    HW210905   4.405   0.091   6.147
 3336SOL     OW10906   1.691   6.284   4.607
 3336SOL    HW110907   1.683   6.304   4.510
 3336SOL    HW210908   1.726   6.191   4.620
 3337SOL     OW10909   2.770   4.312   1.271
 3337SOL    HW110910   2.785   4.368   1.353
 3337SOL    HW210911   2.682   4.265   1.279
 3338SOL     OW10912   6.973   2.657   1.430
 3338SOL    HW110913   7.020   2.570   1.446
 3338SOL    HW210914   7.012   2.702   1.350
 3339SOL     OW10915   1.473   6.587   6.594
 3339SOL    HW110916   1.453   6.558   6.687
 3339SOL    HW210917   1.569   6.568   6.574
 3340SOL     OW10918   3.417   1.110   3.758
 3340SOL    HW110919   3.479   1.037   3.785
 3340SOL    HW210920   3.462   1.168   3.690
 3341SOL     OW10921   1.952   4.452   3.823
 3341SOL    HW110922   1.931   4.372   3.880
 3341SOL    HW210923   2.037   4.494   3.854
 3342SOL     OW10924   0.920   0.006   3.693
 3342SOL    HW110925   0.938   0.041   3.785
 3342SOL    HW210926   0.973   6.946   3.677
 3343SOL     OW10927   5.684   4.411   6.679
 3343SOL    HW110928   5.606   4.408   6.742
 3343SOL    HW210929   5.729   4.500   6.686
 3344SOL     OW10930   5.831   4.010   4.086
 3344SOL    HW110931   5.804   4.079   4.153
 3344SOL    HW210932   5.913   3.962   4.118
 3345SOL     OW10933   1.529   4.435   6.691
 3345SOL    HW110934   1.439   4.444   6.732
 3345SOL    HW210935   1.562   4.341   6.700
 3346SOL     OW10936   1.127   1.024   0.179
 3346SOL    HW110937   1.041   0.989   0.142
 3346SOL    HW210938   1.199   1.012   0.111
 3347SOL     OW10939   1.047   2.801   6.023
 3347SOL    HW110940   1.089   2.770   6.108
 3347SOL    HW210941   1.113   2.854   5.970
 3348SOL     OW10942   4.073   3.523   4.667
 3348SOL    HW110943   4.000   3.455   4.663
 3348SOL    HW210944   4.114   3.524   4.758
 3349SOL     OW10945   1.903   5.197   3.241
 3349SOL    HW110946   1.940   5.183   3.149
 3349SOL    HW210947   1.843   5.277   3.241
 3350SOL     OW10948   0.140   2.882   5.849
 3350SOL    HW110949   0.118   2.976   5.825
 3350SOL    HW210950   0.206   2.882   5.924
 3351SOL     OW10951   4.698   1.159   2.016
 3351SOL    HW110952   4.623   1.206   1.970
 3351SOL    HW210953   4.779   1.218   2.015
 3352SOL     OW10954   6.582   2.764   0.905
 3352SOL    HW110955   6.606   2.834   0.838
 3352SOL    HW210956   6.604   2.796   0.997
 3353SOL     OW10957   3.304   5.820   1.507
 3353SOL    HW110958   3.271   5.813   1.413
 3353SOL    HW210959   3.249   5.887   1.556
 3354SOL     OW10960   4.136   2.367   5.491
 3354SOL    HW110961   4.142   2.294   5.558
 3354SOL    HW210962   4.083   2.443   5.529
 3355SOL     OW10963   1.716   1.688   6.062
 3355SOL    HW110964   1.683   1.685   6.156
 3355SOL    HW210965   1.816   1.693   6.062
 3356SOL     OW10966   1.072   5.574   5.942
 3356SOL    HW110967   1.039   5.625   5.862
 3356SOL    HW210968   1.014   5.494   5.956
 3357SOL     OW10969   2.716   3.424   1.825
 3357SOL    HW110970   2.668   3.379   1.899
 3357SOL    HW210971   2.669   3.407   1.738
 3358SOL     OW10972   4.380   1.574   2.674
 3358SOL    HW110973   4.396   1.543   2.581
 3358SOL    HW210974   4.423   1.663   2.689
 3359SOL     OW10975   0.284   6.087   3.077
 3359SOL    HW110976   0.345   6.093   3.155
 3359SOL    HW210977   0.331   6.119   2.995
 3360SOL     OW10978   1.191   1.543   6.372
 3360SOL    HW110979   1.233   1.603   6.304
 3360SOL    HW210980   1.231   1.451   6.365
 3361SOL     OW10981   6.914   5.529   4.796
 3361SOL    HW110982   6.991   5.465   4.783
 3361SOL    HW210983   6.866   5.541   4.710
 3362SOL     OW10984   3.704   1.748   2.825
 3362SOL    HW110985   3.656   1.681   2.881
 3362SOL    HW210986   3.747   1.703   2.747
 3363SOL     OW10987   6.948   2.100   1.819
 3363SOL    HW110988   6.983   2.174   1.876
 3363SOL    HW210989   6.896   2.139   1.743
 3364SOL     OW10990   2.300   4.790   3.787
 3364SOL    HW110991   2.272   4.879   3.751
 3364SOL    HW210992   2.291   4.720   3.716
 3365SOL     OW10993   6.626   2.886   4.784
 3365SOL    HW110994   6.655   2.982   4.789
 3365SOL    HW210995   6.704   2.827   4.805
 3366SOL     OW10996   5.399   4.728   4.222
 3366SOL    HW110997   5.322   4.787   4.247
 3366SOL    HW210998   5.485   4.773   4.245
 3367SOL     OW10999   4.026   3.808   2.691
 3367SOL    HW111000   4.076   3.772   2.771
 3367SOL    HW211001   4.074   3.782   2.608
 3368SOL     OW11002   0.623   5.729   6.683
 3368SOL    HW111003   0.609   5.679   6.598
 3368SOL    HW211004   0.693   5.800   6.668
 3369SOL     OW11005   3.698   2.320   0.600
 3369SOL    HW111006   3.664   2.368   0.519
 3369SOL    HW211007   3.631   2.254   0.632
 3370SOL     OW11008   6.659   6.739   1.347
 3370SOL    HW111009   6.663   6.661   1.283
 3370SOL    HW211010   6.570   6.783   1.340
 3371SOL     OW11011   2.520   3.027   1.529
 3371SOL    HW111012   2.606   3.024   1.580
 3371SOL    HW211013   2.521   2.957   1.457
 3372SOL     OW11014   6.689   1.969   0.028
 3372SOL    HW111015   6.635   1.891   7.021
 3372SOL    HW211016   6.785   1.942   0.035
 3373SOL     OW11017   0.279   2.348   4.328
 3373SOL    HW111018   0.289   2.249   4.321
 3373SOL    HW211019   0.275   2.389   4.237
 3374SOL     OW11020   1.036   6.776   3.717
 3374SOL    HW111021   0.943   6.741   3.706
 3374SOL    HW211022   1.054   6.794   3.814
 3375SOL     OW11023   6.887   4.797   0.482
 3375SOL    HW111024   6.819   4.864   0.511
 3375SOL    HW211025   6.899   4.803   0.383
 3376SOL     OW11026   3.273   2.941   4.954
 3376SOL    HW111027   3.306   2.902   5.040
 3376SOL    HW211028   3.174   2.954   4.960
 3377SOL     OW11029   0.030   5.159   5.909
 3377SOL    HW111030   0.007   5.125   6.000
 3377SOL    HW211031   0.067   5.084   5.854
 3378SOL     OW11032   1.481   6.772   0.318
 3378SOL    HW111033   1.500   6.703   0.248
 3378SOL    HW211034   1.485   6.863   0.277
 3379SOL     OW11035   0.737   2.084   5.312
 3379SOL    HW111036   0.654   2.081   5.255
 3379SOL    HW211037   0.799   2.154   5.277
 3380SOL     OW11038   4.505   6.643   5.237
 3380SOL    HW111039   4.547   6.601   5.317
 3380SOL    HW211040   4.434   6.582   5.201
 3381SOL     OW11041   6.635   2.843   1.150
 3381SOL    HW111042   6.686   2.924   1.181
 3381SOL    HW211043   6.653   2.767   1.213
 3382SOL     OW11044   0.480   2.784   6.343
 3382SOL    HW111045   0.514   2.723   6.414
 3382SOL    HW211046   0.380   2.779   6.338
 3383SOL     OW11047   3.686   5.340   1.072
 3383SOL    HW111048   3.666   5.378   0.982
 3383SOL    HW211049   3.779   5.365   1.098
 3384SOL     OW11050   1.985   3.074   0.695
 3384SOL    HW111051   1.994   3.153   0.634
 3384SOL    HW211052   1.893   3.072   0.733
 3385SOL     OW11053   6.904   3.866   4.667
 3385SOL    HW111054   6.957   3.950   4.653
 3385SOL    HW211055   6.836   3.858   4.594
 3386SOL     OW11056   5.443   4.193   0.368
 3386SOL    HW111057   5.373   4.191   0.297
 3386SOL    HW211058   5.522   4.244   0.336
 3387SOL     OW11059   4.657   0.060   3.526
 3387SOL    HW111060   4.599   0.077   3.605
 3387SOL    HW211061   4.606   0.007   3.457
 3388SOL     OW11062   6.121   3.134   2.308
 3388SOL    HW111063   6.094   3.117   2.403
 3388SOL    HW211064   6.072   3.213   2.273
 3389SOL     OW11065   6.383   5.561   5.927
 3389SOL    HW111066   6.384   5.591   5.832
 3389SOL    HW211067   6.421   5.632   5.985
 3390SOL     OW11068   5.007   0.238   6.038
 3390SOL    HW111069   5.032   0.335   6.041
 3390SOL    HW211070   4.967   0.217   5.949
 3391SOL     OW11071   4.506   2.555   3.611
 3391SOL    HW111072   4.546   2.587   3.526
 3391SOL    HW211073   4.412   2.526   3.596
 3392SOL     OW11074   3.315   6.273   4.244
 3392SOL    HW111075   3.384   6.243   4.178
 3392SOL    HW211076   3.287   6.196   4.300
 3393SOL     OW11077   6.467   6.272   0.540
 3393SOL    HW111078   6.409   6.193   0.561
 3393SOL    HW211079   6.562   6.241   0.529
 3394SOL     OW11080   5.328   3.549   1.115
 3394SOL    HW111081   5.259   3.619   1.135
 3394SOL    HW211082   5.419   3.587   1.131
 3395SOL     OW11083   5.275   2.440   3.017
 3395SOL    HW111084   5.182   2.469   2.994
 3395SOL    HW211085   5.271   2.352   3.065
 3396SOL     OW11086   5.748   1.362   3.625
 3396SOL    HW111087   5.699   1.319   3.549
 3396SOL    HW211088   5.806   1.295   3.670
 3397SOL     OW11089   3.292   5.043   6.352
 3397SOL    HW111090   3.305   4.964   6.293
 3397SOL    HW211091   3.263   5.122   6.297
 3398SOL     OW11092   1.216   0.421   4.463
 3398SOL    HW111093   1.262   0.509   4.472
 3398SOL    HW211094   1.230   0.385   4.371
 3399SOL     OW11095   5.654   5.372   3.257
 3399SOL    HW111096   5.577   5.384   3.195
 3399SOL    HW211097   5.740   5.382   3.206
 3400SOL     OW11098   5.552   3.713   6.815
 3400SOL    HW111099   5.552   3.738   6.912
 3400SOL    HW211100   5.462   3.734   6.775
 3401SOL     OW11101   6.283   3.646   6.594
 3401SOL    HW111102   6.332   3.633   6.680
 3401SOL    HW211103   6.334   3.709   6.536
 3402SOL     OW11104   5.708   5.863   6.415
 3402SOL    HW111105   5.611   5.884   6.405
 3402SOL    HW211106   5.728   5.774   6.373
 3403SOL     OW11107   4.852   5.578   0.047
 3403SOL    HW111108   4.943   5.541   0.066
 3403SOL    HW211109   4.784   5.505   0.054
 3404SOL     OW11110   4.901   2.177   0.864
 3404SOL    HW111111   4.805   2.197   0.882
 3404SOL    HW211112   4.958   2.229   0.927
 3405SOL     OW11113   5.917   3.912   6.552
 3405SOL    HW111114   5.984   3.975   6.513
 3405SOL    HW211115   5.962   3.851   6.617
 3406SOL     OW11116   0.925   3.399   2.456
 3406SOL    HW111117   0.841   3.395   2.401
 3406SOL    HW211118   1.000   3.432   2.400
 3407SOL     OW11119   1.571   4.509   0.003
 3407SOL    HW111120   1.600   4.560   0.084
 3407SOL    HW211121   1.503   4.563   6.976
 3408SOL     OW11122   5.126   2.661   4.336
 3408SOL    HW111123   5.045   2.603   4.331
 3408SOL    HW211124   5.111   2.745   4.284
 3409SOL     OW11125   4.264   6.087   0.297
 3409SOL    HW111126   4.243   6.144   0.218
 3409SOL    HW211127   4.344   6.031   0.278
 3410SOL     OW11128   6.756   6.480   1.786
 3410SOL    HW111129   6.757   6.558   1.724
 3410SOL    HW211130   6.787   6.398   1.737
 3411SOL     OW11131   0.415   2.611   0.543
 3411SOL    HW111132   0.494   2.559   0.511
 3411SOL    HW211133   0.443   2.705   0.565
 3412SOL     OW11134   4.906   3.523   1.508
 3412SOL    HW111135   4.823   3.556   1.554
 3412SOL    HW211136   4.917   3.426   1.525
 3413SOL     OW11137   6.290   1.636   1.010
 3413SOL    HW111138   6.219   1.651   1.079
 3413SOL    HW211139   6.371   1.597   1.054
 3414SOL     OW11140   3.450   2.152   5.726
 3414SOL    HW111141   3.380   2.161   5.797
 3414SOL    HW211142   3.536   2.123   5.767
 3415SOL     OW11143   1.854   2.546   4.091
 3415SOL    HW111144   1.802   2.604   4.154
 3415SOL    HW211145   1.904   2.477   4.144
 3416SOL     OW11146   5.053   0.029   0.601
 3416SOL    HW111147   5.080   7.018   0.691
 3416SOL    HW211148   5.133   0.065   0.554
 3417SOL     OW11149   0.304   6.323   4.313
 3417SOL    HW111150   0.324   6.385   4.238
 3417SOL    HW211151   0.350   6.235   4.298
 3418SOL     OW11152   4.149   5.650   3.450
 3418SOL    HW111153   4.075   5.625   3.387
 3418SOL    HW211154   4.237   5.626   3.410
 3419SOL     OW11155   3.338   5.271   6.130
 3419SOL    HW111156   3.270   5.206   6.095
 3419SOL    HW211157   3.421   5.265   6.074
 3420SOL     OW11158   5.923   3.648   3.382
 3420SOL    HW111159   5.939   3.733   3.331
 3420SOL    HW211160   5.987   3.578   3.351
 3421SOL     OW11161   4.884   1.493   3.569
 3421SOL    HW111162   4.957   1.508   3.635
 3421SOL    HW211163   4.902   1.545   3.486
 3422SOL     OW11164   2.686   0.167   6.941
 3422SOL    HW111165   2.717   0.110   7.017
 3422SOL    HW211166   2.682   0.263   6.969
 3423SOL     OW11167   0.158   4.694   6.284
 3423SOL    HW111168   0.185   4.608   6.242
 3423SOL    HW211169   0.218   4.767   6.253
 3424SOL     OW11170   2.509   6.466   1.050
 3424SOL    HW111171   2.590   6.470   0.992
 3424SOL    HW211172   2.499   6.552   1.100
 3425SOL     OW11173   4.886   4.731   2.554
 3425SOL    HW111174   4.790   4.738   2.528
 3425SOL    HW211175   4.943   4.766   2.479
 3426SOL     OW11176   4.859   2.745   1.377
 3426SOL    HW111177   4.764   2.770   1.358
 3426SOL    HW211178   4.864   2.703   1.468
 3427SOL     OW11179   0.803   1.859   0.960
 3427SOL    HW111180   0.751   1.780   0.991
 3427SOL    HW211181   0.879   1.875   1.022
 3428SOL     OW11182   3.538   4.492   0.186
 3428SOL    HW111183   3.578   4.478   0.096
 3428SOL    HW211184   3.574   4.424   0.250
 3429SOL     OW11185   0.754   2.184   1.088
 3429SOL    HW111186   0.747   2.247   1.010
 3429SOL    HW211187   0.689   2.109   1.076
 3430SOL     OW11188   2.316   5.412   5.482
 3430SOL    HW111189   2.406   5.377   5.507
 3430SOL    HW211190   2.270   5.447   5.564
 3431SOL     OW11191   1.686   6.076   2.009
 3431SOL    HW111192   1.699   6.161   1.958
 3431SOL    HW211193   1.665   6.097   2.104
 3432SOL     OW11194   2.471   4.552   5.743
 3432SOL    HW111195   2.405   4.627   5.744
 3432SOL    HW211196   2.440   4.481   5.680
 3433SOL     OW11197   1.044   0.381   4.951
 3433SOL    HW111198   1.091   0.375   4.863
 3433SOL    HW211199   1.015   0.476   4.965
 3434SOL     OW11200   3.654   1.784   2.344
 3434SOL    HW111201   3.649   1.852   2.270
 3434SOL    HW211202   3.568   1.732   2.347
 3435SOL     OW11203   2.222   1.609   1.430
 3435SOL    HW111204   2.214   1.707   1.443
 3435SOL    HW211205   2.319   1.583   1.430
 3436SOL     OW11206   4.018   5.927   0.165
 3436SOL    HW111207   4.026   5.885   0.255
 3436SOL    HW211208   4.095   5.988   0.149
 3437SOL     OW11209   2.926   6.339   5.840
 3437SOL    HW111210   2.864   6.263   5.858
 3437SOL    HW211211   2.885   6.398   5.770
 3438SOL     OW11212   0.443   3.298   1.424
 3438SOL    HW111213   0.524   3.356   1.420
 3438SOL    HW211214   0.365   3.350   1.461
 3439SOL     OW11215   3.185   5.818   4.290
 3439SOL    HW111216   3.243   5.742   4.320
 3439SOL    HW211217   3.221   5.904   4.328
 3440SOL     OW11218   3.507   2.898   2.394
 3440SOL    HW111219   3.539   2.888   2.300
 3440SOL    HW211220   3.409   2.878   2.398
 3441SOL     OW11221   6.568   6.195   6.206
 3441SOL    HW111222   6.643   6.259   6.188
 3441SOL    HW211223   6.538   6.154   6.120
 3442SOL     OW11224   2.295   3.904   1.288
 3442SOL    HW111225   2.331   3.946   1.206
 3442SOL    HW211226   2.267   3.810   1.268
 3443SOL     OW11227   3.797   6.036   2.088
 3443SOL    HW111228   3.788   6.056   1.990
 3443SOL    HW211229   3.790   6.121   2.140
 3444SOL     OW11230   4.706   5.341   0.062
 3444SOL    HW111231   4.608   5.319   0.067
 3444SOL    HW211232   4.742   5.311   6.998
 3445SOL     OW11233   5.741   5.185   2.690
 3445SOL    HW111234   5.705   5.163   2.781
 3445SOL    HW211235   5.743   5.102   2.635
 3446SOL     OW11236   5.937   0.216   1.164
 3446SOL    HW111237   5.900   0.309   1.161
 3446SOL    HW211238   6.032   0.217   1.135
 3447SOL     OW11239   5.112   6.290   0.655
 3447SOL    HW111240   5.190   6.246   0.610
 3447SOL    HW211241   5.028   6.269   0.605
 3448SOL     OW11242   3.518   6.701   6.232
 3448SOL    HW111243   3.434   6.700   6.286
 3448SOL    HW211244   3.552   6.794   6.223
 3449SOL     OW11245   5.496   5.114   4.625
 3449SOL    HW111246   5.489   5.017   4.650
 3449SOL    HW211247   5.520   5.122   4.529
 3450SOL     OW11248   0.925   1.940   6.255
 3450SOL    HW111249   0.991   1.917   6.183
 3450SOL    HW211250   0.963   1.916   6.344
 3451SOL     OW11251   2.692   6.119   6.714
 3451SOL    HW111252   2.738   6.059   6.649
 3451SOL    HW211253   2.640   6.063   6.779
 3452SOL     OW11254   5.727   0.640   6.636
 3452SOL    HW111255   5.717   0.592   6.723
 3452SOL    HW211256   5.762   0.732   6.653
 3453SOL     OW11257   5.753   5.589   6.269
 3453SOL    HW111258   5.827   5.575   6.203
 3453SOL    HW211259   5.730   5.503   6.313
 3454SOL     OW11260   1.059   3.729   5.381
 3454SOL    HW111261   1.071   3.630   5.386
 3454SOL    HW211262   0.962   3.752   5.371
 3455SOL     OW11263   2.425   1.530   4.049
 3455SOL    HW111264   2.337   1.569   4.022
 3455SOL    HW211265   2.498   1.597   4.033
 3456SOL     OW11266   5.604   4.765   1.989
 3456SOL    HW111267   5.647   4.841   2.038
 3456SOL    HW211268   5.562   4.799   1.905
 3457SOL     OW11269   4.703   5.728   4.040
 3457SOL    HW111270   4.645   5.675   4.102
 3457SOL    HW211271   4.682   5.825   4.051
 3458SOL     OW11272   4.552   1.391   2.270
 3458SOL    HW111273   4.474   1.428   2.319
 3458SOL    HW211274   4.617   1.351   2.335
 3459SOL     OW11275   5.121   2.182   2.852
 3459SOL    HW111276   5.055   2.142   2.916
 3459SOL    HW211277   5.073   2.240   2.787
 3460SOL     OW11278   3.316   1.868   6.808
 3460SOL    HW111279   3.344   1.842   6.716
 3460SOL    HW211280   3.336   1.965   6.823
 3461SOL     OW11281   4.646   3.580   0.146
 3461SOL    HW111282   4.660   3.651   0.214
 3461SOL    HW211283   4.681   3.612   0.057
 3462SOL     OW11284   0.833   3.997   5.311
 3462SOL    HW111285   0.818   3.899   5.324
 3462SOL    HW211286   0.779   4.030   5.234
 3463SOL     OW11287   0.480   4.287   1.142
 3463SOL    HW111288   0.550   4.277   1.212
 3463SOL    HW211289   0.515   4.341   1.066
 3464SOL     OW11290   6.896   4.660   6.645
 3464SOL    HW111291   6.897   4.591   6.718
 3464SOL    HW211292   6.924   4.748   6.683
 3465SOL     OW11293   1.573   2.546   1.896
 3465SOL    HW111294   1.534   2.630   1.934
 3465SOL    HW211295   1.556   2.544   1.797
 3466SOL     OW11296   6.745   5.136   5.903
 3466SOL    HW111297   6.842   5.155   5.919
 3466SOL    HW211298   6.698   5.220   5.876
 3467SOL     OW11299   1.757   2.795   6.117
 3467SOL    HW111300   1.782   2.891   6.105
 3467SOL    HW211301   1.792   2.761   6.204
 3468SOL     OW11302   4.240   6.336   2.563
 3468SOL    HW111303   4.319   6.347   2.503
 3468SOL    HW211304   4.211   6.240   2.562
 3469SOL     OW11305   6.110   0.903   3.092
 3469SOL    HW111306   6.010   0.894   3.094
 3469SOL    HW211307   6.147   0.880   3.181
 3470SOL     OW11308   0.138   4.439   0.714
 3470SOL    HW111309   0.181   4.410   0.628
 3470SOL    HW211310   0.048   4.396   0.722
 3471SOL     OW11311   4.251   5.508   4.701
 3471SOL    HW111312   4.287   5.417   4.725
 3471SOL    HW211313   4.180   5.499   4.632
 3472SOL     OW11314   2.130   0.637   2.887
 3472SOL    HW111315   2.064   0.651   2.961
 3472SOL    HW211316   2.082   0.604   2.806
 3473SOL     OW11317   6.620   1.581   6.789
 3473SOL    HW111318   6.595   1.485   6.799
 3473SOL    HW211319   6.571   1.621   6.712
 3474SOL     OW11320   3.035   5.236   2.035
 3474SOL    HW111321   3.076   5.315   2.080
 3474SOL    HW211322   2.957   5.266   1.980
 3475SOL     OW11323   1.058   6.241   4.908
 3475SOL    HW111324   1.068   6.186   4.992
 3475SOL    HW211325   1.141   6.231   4.853
 3476SOL     OW11326   3.617   1.559   2.996
 3476SOL    HW111327   3.614   1.469   3.041
 3476SOL    HW211328   3.703   1.605   3.021
 3477SOL     OW11329   3.261   5.358   1.263
 3477SOL    HW111330   3.193   5.319   1.325
 3477SOL    HW211331   3.333   5.289   1.246
 3478SOL     OW11332   2.352   5.815   5.257
 3478SOL    HW111333   2.334   5.894   5.316
 3478SOL    HW211334   2.428   5.763   5.295
 3479SOL     OW11335   0.571   0.998   2.953
 3479SOL    HW111336   0.668   1.023   2.945
 3479SOL    HW211337   0.543   1.003   3.049
 3480SOL     OW11338   6.680   0.292   4.837
 3480SOL    HW111339   6.663   0.368   4.899
 3480SOL    HW211340   6.767   0.306   4.790
 3481SOL     OW11341   3.944   0.119   0.105
 3481SOL    HW111342   4.030   0.136   0.152
 3481SOL    HW211343   3.909   0.205   0.066
 3482SOL     OW11344   5.688   1.739   1.009
 3482SOL    HW111345   5.695   1.796   0.927
 3482SOL    HW211346   5.596   1.698   1.013
 3483SOL     OW11347   3.643   1.295   1.636
 3483SOL    HW111348   3.661   1.364   1.706
 3483SOL    HW211349   3.568   1.325   1.577
 3484SOL     OW11350   2.786   3.662   1.698
 3484SOL    HW111351   2.884   3.681   1.691
 3484SOL    HW211352   2.772   3.568   1.730
 3485SOL     OW11353   1.521   0.047   4.361
 3485SOL    HW111354   1.513   7.015   4.279
 3485SOL    HW211355   1.536   0.143   4.336
 3486SOL     OW11356   3.037   1.839   2.756
 3486SOL    HW111357   3.116   1.876   2.804
 3486SOL    HW211358   3.069   1.780   2.681
 3487SOL     OW11359   5.933   2.027   5.954
 3487SOL    HW111360   5.857   1.998   6.012
 3487SOL    HW211361   5.997   2.083   6.007
 3488SOL     OW11362   5.535   2.544   4.392
 3488SOL    HW111363   5.545   2.541   4.292
 3488SOL    HW211364   5.626   2.554   4.434
 3489SOL     OW11365   2.728   6.625   0.649
 3489SOL    HW111366   2.646   6.669   0.614
 3489SOL    HW211367   2.769   6.568   0.578
 3490SOL     OW11368   4.741   4.349   6.497
 3490SOL    HW111369   4.827   4.307   6.468
 3490SOL    HW211370   4.742   4.359   6.597
 3491SOL     OW11371   5.402   3.061   4.407
 3491SOL    HW111372   5.319   3.050   4.352
 3491SOL    HW211373   5.457   3.135   4.369
 3492SOL     OW11374   0.873   6.139   1.163
 3492SOL    HW111375   0.867   6.226   1.115
 3492SOL    HW211376   0.781   6.108   1.189
 3493SOL     OW11377   6.396   5.434   6.609
 3493SOL    HW111378   6.436   5.468   6.524
 3493SOL    HW211379   6.393   5.507   6.676
 3494SOL     OW11380   3.832   0.452   1.582
 3494SOL    HW111381   3.863   0.543   1.554
 3494SOL    HW211382   3.820   0.394   1.501
 3495SOL     OW11383   4.516   5.040   2.494
 3495SOL    HW111384   4.560   5.030   2.404
 3495SOL    HW211385   4.539   4.961   2.551
 3496SOL     OW11386   0.411   3.020   1.528
 3496SOL    HW111387   0.426   3.108   1.484
 3496SOL    HW211388   0.313   3.003   1.537
 3497SOL     OW11389   4.170   0.172   3.001
 3497SOL    HW111390   4.242   0.105   3.019
 3497SOL    HW211391   4.113   0.139   2.926
 3498SOL     OW11392   2.336   2.274   6.885
 3498SOL    HW111393   2.280   2.196   6.857
 3498SOL    HW211394   2.362   2.327   6.804
 3499SOL     OW11395   5.303   2.668   4.527
 3499SOL    HW111396   5.225   2.670   4.463
 3499SOL    HW211397   5.382   2.628   4.482
 3500SOL     OW11398   0.751   4.311   5.336
 3500SOL    HW111399   0.657   4.290   5.308
 3500SOL    HW211400   0.815   4.259   5.280
 3501SOL     OW11401   0.784   5.354   3.871
 3501SOL    HW111402   0.804   5.332   3.776
 3501SOL    HW211403   0.817   5.280   3.931
 3502SOL     OW11404   6.857   2.666   2.293
 3502SOL    HW111405   6.930   2.599   2.288
 3502SOL    HW211406   6.787   2.635   2.358
 3503SOL     OW11407   5.788   6.396   5.135
 3503SOL    HW111408   5.757   6.301   5.142
 3503SOL    HW211409   5.755   6.448   5.214
 3504SOL     OW11410   2.366   2.477   1.125
 3504SOL    HW111411   2.409   2.405   1.071
 3504SOL    HW211412   2.392   2.567   1.090
 3505SOL     OW11413   5.441   4.933   4.892
 3505SOL    HW111414   5.499   4.869   4.943
 3505SOL    HW211415   5.345   4.913   4.912
 3506SOL     OW11416   4.344   5.705   5.590
 3506SOL    HW111417   4.305   5.665   5.507
 3506SOL    HW211418   4.441   5.685   5.594
 3507SOL     OW11419   2.451   0.198   6.760
 3507SOL    HW111420   2.528   0.155   6.807
 3507SOL    HW211421   2.392   0.243   6.828
 3508SOL     OW11422   3.999   2.695   6.258
 3508SOL    HW111423   3.901   2.691   6.240
 3508SOL    HW211424   4.048   2.705   6.171
 3509SOL     OW11425   4.992   6.812   6.423
 3509SOL    HW111426   5.037   6.723   6.423
 3509SOL    HW211427   4.898   6.802   6.391
 3510SOL     OW11428   1.934   2.717   1.769
 3510SOL    HW111429   1.936   2.652   1.692
 3510SOL    HW211430   1.899   2.671   1.850
 3511SOL     OW11431   1.772   4.787   6.857
 3511SOL    HW111432   1.850   4.741   6.899
 3511SOL    HW211433   1.717   4.832   6.928
 3512SOL     OW11434   0.037   4.087   0.796
 3512SOL    HW111435   0.119   4.101   0.741
 3512SOL    HW211436   0.060   4.091   0.893
 3513SOL     OW11437   5.329   4.292   0.883
 3513SOL    HW111438   5.307   4.195   0.869
 3513SOL    HW211439   5.323   4.340   0.795
 3514SOL     OW11440   0.514   0.878   1.939
 3514SOL    HW111441   0.499   0.977   1.933
 3514SOL    HW211442   0.582   0.851   1.872
 3515SOL     OW11443   3.809   6.896   2.799
 3515SOL    HW111444   3.862   6.846   2.867
 3515SOL    HW211445   3.741   6.835   2.758
 3516SOL     OW11446   4.412   1.027   0.716
 3516SOL    HW111447   4.362   1.068   0.793
 3516SOL    HW211448   4.408   0.928   0.723
 3517SOL     OW11449   0.561   2.280   6.925
 3517SOL    HW111450   0.653   2.296   6.887
 3517SOL    HW211451   0.538   2.183   6.915
 3518SOL     OW11452   5.150   4.211   5.356
 3518SOL    HW111453   5.236   4.170   5.385
 3518SOL    HW211454   5.166   4.269   5.276
 3519SOL     OW11455   2.063   0.432   6.482
 3519SOL    HW111456   2.066   0.470   6.574
 3519SOL    HW211457   2.085   0.334   6.485
 3520SOL     OW11458   2.895   4.878   0.753
 3520SOL    HW111459   2.871   4.940   0.827
 3520SOL    HW211460   2.812   4.834   0.718
 3521SOL     OW11461   5.423   3.200   1.788
 3521SOL    HW111462   5.451   3.173   1.696
 3521SOL    HW211463   5.334   3.160   1.809
 3522SOL     OW11464   4.076   5.596   2.613
 3522SOL    HW111465   4.046   5.560   2.701
 3522SOL    HW211466   4.083   5.521   2.547
 3523SOL     OW11467   2.874   4.348   5.538
 3523SOL    HW111468   2.935   4.334   5.460
 3523SOL    HW211469   2.846   4.444   5.541
 3524SOL     OW11470   2.521   1.095   1.286
 3524SOL    HW111471   2.619   1.108   1.272
 3524SOL    HW211472   2.506   1.013   1.341
 3525SOL     OW11473   0.691   3.675   2.443
 3525SOL    HW111474   0.751   3.755   2.437
 3525SOL    HW211475   0.678   3.650   2.539
 3526SOL     OW11476   1.394   6.446   3.504
 3526SOL    HW111477   1.356   6.423   3.594
 3526SOL    HW211478   1.396   6.545   3.492
 3527SOL     OW11479   6.031   3.202   5.701
 3527SOL    HW111480   5.997   3.158   5.784
 3527SOL    HW211481   6.126   3.175   5.686
 3528SOL     OW11482   1.094   5.444   3.653
 3528SOL    HW111483   1.078   5.346   3.641
 3528SOL    HW211484   1.054   5.494   3.576
 3529SOL     OW11485   3.779   6.697   5.093
 3529SOL    HW111486   3.870   6.715   5.055
 3529SOL    HW211487   3.784   6.698   5.193
 3530SOL     OW11488   2.410   5.066   3.053
 3530SOL    HW111489   2.366   4.986   3.013
 3530SOL    HW211490   2.352   5.103   3.125
 3531SOL     OW11491   4.889   4.619   1.611
 3531SOL    HW111492   4.959   4.673   1.656
 3531SOL    HW211493   4.813   4.602   1.674
 3532SOL     OW11494   3.335   0.202   0.597
 3532SOL    HW111495   3.293   0.292   0.589
 3532SOL    HW211496   3.294   0.139   0.531
 3533SOL     OW11497   1.278   2.446   3.227
 3533SOL    HW111498   1.289   2.363   3.172
 3533SOL    HW211499   1.204   2.502   3.189
 3534SOL     OW11500   5.912   1.149   5.194
 3534SOL    HW111501   5.819   1.133   5.162
 3534SOL    HW211502   5.949   1.063   5.231
 3535SOL     OW11503   6.487   5.683   0.463
 3535SOL    HW111504   6.565   5.741   0.485
 3535SOL    HW211505   6.430   5.728   0.394
 3536SOL     OW11506   2.172   3.015   3.693
 3536SOL    HW111507   2.201   3.058   3.607
 3536SOL    HW211508   2.076   3.039   3.711
 3537SOL     OW11509   2.705   4.873   0.373
 3537SOL    HW111510   2.740   4.780   0.379
 3537SOL    HW211511   2.669   4.901   0.462
 3538SOL     OW11512   2.236   0.843   4.157
 3538SOL    HW111513   2.140   0.821   4.144
 3538SOL    HW211514   2.247   0.943   4.159
 3539SOL     OW11515   5.779   3.663   6.342
 3539SOL    HW111516   5.876   3.645   6.355
 3539SOL    HW211517   5.758   3.756   6.372
 3540SOL     OW11518   2.283   1.420   5.714
 3540SOL    HW111519   2.382   1.417   5.701
 3540SOL    HW211520   2.243   1.489   5.653
 3541SOL     OW11521   2.909   2.647   6.699
 3541SOL    HW111522   2.871   2.556   6.714
 3541SOL    HW211523   2.864   2.690   6.621
 3542SOL     OW11524   6.754   3.015   0.655
 3542SOL    HW111525   6.753   2.936   0.594
 3542SOL    HW211526   6.818   2.999   0.730
 3543SOL     OW11527   1.800   3.370   4.394
 3543SOL    HW111528   1.768   3.307   4.323
 3543SOL    HW211529   1.898   3.356   4.409
 3544SOL     OW11530   1.997   4.601   6.369
 3544SOL    HW111531   2.009   4.662   6.448
 3544SOL    HW211532   1.933   4.643   6.305
 3545SOL     OW11533   4.002   4.355   0.088
 3545SOL    HW111534   3.961   4.446   0.085
 3545SOL    HW211535   4.087   4.355   0.035
 3546SOL     OW11536   6.971   5.136   2.863
 3546SOL    HW111537   7.023   5.183   2.792
 3546SOL    HW211538   6.938   5.202   2.929
 3547SOL     OW11539   6.842   4.140   5.295
 3547SOL    HW111540   6.909   4.123   5.368
 3547SOL    HW211541   6.872   4.219   5.241
 3548SOL     OW11542   6.041   0.463   5.239
 3548SOL    HW111543   5.997   0.433   5.155
 3548SOL    HW211544   5.986   0.435   5.318
 3549SOL     OW11545   2.015   4.543   5.838
 3549SOL    HW111546   2.050   4.534   5.745
 3549SOL    HW211547   2.021   4.454   5.884
 3550SOL     OW11548   5.783   2.271   4.370
 3550SOL    HW111549   5.850   2.278   4.297
 3550SOL    HW211550   5.795   2.184   4.419
 3551SOL     OW11551   3.463   1.533   4.748
 3551SOL    HW111552   3.533   1.492   4.807
 3551SOL    HW211553   3.476   1.501   4.654
 3552SOL     OW11554   6.222   6.003   2.235
 3552SOL    HW111555   6.179   6.091   2.213
 3552SOL    HW211556   6.196   5.935   2.167
 3553SOL     OW11557   3.624   5.291   6.495
 3553SOL    HW111558   3.544   5.324   6.445
 3553SOL    HW211559   3.612   5.310   6.592
 3554SOL     OW11560   4.884   2.553   0.922
 3554SOL    HW111561   4.862   2.598   0.836
 3554SOL    HW211562   4.973   2.508   0.914
 3555SOL     OW11563   1.229   2.690   4.120
 3555SOL    HW111564   1.169   2.618   4.154
 3555SOL    HW211565   1.239   2.680   4.021
 3556SOL     OW11566   3.637   1.054   4.025
 3556SOL    HW111567   3.632   0.993   4.105
 3556SOL    HW211568   3.597   1.007   3.946
 3557SOL     OW11569   1.180   6.413   3.672
 3557SOL    HW111570   1.172   6.476   3.749
 3557SOL    HW211571   1.115   6.337   3.685
 3558SOL     OW11572   2.542   4.610   1.505
 3558SOL    HW111573   2.451   4.569   1.499
 3558SOL    HW211574   2.583   4.588   1.593
 3559SOL     OW11575   1.597   5.891   4.833
 3559SOL    HW111576   1.504   5.916   4.807
 3559SOL    HW211577   1.599   5.795   4.861
 3560SOL     OW11578   1.797   4.762   3.136
 3560SOL    HW111579   1.810   4.845   3.191
 3560SOL    HW211580   1.765   4.688   3.195
 3561SOL     OW11581   5.216   3.941   5.724
 3561SOL    HW111582   5.197   3.870   5.657
 3561SOL    HW211583   5.294   3.914   5.781
 3562SOL     OW11584   3.478   1.680   3.860
 3562SOL    HW111585   3.557   1.727   3.822
 3562SOL    HW211586   3.508   1.598   3.909
 3563SOL     OW11587   5.718   1.960   6.130
 3563SOL    HW111588   5.665   2.006   6.201
 3563SOL    HW211589   5.760   1.877   6.168
 3564SOL     OW11590   0.761   5.006   3.362
 3564SOL    HW111591   0.691   4.938   3.380
 3564SOL    HW211592   0.827   4.970   3.297
 3565SOL     OW11593   3.567   5.612   3.184
 3565SOL    HW111594   3.612   5.523   3.187
 3565SOL    HW211595   3.490   5.612   3.248
 3566SOL     OW11596   6.317   1.249   5.819
 3566SOL    HW111597   6.294   1.156   5.792
 3566SOL    HW211598   6.407   1.251   5.861
 3567SOL     OW11599   0.761   2.392   6.306
 3567SOL    HW111600   0.668   2.413   6.335
 3567SOL    HW211601   0.801   2.473   6.263
 3568SOL     OW11602   5.878   3.897   5.207
 3568SOL    HW111603   5.909   3.841   5.284
 3568SOL    HW211604   5.862   3.839   5.128
 3569SOL     OW11605   3.218   1.938   5.961
 3569SOL    HW111606   3.187   1.855   5.914
 3569SOL    HW211607   3.139   1.994   5.986
 3570SOL     OW11608   4.758   0.440   6.442
 3570SOL    HW111609   4.669   0.401   6.466
 3570SOL    HW211610   4.753   0.540   6.449
 3571SOL     OW11611   0.327   5.025   0.274
 3571SOL    HW111612   0.393   4.955   0.249
 3571SOL    HW211613   0.347   5.109   0.224
 3572SOL     OW11614   5.546   4.206   3.191
 3572SOL    HW111615   5.642   4.233   3.181
 3572SOL    HW211616   5.492   4.247   3.118
 3573SOL     OW11617   0.632   4.674   3.819
 3573SOL    HW111618   0.581   4.609   3.763
 3573SOL    HW211619   0.723   4.687   3.780
 3574SOL     OW11620   0.201   4.727   0.458
 3574SOL    HW111621   0.243   4.814   0.433
 3574SOL    HW211622   0.206   4.664   0.380
 3575SOL     OW11623   5.708   4.405   2.735
 3575SOL    HW111624   5.645   4.406   2.658
 3575SOL    HW211625   5.709   4.495   2.779
 3576SOL     OW11626   2.275   1.848   5.206
 3576SOL    HW111627   2.297   1.781   5.277
 3576SOL    HW211628   2.221   1.922   5.245
 3577SOL     OW11629   1.066   3.084   6.305
 3577SOL    HW111630   1.032   3.035   6.225
 3577SOL    HW211631   1.140   3.146   6.278
 3578SOL     OW11632   3.294   2.414   0.583
 3578SOL    HW111633   3.297   2.359   0.667
 3578SOL    HW211634   3.199   2.431   0.558
 3579SOL     OW11635   6.410   4.302   4.537
 3579SOL    HW111636   6.500   4.346   4.532
 3579SOL    HW211637   6.406   4.226   4.473
 3580SOL     OW11638   5.917   2.321   1.071
 3580SOL    HW111639   5.883   2.228   1.056
 3580SOL    HW211640   5.892   2.378   0.993
 3581SOL     OW11641   6.968   6.594   3.908
 3581SOL    HW111642   0.011   6.559   3.842
 3581SOL    HW211643   7.003   6.583   4.001
 3582SOL     OW11644   1.150   2.144   6.028
 3582SOL    HW111645   1.066   2.178   5.986
 3582SOL    HW211646   1.208   2.101   5.959
 3583SOL     OW11647   1.507   3.638   6.447
 3583SOL    HW111648   1.541   3.590   6.366
 3583SOL    HW211649   1.453   3.575   6.502
 3584SOL     OW11650   5.781   5.529   0.292
 3584SOL    HW111651   5.789   5.605   0.357
 3584SOL    HW211652   5.802   5.561   0.200
 3585SOL     OW11653   4.242   5.868   5.195
 3585SOL    HW111654   4.250   5.792   5.259
 3585SOL    HW211655   4.326   5.874   5.140
 3586SOL     OW11656   0.108   2.148   5.529
 3586SOL    HW111657   0.138   2.222   5.468
 3586SOL    HW211658   0.060   2.188   5.607
 3587SOL     OW11659   3.004   4.729   6.361
 3587SOL    HW111660   3.080   4.771   6.310
 3587SOL    HW211661   2.919   4.775   6.336
 3588SOL     OW11662   1.479   2.810   4.482
 3588SOL    HW111663   1.426   2.832   4.563
 3588SOL    HW211664   1.568   2.772   4.509
 3589SOL     OW11665   4.154   2.062   4.684
 3589SOL    HW111666   4.217   2.004   4.737
 3589SOL    HW211667   4.197   2.150   4.667
 3590SOL     OW11668   0.703   3.128   6.209
 3590SOL    HW111669   0.711   3.029   6.216
 3590SOL    HW211670   0.736   3.159   6.120
 3591SOL     OW11671   5.072   3.485   6.542
 3591SOL    HW111672   4.976   3.497   6.569
 3591SOL    HW211673   5.076   3.426   6.462
 3592SOL     OW11674   6.465   4.328   2.453
 3592SOL    HW111675   6.479   4.229   2.445
 3592SOL    HW211676   6.437   4.350   2.547
 3593SOL     OW11677   1.710   5.777   4.285
 3593SOL    HW111678   1.657   5.861   4.268
 3593SOL    HW211679   1.800   5.786   4.243
 3594SOL     OW11680   4.375   0.599   3.325
 3594SOL    HW111681   4.344   0.690   3.352
 3594SOL    HW211682   4.318   0.530   3.368
 3595SOL     OW11683   2.730   5.231   6.440
 3595SOL    HW111684   2.663   5.262   6.506
 3595SOL    HW211685   2.687   5.166   6.377
 3596SOL     OW11686   6.366   2.437   3.301
 3596SOL    HW111687   6.463   2.433   3.276
 3596SOL    HW211688   6.344   2.362   3.363
 3597SOL     OW11689   1.964   0.391   5.326
 3597SOL    HW111690   1.888   0.457   5.322
 3597SOL    HW211691   1.930   0.304   5.362
 3598SOL     OW11692   1.314   6.043   6.659
 3598SOL    HW111693   1.251   6.007   6.727
 3598SOL    HW211694   1.404   6.003   6.671
 3599SOL     OW11695   0.881   2.303   5.915
 3599SOL    HW111696   0.898   2.401   5.909
 3599SOL    HW211697   0.814   2.285   5.987
 3600SOL     OW11698   1.423   3.619   0.422
 3600SOL    HW111699   1.371   3.683   0.478
 3600SOL    HW211700   1.370   3.596   0.340
 3601SOL     OW11701   6.038   4.808   0.286
 3601SOL    HW111702   5.974   4.883   0.307
 3601SOL    HW211703   6.032   4.784   0.190
 3602SOL     OW11704   1.197   2.090   0.586
 3602SOL    HW111705   1.215   2.188   0.581
 3602SOL    HW211706   1.265   2.046   0.645
 3603SOL     OW11707   3.066   6.360   3.660
 3603SOL    HW111708   3.124   6.442   3.668
 3603SOL    HW211709   3.046   6.344   3.563
 3604SOL     OW11710   0.028   4.781   3.726
 3604SOL    HW111711   0.069   4.735   3.805
 3604SOL    HW211712   0.073   4.869   3.711
 3605SOL     OW11713   5.353   3.971   5.192
 3605SOL    HW111714   5.336   4.047   5.129
 3605SOL    HW211715   5.350   4.004   5.286
 3606SOL     OW11716   0.063   6.213   5.326
 3606SOL    HW111717   0.054   6.233   5.229
 3606SOL    HW211718   0.073   6.299   5.377
 3607SOL     OW11719   5.127   6.297   0.939
 3607SOL    HW111720   5.090   6.285   0.847
 3607SOL    HW211721   5.144   6.207   0.980
 3608SOL     OW11722   6.464   2.273   2.986
 3608SOL    HW111723   6.503   2.329   3.059
 3608SOL    HW211724   6.537   2.218   2.944
 3609SOL     OW11725   0.697   0.497   3.974
 3609SOL    HW111726   0.725   0.431   3.905
 3609SOL    HW211727   0.598   0.490   3.988
 3610SOL     OW11728   1.516   6.795   5.527
 3610SOL    HW111729   1.431   6.761   5.568
 3610SOL    HW211730   1.501   6.887   5.492
 3611SOL     OW11731   4.666   6.606   6.035
 3611SOL    HW111732   4.669   6.572   5.941
 3611SOL    HW211733   4.642   6.532   6.097
 3612SOL     OW11734   5.784   0.242   5.813
 3612SOL    HW111735   5.840   0.186   5.752
 3612SOL    HW211736   5.834   0.257   5.899
 3613SOL     OW11737   4.435   5.615   1.945
 3613SOL    HW111738   4.493   5.573   2.015
 3613SOL    HW211739   4.401   5.703   1.980
 3614SOL     OW11740   3.629   3.677   2.496
 3614SOL    HW111741   3.720   3.640   2.482
 3614SOL    HW211742   3.635   3.774   2.520
 3615SOL     OW11743   5.895   6.157   0.125
 3615SOL    HW111744   5.847   6.104   0.195
 3615SOL    HW211745   5.861   6.130   0.035
 3616SOL     OW11746   0.268   3.057   5.572
 3616SOL    HW111747   0.177   3.068   5.614
 3616SOL    HW211748   0.260   3.001   5.490
 3617SOL     OW11749   4.288   1.016   6.503
 3617SOL    HW111750   4.334   1.050   6.585
 3617SOL    HW211751   4.215   1.080   6.478
 3618SOL     OW11752   2.139   2.332   5.086
 3618SOL    HW111753   2.064   2.266   5.086
 3618SOL    HW211754   2.155   2.363   4.992
 3619SOL     OW11755   5.643   3.208   3.868
 3619SOL    HW111756   5.683   3.256   3.946
 3619SOL    HW211757   5.684   3.244   3.783
 3620SOL     OW11758   6.465   6.171   5.941
 3620SOL    HW111759   6.367   6.189   5.937
 3620SOL    HW211760   6.508   6.202   5.856
 3621SOL     OW11761   4.085   2.850   5.800
 3621SOL    HW111762   3.994   2.887   5.783
 3621SOL    HW211763   4.149   2.926   5.815
 3622SOL     OW11764   1.954   2.022   4.600
 3622SOL    HW111765   1.858   2.005   4.625
 3622SOL    HW211766   1.998   1.935   4.575
 3623SOL     OW11767   6.206   5.448   4.447
 3623SOL    HW111768   6.202   5.350   4.429
 3623SOL    HW211769   6.300   5.480   4.440
 3624SOL     OW11770   2.438   5.966   2.386
 3624SOL    HW111771   2.438   5.868   2.369
 3624SOL    HW211772   2.411   6.015   2.303
 3625SOL     OW11773   5.532   3.738   0.057
 3625SOL    HW111774   5.597   3.803   0.095
 3625SOL    HW211775   5.566   3.645   0.073
 3626SOL     OW11776   1.406   3.012   6.289
 3626SOL    HW111777   1.474   2.982   6.355
 3626SOL    HW211778   1.440   3.092   6.239
 3627SOL     OW11779   3.662   2.897   3.425
 3627SOL    HW111780   3.710   2.868   3.341
 3627SOL    HW211781   3.730   2.925   3.493
 3628SOL     OW11782   1.457   0.624   1.769
 3628SOL    HW111783   1.501   0.682   1.839
 3628SOL    HW211784   1.528   0.580   1.714
 3629SOL     OW11785   6.708   2.096   4.369
 3629SOL    HW111786   6.659   2.170   4.414
 3629SOL    HW211787   6.645   2.040   4.316
 3630SOL     OW11788   5.064   2.792   3.345
 3630SOL    HW111789   4.988   2.838   3.391
 3630SOL    HW211790   5.032   2.706   3.306
 3631SOL     OW11791   1.746   6.970   3.551
 3631SOL    HW111792   1.662   6.916   3.539
 3631SOL    HW211793   1.723   0.044   3.552
 3632SOL     OW11794   5.164   6.506   1.358
 3632SOL    HW111795   5.134   6.411   1.361
 3632SOL    HW211796   5.189   6.536   1.450
 3633SOL     OW11797   3.632   1.615   5.553
 3633SOL    HW111798   3.704   1.676   5.519
 3633SOL    HW211799   3.557   1.670   5.589
 3634SOL     OW11800   0.614   5.018   4.404
 3634SOL    HW111801   0.665   4.986   4.324
 3634SOL    HW211802   0.531   5.065   4.374
 3635SOL     OW11803   2.626   6.786   6.138
 3635SOL    HW111804   2.537   6.832   6.138
 3635SOL    HW211805   2.697   6.852   6.165
 3636SOL     OW11806   0.681   5.573   6.924
 3636SOL    HW111807   0.600   5.626   6.949
 3636SOL    HW211808   0.747   5.632   6.878
 3637SOL     OW11809   6.511   1.817   1.216
 3637SOL    HW111810   6.425   1.860   1.241
 3637SOL    HW211811   6.516   1.725   1.256
 3638SOL     OW11812   0.539   4.562   4.734
 3638SOL    HW111813   0.540   4.482   4.794
 3638SOL    HW211814   0.447   4.601   4.732
 3639SOL     OW11815   3.348   4.236   1.619
 3639SOL    HW111816   3.262   4.223   1.570
 3639SOL    HW211817   3.369   4.154   1.672
 3640SOL     OW11818   3.509   0.765   0.561
 3640SOL    HW111819   3.534   0.784   0.655
 3640SOL    HW211820   3.428   0.818   0.536
 3641SOL     OW11821   5.031   2.952   3.776
 3641SOL    HW111822   5.042   2.861   3.816
 3641SOL    HW211823   5.005   3.017   3.847
 3642SOL     OW11824   4.746   0.820   0.708
 3642SOL    HW111825   4.686   0.845   0.631
 3642SOL    HW211826   4.806   0.897   0.730
 3643SOL     OW11827   2.825   5.591   5.205
 3643SOL    HW111828   2.745   5.606   5.146
 3643SOL    HW211829   2.908   5.601   5.152
 3644SOL     OW11830   6.957   1.614   1.909
 3644SOL    HW111831   6.904   1.584   1.988
 3644SOL    HW211832   6.910   1.585   1.825
 3645SOL     OW11833   0.003   3.352   3.399
 3645SOL    HW111834   0.096   3.319   3.389
 3645SOL    HW211835   7.015   3.437   3.347
 3646SOL     OW11836   6.696   4.457   6.597
 3646SOL    HW111837   6.766   4.529   6.587
 3646SOL    HW211838   6.605   4.499   6.593
 3647SOL     OW11839   2.434   3.259   6.633
 3647SOL    HW111840   2.530   3.287   6.631
 3647SOL    HW211841   2.423   3.183   6.697
 3648SOL     OW11842   3.449   4.890   2.504
 3648SOL    HW111843   3.430   4.795   2.477
 3648SOL    HW211844   3.467   4.944   2.423
 3649SOL     OW11845   4.827   3.052   1.696
 3649SOL    HW111846   4.793   3.035   1.789
 3649SOL    HW211847   4.776   3.128   1.655
 3650SOL     OW11848   0.387   5.546   1.054
 3650SOL    HW111849   0.438   5.598   1.122
 3650SOL    HW211850   0.358   5.459   1.094
 3651SOL     OW11851   0.201   6.724   3.821
 3651SOL    HW111852   0.285   6.722   3.767
 3651SOL    HW211853   0.138   6.791   3.782
 3652SOL     OW11854   5.502   6.731   3.233
 3652SOL    HW111855   5.497   6.642   3.188
 3652SOL    HW211856   5.410   6.759   3.263
 3653SOL     OW11857   0.672   1.650   4.794
 3653SOL    HW111858   0.587   1.671   4.745
 3653SOL    HW211859   0.672   1.553   4.820
 3654SOL     OW11860   2.246   4.901   0.640
 3654SOL    HW111861   2.306   4.848   0.699
 3654SOL    HW211862   2.272   4.886   0.544
 3655SOL     OW11863   1.595   6.519   3.210
 3655SOL    HW111864   1.539   6.601   3.195
 3655SOL    HW211865   1.685   6.532   3.168
 3656SOL     OW11866   0.980   3.719   2.327
 3656SOL    HW111867   0.897   3.698   2.274
 3656SOL    HW211868   1.034   3.788   2.279
 3657SOL     OW11869   5.158   4.960   6.278
 3657SOL    HW111870   5.127   5.055   6.281
 3657SOL    HW211871   5.141   4.922   6.187
 3658SOL     OW11872   1.975   5.548   5.476
 3658SOL    HW111873   1.905   5.483   5.506
 3658SOL    HW211874   1.990   5.537   5.377
 3659SOL     OW11875   1.604   3.398   4.919
 3659SOL    HW111876   1.684   3.339   4.934
 3659SOL    HW211877   1.632   3.482   4.874
 3660SOL     OW11878   5.268   0.691   3.499
 3660SOL    HW111879   5.341   0.658   3.440
 3660SOL    HW211880   5.183   0.643   3.477
 3661SOL     OW11881   5.582   1.768   5.367
 3661SOL    HW111882   5.609   1.746   5.461
 3661SOL    HW211883   5.560   1.865   5.360
 3662SOL     OW11884   4.294   0.062   4.236
 3662SOL    HW111885   4.235   0.104   4.166
 3662SOL    HW211886   4.246   0.065   4.325
 3663SOL     OW11887   1.846   2.481   0.737
 3663SOL    HW111888   1.764   2.535   0.721
 3663SOL    HW211889   1.882   2.447   0.650
 3664SOL     OW11890   5.888   2.036   2.105
 3664SOL    HW111891   5.897   1.938   2.125
 3664SOL    HW211892   5.820   2.049   2.033
 3665SOL     OW11893   2.464   6.146   5.411
 3665SOL    HW111894   2.447   6.229   5.463
 3665SOL    HW211895   2.387   6.083   5.422
 3666SOL     OW11896   1.098   4.309   3.676
 3666SOL    HW111897   1.000   4.314   3.697
 3666SOL    HW211898   1.112   4.326   3.579
 3667SOL     OW11899   0.668   1.339   2.342
 3667SOL    HW111900   0.749   1.310   2.392
 3667SOL    HW211901   0.586   1.300   2.385
 3668SOL     OW11902   1.424   0.862   2.288
 3668SOL    HW111903   1.347   0.891   2.231
 3668SOL    HW211904   1.509   0.890   2.245
 3669SOL     OW11905   5.006   1.197   3.521
 3669SOL    HW111906   5.047   1.148   3.443
 3669SOL    HW211907   4.911   1.221   3.499
 3670SOL     OW11908   2.758   5.130   0.496
 3670SOL    HW111909   2.792   5.148   0.588
 3670SOL    HW211910   2.809   5.054   0.456
 3671SOL     OW11911   6.072   0.879   3.891
 3671SOL    HW111912   6.019   0.851   3.971
 3671SOL    HW211913   6.125   0.961   3.913
 3672SOL     OW11914   5.542   1.837   1.638
 3672SOL    HW111915   5.531   1.762   1.574
 3672SOL    HW211916   5.582   1.916   1.591
 3673SOL     OW11917   4.260   6.515   6.794
 3673SOL    HW111918   4.325   6.444   6.766
 3673SOL    HW211919   4.246   6.509   6.893
 3674SOL     OW11920   1.131   0.037   5.200
 3674SOL    HW111921   1.153   0.105   5.131
 3674SOL    HW211922   1.061   6.998   5.165
 3675SOL     OW11923   2.051   3.291   4.554
 3675SOL    HW111924   2.112   3.320   4.481
 3675SOL    HW211925   2.063   3.351   4.633
 3676SOL     OW11926   5.332   4.306   3.868
 3676SOL    HW111927   5.344   4.390   3.922
 3676SOL    HW211928   5.356   4.324   3.773
 3677SOL     OW11929   1.799   5.960   3.111
 3677SOL    HW111930   1.729   5.894   3.141
 3677SOL    HW211931   1.831   6.014   3.188
 3678SOL     OW11932   0.498   2.313   5.389
 3678SOL    HW111933   0.527   2.324   5.484
 3678SOL    HW211934   0.505   2.216   5.363
 3679SOL     OW11935   1.385   0.576   3.223
 3679SOL    HW111936   1.379   0.576   3.124
 3679SOL    HW211937   1.474   0.612   3.252
 3680SOL     OW11938   5.616   2.526   3.560
 3680SOL    HW111939   5.602   2.473   3.643
 3680SOL    HW211940   5.566   2.484   3.484
 3681SOL     OW11941   0.731   0.010   6.036
 3681SOL    HW111942   0.649   0.063   6.056
 3681SOL    HW211943   0.811   0.057   6.073
 3682SOL     OW11944   6.072   2.056   0.063
 3682SOL    HW111945   6.146   2.025   0.004
 3682SOL    HW211946   5.988   2.066   0.009
 3683SOL     OW11947   0.212   0.457   2.760
 3683SOL    HW111948   0.187   0.507   2.842
 3683SOL    HW211949   0.259   0.372   2.785
 3684SOL     OW11950   1.939   4.441   6.966
 3684SOL    HW111951   1.984   4.381   6.899
 3684SOL    HW211952   1.886   4.385   0.006
 3685SOL     OW11953   6.746   6.384   6.168
 3685SOL    HW111954   6.809   6.365   6.244
 3685SOL    HW211955   6.765   6.475   6.132
 3686SOL     OW11956   5.662   5.839   3.715
 3686SOL    HW111957   5.566   5.847   3.688
 3686SOL    HW211958   5.688   5.918   3.771
 3687SOL     OW11959   3.596   5.743   5.136
 3687SOL    HW111960   3.656   5.747   5.216
 3687SOL    HW211961   3.524   5.675   5.152
 3688SOL     OW11962   6.438   3.482   6.311
 3688SOL    HW111963   6.362   3.467   6.374
 3688SOL    HW211964   6.524   3.462   6.357
 3689SOL     OW11965   2.423   0.251   6.024
 3689SOL    HW111966   2.342   0.309   6.035
 3689SOL    HW211967   2.441   0.203   6.110
 3690SOL     OW11968   5.057   5.995   0.423
 3690SOL    HW111969   5.129   6.040   0.371
 3690SOL    HW211970   5.047   5.900   0.391
 3691SOL     OW11971   2.729   3.121   6.664
 3691SOL    HW111972   2.749   3.217   6.644
 3691SOL    HW211973   2.706   3.073   6.580
 3692SOL     OW11974   0.316   5.554   5.114
 3692SOL    HW111975   0.285   5.648   5.127
 3692SOL    HW211976   0.415   5.549   5.126
 3693SOL     OW11977   2.150   3.234   2.717
 3693SOL    HW111978   2.168   3.329   2.742
 3693SOL    HW211979   2.077   3.231   2.649
 3694SOL     OW11980   1.231   5.710   2.808
 3694SOL    HW111981   1.260   5.636   2.747
 3694SOL    HW211982   1.262   5.797   2.771
 3695SOL     OW11983   6.623   2.935   1.671
 3695SOL    HW111984   6.660   3.008   1.729
 3695SOL    HW211985   6.619   2.967   1.576
 3696SOL     OW11986   3.445   5.504   5.241
 3696SOL    HW111987   3.479   5.432   5.181
 3696SOL    HW211988   3.357   5.477   5.279
 3697SOL     OW11989   0.099   6.780   2.891
 3697SOL    HW111990   0.088   6.682   2.873
 3697SOL    HW211991   0.129   6.825   2.807
 3698SOL     OW11992   2.271   1.152   4.420
 3698SOL    HW111993   2.364   1.121   4.405
 3698SOL    HW211994   2.218   1.143   4.335
 3699SOL     OW11995   0.722   2.178   3.826
 3699SOL    HW111996   0.813   2.139   3.812
 3699SOL    HW211997   0.708   2.254   3.763
 3700SOL     OW11998   0.228   6.624   5.145
 3700SOL    HW111999   0.278   6.711   5.140
 3700SOL    HW212000   0.184   6.606   5.057
 3701SOL     OW12001   1.296   0.524   4.001
 3701SOL    HW112002   1.356   0.598   3.970
 3701SOL    HW212003   1.274   0.537   4.097
 3702SOL     OW12004   5.524   6.901   2.149
 3702SOL    HW112005   5.453   6.925   2.083
 3702SOL    HW212006   5.562   6.985   2.189
 3703SOL     OW12007   5.223   1.244   5.677
 3703SOL    HW112008   5.186   1.251   5.584
 3703SOL    HW212009   5.149   1.216   5.739
 3704SOL     OW12010   3.330   1.667   1.601
 3704SOL    HW112011   3.293   1.759   1.588
 3704SOL    HW212012   3.254   1.603   1.617
 3705SOL     OW12013   4.587   5.185   3.602
 3705SOL    HW112014   4.608   5.131   3.521
 3705SOL    HW212015   4.579   5.125   3.681
 3706SOL     OW12016   1.392   3.016   6.825
 3706SOL    HW112017   1.387   2.935   6.766
 3706SOL    HW212018   1.346   2.997   6.911
 3707SOL     OW12019   5.392   4.364   4.824
 3707SOL    HW112020   5.319   4.413   4.776
 3707SOL    HW212021   5.480   4.409   4.806
 3708SOL     OW12022   0.170   0.547   6.053
 3708SOL    HW112023   0.253   0.541   6.107
 3708SOL    HW212024   0.099   0.489   6.093
 3709SOL     OW12025   3.103   0.689   0.801
 3709SOL    HW112026   3.004   0.702   0.798
 3709SOL    HW212027   3.149   0.777   0.807
 3710SOL     OW12028   6.470   5.250   6.330
 3710SOL    HW112029   6.480   5.346   6.356
 3710SOL    HW212030   6.513   5.192   6.400
 3711SOL     OW12031   0.445   0.124   3.858
 3711SOL    HW112032   0.377   0.193   3.835
 3711SOL    HW212033   0.456   0.061   3.781
 3712SOL     OW12034   0.109   5.996   0.119
 3712SOL    HW112035   0.172   5.922   0.142
 3712SOL    HW212036   0.086   6.048   0.201
 3713SOL     OW12037   1.421   6.150   5.073
 3713SOL    HW112038   1.359   6.109   5.005
 3713SOL    HW212039   1.371   6.219   5.126
 3714SOL     OW12040   5.236   5.927   5.797
 3714SOL    HW112041   5.221   5.837   5.839
 3714SOL    HW212042   5.331   5.954   5.808
 3715SOL     OW12043   6.649   4.045   2.654
 3715SOL    HW112044   6.745   4.019   2.645
 3715SOL    HW212045   6.613   4.073   2.566
 3716SOL     OW12046   6.437   0.333   5.003
 3716SOL    HW112047   6.356   0.327   4.946
 3716SOL    HW212048   6.469   0.241   5.026
 3717SOL     OW12049   5.964   6.356   6.520
 3717SOL    HW112050   5.948   6.366   6.422
 3717SOL    HW212051   6.008   6.269   6.538
 3718SOL     OW12052   1.684   0.777   0.465
 3718SOL    HW112053   1.733   0.769   0.379
 3718SOL    HW212054   1.739   0.738   0.539
 3719SOL     OW12055   5.205   4.871   1.097
 3719SOL    HW112056   5.265   4.926   1.155
 3719SOL    HW212057   5.228   4.774   1.108
 3720SOL     OW12058   6.080   2.783   6.506
 3720SOL    HW112059   6.033   2.704   6.547
 3720SOL    HW212060   6.137   2.827   6.576
 3721SOL     OW12061   5.897   4.582   1.611
 3721SOL    HW112062   5.860   4.505   1.559
 3721SOL    HW212063   5.956   4.637   1.551
 3722SOL     OW12064   6.546   5.998   0.694
 3722SOL    HW112065   6.599   5.964   0.616
 3722SOL    HW212066   6.451   6.010   0.667
 3723SOL     OW12067   6.364   5.792   1.742
 3723SOL    HW112068   6.273   5.832   1.755
 3723SOL    HW212069   6.403   5.769   1.831
 3724SOL     OW12070   1.469   4.197   4.896
 3724SOL    HW112071   1.562   4.223   4.922
 3724SOL    HW212072   1.472   4.147   4.809
 3725SOL     OW12073   5.980   5.348   1.094
 3725SOL    HW112074   5.897   5.395   1.062
 3725SOL    HW212075   5.965   5.314   1.187
 3726SOL     OW12076   5.695   3.974   0.144
 3726SOL    HW112077   5.681   3.988   0.046
 3726SOL    HW212078   5.777   4.023   0.173
 3727SOL     OW12079   6.847   2.310   5.263
 3727SOL    HW112080   6.806   2.250   5.331
 3727SOL    HW212081   6.850   2.263   5.175
 3728SOL     OW12082   1.325   3.921   6.379
 3728SOL    HW112083   1.394   3.860   6.418
 3728SOL    HW212084   1.256   3.942   6.449
 3729SOL     OW12085   1.054   2.680   3.391
 3729SOL    HW112086   1.134   2.720   3.436
 3729SOL    HW212087   1.027   2.737   3.313
 3730SOL     OW12088   2.782   5.068   5.627
 3730SOL    HW112089   2.810   5.125   5.549
 3730SOL    HW212090   2.826   5.102   5.710
 3731SOL     OW12091   6.501   0.396   0.531
 3731SOL    HW112092   6.520   0.419   0.436
 3731SOL    HW212093   6.503   0.480   0.586
 3732SOL     OW12094   2.727   1.596   6.175
 3732SOL    HW112095   2.791   1.673   6.178
 3732SOL    HW212096   2.719   1.563   6.081
 3733SOL     OW12097   1.150   3.786   1.889
 3733SOL    HW112098   1.116   3.789   1.983
 3733SOL    HW212099   1.236   3.837   1.884
 3734SOL     OW12100   5.390   1.414   2.047
 3734SOL    HW112101   5.418   1.439   2.140
 3734SOL    HW212102   5.301   1.456   2.027
 3735SOL     OW12103   2.083   0.956   3.604
 3735SOL    HW112104   2.098   0.978   3.508
 3735SOL    HW212105   2.171   0.944   3.650
 3736SOL     OW12106   0.333   2.300   0.547
 3736SOL    HW112107   0.340   2.382   0.603
 3736SOL    HW212108   0.417   2.246   0.557
 3737SOL     OW12109   5.030   0.545   3.491
 3737SOL    HW112110   4.952   0.498   3.532
 3737SOL    HW212111   4.997   0.608   3.420
 3738SOL     OW12112   6.606   6.473   2.333
 3738SOL    HW112113   6.578   6.564   2.361
 3738SOL    HW212114   6.563   6.450   2.246
 3739SOL     OW12115   2.655   4.521   1.724
 3739SOL    HW112116   2.753   4.514   1.742
 3739SOL    HW212117   2.608   4.560   1.804
 3740SOL     OW12118   5.978   0.423   0.600
 3740SOL    HW112119   5.898   0.481   0.580
 3740SOL    HW212120   6.059   0.480   0.609
 3741SOL     OW12121   5.577   3.207   1.207
 3741SOL    HW112122   5.505   3.259   1.162
 3741SOL    HW212123   5.608   3.257   1.288
 3742SOL     OW12124   2.548   1.384   6.509
 3742SOL    HW112125   2.615   1.449   6.474
 3742SOL    HW212126   2.483   1.432   6.569
 3743SOL     OW12127   5.447   2.958   1.353
 3743SOL    HW112128   5.350   2.980   1.340
 3743SOL    HW212129   5.502   3.018   1.294
 3744SOL     OW12130   1.148   5.390   2.911
 3744SOL    HW112131   1.179   5.406   2.817
 3744SOL    HW212132   1.218   5.420   2.975
 3745SOL     OW12133   3.923   4.975   1.668
 3745SOL    HW112134   3.988   4.964   1.593
 3745SOL    HW212135   3.853   4.904   1.661
 3746SOL     OW12136   5.499   1.072   3.240
 3746SOL    HW112137   5.453   1.043   3.324
 3746SOL    HW212138   5.437   1.063   3.163
 3747SOL     OW12139   2.616   6.710   5.386
 3747SOL    HW112140   2.596   6.614   5.368
 3747SOL    HW212141   2.535   6.754   5.425
 3748SOL     OW12142   6.054   0.963   0.842
 3748SOL    HW112143   5.975   0.990   0.788
 3748SOL    HW212144   6.129   1.028   0.827
 3749SOL     OW12145   1.589   5.608   3.809
 3749SOL    HW112146   1.514   5.672   3.795
 3749SOL    HW212147   1.675   5.649   3.779
 3750SOL     OW12148   1.041   3.747   0.534
 3750SOL    HW112149   1.000   3.661   0.504
 3750SOL    HW212150   1.077   3.736   0.627
 3751SOL     OW12151   0.230   3.467   1.482
 3751SOL    HW112152   0.201   3.487   1.576
 3751SOL    HW212153   0.226   3.550   1.427
 3752SOL     OW12154   5.404   0.501   6.719
 3752SOL    HW112155   5.382   0.433   6.648
 3752SOL    HW212156   5.384   0.463   6.809
 3753SOL     OW12157   6.532   0.095   5.095
 3753SOL    HW112158   6.466   0.020   5.086
 3753SOL    HW212159   6.611   0.064   5.148
 3754SOL     OW12160   2.117   0.952   1.263
 3754SOL    HW112161   2.146   0.998   1.179
 3754SOL    HW212162   2.179   0.875   1.281
 3755SOL     OW12163   4.788   4.952   4.895
 3755SOL    HW112164   4.798   4.854   4.910
 3755SOL    HW212165   4.691   4.977   4.906
 3756SOL     OW12166   3.121   5.082   6.062
 3756SOL    HW112167   3.045   5.023   6.037
 3756SOL    HW212168   3.128   5.158   5.998
 3757SOL     OW12169   6.200   5.182   1.234
 3757SOL    HW112170   6.215   5.270   1.189
 3757SOL    HW212171   6.129   5.131   1.186
 3758SOL     OW12172   2.609   1.563   4.556
 3758SOL    HW112173   2.569   1.655   4.560
 3758SOL    HW212174   2.546   1.501   4.509
 3759SOL     OW12175   4.102   0.175   5.961
 3759SOL    HW112176   4.152   0.141   5.882
 3759SOL    HW212177   4.160   0.239   6.012
 3760SOL     OW12178   1.316   1.243   4.334
 3760SOL    HW112179   1.408   1.212   4.309
 3760SOL    HW212180   1.252   1.166   4.323
 3761SOL     OW12181   0.383   1.123   5.181
 3761SOL    HW112182   0.324   1.101   5.104
 3761SOL    HW212183   0.424   1.214   5.168
 3762SOL     OW12184   1.568   4.645   0.788
 3762SOL    HW112185   1.567   4.554   0.745
 3762SOL    HW212186   1.646   4.651   0.851
 3763SOL     OW12187   0.577   3.250   0.181
 3763SOL    HW112188   0.479   3.264   0.165
 3763SOL    HW212189   0.600   3.276   0.274
 3764SOL     OW12190   1.371   6.965   2.678
 3764SOL    HW112191   1.397   0.024   2.628
 3764SOL    HW212192   1.309   6.990   2.753
 3765SOL     OW12193   5.018   1.817   1.148
 3765SOL    HW112194   4.946   1.835   1.215
 3765SOL    HW212195   4.982   1.759   1.075
 3766SOL     OW12196   1.672   1.978   4.522
 3766SOL    HW112197   1.680   1.883   4.551
 3766SOL    HW212198   1.582   2.013   4.546
 3767SOL     OW12199   2.754   4.043   6.707
 3767SOL    HW112200   2.730   3.947   6.718
 3767SOL    HW212201   2.850   4.056   6.732
 3768SOL     OW12202   0.546   6.766   4.565
 3768SOL    HW112203   0.474   6.749   4.497
 3768SOL    HW212204   0.601   6.845   4.536
 3769SOL     OW12205   5.744   5.028   5.056
 3769SOL    HW112206   5.691   5.085   5.119
 3769SOL    HW212207   5.788   4.954   5.107
 3770SOL     OW12208   1.192   0.574   6.501
 3770SOL    HW112209   1.180   0.488   6.451
 3770SOL    HW212210   1.233   0.555   6.590
 3771SOL     OW12211   4.902   3.493   0.528
 3771SOL    HW112212   4.876   3.520   0.621
 3771SOL    HW212213   4.978   3.550   0.498
 3772SOL     OW12214   0.313   0.721   0.435
 3772SOL    HW112215   0.374   0.664   0.490
 3772SOL    HW212216   0.367   0.777   0.372
 3773SOL     OW12217   5.619   3.241   5.712
 3773SOL    HW112218   5.522   3.218   5.710
 3773SOL    HW212219   5.651   3.260   5.619
 3774SOL     OW12220   5.994   5.551   1.511
 3774SOL    HW112221   5.983   5.490   1.433
 3774SOL    HW212222   6.077   5.605   1.499
 3775SOL     OW12223   4.660   5.617   2.824
 3775SOL    HW112224   4.594   5.687   2.851
 3775SOL    HW212225   4.671   5.551   2.899
 3776SOL     OW12226   3.932   2.054   6.440
 3776SOL    HW112227   4.013   2.112   6.435
 3776SOL    HW212228   3.955   1.961   6.411
 3777SOL     OW12229   3.241   4.905   3.256
 3777SOL    HW112230   3.195   4.859   3.332
 3777SOL    HW212231   3.192   4.887   3.171
 3778SOL     OW12232   2.545   4.968   2.502
 3778SOL    HW112233   2.565   5.060   2.536
 3778SOL    HW212234   2.504   4.973   2.411
 3779SOL     OW12235   0.739   5.088   0.638
 3779SOL    HW112236   0.811   5.148   0.603
 3779SOL    HW212237   0.750   5.076   0.736
 3780SOL     OW12238   6.016   4.666   4.898
 3780SOL    HW112239   5.952   4.628   4.965
 3780SOL    HW212240   6.042   4.595   4.832
 3781SOL     OW12241   0.423   6.730   3.679
 3781SOL    HW112242   0.442   6.728   3.581
 3781SOL    HW212243   0.508   6.746   3.729
 3782SOL     OW12244   2.355   0.690   3.190
 3782SOL    HW112245   2.314   0.721   3.276
 3782SOL    HW212246   2.372   0.770   3.131
 3783SOL     OW12247   5.818   5.074   4.153
 3783SOL    HW112248   5.898   5.064   4.094
 3783SOL    HW212249   5.789   5.169   4.154
 3784SOL     OW12250   5.661   2.991   2.836
 3784SOL    HW112251   5.695   3.034   2.752
 3784SOL    HW212252   5.738   2.960   2.891
 3785SOL     OW12253   1.557   3.375   5.674
 3785SOL    HW112254   1.586   3.298   5.731
 3785SOL    HW212255   1.556   3.458   5.730
 3786SOL     OW12256   2.482   4.662   3.169
 3786SOL    HW112257   2.536   4.683   3.250
 3786SOL    HW212258   2.388   4.692   3.183
 3787SOL     OW12259   6.508   1.220   2.303
 3787SOL    HW112260   6.434   1.271   2.260
 3787SOL    HW212261   6.525   1.255   2.395
 3788SOL     OW12262   0.381   4.329   5.026
 3788SOL    HW112263   0.289   4.297   5.048
 3788SOL    HW212264   0.401   4.311   4.930
 3789SOL     OW12265   0.611   4.287   4.800
 3789SOL    HW112266   0.705   4.301   4.830
 3789SOL    HW212267   0.602   4.195   4.760
 3790SOL     OW12268   1.247   4.772   6.052
 3790SOL    HW112269   1.169   4.801   5.998
 3790SOL    HW212270   1.223   4.691   6.105
 3791SOL     OW12271   5.061   1.276   6.291
 3791SOL    HW112272   5.087   1.204   6.226
 3791SOL    HW212273   5.118   1.356   6.277
 3792SOL     OW12274   1.295   2.022   3.338
 3792SOL    HW112275   1.288   2.076   3.255
 3792SOL    HW212276   1.256   2.073   3.415
 3793SOL     OW12277   4.643   0.084   2.562
 3793SOL    HW112278   4.622   0.046   2.472
 3793SOL    HW212279   4.577   0.156   2.584
 3794SOL     OW12280   2.027   2.315   1.489
 3794SOL    HW112281   2.121   2.340   1.464
 3794SOL    HW212282   1.974   2.299   1.406
 3795SOL     OW12283   4.891   5.946   1.363
 3795SOL    HW112284   4.979   5.993   1.361
 3795SOL    HW212285   4.820   6.010   1.393
 3796SOL     OW12286   4.051   1.760   2.654
 3796SOL    HW112287   4.098   1.767   2.566
 3796SOL    HW212288   4.060   1.666   2.689
 3797SOL     OW12289   0.826   3.222   2.628
 3797SOL    HW112290   0.812   3.163   2.548
 3797SOL    HW212291   0.868   3.308   2.599
 3798SOL     OW12292   2.475   5.696   3.329
 3798SOL    HW112293   2.454   5.740   3.417
 3798SOL    HW212294   2.574   5.694   3.316
 3799SOL     OW12295   6.245   2.903   3.792
 3799SOL    HW112296   6.267   2.806   3.791
 3799SOL    HW212297   6.323   2.955   3.827
 3800SOL     OW12298   5.131   1.917   3.695
 3800SOL    HW112299   5.050   1.956   3.740
 3800SOL    HW212300   5.118   1.919   3.596
 3801SOL     OW12301   6.209   6.568   1.480
 3801SOL    HW112302   6.201   6.666   1.459
 3801SOL    HW212303   6.143   6.544   1.551
 3802SOL     OW12304   1.752   2.247   1.619
 3802SOL    HW112305   1.839   2.218   1.659
 3802SOL    HW212306   1.742   2.204   1.529
 3803SOL     OW12307   4.130   3.579   2.227
 3803SOL    HW112308   4.172   3.489   2.241
 3803SOL    HW212309   4.136   3.604   2.130
 3804SOL     OW12310   4.683   0.979   2.987
 3804SOL    HW112311   4.638   1.004   3.073
 3804SOL    HW212312   4.759   1.042   2.970
 3805SOL     OW12313   1.715   3.052   1.440
 3805SOL    HW112314   1.708   3.091   1.531
 3805SOL    HW212315   1.654   2.973   1.432
 3806SOL     OW12316   4.120   3.590   6.159
 3806SOL    HW112317   4.101   3.597   6.061
 3806SOL    HW212318   4.173   3.670   6.189
 3807SOL     OW12319   1.825   5.676   2.889
 3807SOL    HW112320   1.869   5.643   2.972
 3807SOL    HW212321   1.863   5.765   2.865
 3808SOL     OW12322   4.168   0.702   0.431
 3808SOL    HW112323   4.102   0.638   0.469
 3808SOL    HW212324   4.138   0.731   0.340
 3809SOL     OW12325   5.457   2.090   1.869
 3809SOL    HW112326   5.399   2.050   1.940
 3809SOL    HW212327   5.404   2.099   1.784
 3810SOL     OW12328   5.137   2.582   3.520
 3810SOL    HW112329   5.184   2.662   3.481
 3810SOL    HW212330   5.073   2.546   3.452
 3811SOL     OW12331   6.572   6.041   4.690
 3811SOL    HW112332   6.583   6.125   4.743
 3811SOL    HW212333   6.500   6.054   4.622
 3812SOL     OW12334   4.699   5.146   5.540
 3812SOL    HW112335   4.726   5.186   5.628
 3812SOL    HW212336   4.739   5.055   5.531
 3813SOL     OW12337   4.468   3.602   0.384
 3813SOL    HW112338   4.404   3.570   0.315
 3813SOL    HW212339   4.556   3.558   0.371
 3814SOL     OW12340   6.081   6.913   5.756
 3814SOL    HW112341   6.069   7.008   5.726
 3814SOL    HW212342   5.994   6.864   5.747
 3815SOL     OW12343   3.376   2.128   1.142
 3815SOL    HW112344   3.361   2.221   1.108
 3815SOL    HW212345   3.376   2.129   1.242
 3816SOL     OW12346   1.013   5.549   6.572
 3816SOL    HW112347   0.932   5.530   6.627
 3816SOL    HW212348   1.001   5.512   6.480
 3817SOL     OW12349   5.125   3.686   2.319
 3817SOL    HW112350   5.119   3.695   2.220
 3817SOL    HW212351   5.180   3.761   2.356
 3818SOL     OW12352   6.629   0.762   6.713
 3818SOL    HW112353   6.689   0.781   6.791
 3818SOL    HW212354   6.584   0.847   6.685
 3819SOL     OW12355   5.715   5.536   2.226
 3819SOL    HW112356   5.646   5.581   2.282
 3819SOL    HW212357   5.673   5.502   2.142
 3820SOL     OW12358   5.432   0.243   4.023
 3820SOL    HW112359   5.440   0.209   4.116
 3820SOL    HW212360   5.375   0.181   3.969
 3821SOL     OW12361   2.331   0.835   1.621
 3821SOL    HW112362   2.304   0.931   1.621
 3821SOL    HW212363   2.316   0.795   1.531
 3822SOL     OW12364   2.403   6.940   0.695
 3822SOL    HW112365   2.306   6.939   0.670
 3822SOL    HW212366   2.413   6.978   0.787
 3823SOL     OW12367   2.953   3.849   6.151
 3823SOL    HW112368   2.905   3.854   6.063
 3823SOL    HW212369   2.975   3.942   6.182
 3824SOL     OW12370   0.611   3.145   0.477
 3824SOL    HW112371   0.526   3.097   0.457
 3824SOL    HW212372   0.595   3.216   0.545
 3825SOL     OW12373   0.385   5.732   0.543
 3825SOL    HW112374   0.414   5.641   0.573
 3825SOL    HW212375   0.306   5.725   0.482
 3826SOL     OW12376   0.889   3.527   0.467
 3826SOL    HW112377   0.800   3.519   0.422
 3826SOL    HW212378   0.932   3.437   0.471
 3827SOL     OW12379   1.836   1.325   1.988
 3827SOL    HW112380   1.914   1.300   2.046
 3827SOL    HW212381   1.787   1.243   1.961
 3828SOL     OW12382   3.444   3.511   3.345
 3828SOL    HW112383   3.403   3.590   3.392
 3828SOL    HW212384   3.543   3.523   3.340
 3829SOL     OW12385   1.355   4.854   1.945
 3829SOL    HW112386   1.275   4.853   1.885
 3829SOL    HW212387   1.435   4.887   1.894
 3830SOL     OW12388   0.793   0.120   5.292
 3830SOL    HW112389   0.831   0.170   5.215
 3830SOL    HW212390   0.695   0.107   5.278
 3831SOL     OW12391   4.533   2.425   2.765
 3831SOL    HW112392   4.435   2.406   2.753
 3831SOL    HW212393   4.558   2.505   2.712
 3832SOL     OW12394   7.015   0.760   3.041
 3832SOL    HW112395   0.051   0.840   3.044
 3832SOL    HW212396   6.946   0.766   3.113
 3833SOL     OW12397   0.280   6.190   6.484
 3833SOL    HW112398   0.224   6.267   6.516
 3833SOL    HW212399   0.309   6.208   6.390
 3834SOL     OW12400   4.036   4.058   1.339
 3834SOL    HW112401   4.051   3.961   1.352
 3834SOL    HW212402   4.029   4.103   1.428
 3835SOL     OW12403   3.805   5.687   4.567
 3835SOL    HW112404   3.743   5.727   4.500
 3835SOL    HW212405   3.826   5.755   4.638
 3836SOL     OW12406   0.481   4.597   5.894
 3836SOL    HW112407   0.455   4.642   5.808
 3836SOL    HW212408   0.511   4.665   5.960
 3837SOL     OW12409   4.587   4.124   6.263
 3837SOL    HW112410   4.610   4.216   6.294
 3837SOL    HW212411   4.514   4.087   6.320
 3838SOL     OW12412   0.956   3.518   4.490
 3838SOL    HW112413   0.887   3.507   4.561
 3838SOL    HW212414   0.938   3.455   4.415
 3839SOL     OW12415   5.728   1.090   3.012
 3839SOL    HW112416   5.628   1.091   3.010
 3839SOL    HW212417   5.762   1.184   3.021
 3840SOL     OW12418   2.264   1.017   6.785
 3840SOL    HW112419   2.254   1.051   6.692
 3840SOL    HW212420   2.329   1.076   6.835
 3841SOL     OW12421   0.214   3.834   4.953
 3841SOL    HW112422   0.133   3.802   4.904
 3841SOL    HW212423   0.293   3.828   4.892
 3842SOL     OW12424   2.756   2.791   1.697
 3842SOL    HW112425   2.784   2.696   1.688
 3842SOL    HW212426   2.825   2.851   1.656
 3843SOL     OW12427   5.717   5.005   2.450
 3843SOL    HW112428   5.746   4.986   2.356
 3843SOL    HW212429   5.789   4.980   2.514
 3844SOL     OW12430   1.075   2.751   5.425
 3844SOL    HW112431   1.097   2.847   5.406
 3844SOL    HW212432   1.066   2.738   5.523
 3845SOL     OW12433   3.048   4.039   5.463
 3845SOL    HW112434   3.052   4.137   5.441
 3845SOL    HW212435   2.993   3.992   5.394
 3846SOL     OW12436   6.697   5.204   3.273
 3846SOL    HW112437   6.776   5.243   3.320
 3846SOL    HW212438   6.662   5.269   3.205
 3847SOL     OW12439   5.129   2.057   4.033
 3847SOL    HW112440   5.077   2.062   3.947
 3847SOL    HW212441   5.177   1.970   4.037
 3848SOL     OW12442   4.554   5.483   2.612
 3848SOL    HW112443   4.474   5.536   2.582
 3848SOL    HW212444   4.582   5.515   2.703
 3849SOL     OW12445   1.127   1.092   6.221
 3849SOL    HW112446   1.092   1.037   6.297
 3849SOL    HW212447   1.051   1.125   6.165
 3850SOL     OW12448   2.720   3.350   1.392
 3850SOL    HW112449   2.668   3.348   1.477
 3850SOL    HW212450   2.659   3.342   1.314
 3851SOL     OW12451   0.789   4.564   2.210
 3851SOL    HW112452   0.780   4.662   2.189
 3851SOL    HW212453   0.876   4.548   2.256
 3852SOL     OW12454   4.102   6.313   3.935
 3852SOL    HW112455   4.132   6.237   3.877
 3852SOL    HW212456   4.008   6.337   3.913
 3853SOL     OW12457   0.740   4.297   3.547
 3853SOL    HW112458   0.643   4.320   3.538
 3853SOL    HW212459   0.753   4.200   3.524
 3854SOL     OW12460   1.780   2.862   2.700
 3854SOL    HW112461   1.743   2.800   2.769
 3854SOL    HW212462   1.856   2.817   2.652
 3855SOL     OW12463   5.720   6.469   6.589
 3855SOL    HW112464   5.804   6.419   6.570
 3855SOL    HW212465   5.657   6.458   6.511
 3856SOL     OW12466   6.711   0.582   6.027
 3856SOL    HW112467   6.724   0.569   5.929
 3856SOL    HW212468   6.798   0.567   6.075
 3857SOL     OW12469   0.059   6.553   0.070
 3857SOL    HW112470   0.127   6.596   0.009
 3857SOL    HW212471   0.031   6.465   0.032
 3858SOL     OW12472   1.982   0.814   5.609
 3858SOL    HW112473   2.063   0.871   5.598
 3858SOL    HW212474   2.008   0.724   5.644
 3859SOL     OW12475   6.247   1.026   2.236
 3859SOL    HW112476   6.168   1.077   2.270
 3859SOL    HW212477   6.239   0.930   2.264
 3860SOL     OW12478   2.938   0.763   5.453
 3860SOL    HW112479   2.945   0.665   5.433
 3860SOL    HW212480   3.019   0.810   5.417
 3861SOL     OW12481   4.414   4.711   3.508
 3861SOL    HW112482   4.369   4.660   3.435
 3861SOL    HW212483   4.344   4.755   3.566
 3862SOL     OW12484   0.560   0.680   4.605
 3862SOL    HW112485   0.612   0.721   4.681
 3862SOL    HW212486   0.464   0.706   4.613
 3863SOL     OW12487   5.818   2.744   6.796
 3863SOL    HW112488   5.876   2.738   6.878
 3863SOL    HW212489   5.777   2.835   6.791
 3864SOL     OW12490   2.635   0.186   5.324
 3864SOL    HW112491   2.673   0.107   5.276
 3864SOL    HW212492   2.642   0.267   5.266
 3865SOL     OW12493   2.880   0.308   0.159
 3865SOL    HW112494   2.871   0.355   0.247
 3865SOL    HW212495   2.875   0.374   0.085
 3866SOL     OW12496   3.397   0.800   1.277
 3866SOL    HW112497   3.387   0.900   1.287
 3866SOL    HW212498   3.483   0.771   1.318
 3867SOL     OW12499   1.102   4.979   3.846
 3867SOL    HW112500   1.181   4.955   3.791
 3867SOL    HW212501   1.093   5.078   3.850
 3868SOL     OW12502   3.218   0.037   0.402
 3868SOL    HW112503   3.156   7.011   0.340
 3868SOL    HW212504   3.267   0.107   0.350
 3869SOL     OW12505   5.578   3.878   4.995
 3869SOL    HW112506   5.587   3.953   4.930
 3869SOL    HW212507   5.498   3.892   5.053
 3870SOL     OW12508   5.602   6.224   6.699
 3870SOL    HW112509   5.560   6.188   6.615
 3870SOL    HW212510   5.625   6.320   6.686
 3871SOL     OW12511   3.704   0.662   3.285
 3871SOL    HW112512   3.725   0.580   3.339
 3871SOL    HW212513   3.605   0.666   3.268
 3872SOL     OW12514   3.813   2.960   3.917
 3872SOL    HW112515   3.737   2.942   3.979
 3872SOL    HW212516   3.892   2.991   3.969
 3873SOL     OW12517   6.021   2.927   1.144
 3873SOL    HW112518   5.996   2.969   1.232
 3873SOL    HW212519   5.993   2.830   1.145
 3874SOL     OW12520   4.453   5.869   0.227
 3874SOL    HW112521   4.430   5.773   0.211
 3874SOL    HW212522   4.552   5.878   0.237
 3875SOL     OW12523   2.036   2.991   1.694
 3875SOL    HW112524   2.019   2.893   1.685
 3875SOL    HW212525   1.957   3.034   1.738
 3876SOL     OW12526   4.208   5.198   0.977
 3876SOL    HW112527   4.273   5.251   0.921
 3876SOL    HW212528   4.125   5.252   0.991
 3877SOL     OW12529   5.853   3.234   0.687
 3877SOL    HW112530   5.848   3.140   0.722
 3877SOL    HW212531   5.805   3.295   0.750
 3878SOL     OW12532   3.688   0.024   4.409
 3878SOL    HW112533   3.654   7.003   4.326
 3878SOL    HW212534   3.696   6.980   4.482
 3879SOL     OW12535   5.056   5.282   1.613
 3879SOL    HW112536   5.134   5.345   1.626
 3879SOL    HW212537   4.975   5.320   1.658
 3880SOL     OW12538   6.071   4.767   4.035
 3880SOL    HW112539   6.116   4.679   4.016
 3880SOL    HW212540   5.974   4.751   4.055
 3881SOL     OW12541   1.051   3.767   1.364
 3881SOL    HW112542   0.969   3.732   1.409
 3881SOL    HW212543   1.116   3.692   1.350
 3882SOL     OW12544   1.115   1.602   5.464
 3882SOL    HW112545   1.016   1.608   5.468
 3882SOL    HW212546   1.150   1.662   5.392
 3883SOL     OW12547   3.911   0.972   3.800
 3883SOL    HW112548   3.869   0.905   3.738
 3883SOL    HW212549   3.896   0.944   3.894
 3884SOL     OW12550   0.338   5.178   3.516
 3884SOL    HW112551   0.437   5.190   3.521
 3884SOL    HW212552   0.314   5.130   3.431
 3885SOL     OW12553   6.705   0.356   2.615
 3885SOL    HW112554   6.683   0.411   2.534
 3885SOL    HW212555   6.790   0.391   2.656
 3886SOL     OW12556   6.349   6.093   5.005
 3886SOL    HW112557   6.441   6.104   5.043
 3886SOL    HW212558   6.318   5.999   5.019
 3887SOL     OW12559   0.647   0.280   6.215
 3887SOL    HW112560   0.590   0.289   6.133
 3887SOL    HW212561   0.626   0.354   6.278
 3888SOL     OW12562   6.519   0.232   5.533
 3888SOL    HW112563   6.433   0.208   5.487
 3888SOL    HW212564   6.541   0.328   5.514
 3889SOL     OW12565   6.620   3.275   5.770
 3889SOL    HW112566   6.688   3.344   5.744
 3889SOL    HW212567   6.548   3.319   5.824
 3890SOL     OW12568   5.394   5.650   3.171
 3890SOL    HW112569   5.424   5.709   3.245
 3890SOL    HW212570   5.429   5.685   3.084
 3891SOL     OW12571   6.032   4.347   4.927
 3891SOL    HW112572   6.090   4.293   4.988
 3891SOL    HW212573   5.943   4.303   4.917
 3892SOL     OW12574   0.154   1.956   1.404
 3892SOL    HW112575   0.086   1.914   1.464
 3892SOL    HW212576   0.233   1.895   1.396
 3893SOL     OW12577   4.295   4.286   1.250
 3893SOL    HW112578   4.219   4.302   1.314
 3893SOL    HW212579   4.342   4.201   1.275
 3894SOL     OW12580   3.339   2.606   0.895
 3894SOL    HW112581   3.380   2.598   0.804
 3894SOL    HW212582   3.254   2.658   0.889
 3895SOL     OW12583   1.502   0.532   5.630
 3895SOL    HW112584   1.530   0.628   5.632
 3895SOL    HW212585   1.510   0.493   5.721
 3896SOL     OW12586   0.352   0.876   6.127
 3896SOL    HW112587   0.358   0.974   6.145
 3896SOL    HW212588   0.281   0.859   6.059
 3897SOL     OW12589   3.966   5.772   2.353
 3897SOL    HW112590   3.991   5.710   2.427
 3897SOL    HW212591   3.985   5.729   2.265
 3898SOL     OW12592   3.679   3.575   4.197
 3898SOL    HW112593   3.737   3.627   4.260
 3898SOL    HW212594   3.736   3.532   4.127
 3899SOL     OW12595   5.751   0.607   3.975
 3899SOL    HW112596   5.793   0.592   3.885
 3899SOL    HW212597   5.785   0.693   4.014
 3900SOL     OW12598   5.420   2.804   3.991
 3900SOL    HW112599   5.376   2.716   3.972
 3900SOL    HW212600   5.491   2.821   3.923
 3901SOL     OW12601   2.892   6.661   5.499
 3901SOL    HW112602   2.821   6.729   5.481
 3901SOL    HW212603   2.850   6.571   5.507
 3902SOL     OW12604   6.311   3.944   2.429
 3902SOL    HW112605   6.307   3.999   2.512
 3902SOL    HW212606   6.221   3.907   2.408
 3903SOL     OW12607   4.560   5.348   0.458
 3903SOL    HW112608   4.462   5.349   0.479
 3903SOL    HW212609   4.598   5.258   0.482
 3904SOL     OW12610   1.706   6.810   5.333
 3904SOL    HW112611   1.632   6.807   5.399
 3904SOL    HW212612   1.753   6.722   5.331
 3905SOL     OW12613   5.950   0.118   5.634
 3905SOL    HW112614   5.930   0.094   5.539
 3905SOL    HW212615   6.030   0.178   5.638
 3906SOL     OW12616   3.607   5.107   5.060
 3906SOL    HW112617   3.554   5.108   5.145
 3906SOL    HW212618   3.588   5.190   5.009
 3907SOL     OW12619   6.668   6.713   5.610
 3907SOL    HW112620   6.734   6.647   5.574
 3907SOL    HW212621   6.657   6.788   5.546
 3908SOL     OW12622   1.355   0.558   0.389
 3908SOL    HW112623   1.336   0.589   0.297
 3908SOL    HW212624   1.297   0.607   0.454
 3909SOL     OW12625   0.838   5.398   5.588
 3909SOL    HW112626   0.926   5.352   5.598
 3909SOL    HW212627   0.853   5.497   5.589
 3910SOL     OW12628   3.770   4.014   2.057
 3910SOL    HW112629   3.841   3.981   2.119
 3910SOL    HW212630   3.719   3.937   2.019
 3911SOL     OW12631   3.912   1.141   6.797
 3911SOL    HW112632   3.959   1.058   6.826
 3911SOL    HW212633   3.946   1.220   6.849
 3912SOL     OW12634   3.035   0.701   6.530
 3912SOL    HW112635   3.112   0.658   6.482
 3912SOL    HW212636   2.988   0.764   6.468
 3913SOL     OW12637   2.440   5.595   6.540
 3913SOL    HW112638   2.345   5.624   6.531
 3913SOL    HW212639   2.481   5.639   6.620
 3914SOL     OW12640   3.633   1.056   0.909
 3914SOL    HW112641   3.684   1.131   0.951
 3914SOL    HW212642   3.637   0.975   0.967
 3915SOL     OW12643   4.211   6.587   1.823
 3915SOL    HW112644   4.222   6.614   1.728
 3915SOL    HW212645   4.115   6.565   1.840
 3916SOL     OW12646   1.584   6.469   2.848
 3916SOL    HW112647   1.589   6.436   2.754
 3916SOL    HW212648   1.602   6.393   2.911
 3917SOL     OW12649   1.004   4.938   0.139
 3917SOL    HW112650   0.931   4.967   0.076
 3917SOL    HW212651   0.968   4.870   0.203
 3918SOL     OW12652   4.659   6.770   2.163
 3918SOL    HW112653   4.658   6.674   2.193
 3918SOL    HW212654   4.619   6.776   2.071
 3919SOL     OW12655   3.275   6.630   6.383
 3919SOL    HW112656   3.281   6.537   6.348
 3919SOL    HW212657   3.216   6.685   6.323
 3920SOL     OW12658   2.717   1.967   6.566
 3920SOL    HW112659   2.650   1.979   6.639
 3920SOL    HW212660   2.809   1.983   6.603
 3921SOL     OW12661   0.526   2.856   0.571
 3921SOL    HW112662   0.609   2.853   0.515
 3921SOL    HW212663   0.456   2.909   0.523
 3922SOL     OW12664   5.796   4.713   1.189
 3922SOL    HW112665   5.742   4.630   1.175
 3922SOL    HW212666   5.817   4.755   1.101
 3923SOL     OW12667   6.158   1.647   6.921
 3923SOL    HW112668   6.084   1.690   6.973
 3923SOL    HW212669   6.140   1.657   6.823
 3924SOL     OW12670   0.462   5.239   3.185
 3924SOL    HW112671   0.521   5.293   3.246
 3924SOL    HW212672   0.450   5.148   3.224
 3925SOL     OW12673   4.047   4.327   0.960
 3925SOL    HW112674   4.019   4.337   1.056
 3925SOL    HW212675   3.987   4.382   0.902
 3926SOL     OW12676   6.866   6.224   3.031
 3926SOL    HW112677   6.917   6.227   3.117
 3926SOL    HW212678   6.835   6.131   3.014
 3927SOL     OW12679   6.695   3.878   4.485
 3927SOL    HW112680   6.741   3.843   4.403
 3927SOL    HW212681   6.708   3.977   4.490
 3928SOL     OW12682   3.149   5.209   4.474
 3928SOL    HW112683   3.185   5.119   4.451
 3928SOL    HW212684   3.051   5.202   4.493
 3929SOL     OW12685   0.174   2.473   6.479
 3929SOL    HW112686   0.202   2.558   6.433
 3929SOL    HW212687   0.089   2.489   6.530
 3930SOL     OW12688   1.362   2.324   3.971
 3930SOL    HW112689   1.360   2.259   4.048
 3930SOL    HW212690   1.451   2.318   3.926
 3931SOL     OW12691   2.602   1.637   2.970
 3931SOL    HW112692   2.656   1.620   3.053
 3931SOL    HW212693   2.509   1.602   2.983
 3932SOL     OW12694   1.693   4.594   3.363
 3932SOL    HW112695   1.719   4.545   3.446
 3932SOL    HW212696   1.614   4.653   3.382
 3933SOL     OW12697   2.129   6.751   6.454
 3933SOL    HW112698   2.050   6.690   6.463
 3933SOL    HW212699   2.179   6.753   6.540
 3934SOL     OW12700   0.537   1.430   1.373
 3934SOL    HW112701   0.527   1.400   1.278
 3934SOL    HW212702   0.522   1.352   1.434
 3935SOL     OW12703   1.974   0.164   5.089
 3935SOL    HW112704   2.045   0.104   5.126
 3935SOL    HW212705   1.901   0.175   5.156
 3936SOL     OW12706   0.154   5.719   5.556
 3936SOL    HW112707   0.166   5.636   5.610
 3936SOL    HW212708   0.088   5.779   5.601
 3937SOL     OW12709   0.573   0.042   2.302
 3937SOL    HW112710   0.667   0.065   2.326
 3937SOL    HW212711   0.515   0.122   2.315
 3938SOL     OW12712   6.380   3.116   4.133
 3938SOL    HW112713   6.423   3.058   4.064
 3938SOL    HW212714   6.433   3.201   4.143
 3939SOL     OW12715   3.200   1.521   3.140
 3939SOL    HW112716   3.171   1.532   3.235
 3939SOL    HW212717   3.243   1.431   3.128
 3940SOL     OW12718   4.110   4.723   2.167
 3940SOL    HW112719   4.152   4.727   2.077
 3940SOL    HW212720   4.014   4.751   2.160
 3941SOL     OW12721   6.237   1.078   5.452
 3941SOL    HW112722   6.275   1.005   5.509
 3941SOL    HW212723   6.166   1.041   5.393
 3942SOL     OW12724   0.856   6.542   5.588
 3942SOL    HW112725   0.883   6.588   5.503
 3942SOL    HW212726   0.786   6.474   5.568
 3943SOL     OW12727   0.523   3.429   3.095
 3943SOL    HW112728   0.556   3.426   3.000
 3943SOL    HW212729   0.529   3.337   3.135
 3944SOL     OW12730   5.363   4.053   5.434
 3944SOL    HW112731   5.445   4.076   5.486
 3944SOL    HW212732   5.319   3.973   5.474
 3945SOL     OW12733   0.949   2.361   2.708
 3945SOL    HW112734   0.870   2.313   2.670
 3945SOL    HW212735   1.021   2.294   2.729
 3946SOL     OW12736   6.301   4.534   5.812
 3946SOL    HW112737   6.251   4.605   5.762
 3946SOL    HW212738   6.386   4.512   5.763
 3947SOL     OW12739   5.958   5.660   1.855
 3947SOL    HW112740   6.013   5.742   1.841
 3947SOL    HW212741   5.918   5.662   1.947
 3948SOL     OW12742   0.584   4.892   0.540
 3948SOL    HW112743   0.644   4.964   0.575
 3948SOL    HW212744   0.528   4.857   0.615
 3949SOL     OW12745   5.353   0.115   2.821
 3949SOL    HW112746   5.329   0.139   2.727
 3949SOL    HW212747   5.281   0.059   2.861
 3950SOL     OW12748   3.112   4.153   1.484
 3950SOL    HW112749   3.029   4.104   1.512
 3950SOL    HW212750   3.115   4.159   1.385
 3951SOL     OW12751   0.036   0.100   6.702
 3951SOL    HW112752   0.087   0.184   6.684
 3951SOL    HW212753   6.971   0.123   6.743
 3952SOL     OW12754   6.109   3.706   4.265
 3952SOL    HW112755   6.206   3.687   4.250
 3952SOL    HW212756   6.074   3.762   4.190
 3953SOL     OW12757   3.368   4.225   0.341
 3953SOL    HW112758   3.338   4.187   0.428
 3953SOL    HW212759   3.318   4.310   0.323
 3954SOL     OW12760   5.677   5.384   5.627
 3954SOL    HW112761   5.698   5.479   5.648
 3954SOL    HW212762   5.632   5.341   5.705
 3955SOL     OW12763   4.716   6.629   0.159
 3955SOL    HW112764   4.808   6.600   0.133
 3955SOL    HW212765   4.699   6.609   0.255
 3956SOL     OW12766   0.779   1.909   3.658
 3956SOL    HW112767   0.775   1.877   3.563
 3956SOL    HW212768   0.695   1.957   3.681
 3957SOL     OW12769   4.233   0.049   3.416
 3957SOL    HW112770   4.254   6.976   3.428
 3957SOL    HW212771   4.317   0.101   3.407
 3958SOL     OW12772   5.314   0.495   6.295
 3958SOL    HW112773   5.293   0.424   6.362
 3958SOL    HW212774   5.410   0.522   6.304
 3959SOL     OW12775   3.391   6.650   0.935
 3959SOL    HW112776   3.293   6.670   0.929
 3959SOL    HW212777   3.440   6.703   0.866
 3960SOL     OW12778   5.256   1.954   5.938
 3960SOL    HW112779   5.339   1.997   5.974
 3960SOL    HW212780   5.259   1.855   5.954
 3961SOL     OW12781   5.460   2.742   2.033
 3961SOL    HW112782   5.543   2.796   2.042
 3961SOL    HW212783   5.455   2.677   2.109
 3962SOL     OW12784   1.896   5.377   6.847
 3962SOL    HW112785   1.882   5.280   6.864
 3962SOL    HW212786   1.859   5.402   6.758
 3963SOL     OW12787   4.627   4.548   3.630
 3963SOL    HW112788   4.606   4.534   3.534
 3963SOL    HW212789   4.557   4.606   3.671
 3964SOL     OW12790   4.508   4.988   4.967
 3964SOL    HW112791   4.424   5.021   4.925
 3964SOL    HW212792   4.493   4.971   5.064
 3965SOL     OW12793   3.896   3.449   6.282
 3965SOL    HW112794   3.843   3.407   6.208
 3965SOL    HW212795   3.929   3.539   6.252
 3966SOL     OW12796   6.493   5.402   0.374
 3966SOL    HW112797   6.455   5.494   0.362
 3966SOL    HW212798   6.419   5.335   0.379
 3967SOL     OW12799   1.459   4.398   2.641
 3967SOL    HW112800   1.421   4.480   2.684
 3967SOL    HW212801   1.417   4.316   2.680
 3968SOL     OW12802   7.013   0.372   0.927
 3968SOL    HW112803   6.992   0.433   0.850
 3968SOL    HW212804   6.951   0.392   1.003
 3969SOL     OW12805   0.965   3.513   2.984
 3969SOL    HW112806   0.934   3.538   2.893
 3969SOL    HW212807   1.000   3.419   2.984
 3970SOL     OW12808   5.026   5.050   3.901
 3970SOL    HW112809   5.086   4.970   3.906
 3970SOL    HW212810   5.006   5.083   3.993
 3971SOL     OW12811   2.621   4.610   2.424
 3971SOL    HW112812   2.656   4.663   2.501
 3971SOL    HW212813   2.521   4.616   2.422
 3972SOL     OW12814   1.409   5.163   1.030
 3972SOL    HW112815   1.416   5.258   1.061
 3972SOL    HW212816   1.342   5.114   1.086
 3973SOL     OW12817   2.107   4.262   5.919
 3973SOL    HW112818   2.177   4.279   5.988
 3973SOL    HW212819   2.151   4.244   5.830
 3974SOL     OW12820   1.688   0.064   5.423
 3974SOL    HW112821   1.707   6.991   5.404
 3974SOL    HW212822   1.594   0.073   5.456
 3975SOL     OW12823   5.307   0.726   6.582
 3975SOL    HW112824   5.391   0.748   6.532
 3975SOL    HW212825   5.318   0.638   6.629
 3976SOL     OW12826   1.566   4.922   1.475
 3976SOL    HW112827   1.619   4.899   1.393
 3976SOL    HW212828   1.623   4.909   1.556
 3977SOL     OW12829   3.201   4.167   5.169
 3977SOL    HW112830   3.107   4.183   5.201
 3977SOL    HW212831   3.199   4.134   5.075
 3978SOL     OW12832   5.497   7.004   4.622
 3978SOL    HW112833   5.484   6.948   4.704
 3978SOL    HW212834   5.556   0.058   4.643
 3979SOL     OW12835   2.370   6.028   1.628
 3979SOL    HW112836   2.431   6.067   1.559
 3979SOL    HW212837   2.282   6.006   1.586
 3980SOL     OW12838   6.959   4.506   6.850
 3980SOL    HW112839   6.973   4.411   6.826
 3980SOL    HW212840   0.012   4.539   6.906
 3981SOL     OW12841   1.995   1.645   6.057
 3981SOL    HW112842   2.087   1.675   6.084
 3981SOL    HW212843   1.991   1.545   6.060
 3982SOL     OW12844   1.541   0.880   4.544
 3982SOL    HW112845   1.621   0.868   4.603
 3982SOL    HW212846   1.571   0.882   4.448
 3983SOL     OW12847   4.177   5.412   4.238
 3983SOL    HW112848   4.250   5.444   4.177
 3983SOL    HW212849   4.195   5.317   4.265
 3984SOL     OW12850   1.712   1.016   2.664
 3984SOL    HW112851   1.688   1.025   2.761
 3984SOL    HW212852   1.745   0.924   2.646
 3985SOL     OW12853   3.211   4.618   6.725
 3985SOL    HW112854   3.301   4.631   6.683
 3985SOL    HW212855   3.222   4.571   6.813
 3986SOL     OW12856   0.151   2.163   3.008
 3986SOL    HW112857   0.072   2.196   2.955
 3986SOL    HW212858   0.234   2.210   2.978
 3987SOL     OW12859   2.491   5.981   4.452
 3987SOL    HW112860   2.560   6.048   4.427
 3987SOL    HW212861   2.402   6.010   4.418
 3988SOL     OW12862   3.326   2.957   6.470
 3988SOL    HW112863   3.416   2.999   6.487
 3988SOL    HW212864   3.312   2.883   6.535
 3989SOL     OW12865   6.043   1.460   0.252
 3989SOL    HW112866   6.048   1.374   0.304
 3989SOL    HW212867   6.042   1.438   0.154
 3990SOL     OW12868   5.729   1.869   3.620
 3990SOL    HW112869   5.782   1.785   3.607
 3990SOL    HW212870   5.644   1.863   3.568
 3991SOL     OW12871   6.137   1.731   2.161
 3991SOL    HW112872   6.160   1.779   2.245
 3991SOL    HW212873   6.151   1.792   2.083
 3992SOL     OW12874   4.024   2.500   6.680
 3992SOL    HW112875   3.991   2.594   6.677
 3992SOL    HW212876   3.978   2.446   6.609
 3993SOL     OW12877   0.638   2.446   3.344
 3993SOL    HW112878   0.737   2.452   3.343
 3993SOL    HW212879   0.609   2.365   3.395
 3994SOL     OW12880   0.719   2.816   6.179
 3994SOL    HW112881   0.780   2.741   6.202
 3994SOL    HW212882   0.636   2.810   6.236
 3995SOL     OW12883   2.155   3.575   3.881
 3995SOL    HW112884   2.182   3.608   3.790
 3995SOL    HW212885   2.136   3.477   3.876
 3996SOL     OW12886   0.419   1.384   4.503
 3996SOL    HW112887   0.423   1.289   4.532
 3996SOL    HW212888   0.342   1.430   4.549
 3997SOL     OW12889   4.858   2.986   2.497
 3997SOL    HW112890   4.911   3.058   2.542
 3997SOL    HW212891   4.814   3.024   2.415
 3998SOL     OW12892   4.819   1.228   2.846
 3998SOL    HW112893   4.730   1.247   2.805
 3998SOL    HW212894   4.853   1.141   2.812
 3999SOL     OW12895   5.284   3.427   3.527
 3999SOL    HW112896   5.284   3.480   3.612
 3999SOL    HW212897   5.353   3.355   3.532
 4000SOL     OW12898   2.994   5.142   2.515
 4000SOL    HW112899   3.089   5.141   2.486
 4000SOL    HW212900   2.981   5.209   2.588
 4001SOL     OW12901   1.586   1.986   3.836
 4001SOL    HW112902   1.602   2.076   3.875
 4001SOL    HW212903   1.653   1.969   3.763
 4002SOL     OW12904   2.668   3.070   0.321
 4002SOL    HW112905   2.677   2.983   0.273
 4002SOL    HW212906   2.734   3.075   0.396
 4003SOL     OW12907   2.527   6.448   5.271
 4003SOL    HW112908   2.464   6.509   5.224
 4003SOL    HW212909   2.571   6.388   5.204
 4004SOL     OW12910   6.368   2.134   4.002
 4004SOL    HW112911   6.339   2.166   3.912
 4004SOL    HW212912   6.360   2.209   4.068
 4005SOL     OW12913   5.255   5.230   0.783
 4005SOL    HW112914   5.280   5.134   0.770
 4005SOL    HW212915   5.160   5.244   0.756
 4006SOL     OW12916   4.246   5.146   2.166
 4006SOL    HW112917   4.286   5.178   2.252
 4006SOL    HW212918   4.294   5.064   2.136
 4007SOL     OW12919   0.605   3.158   1.741
 4007SOL    HW112920   0.514   3.182   1.707
 4007SOL    HW212921   0.661   3.127   1.665
 4008SOL     OW12922   3.334   1.776   4.095
 4008SOL    HW112923   3.236   1.784   4.079
 4008SOL    HW212924   3.380   1.751   4.009
 4009SOL     OW12925   5.194   2.732   0.340
 4009SOL    HW112926   5.160   2.696   0.253
 4009SOL    HW212927   5.164   2.672   0.415
 4010SOL     OW12928   1.814   3.568   1.118
 4010SOL    HW112929   1.778   3.491   1.172
 4010SOL    HW212930   1.841   3.642   1.180
 4011SOL     OW12931   1.085   0.666   1.452
 4011SOL    HW112932   1.081   0.761   1.420
 4011SOL    HW212933   1.132   0.663   1.541
 4012SOL     OW12934   4.353   4.956   2.031
 4012SOL    HW112935   4.423   4.980   1.964
 4012SOL    HW212936   4.353   4.857   2.045
 4013SOL     OW12937   2.762   0.511   1.139
 4013SOL    HW112938   2.700   0.587   1.117
 4013SOL    HW212939   2.791   0.467   1.054
 4014SOL     OW12940   4.252   6.100   3.076
 4014SOL    HW112941   4.221   6.044   3.153
 4014SOL    HW212942   4.303   6.178   3.110
 4015SOL     OW12943   4.445   5.786   6.332
 4015SOL    HW112944   4.460   5.726   6.411
 4015SOL    HW212945   4.442   5.881   6.363
 4016SOL     OW12946   1.669   5.672   6.599
 4016SOL    HW112947   1.592   5.610   6.587
 4016SOL    HW212948   1.691   5.679   6.697
 4017SOL     OW12949   7.003   6.606   6.734
 4017SOL    HW112950   0.028   6.693   6.735
 4017SOL    HW212951   6.918   6.614   6.787
 4018SOL     OW12952   5.966   6.615   2.239
 4018SOL    HW112953   5.872   6.647   2.248
 4018SOL    HW212954   6.012   6.621   2.328
 4019SOL     OW12955   5.676   3.970   2.401
 4019SOL    HW112956   5.743   4.041   2.423
 4019SOL    HW212957   5.636   3.989   2.312
 4020SOL     OW12958   6.144   2.495   5.478
 4020SOL    HW112959   6.053   2.484   5.517
 4020SOL    HW212960   6.143   2.469   5.382
 4021SOL     OW12961   2.997   3.465   5.366
 4021SOL    HW112962   3.004   3.373   5.327
 4021SOL    HW212963   2.933   3.519   5.312
 4022SOL     OW12964   3.983   0.517   6.860
 4022SOL    HW112965   4.045   0.564   6.924
 4022SOL    HW212966   3.967   0.576   6.781
 4023SOL     OW12967   6.714   1.413   4.213
 4023SOL    HW112968   6.662   1.396   4.129
 4023SOL    HW212969   6.765   1.331   4.238
 4024SOL     OW12970   2.589   5.295   4.180
 4024SOL    HW112971   2.587   5.198   4.205
 4024SOL    HW212972   2.683   5.329   4.183
 4025SOL     OW12973   0.845   6.198   4.739
 4025SOL    HW112974   0.918   6.224   4.801
 4025SOL    HW212975   0.836   6.099   4.738
 4026SOL     OW12976   6.529   6.250   4.000
 4026SOL    HW112977   6.590   6.253   4.079
 4026SOL    HW212978   6.434   6.263   4.030
 4027SOL     OW12979   2.929   3.748   2.077
 4027SOL    HW112980   2.897   3.778   2.167
 4027SOL    HW212981   2.966   3.827   2.028
 4028SOL     OW12982   2.011   2.451   3.185
 4028SOL    HW112983   2.109   2.444   3.167
 4028SOL    HW212984   1.992   2.537   3.233
 4029SOL     OW12985   2.897   4.344   6.280
 4029SOL    HW112986   2.937   4.404   6.349
 4029SOL    HW212987   2.801   4.328   6.300
 4030SOL     OW12988   1.424   1.410   6.733
 4030SOL    HW112989   1.480   1.379   6.657
 4030SOL    HW212990   1.464   1.379   6.820
 4031SOL     OW12991   4.606   6.030   3.282
 4031SOL    HW112992   4.614   5.980   3.368
 4031SOL    HW212993   4.612   5.967   3.205
 4032SOL     OW12994   6.295   6.948   3.165
 4032SOL    HW112995   6.391   6.934   3.189
 4032SOL    HW212996   6.278   0.022   3.148
 4033SOL     OW12997   2.884   3.326   2.671
 4033SOL    HW112998   2.873   3.306   2.574
 4033SOL    HW212999   2.845   3.416   2.692
 4034SOL     OW13000   6.814   1.548   5.094
 4034SOL    HW113001   6.723   1.537   5.054
 4034SOL    HW213002   6.849   1.639   5.074
 4035SOL     OW13003   0.289   2.690   0.916
 4035SOL    HW113004   0.317   2.620   0.982
 4035SOL    HW213005   0.203   2.663   0.873
 4036SOL     OW13006   5.088   6.881   2.424
 4036SOL    HW113007   5.010   6.899   2.364
 4036SOL    HW213008   5.058   6.886   2.519
 4037SOL     OW13009   1.819   2.139   0.397
 4037SOL    HW113010   1.841   2.203   0.324
 4037SOL    HW213011   1.792   2.051   0.357
 4038SOL     OW13012   4.481   4.539   2.028
 4038SOL    HW113013   4.410   4.535   2.098
 4038SOL    HW213014   4.518   4.448   2.013
 4039SOL     OW13015   4.793   4.957   1.779
 4039SOL    HW113016   4.863   4.906   1.830
 4039SOL    HW213017   4.773   4.910   1.694
 4040SOL     OW13018   3.514   0.194   5.892
 4040SOL    HW113019   3.512   0.096   5.914
 4040SOL    HW213020   3.422   0.232   5.902
 4041SOL     OW13021   2.235   5.687   1.305
 4041SOL    HW113022   2.254   5.683   1.207
 4041SOL    HW213023   2.321   5.685   1.356
 4042SOL     OW13024   6.348   4.944   2.823
 4042SOL    HW113025   6.379   4.949   2.728
 4042SOL    HW213026   6.412   4.995   2.881
 4043SOL     OW13027   5.196   2.349   4.076
 4043SOL    HW113028   5.247   2.394   4.149
 4043SOL    HW213029   5.193   2.250   4.094
 4044SOL     OW13030   5.132   0.492   4.319
 4044SOL    HW113031   5.059   0.527   4.260
 4044SOL    HW213032   5.190   0.568   4.348
 4045SOL     OW13033   3.019   4.598   6.103
 4045SOL    HW113034   2.975   4.575   6.016
 4045SOL    HW213035   2.950   4.637   6.165
 4046SOL     OW13036   0.733   1.364   3.737
 4046SOL    HW113037   0.647   1.356   3.686
 4046SOL    HW213038   0.785   1.279   3.726
 4047SOL     OW13039   2.502   2.655   0.938
 4047SOL    HW113040   2.452   2.585   0.887
 4047SOL    HW213041   2.563   2.705   0.876
 4048SOL     OW13042   5.490   1.504   2.308
 4048SOL    HW113043   5.578   1.458   2.324
 4048SOL    HW213044   5.449   1.527   2.396
 4049SOL     OW13045   6.359   6.028   0.095
 4049SOL    HW113046   6.416   6.080   0.031
 4049SOL    HW213047   6.263   6.035   0.067
 4050SOL     OW13048   2.244   6.688   0.673
 4050SOL    HW113049   2.199   6.761   0.725
 4050SOL    HW213050   2.254   6.607   0.731
 4051SOL     OW13051   3.488   3.166   0.141
 4051SOL    HW113052   3.477   3.104   0.219
 4051SOL    HW213053   3.402   3.216   0.126
 4052SOL     OW13054   0.045   0.510   1.848
 4052SOL    HW113055   7.006   0.432   1.852
 4052SOL    HW213056   0.137   0.481   1.875
 4053SOL     OW13057   3.233   5.213   3.901
 4053SOL    HW113058   3.233   5.115   3.886
 4053SOL    HW213059   3.177   5.235   3.981
 4054SOL     OW13060   1.087   3.011   1.546
 4054SOL    HW113061   1.044   2.945   1.485
 4054SOL    HW213062   1.185   2.991   1.554
 4055SOL     OW13063   3.946   3.307   5.715
 4055SOL    HW113064   3.960   3.346   5.807
 4055SOL    HW213065   3.860   3.342   5.677
 4056SOL     OW13066   4.068   3.183   0.236
 4056SOL    HW113067   4.021   3.243   0.171
 4056SOL    HW213068   4.117   3.111   0.186
 4057SOL     OW13069   5.031   2.346   1.044
 4057SOL    HW113070   5.009   2.368   1.139
 4057SOL    HW213071   5.124   2.379   1.023
 4058SOL     OW13072   1.438   1.097   4.682
 4058SOL    HW113073   1.341   1.075   4.669
 4058SOL    HW213074   1.492   1.046   4.615
 4059SOL     OW13075   1.589   2.781   3.316
 4059SOL    HW113076   1.562   2.688   3.343
 4059SOL    HW213077   1.508   2.833   3.289
 4060SOL     OW13078   4.543   5.534   5.309
 4060SOL    HW113079   4.546   5.509   5.406
 4060SOL    HW213080   4.574   5.628   5.298
 4061SOL     OW13081   3.375   4.916   1.937
 4061SOL    HW113082   3.401   5.012   1.936
 4061SOL    HW213083   3.458   4.859   1.943
 4062SOL     OW13084   3.391   1.241   2.903
 4062SOL    HW113085   3.397   1.143   2.885
 4062SOL    HW213086   3.375   1.289   2.816
 4063SOL     OW13087   5.173   0.141   5.268
 4063SOL    HW113088   5.246   0.075   5.287
 4063SOL    HW213089   5.085   0.098   5.287
 4064SOL     OW13090   1.691   6.504   3.560
 4064SOL    HW113091   1.739   6.582   3.521
 4064SOL    HW213092   1.619   6.475   3.498
 4065SOL     OW13093   0.888   6.830   0.456
 4065SOL    HW113094   0.897   6.926   0.430
 4065SOL    HW213095   0.960   6.806   0.521
 4066SOL     OW13096   5.104   5.371   2.998
 4066SOL    HW113097   5.188   5.420   2.974
 4066SOL    HW213098   5.066   5.328   2.916
 4067SOL     OW13099   6.338   3.530   2.308
 4067SOL    HW113100   6.379   3.598   2.369
 4067SOL    HW213101   6.386   3.443   2.319
 4068SOL     OW13102   3.534   0.538   4.465
 4068SOL    HW113103   3.472   0.612   4.491
 4068SOL    HW213104   3.591   0.514   4.543
 4069SOL     OW13105   3.914   4.028   6.581
 4069SOL    HW113106   3.925   4.065   6.488
 4069SOL    HW213107   3.821   3.993   6.592
 4070SOL     OW13108   1.142   3.283   3.022
 4070SOL    HW113109   1.071   3.213   3.012
 4070SOL    HW213110   1.222   3.258   2.968
 4071SOL     OW13111   1.290   0.582   4.947
 4071SOL    HW113112   1.360   0.561   4.878
 4071SOL    HW213113   1.328   0.570   5.038
 4072SOL     OW13114   0.518   6.127   4.264
 4072SOL    HW113115   0.599   6.186   4.263
 4072SOL    HW213116   0.532   6.052   4.329
 4073SOL     OW13117   2.283   5.639   5.946
 4073SOL    HW113118   2.244   5.694   5.873
 4073SOL    HW213119   2.347   5.572   5.907
 4074SOL     OW13120   1.025   2.437   2.406
 4074SOL    HW113121   1.031   2.396   2.497
 4074SOL    HW213122   0.931   2.464   2.387
 4075SOL     OW13123   4.439   2.413   2.346
 4075SOL    HW113124   4.470   2.498   2.304
 4075SOL    HW213125   4.394   2.434   2.433
 4076SOL     OW13126   2.268   3.246   6.066
 4076SOL    HW113127   2.329   3.197   6.004
 4076SOL    HW213128   2.193   3.287   6.014
 4077SOL     OW13129   3.277   6.464   6.968
 4077SOL    HW113130   3.274   6.406   6.887
 4077SOL    HW213131   3.279   6.560   6.939
 4078SOL     OW13132   6.896   5.297   1.729
 4078SOL    HW113133   6.844   5.255   1.804
 4078SOL    HW213134   6.833   5.342   1.665
 4079SOL     OW13135   0.787   1.811   3.381
 4079SOL    HW113136   0.886   1.811   3.373
 4079SOL    HW213137   0.754   1.905   3.385
 4080SOL     OW13138   2.747   3.498   1.063
 4080SOL    HW113139   2.678   3.470   0.997
 4080SOL    HW213140   2.826   3.436   1.057
 4081SOL     OW13141   1.331   1.837   3.782
 4081SOL    HW113142   1.359   1.746   3.753
 4081SOL    HW213143   1.411   1.888   3.813
 4082SOL     OW13144   1.456   2.020   0.724
 4082SOL    HW113145   1.448   2.043   0.821
 4082SOL    HW213146   1.529   2.074   0.683
 4083SOL     OW13147   5.981   3.875   3.224
 4083SOL    HW113148   6.074   3.860   3.189
 4083SOL    HW213149   5.915   3.860   3.150
 4084SOL     OW13150   5.009   2.555   2.998
 4084SOL    HW113151   4.928   2.605   3.030
 4084SOL    HW213152   5.032   2.585   2.906
 4085SOL     OW13153   2.636   5.782   0.701
 4085SOL    HW113154   2.555   5.779   0.644
 4085SOL    HW213155   2.713   5.820   0.649
 4086SOL     OW13156   0.013   5.088   0.877
 4086SOL    HW113157   6.958   5.113   0.820
 4086SOL    HW213158   0.048   5.170   0.923
 4087SOL     OW13159   2.494   1.153   2.834
 4087SOL    HW113160   2.440   1.069   2.830
 4087SOL    HW213161   2.523   1.179   2.742
 4088SOL     OW13162   6.587   1.571   6.088
 4088SOL    HW113163   6.571   1.472   6.082
 4088SOL    HW213164   6.562   1.614   6.001
 4089SOL     OW13165   6.313   5.373   4.734
 4089SOL    HW113166   6.353   5.441   4.796
 4089SOL    HW213167   6.248   5.418   4.673
 4090SOL     OW13168   2.173   5.747   5.713
 4090SOL    HW113169   2.131   5.664   5.675
 4090SOL    HW213170   2.201   5.807   5.638
 4091SOL     OW13171   0.578   6.069   7.016
 4091SOL    HW113172   0.531   6.118   0.066
 4091SOL    HW213173   0.563   5.971   0.004
 4092SOL     OW13174   5.965   2.567   3.923
 4092SOL    HW113175   5.933   2.486   3.875
 4092SOL    HW213176   5.897   2.596   3.990
 4093SOL     OW13177   5.457   6.679   1.040
 4093SOL    HW113178   5.375   6.623   1.043
 4093SOL    HW213179   5.496   6.678   0.948
 4094SOL     OW13180   1.231   4.948   6.496
 4094SOL    HW113181   1.203   4.868   6.549
 4094SOL    HW213182   1.208   4.934   6.400
 4095SOL     OW13183   0.634   3.515   0.384
 4095SOL    HW113184   0.609   3.463   0.466
 4095SOL    HW213185   0.556   3.571   0.356
 4096SOL     OW13186   3.422   0.953   6.082
 4096SOL    HW113187   3.503   1.012   6.084
 4096SOL    HW213188   3.423   0.892   6.160
 4097SOL     OW13189   5.189   4.655   5.688
 4097SOL    HW113190   5.253   4.619   5.620
 4097SOL    HW213191   5.096   4.626   5.664
 4098SOL     OW13192   0.940   3.132   0.805
 4098SOL    HW113193   0.997   3.155   0.884
 4098SOL    HW213194   0.843   3.137   0.833
 4099SOL     OW13195   3.272   4.915   0.824
 4099SOL    HW113196   3.186   4.872   0.854
 4099SOL    HW213197   3.315   4.858   0.754
 4100SOL     OW13198   0.967   0.008   4.379
 4100SOL    HW113199   1.061   7.012   4.351
 4100SOL    HW213200   0.928   0.077   4.319
 4101SOL     OW13201   0.883   1.352   6.783
 4101SOL    HW113202   0.943   1.294   6.727
 4101SOL    HW213203   0.843   1.297   6.856
 4102SOL     OW13204   1.924   0.172   0.695
 4102SOL    HW113205   1.919   0.080   0.657
 4102SOL    HW213206   1.910   0.239   0.623
 4103SOL     OW13207   0.263   0.129   1.965
 4103SOL    HW113208   0.349   0.094   1.928
 4103SOL    HW213209   0.187   0.081   1.923
 4104SOL     OW13210   0.408   4.850   3.571
 4104SOL    HW113211   0.359   4.846   3.658
 4104SOL    HW213212   0.344   4.870   3.498
 4105SOL     OW13213   6.284   0.458   2.489
 4105SOL    HW113214   6.344   0.512   2.548
 4105SOL    HW213215   6.189   0.486   2.505
 4106SOL     OW13216   0.794   2.783   3.614
 4106SOL    HW113217   0.742   2.799   3.698
 4106SOL    HW213218   0.824   2.687   3.611
 4107SOL     OW13219   0.803   6.232   0.724
 4107SOL    HW113220   0.855   6.170   0.783
 4107SOL    HW213221   0.718   6.258   0.770
 4108SOL     OW13222   6.194   4.982   4.629
 4108SOL    HW113223   6.172   4.893   4.589
 4108SOL    HW213224   6.113   5.020   4.673
 4109SOL     OW13225   5.731   6.793   4.846
 4109SOL    HW113226   5.792   6.870   4.865
 4109SOL    HW213227   5.771   6.736   4.774
 4110SOL     OW13228   4.170   3.185   6.134
 4110SOL    HW113229   4.201   3.245   6.061
 4110SOL    HW213230   4.233   3.109   6.144
 4111SOL     OW13231   6.205   4.833   6.340
 4111SOL    HW113232   6.137   4.904   6.324
 4111SOL    HW213233   6.219   4.781   6.256
 4112SOL     OW13234   4.576   6.385   4.098
 4112SOL    HW113235   4.551   6.470   4.051
 4112SOL    HW213236   4.632   6.328   4.037
 4113SOL     OW13237   5.354   6.175   4.991
 4113SOL    HW113238   5.323   6.150   4.900
 4113SOL    HW213239   5.383   6.270   4.992
 4114SOL     OW13240   5.999   1.731   3.094
 4114SOL    HW113241   6.072   1.667   3.118
 4114SOL    HW213242   5.964   1.774   3.177
 4115SOL     OW13243   3.039   5.135   3.069
 4115SOL    HW113244   3.107   5.063   3.053
 4115SOL    HW213245   2.947   5.098   3.055
 4116SOL     OW13246   4.138   1.822   3.310
 4116SOL    HW113247   4.171   1.915   3.328
 4116SOL    HW213248   4.173   1.760   3.380
 4117SOL     OW13249   0.932   3.110   2.955
 4117SOL    HW113250   0.951   3.074   2.864
 4117SOL    HW213251   0.839   3.086   2.982
 4118SOL     OW13252   5.326   6.777   6.863
 4118SOL    HW113253   5.310   6.791   6.766
 4118SOL    HW213254   5.394   6.843   6.896
 4119SOL     OW13255   3.102   1.575   3.397
 4119SOL    HW113256   3.046   1.627   3.462
 4119SOL    HW213257   3.196   1.569   3.433
 4120SOL     OW13258   3.219   1.364   5.734
 4120SOL    HW113259   3.129   1.348   5.775
 4120SOL    HW213260   3.210   1.368   5.634
 4121SOL     OW13261   6.659   0.160   4.014
 4121SOL    HW113262   6.629   0.177   4.107
 4121SOL    HW213263   6.609   0.082   3.976
 4122SOL     OW13264   1.464   6.437   4.719
 4122SOL    HW113265   1.463   6.496   4.800
 4122SOL    HW213266   1.553   6.393   4.710
 4123SOL     OW13267   4.297   4.818   5.101
 4123SOL    HW113268   4.294   4.898   5.160
 4123SOL    HW213269   4.234   4.831   5.024
 4124SOL     OW13270   6.694   0.227   0.626
 4124SOL    HW113271   6.744   0.300   0.580
 4124SOL    HW213272   6.620   0.195   0.567
 4125SOL     OW13273   4.331   2.320   3.051
 4125SOL    HW113274   4.314   2.242   2.990
 4125SOL    HW213275   4.300   2.404   3.006
 4126SOL     OW13276   1.678   3.502   3.239
 4126SOL    HW113277   1.689   3.520   3.337
 4126SOL    HW213278   1.589   3.458   3.223
 4127SOL     OW13279   5.273   3.549   5.077
 4127SOL    HW113280   5.225   3.594   5.002
 4127SOL    HW213281   5.366   3.527   5.049
 4128SOL     OW13282   0.644   3.551   1.529
 4128SOL    HW113283   0.625   3.509   1.440
 4128SOL    HW213284   0.729   3.603   1.524
 4129SOL     OW13285   3.143   1.095   0.249
 4129SOL    HW113286   3.156   1.183   0.296
 4129SOL    HW213287   3.047   1.086   0.221
 4130SOL     OW13288   6.103   2.218   0.332
 4130SOL    HW113289   6.086   2.144   0.397
 4130SOL    HW213290   6.148   2.181   0.250
 4131SOL     OW13291   0.327   1.682   3.222
 4131SOL    HW113292   0.316   1.674   3.321
 4131SOL    HW213293   0.298   1.773   3.193
 4132SOL     OW13294   5.153   3.901   3.700
 4132SOL    HW113295   5.235   3.912   3.644
 4132SOL    HW213296   5.168   3.829   3.767
 4133SOL     OW13297   3.590   5.869   1.394
 4133SOL    HW113298   3.497   5.833   1.395
 4133SOL    HW213299   3.652   5.803   1.436
 4134SOL     OW13300   1.768   3.906   0.997
 4134SOL    HW113301   1.801   3.886   1.089
 4134SOL    HW213302   1.726   3.824   0.958
 4135SOL     OW13303   0.553   2.714   1.724
 4135SOL    HW113304   0.557   2.617   1.702
 4135SOL    HW213305   0.643   2.756   1.710
 4136SOL     OW13306   1.277   3.914   3.282
 4136SOL    HW113307   1.347   3.984   3.266
 4136SOL    HW213308   1.320   3.825   3.294
 4137SOL     OW13309   1.739   3.236   0.855
 4137SOL    HW113310   1.827   3.282   0.844
 4137SOL    HW213311   1.745   3.171   0.931
 4138SOL     OW13312   3.592   5.289   2.557
 4138SOL    HW113313   3.648   5.281   2.475
 4138SOL    HW213314   3.589   5.385   2.586
 4139SOL     OW13315   1.619   1.181   4.865
 4139SOL    HW113316   1.543   1.163   4.802
 4139SOL    HW213317   1.627   1.280   4.879
 4140SOL     OW13318   3.523   1.185   4.747
 4140SOL    HW113319   3.520   1.238   4.662
 4140SOL    HW213320   3.451   1.217   4.809
 4141SOL     OW13321   5.399   6.930   1.186
 4141SOL    HW113322   5.442   6.841   1.169
 4141SOL    HW213323   5.391   6.980   1.100
 4142SOL     OW13324   6.749   4.281   1.091
 4142SOL    HW113325   6.828   4.290   1.030
 4142SOL    HW213326   6.678   4.228   1.046
 4143SOL     OW13327   6.096   2.815   0.875
 4143SOL    HW113328   6.099   2.796   0.973
 4143SOL    HW213329   6.021   2.878   0.855
 4144SOL     OW13330   5.009   1.705   0.098
 4144SOL    HW113331   5.103   1.736   0.114
 4144SOL    HW213332   5.000   1.610   0.126
 4145SOL     OW13333   0.826   6.404   1.097
 4145SOL    HW113334   0.905   6.466   1.094
 4145SOL    HW213335   0.751   6.447   1.147
 4146SOL     OW13336   6.449   0.378   3.297
 4146SOL    HW113337   6.458   0.282   3.323
 4146SOL    HW213338   6.454   0.435   3.379
 4147SOL     OW13339   4.391   4.727   6.002
 4147SOL    HW113340   4.460   4.656   6.014
 4147SOL    HW213341   4.375   4.742   5.904
 4148SOL     OW13342   2.720   0.144   5.009
 4148SOL    HW113343   2.757   0.079   5.076
 4148SOL    HW213344   2.719   0.103   4.918
 4149SOL     OW13345   0.238   4.495   1.208
 4149SOL    HW113346   0.330   4.457   1.208
 4149SOL    HW213347   0.184   4.451   1.279
 4150SOL     OW13348   0.480   0.443   5.357
 4150SOL    HW113349   0.579   0.442   5.370
 4150SOL    HW213350   0.450   0.354   5.321
 4151SOL     OW13351   2.972   6.140   6.059
 4151SOL    HW113352   2.990   6.184   5.971
 4151SOL    HW213353   2.960   6.211   6.129
 4152SOL     OW13354   4.021   5.973   0.968
 4152SOL    HW113355   4.040   6.071   0.978
 4152SOL    HW213356   4.103   5.921   0.990
 4153SOL     OW13357   5.735   5.431   1.775
 4153SOL    HW113358   5.675   5.445   1.854
 4153SOL    HW213359   5.679   5.417   1.694
 4154SOL     OW13360   6.784   5.573   4.569
 4154SOL    HW113361   6.839   5.541   4.492
 4154SOL    HW213362   6.776   5.672   4.566
 4155SOL     OW13363   0.223   0.872   1.035
 4155SOL    HW113364   0.191   0.951   1.087
 4155SOL    HW213365   0.186   0.875   0.942
 4156SOL     OW13366   5.915   5.345   5.463
 4156SOL    HW113367   5.857   5.404   5.520
 4156SOL    HW213368   5.960   5.400   5.393
 4157SOL     OW13369   5.382   5.924   3.780
 4157SOL    HW113370   5.326   5.993   3.735
 4157SOL    HW213371   5.352   5.833   3.752
 4158SOL     OW13372   0.395   3.211   2.298
 4158SOL    HW113373   0.400   3.285   2.365
 4158SOL    HW213374   0.301   3.206   2.262
 4159SOL     OW13375   1.597   3.083   3.046
 4159SOL    HW113376   1.628   2.988   3.043
 4159SOL    HW213377   1.675   3.144   3.032
 4160SOL     OW13378   5.490   0.009   6.866
 4160SOL    HW113379   5.522   0.072   6.795
 4160SOL    HW213380   5.499   0.054   6.955
 4161SOL     OW13381   1.454   2.006   0.987
 4161SOL    HW113382   1.398   1.953   1.051
 4161SOL    HW213383   1.518   2.063   1.039
 4162SOL     OW13384   5.962   5.987   0.794
 4162SOL    HW113385   6.036   6.039   0.836
 4162SOL    HW213386   5.940   6.026   0.704
 4163SOL     OW13387   5.586   0.912   3.726
 4163SOL    HW113388   5.635   0.844   3.671
 4163SOL    HW213389   5.508   0.869   3.771
 4164SOL     OW13390   1.379   0.147   4.776
 4164SOL    HW113391   1.393   0.053   4.746
 4164SOL    HW213392   1.455   0.204   4.744
 4165SOL     OW13393   3.968   0.675   5.392
 4165SOL    HW113394   3.975   0.592   5.337
 4165SOL    HW213395   3.911   0.658   5.472
 4166SOL     OW13396   5.198   1.281   0.964
 4166SOL    HW113397   5.153   1.232   1.039
 4166SOL    HW213398   5.258   1.219   0.914
 4167SOL     OW13399   2.824   4.056   6.437
 4167SOL    HW113400   2.795   4.042   6.532
 4167SOL    HW213401   2.923   4.072   6.435
 4168SOL     OW13402   0.226   3.842   1.063
 4168SOL    HW113403   0.128   3.857   1.049
 4168SOL    HW213404   0.276   3.928   1.049
 4169SOL     OW13405   6.337   5.181   4.511
 4169SOL    HW113406   6.285   5.113   4.563
 4169SOL    HW213407   6.377   5.248   4.573
 4170SOL     OW13408   4.745   3.091   5.641
 4170SOL    HW113409   4.808   3.032   5.591
 4170SOL    HW213410   4.656   3.046   5.650
 4171SOL     OW13411   6.178   5.621   0.775
 4171SOL    HW113412   6.146   5.698   0.829
 4171SOL    HW213413   6.155   5.636   0.679
 4172SOL     OW13414   1.898   1.632   6.762
 4172SOL    HW113415   1.897   1.546   6.811
 4172SOL    HW213416   1.804   1.668   6.755
 4173SOL     OW13417   5.450   3.956   4.621
 4173SOL    HW113418   5.518   3.981   4.552
 4173SOL    HW213419   5.489   3.971   4.712
 4174SOL     OW13420   4.738   1.370   2.464
 4174SOL    HW113421   4.836   1.348   2.466
 4174SOL    HW213422   4.686   1.286   2.478
 4175SOL     OW13423   1.832   4.697   4.134
 4175SOL    HW113424   1.799   4.665   4.045
 4175SOL    HW213425   1.789   4.785   4.155
 4176SOL     OW13426   3.992   6.489   1.340
 4176SOL    HW113427   4.022   6.548   1.266
 4176SOL    HW213428   3.922   6.426   1.307
 4177SOL     OW13429   5.832   4.981   5.688
 4177SOL    HW113430   5.810   5.041   5.611
 4177SOL    HW213431   5.871   4.896   5.654
 4178SOL     OW13432   4.189   6.439   4.362
 4178SOL    HW113433   4.245   6.364   4.328
 4178SOL    HW213434   4.222   6.526   4.324
 4179SOL     OW13435   5.245   3.680   3.113
 4179SOL    HW113436   5.258   3.583   3.134
 4179SOL    HW213437   5.191   3.689   3.029
 4180SOL     OW13438   4.368   3.126   0.823
 4180SOL    HW113439   4.328   3.167   0.740
 4180SOL    HW213440   4.468   3.128   0.816
 4181SOL     OW13441   4.076   0.909   6.843
 4181SOL    HW113442   4.144   0.867   6.784
 4181SOL    HW213443   4.061   0.852   6.924
 4182SOL     OW13444   0.520   5.716   3.438
 4182SOL    HW113445   0.571   5.793   3.399
 4182SOL    HW213446   0.484   5.659   3.364
 4183SOL     OW13447   2.597   1.694   0.016
 4183SOL    HW113448   2.590   1.628   0.091
 4183SOL    HW213449   2.643   1.651   6.962
 4184SOL     OW13450   3.169   6.513   2.517
 4184SOL    HW113451   3.132   6.468   2.598
 4184SOL    HW213452   3.104   6.506   2.442
 4185SOL     OW13453   0.911   4.525   2.766
 4185SOL    HW113454   0.913   4.445   2.826
 4185SOL    HW213455   0.990   4.522   2.705
 4186SOL     OW13456   2.603   4.993   6.292
 4186SOL    HW113457   2.513   4.984   6.333
 4186SOL    HW213458   2.667   4.931   6.336
 4187SOL     OW13459   3.664   3.483   5.773
 4187SOL    HW113460   3.648   3.579   5.796
 4187SOL    HW213461   3.620   3.460   5.687
 4188SOL     OW13462   5.048   0.962   5.393
 4188SOL    HW113463   5.134   1.007   5.419
 4188SOL    HW213464   5.057   0.924   5.301
 4189SOL     OW13465   2.667   5.036   4.617
 4189SOL    HW113466   2.761   5.057   4.642
 4189SOL    HW213467   2.652   4.937   4.624
 4190SOL     OW13468   0.739   0.818   1.045
 4190SOL    HW113469   0.754   0.846   0.950
 4190SOL    HW213470   0.673   0.881   1.088
 4191SOL     OW13471   4.867   4.480   3.719
 4191SOL    HW113472   4.772   4.498   3.692
 4191SOL    HW213473   4.870   4.446   3.813
 4192SOL     OW13474   0.944   1.690   3.705
 4192SOL    HW113475   1.009   1.669   3.632
 4192SOL    HW213476   0.885   1.765   3.676
 4193SOL     OW13477   6.754   0.725   0.701
 4193SOL    HW113478   6.815   0.769   0.766
 4193SOL    HW213479   6.707   0.649   0.747
 4194SOL     OW13480   5.249   0.148   4.948
 4194SOL    HW113481   5.200   0.218   4.999
 4194SOL    HW213482   5.193   0.065   4.942
 4195SOL     OW13483   3.834   6.060   1.289
 4195SOL    HW113484   3.843   5.969   1.329
 4195SOL    HW213485   3.838   6.129   1.362
 4196SOL     OW13486   6.195   2.753   2.703
 4196SOL    HW113487   6.110   2.743   2.650
 4196SOL    HW213488   6.226   2.663   2.732
 4197SOL     OW13489   4.943   5.532   5.967
 4197SOL    HW113490   4.944   5.456   5.902
 4197SOL    HW213491   4.893   5.504   6.049
 4198SOL     OW13492   6.386   2.196   0.455
 4198SOL    HW113493   6.359   2.292   0.466
 4198SOL    HW213494   6.326   2.138   0.510
 4199SOL     OW13495   1.977   2.191   6.143
 4199SOL    HW113496   2.057   2.132   6.157
 4199SOL    HW213497   1.935   2.169   6.055
 4200SOL     OW13498   3.213   0.522   6.157
 4200SOL    HW113499   3.172   0.433   6.136
 4200SOL    HW213500   3.281   0.545   6.087
 4201SOL     OW13501   6.014   6.522   3.637
 4201SOL    HW113502   5.966   6.522   3.549
 4201SOL    HW213503   6.020   6.615   3.673
 4202SOL     OW13504   3.630   5.407   5.749
 4202SOL    HW113505   3.631   5.404   5.649
 4202SOL    HW213506   3.644   5.502   5.779
 4203SOL     OW13507   3.639   4.333   6.666
 4203SOL    HW113508   3.738   4.339   6.659
 4203SOL    HW213509   3.610   4.359   6.759
 4204SOL     OW13510   4.076   3.708   3.533
 4204SOL    HW113511   4.107   3.617   3.506
 4204SOL    HW213512   4.038   3.755   3.454
 4205SOL     OW13513   4.172   6.251   3.452
 4205SOL    HW113514   4.266   6.222   3.432
 4205SOL    HW213515   4.155   6.342   3.414
 4206SOL     OW13516   6.580   0.499   5.526
 4206SOL    HW113517   6.562   0.595   5.545
 4206SOL    HW213518   6.638   0.491   5.445
 4207SOL     OW13519   1.809   1.709   1.700
 4207SOL    HW113520   1.823   1.615   1.730
 4207SOL    HW213521   1.807   1.713   1.600
 4208SOL     OW13522   0.059   3.731   5.310
 4208SOL    HW113523   6.991   3.704   5.278
 4208SOL    HW213524   0.075   3.693   5.401
 4209SOL     OW13525   6.701   0.331   3.636
 4209SOL    HW113526   6.754   0.249   3.615
 4209SOL    HW213527   6.667   0.326   3.729
 4210SOL     OW13528   4.017   3.153   2.123
 4210SOL    HW113529   4.064   3.212   2.189
 4210SOL    HW213530   3.985   3.070   2.169
 4211SOL     OW13531   4.211   6.875   6.230
 4211SOL    HW113532   4.279   6.817   6.185
 4211SOL    HW213533   4.128   6.880   6.174
 4212SOL     OW13534   6.322   1.378   2.562
 4212SOL    HW113535   6.421   1.387   2.555
 4212SOL    HW213536   6.300   1.318   2.639
 4213SOL     OW13537   2.192   0.381   1.645
 4213SOL    HW113538   2.146   0.296   1.669
 4213SOL    HW213539   2.228   0.376   1.552
 4214SOL     OW13540   1.133   5.174   5.402
 4214SOL    HW113541   1.069   5.097   5.398
 4214SOL    HW213542   1.134   5.212   5.495
 4215SOL     OW13543   4.946   0.323   5.750
 4215SOL    HW113544   4.914   0.416   5.767
 4215SOL    HW213545   4.886   0.279   5.683
 4216SOL     OW13546   1.545   1.060   2.932
 4216SOL    HW113547   1.466   1.120   2.922
 4216SOL    HW213548   1.629   1.112   2.913
 4217SOL     OW13549   1.153   0.674   2.399
 4217SOL    HW113550   1.223   0.628   2.454
 4217SOL    HW213551   1.187   0.686   2.305
 4218SOL     OW13552   3.922   1.204   1.917
 4218SOL    HW113553   3.839   1.149   1.903
 4218SOL    HW213554   3.973   1.169   1.995
 4219SOL     OW13555   3.860   6.094   3.734
 4219SOL    HW113556   3.801   6.081   3.814
 4219SOL    HW213557   3.856   6.012   3.676
 4220SOL     OW13558   6.280   3.364   3.329
 4220SOL    HW113559   6.280   3.399   3.422
 4220SOL    HW213560   6.196   3.391   3.282
 4221SOL     OW13561   6.017   5.023   6.308
 4221SOL    HW113562   5.972   4.994   6.223
 4221SOL    HW213563   6.032   5.122   6.305
 4222SOL     OW13564   0.077   2.293   2.391
 4222SOL    HW113565   0.102   2.272   2.296
 4222SOL    HW213566   0.092   2.212   2.448
 4223SOL     OW13567   3.516   3.337   6.760
 4223SOL    HW113568   3.586   3.408   6.757
 4223SOL    HW213569   3.545   3.264   6.821
 4224SOL     OW13570   4.569   4.415   4.117
 4224SOL    HW113571   4.607   4.335   4.162
 4224SOL    HW213572   4.597   4.415   4.021
 4225SOL     OW13573   3.090   1.768   5.775
 4225SOL    HW113574   3.083   1.808   5.683
 4225SOL    HW213575   2.998   1.749   5.809
 4226SOL     OW13576   1.708   0.532   2.110
 4226SOL    HW113577   1.679   0.567   2.200
 4226SOL    HW213578   1.631   0.484   2.067
 4227SOL     OW13579   4.144   4.939   1.450
 4227SOL    HW113580   4.186   4.940   1.540
 4227SOL    HW213581   4.175   4.858   1.400
 4228SOL     OW13582   1.106   4.919   5.073
 4228SOL    HW113583   1.014   4.956   5.061
 4228SOL    HW213584   1.101   4.829   5.116
 4229SOL     OW13585   5.034   6.180   6.026
 4229SOL    HW113586   4.955   6.223   5.984
 4229SOL    HW213587   5.035   6.200   6.124
 4230SOL     OW13588   0.941   6.028   2.361
 4230SOL    HW113589   0.895   5.988   2.440
 4230SOL    HW213590   0.878   6.091   2.315
 4231SOL     OW13591   5.649   0.091   5.356
 4231SOL    HW113592   5.748   0.099   5.371
 4231SOL    HW213593   5.604   0.072   5.443
 4232SOL     OW13594   6.986   4.823   3.079
 4232SOL    HW113595   6.952   4.770   3.157
 4232SOL    HW213596   6.909   4.851   3.021
 4233SOL     OW13597   0.369   0.229   5.751
 4233SOL    HW113598   0.387   0.155   5.816
 4233SOL    HW213599   0.317   0.193   5.673
 4234SOL     OW13600   2.348   6.305   4.676
 4234SOL    HW113601   2.248   6.297   4.678
 4234SOL    HW213602   2.389   6.215   4.688
 4235SOL     OW13603   5.441   3.861   5.858
 4235SOL    HW113604   5.501   3.783   5.844
 4235SOL    HW213605   5.486   3.928   5.917
 4236SOL     OW13606   6.723   3.720   2.465
 4236SOL    HW113607   6.776   3.648   2.511
 4236SOL    HW213608   6.784   3.780   2.414
 4237SOL     OW13609   5.426   6.241   2.779
 4237SOL    HW113610   5.362   6.219   2.705
 4237SOL    HW213611   5.416   6.175   2.853
 4238SOL     OW13612   2.794   6.171   2.950
 4238SOL    HW113613   2.783   6.120   3.035
 4238SOL    HW213614   2.711   6.163   2.896
 4239SOL     OW13615   6.321   2.122   2.638
 4239SOL    HW113616   6.266   2.120   2.554
 4239SOL    HW213617   6.273   2.174   2.708
 4240SOL     OW13618   2.555   5.890   0.231
 4240SOL    HW113619   2.549   5.857   0.325
 4240SOL    HW213620   2.565   5.812   0.169
 4241SOL     OW13621   6.224   0.869   0.239
 4241SOL    HW113622   6.273   0.847   0.156
 4241SOL    HW213623   6.143   0.811   0.247
 4242SOL     OW13624   3.268   1.319   3.926
 4242SOL    HW113625   3.263   1.282   3.833
 4242SOL    HW213626   3.352   1.374   3.935
 4243SOL     OW13627   6.476   2.765   3.305
 4243SOL    HW113628   6.557   2.707   3.310
 4243SOL    HW213629   6.487   2.843   3.367
 4244SOL     OW13630   4.428   4.249   1.539
 4244SOL    HW113631   4.333   4.218   1.526
 4244SOL    HW213632   4.453   4.239   1.635
 4245SOL     OW13633   6.990   1.333   6.620
 4245SOL    HW113634   7.000   1.373   6.529
 4245SOL    HW213635   0.056   1.332   6.666
 4246SOL     OW13636   6.857   4.191   3.858
 4246SOL    HW113637   6.785   4.139   3.813
 4246SOL    HW213638   6.944   4.143   3.848
 4247SOL     OW13639   2.911   5.395   3.533
 4247SOL    HW113640   2.936   5.359   3.443
 4247SOL    HW213641   2.910   5.320   3.599
 4248SOL     OW13642   3.301   1.876   2.844
 4248SOL    HW113643   3.319   1.966   2.805
 4248SOL    HW213644   3.302   1.882   2.944
 4249SOL     OW13645   5.446   2.365   3.365
 4249SOL    HW113646   5.374   2.297   3.381
 4249SOL    HW213647   5.531   2.319   3.340
 4250SOL     OW13648   6.177   4.365   2.939
 4250SOL    HW113649   6.205   4.375   2.844
 4250SOL    HW213650   6.218   4.438   2.995
 4251SOL     OW13651   5.278   4.545   1.905
 4251SOL    HW113652   5.220   4.514   1.981
 4251SOL    HW213653   5.278   4.476   1.833
 4252SOL     OW13654   5.287   6.683   6.451
 4252SOL    HW113655   5.202   6.641   6.418
 4252SOL    HW213656   5.334   6.619   6.512
 4253SOL     OW13657   3.431   6.995   1.222
 4253SOL    HW113658   3.477   7.016   1.136
 4253SOL    HW213659   3.468   6.910   1.260
 4254SOL     OW13660   0.827   3.346   1.754
 4254SOL    HW113661   0.734   3.312   1.745
 4254SOL    HW213662   0.890   3.268   1.760
 4255SOL     OW13663   0.058   3.943   3.840
 4255SOL    HW113664   0.063   3.943   3.940
 4255SOL    HW213665   0.095   4.029   3.804
 4256SOL     OW13666   1.841   6.553   0.742
 4256SOL    HW113667   1.831   6.595   0.652
 4256SOL    HW213668   1.752   6.521   0.773
 4257SOL     OW13669   2.628   0.322   4.055
 4257SOL    HW113670   2.710   0.318   4.111
 4257SOL    HW213671   2.571   0.242   4.074
 4258SOL     OW13672   4.766   5.982   1.068
 4258SOL    HW113673   4.724   5.941   0.987
 4258SOL    HW213674   4.857   5.942   1.082
 4259SOL     OW13675   2.587   0.644   0.937
 4259SOL    HW113676   2.545   0.667   0.849
 4259SOL    HW213677   2.684   0.624   0.924
 4260SOL     OW13678   5.482   0.256   1.110
 4260SOL    HW113679   5.447   0.217   1.025
 4260SOL    HW213680   5.500   0.183   1.176
 4261SOL     OW13681   1.680   0.076   2.788
 4261SOL    HW113682   1.773   0.047   2.762
 4261SOL    HW213683   1.623   0.081   2.706
 4262SOL     OW13684   0.584   4.970   6.271
 4262SOL    HW113685   0.640   5.042   6.230
 4262SOL    HW213686   0.579   4.985   6.370
 4263SOL     OW13687   3.201   6.639   2.960
 4263SOL    HW113688   3.269   6.605   3.025
 4263SOL    HW213689   3.154   6.717   2.999
 4264SOL     OW13690   0.319   2.468   3.101
 4264SOL    HW113691   0.278   2.434   3.186
 4264SOL    HW213692   0.412   2.431   3.092
 4265SOL     OW13693   4.570   1.515   1.426
 4265SOL    HW113694   4.556   1.522   1.525
 4265SOL    HW213695   4.616   1.429   1.405
 4266SOL     OW13696   1.801   5.401   0.429
 4266SOL    HW113697   1.714   5.351   0.420
 4266SOL    HW213698   1.831   5.432   0.339
 4267SOL     OW13699   1.699   2.722   4.223
 4267SOL    HW113700   1.619   2.751   4.172
 4267SOL    HW213701   1.672   2.698   4.316
 4268SOL     OW13702   1.539   6.054   0.018
 4268SOL    HW113703   1.458   6.113   0.024
 4268SOL    HW213704   1.532   5.982   0.087
 4269SOL     OW13705   2.945   0.600   2.340
 4269SOL    HW113706   2.866   0.655   2.366
 4269SOL    HW213707   3.005   0.588   2.419
 4270SOL     OW13708   4.109   3.474   3.166
 4270SOL    HW113709   4.126   3.500   3.261
 4270SOL    HW213710   4.025   3.517   3.134
 4271SOL     OW13711   6.257   1.129   6.935
 4271SOL    HW113712   6.192   1.128   6.859
 4271SOL    HW213713   6.253   1.217   6.982
 4272SOL     OW13714   6.356   2.627   4.424
 4272SOL    HW113715   6.417   2.688   4.474
 4272SOL    HW213716   6.262   2.644   4.452
 4273SOL     OW13717   4.740   6.347   4.606
 4273SOL    HW113718   4.769   6.342   4.701
 4273SOL    HW213719   4.758   6.439   4.570
 4274SOL     OW13720   0.652   6.193   1.603
 4274SOL    HW113721   0.749   6.204   1.584
 4274SOL    HW213722   0.637   6.190   1.702
 4275SOL     OW13723   6.948   1.574   4.647
 4275SOL    HW113724   6.864   1.569   4.593
 4275SOL    HW213725   6.952   1.496   4.710
 4276SOL     OW13726   1.507   4.351   3.551
 4276SOL    HW113727   1.562   4.307   3.480
 4276SOL    HW213728   1.567   4.403   3.612
 4277SOL     OW13729   6.366   4.676   3.785
 4277SOL    HW113730   6.267   4.691   3.784
 4277SOL    HW213731   6.387   4.594   3.731
 4278SOL     OW13732   6.848   0.144   4.335
 4278SOL    HW113733   6.909   0.113   4.409
 4278SOL    HW213734   6.903   0.167   4.254
 4279SOL     OW13735   3.090   0.703   3.862
 4279SOL    HW113736   3.062   0.774   3.798
 4279SOL    HW213737   3.012   0.675   3.917
 4280SOL     OW13738   4.286   0.428   5.501
 4280SOL    HW113739   4.248   0.457   5.413
 4280SOL    HW213740   4.385   0.419   5.493
 4281SOL     OW13741   0.438   4.438   3.714
 4281SOL    HW113742   0.435   4.392   3.626
 4281SOL    HW213743   0.421   4.372   3.787
 4282SOL     OW13744   3.102   4.222   5.753
 4282SOL    HW113745   3.168   4.224   5.678
 4282SOL    HW213746   3.052   4.135   5.751
 4283SOL     OW13747   1.054   1.037   3.443
 4283SOL    HW113748   0.990   0.962   3.422
 4283SOL    HW213749   1.020   1.121   3.401
 4284SOL     OW13750   3.933   4.760   1.226
 4284SOL    HW113751   4.009   4.764   1.290
 4284SOL    HW213752   3.875   4.841   1.237
 4285SOL     OW13753   1.223   0.534   5.633
 4285SOL    HW113754   1.321   0.522   5.650
 4285SOL    HW213755   1.208   0.618   5.582
 4286SOL     OW13756   4.595   6.845   6.129
 4286SOL    HW113757   4.637   6.775   6.071
 4286SOL    HW213758   4.654   6.862   6.208
 4287SOL     OW13759   5.735   2.198   6.557
 4287SOL    HW113760   5.706   2.201   6.652
 4287SOL    HW213761   5.835   2.209   6.551
 4288SOL     OW13762   6.787   5.521   3.820
 4288SOL    HW113763   6.704   5.475   3.848
 4288SOL    HW213764   6.861   5.454   3.809
 4289SOL     OW13765   6.624   2.918   6.990
 4289SOL    HW113766   6.563   2.847   0.004
 4289SOL    HW213767   6.713   2.877   6.969
 4290SOL     OW13768   1.359   6.512   2.630
 4290SOL    HW113769   1.305   6.596   2.625
 4290SOL    HW213770   1.456   6.534   2.634
 4291SOL     OW13771   4.496   3.584   0.783
 4291SOL    HW113772   4.491   3.514   0.711
 4291SOL    HW213773   4.592   3.610   0.796
 4292SOL     OW13774   5.666   3.111   0.361
 4292SOL    HW113775   5.607   3.062   0.297
 4292SOL    HW213776   5.750   3.059   0.375
 4293SOL     OW13777   2.489   3.786   0.527
 4293SOL    HW113778   2.408   3.816   0.577
 4293SOL    HW213779   2.496   3.687   0.532
 4294SOL     OW13780   1.928   2.690   6.688
 4294SOL    HW113781   1.901   2.786   6.692
 4294SOL    HW213782   1.851   2.633   6.717
 4295SOL     OW13783   4.488   5.944   4.604
 4295SOL    HW113784   4.478   6.005   4.682
 4295SOL    HW213785   4.519   5.855   4.635
 4296SOL     OW13786   2.999   6.982   0.553
 4296SOL    HW113787   3.003   6.882   0.551
 4296SOL    HW213788   3.084   7.020   0.518
 4297SOL     OW13789   4.756   0.427   0.004
 4297SOL    HW113790   4.707   0.362   6.969
 4297SOL    HW213791   4.854   0.408   0.001
 4298SOL     OW13792   3.961   4.982   6.978
 4298SOL    HW113793   4.004   4.933   0.030
 4298SOL    HW213794   3.968   5.081   6.993
 4299SOL     OW13795   0.713   2.922   6.682
 4299SOL    HW113796   0.666   2.836   6.663
 4299SOL    HW213797   0.774   2.945   6.606
 4300SOL     OW13798   3.677   6.639   0.454
 4300SOL    HW113799   3.763   6.620   0.405
 4300SOL    HW213800   3.621   6.701   0.400
 4301SOL     OW13801   3.961   1.833   1.391
 4301SOL    HW113802   4.001   1.837   1.483
 4301SOL    HW213803   3.880   1.775   1.392
 4302SOL     OW13804   1.186   6.644   6.604
 4302SOL    HW113805   1.283   6.623   6.613
 4302SOL    HW213806   1.143   6.578   6.543
 4303SOL     OW13807   0.387   4.466   4.203
 4303SOL    HW113808   0.295   4.504   4.205
 4303SOL    HW213809   0.453   4.539   4.186
 4304SOL     OW13810   3.039   3.915   2.948
 4304SOL    HW113811   3.092   3.988   2.990
 4304SOL    HW213812   3.102   3.846   2.911
 4305SOL     OW13813   7.006   6.896   5.118
 4305SOL    HW113814   6.971   6.854   5.202
 4305SOL    HW213815   0.081   6.910   5.127
 4306SOL     OW13816   5.688   3.946   5.990
 4306SOL    HW113817   5.767   3.921   5.935
 4306SOL    HW213818   5.718   3.997   6.071
 4307SOL     OW13819   4.742   4.154   5.581
 4307SOL    HW113820   4.835   4.127   5.606
 4307SOL    HW213821   4.687   4.072   5.565
 4308SOL     OW13822   6.327   4.775   0.471
 4308SOL    HW113823   6.392   4.851   0.469
 4308SOL    HW213824   6.271   4.780   0.553
 4309SOL     OW13825   1.197   1.206   0.589
 4309SOL    HW113826   1.228   1.133   0.529
 4309SOL    HW213827   1.267   1.225   0.658
 4310SOL     OW13828   1.275   2.801   1.989
 4310SOL    HW113829   1.252   2.729   1.923
 4310SOL    HW213830   1.374   2.815   1.989
 4311SOL     OW13831   1.931   5.960   2.831
 4311SOL    HW113832   1.992   6.038   2.816
 4311SOL    HW213833   1.884   5.972   2.919
 4312SOL     OW13834   1.916   5.170   1.211
 4312SOL    HW113835   1.828   5.216   1.200
 4312SOL    HW213836   1.904   5.072   1.196
 4313SOL     OW13837   4.564   1.510   1.728
 4313SOL    HW113838   4.645   1.542   1.776
 4313SOL    HW213839   4.483   1.531   1.782
 4314SOL     OW13840   6.114   1.326   4.313
 4314SOL    HW113841   6.082   1.253   4.252
 4314SOL    HW213842   6.054   1.332   4.392
 4315SOL     OW13843   2.413   6.634   2.604
 4315SOL    HW113844   2.398   6.537   2.618
 4315SOL    HW213845   2.377   6.661   2.514
 4316SOL     OW13846   5.398   0.658   2.101
 4316SOL    HW113847   5.385   0.612   2.014
 4316SOL    HW213848   5.328   0.728   2.114
 4317SOL     OW13849   4.905   2.479   4.456
 4317SOL    HW113850   4.835   2.536   4.414
 4317SOL    HW213851   4.907   2.390   4.411
 4318SOL     OW13852   0.884   3.637   5.055
 4318SOL    HW113853   0.883   3.543   5.020
 4318SOL    HW213854   0.976   3.659   5.089
 4319SOL     OW13855   1.905   2.051   1.223
 4319SOL    HW113856   1.943   2.001   1.302
 4319SOL    HW213857   1.913   2.149   1.239
 4320SOL     OW13858   5.673   5.452   0.672
 4320SOL    HW113859   5.713   5.402   0.596
 4320SOL    HW213860   5.573   5.447   0.666
 4321SOL     OW13861   0.031   6.634   4.932
 4321SOL    HW113862   6.977   6.664   4.988
 4321SOL    HW213863   0.001   6.562   4.870
 4322SOL     OW13864   6.258   2.481   6.374
 4322SOL    HW113865   6.283   2.577   6.391
 4322SOL    HW213866   6.221   2.441   6.458
 4323SOL     OW13867   4.699   3.766   1.314
 4323SOL    HW113868   4.718   3.848   1.369
 4323SOL    HW213869   4.614   3.724   1.346
 4324SOL     OW13870   5.480   4.484   6.899
 4324SOL    HW113871   5.495   4.583   6.894
 4324SOL    HW213872   5.521   4.449   6.983
 4325SOL     OW13873   2.524   0.841   1.393
 4325SOL    HW113874   2.439   0.800   1.361
 4325SOL    HW213875   2.541   0.812   1.488
 4326SOL     OW13876   4.927   4.848   4.243
 4326SOL    HW113877   4.930   4.751   4.223
 4326SOL    HW213878   4.901   4.862   4.339
 4327SOL     OW13879   5.985   6.237   1.715
 4327SOL    HW113880   6.032   6.326   1.717
 4327SOL    HW213881   5.902   6.245   1.660
 4328SOL     OW13882   4.677   3.884   5.528
 4328SOL    HW113883   4.585   3.867   5.492
 4328SOL    HW213884   4.744   3.831   5.476
 4329SOL     OW13885   4.391   1.397   6.004
 4329SOL    HW113886   4.479   1.353   5.984
 4329SOL    HW213887   4.329   1.384   5.927
 4330SOL     OW13888   2.607   6.583   4.440
 4330SOL    HW113889   2.520   6.614   4.479
 4330SOL    HW213890   2.599   6.582   4.340
 4331SOL     OW13891   5.745   1.525   1.696
 4331SOL    HW113892   5.829   1.540   1.748
 4331SOL    HW213893   5.667   1.522   1.757
 4332SOL     OW13894   5.554   3.698   2.173
 4332SOL    HW113895   5.518   3.629   2.237
 4332SOL    HW213896   5.520   3.679   2.081
 4333SOL     OW13897   3.388   0.705   4.665
 4333SOL    HW113898   3.426   0.625   4.711
 4333SOL    HW213899   3.312   0.741   4.718
 4334SOL     OW13900   1.310   2.647   2.288
 4334SOL    HW113901   1.239   2.658   2.220
 4334SOL    HW213902   1.396   2.685   2.253
 4335SOL     OW13903   3.348   3.146   2.565
 4335SOL    HW113904   3.341   3.047   2.554
 4335SOL    HW213905   3.289   3.175   2.640
 4336SOL     OW13906   2.988   6.507   6.695
 4336SOL    HW113907   3.066   6.448   6.720
 4336SOL    HW213908   3.022   6.598   6.673
 4337SOL     OW13909   0.461   4.669   1.086
 4337SOL    HW113910   0.546   4.649   1.036
 4337SOL    HW213911   0.476   4.653   1.184
 4338SOL     OW13912   5.375   6.428   5.403
 4338SOL    HW113913   5.373   6.411   5.501
 4338SOL    HW213914   5.444   6.498   5.382
 4339SOL     OW13915   5.610   3.783   5.467
 4339SOL    HW113916   5.700   3.781   5.423
 4339SOL    HW213917   5.549   3.719   5.420
 4340SOL     OW13918   6.699   2.683   1.335
 4340SOL    HW113919   6.782   2.672   1.390
 4340SOL    HW213920   6.632   2.737   1.385
 4341SOL     OW13921   0.379   6.189   2.300
 4341SOL    HW113922   0.323   6.186   2.383
 4341SOL    HW213923   0.425   6.101   2.287
 4342SOL     OW13924   5.855   4.075   3.598
 4342SOL    HW113925   5.946   4.067   3.557
 4342SOL    HW213926   5.831   3.989   3.643
 4343SOL     OW13927   2.387   5.945   5.020
 4343SOL    HW113928   2.481   5.978   5.022
 4343SOL    HW213929   2.369   5.890   5.101
 4344SOL     OW13930   0.447   4.840   2.191
 4344SOL    HW113931   0.423   4.806   2.100
 4344SOL    HW213932   0.418   4.774   2.261
 4345SOL     OW13933   3.378   3.752   4.790
 4345SOL    HW113934   3.371   3.670   4.847
 4345SOL    HW213935   3.414   3.827   4.845
 4346SOL     OW13936   1.562   3.044   2.082
 4346SOL    HW113937   1.566   2.974   2.153
 4346SOL    HW213938   1.649   3.093   2.079
 4347SOL     OW13939   6.922   6.578   3.238
 4347SOL    HW113940   6.866   6.661   3.235
 4347SOL    HW213941   6.889   6.518   3.310
 4348SOL     OW13942   0.193   4.194   3.367
 4348SOL    HW113943   0.164   4.277   3.319
 4348SOL    HW213944   0.260   4.145   3.311
 4349SOL     OW13945   6.690   1.913   2.665
 4349SOL    HW113946   6.646   1.824   2.654
 4349SOL    HW213947   6.629   1.976   2.712
 4350SOL     OW13948   3.831   1.656   4.460
 4350SOL    HW113949   3.827   1.756   4.451
 4350SOL    HW213950   3.911   1.632   4.515
 4351SOL     OW13951   1.601   4.821   0.430
 4351SOL    HW113952   1.607   4.747   0.497
 4351SOL    HW213953   1.692   4.859   0.414
 4352SOL     OW13954   0.013   3.810   2.101
 4352SOL    HW113955   0.053   3.797   2.192
 4352SOL    HW213956   0.068   3.761   2.034
 4353SOL     OW13957   4.022   2.988   6.670
 4353SOL    HW113958   4.105   3.036   6.697
 4353SOL    HW213959   3.965   3.047   6.614
 4354SOL     OW13960   2.415   6.894   5.463
 4354SOL    HW113961   2.346   6.845   5.515
 4354SOL    HW213962   2.381   6.984   5.437
 4355SOL     OW13963   1.890   0.463   2.812
 4355SOL    HW113964   1.863   0.437   2.719
 4355SOL    HW213965   1.941   0.389   2.855
 4356SOL     OW13966   5.137   3.760   1.227
 4356SOL    HW113967   5.049   3.716   1.242
 4356SOL    HW213968   5.130   3.825   1.151
 4357SOL     OW13969   6.928   1.076   1.341
 4357SOL    HW113970   6.997   1.011   1.372
 4357SOL    HW213971   6.966   1.169   1.344
 4358SOL     OW13972   0.330   6.738   0.220
 4358SOL    HW113973   0.414   6.792   0.225
 4358SOL    HW213974   0.264   6.784   0.160
 4359SOL     OW13975   2.045   1.198   6.363
 4359SOL    HW113976   2.113   1.255   6.316
 4359SOL    HW213977   2.021   1.240   6.450
 4360SOL     OW13978   1.696   2.832   3.067
 4360SOL    HW113979   1.661   2.795   3.153
 4360SOL    HW213980   1.680   2.767   2.994
 4361SOL     OW13981   2.428   2.884   1.248
 4361SOL    HW113982   2.402   2.974   1.215
 4361SOL    HW213983   2.346   2.828   1.261
 4362SOL     OW13984   5.912   5.800   3.671
 4362SOL    HW113985   5.949   5.870   3.731
 4362SOL    HW213986   5.812   5.803   3.675
 4363SOL     OW13987   5.256   2.305   1.313
 4363SOL    HW113988   5.208   2.236   1.366
 4363SOL    HW213989   5.212   2.394   1.327
 4364SOL     OW13990   3.264   3.439   4.482
 4364SOL    HW113991   3.326   3.363   4.465
 4364SOL    HW213992   3.170   3.405   4.489
 4365SOL     OW13993   2.219   1.038   2.126
 4365SOL    HW113994   2.207   0.969   2.198
 4365SOL    HW213995   2.317   1.056   2.114
 4366SOL     OW13996   5.825   0.241   7.012
 4366SOL    HW113997   5.844   0.333   0.025
 4366SOL    HW213998   5.727   0.222   7.020
 4367SOL     OW13999   1.904   4.037   4.314
 4367SOL    HW114000   1.887   4.027   4.412
 4367SOL    HW214001   1.910   4.134   4.291
 4368SOL     OW14002   3.818   4.033   0.732
 4368SOL    HW114003   3.780   3.953   0.778
 4368SOL    HW214004   3.745   4.080   0.682
 4369SOL     OW14005   4.490   4.997   2.959
 4369SOL    HW114006   4.465   4.967   2.867
 4369SOL    HW214007   4.538   5.084   2.954
 4370SOL     OW14008   4.063   5.478   1.917
 4370SOL    HW114009   4.049   5.505   1.821
 4370SOL    HW214010   4.043   5.381   1.927
 4371SOL     OW14011   0.897   2.064   1.725
 4371SOL    HW114012   0.971   2.084   1.789
 4371SOL    HW214013   0.869   1.969   1.734
 4372SOL     OW14014   3.196   1.407   2.759
 4372SOL    HW114015   3.182   1.340   2.832
 4372SOL    HW214016   3.259   1.478   2.790
 4373SOL     OW14017   6.253   2.327   6.596
 4373SOL    HW114018   6.316   2.250   6.600
 4373SOL    HW214019   6.259   2.379   6.681
 4374SOL     OW14020   0.980   2.097   0.823
 4374SOL    HW114021   0.898   2.042   0.841
 4374SOL    HW214022   0.990   2.110   0.725
 4375SOL     OW14023   4.287   0.284   3.238
 4375SOL    HW114024   4.230   0.360   3.270
 4375SOL    HW214025   4.238   0.234   3.167
 4376SOL     OW14026   0.333   6.833   1.417
 4376SOL    HW114027   0.262   6.897   1.447
 4376SOL    HW214028   0.385   6.801   1.496
 4377SOL     OW14029   5.681   4.302   0.337
 4377SOL    HW114030   5.723   4.387   0.305
 4377SOL    HW214031   5.747   4.252   0.394
 4378SOL     OW14032   2.030   2.736   2.631
 4378SOL    HW114033   2.123   2.759   2.660
 4378SOL    HW214034   1.999   2.654   2.679
 4379SOL     OW14035   1.811   1.864   2.797
 4379SOL    HW114036   1.795   1.846   2.700
 4379SOL    HW214037   1.906   1.845   2.820
 4380SOL     OW14038   0.774   6.977   2.619
 4380SOL    HW114039   0.779   0.013   2.699
 4380SOL    HW214040   0.712   6.901   2.638
 4381SOL     OW14041   1.599   4.961   5.668
 4381SOL    HW114042   1.626   5.030   5.601
 4381SOL    HW214043   1.637   4.872   5.641
 4382SOL     OW14044   6.714   3.427   5.222
 4382SOL    HW114045   6.730   3.525   5.225
 4382SOL    HW214046   6.672   3.398   5.308
 4383SOL     OW14047   0.349   2.899   6.047
 4383SOL    HW114048   0.406   2.860   6.119
 4383SOL    HW214049   0.342   2.998   6.060
 4384SOL     OW14050   5.539   1.172   4.875
 4384SOL    HW114051   5.614   1.113   4.843
 4384SOL    HW214052   5.562   1.268   4.856
 4385SOL     OW14053   5.882   2.798   4.759
 4385SOL    HW114054   5.920   2.786   4.667
 4385SOL    HW214055   5.957   2.807   4.825
 4386SOL     OW14056   1.917   3.171   6.371
 4386SOL    HW114057   1.879   3.080   6.388
 4386SOL    HW214058   2.015   3.164   6.351
 4387SOL     OW14059   6.760   1.437   1.019
 4387SOL    HW114060   6.669   1.468   1.044
 4387SOL    HW214061   6.823   1.455   1.095
 4388SOL     OW14062   4.890   2.588   6.561
 4388SOL    HW114063   4.804   2.628   6.528
 4388SOL    HW214064   4.891   2.590   6.661
 4389SOL     OW14065   6.775   3.297   0.617
 4389SOL    HW114066   6.728   3.210   0.627
 4389SOL    HW214067   6.820   3.322   0.703
 4390SOL     OW14068   3.670   0.817   1.587
 4390SOL    HW114069   3.763   0.781   1.591
 4390SOL    HW214070   3.617   0.765   1.520
 4391SOL     OW14071   2.457   5.459   6.900
 4391SOL    HW114072   2.455   5.412   6.989
 4391SOL    HW214073   2.501   5.400   6.833
 4392SOL     OW14074   6.689   3.229   4.469
 4392SOL    HW114075   6.774   3.271   4.501
 4392SOL    HW214076   6.619   3.239   4.539
 4393SOL     OW14077   5.677   0.569   2.848
 4393SOL    HW114078   5.758   0.509   2.853
 4393SOL    HW214079   5.679   0.620   2.763
 4394SOL     OW14080   6.683   5.712   2.452
 4394SOL    HW114081   6.744   5.780   2.411
 4394SOL    HW214082   6.589   5.731   2.426
 4395SOL     OW14083   2.272   6.431   2.359
 4395SOL    HW114084   2.358   6.469   2.324
 4395SOL    HW214085   2.220   6.504   2.404
 4396SOL     OW14086   2.374   2.169   3.781
 4396SOL    HW114087   2.312   2.153   3.704
 4396SOL    HW214088   2.468   2.171   3.748
 4397SOL     OW14089   0.505   1.911   4.738
 4397SOL    HW114090   0.474   2.006   4.749
 4397SOL    HW214091   0.430   1.849   4.760
 4398SOL     OW14092   0.447   3.697   5.938
 4398SOL    HW114093   0.528   3.755   5.939
 4398SOL    HW214094   0.452   3.634   5.860
 4399SOL     OW14095   2.473   0.284   2.197
 4399SOL    HW114096   2.397   0.266   2.135
 4399SOL    HW214097   2.488   0.203   2.255
 4400SOL     OW14098   3.010   6.316   5.280
 4400SOL    HW114099   2.976   6.286   5.370
 4400SOL    HW214100   3.021   6.237   5.221
 4401SOL     OW14101   3.543   6.965   5.953
 4401SOL    HW114102   3.446   6.939   5.946
 4401SOL    HW214103   3.600   6.884   5.938
 4402SOL     OW14104   2.314   0.271   1.976
 4402SOL    HW114105   2.223   0.269   1.937
 4402SOL    HW214106   2.373   0.332   1.922
 4403SOL     OW14107   1.178   0.666   1.711
 4403SOL    HW114108   1.277   0.651   1.715
 4403SOL    HW214109   1.133   0.609   1.780
 4404SOL     OW14110   1.538   5.150   5.855
 4404SOL    HW114111   1.555   5.065   5.806
 4404SOL    HW214112   1.609   5.217   5.831
 4405SOL     OW14113   1.473   3.979   1.283
 4405SOL    HW114114   1.400   4.046   1.279
 4405SOL    HW214115   1.461   3.911   1.210
 4406SOL     OW14116   0.432   3.209   1.181
 4406SOL    HW114117   0.420   3.213   1.280
 4406SOL    HW214118   0.440   3.302   1.145
 4407SOL     OW14119   6.041   5.371   0.822
 4407SOL    HW114120   6.098   5.451   0.805
 4407SOL    HW214121   6.026   5.361   0.920
 4408SOL     OW14122   3.056   0.795   1.166
 4408SOL    HW114123   3.071   0.701   1.196
 4408SOL    HW214124   2.959   0.807   1.144
 4409SOL     OW14125   5.190   1.169   2.588
 4409SOL    HW114126   5.113   1.172   2.524
 4409SOL    HW214127   5.213   1.263   2.615
 4410SOL     OW14128   1.363   5.033   6.881
 4410SOL    HW114129   1.382   5.010   6.786
 4410SOL    HW214130   1.339   5.130   6.887
 4411SOL     OW14131   3.976   4.055   4.975
 4411SOL    HW114132   3.949   4.139   5.023
 4411SOL    HW214133   3.993   4.076   4.879
 4412SOL     OW14134   4.608   6.218   3.890
 4412SOL    HW114135   4.676   6.271   3.839
 4412SOL    HW214136   4.531   6.195   3.830
 4413SOL     OW14137   5.879   5.224   4.539
 4413SOL    HW114138   5.830   5.192   4.458
 4413SOL    HW214139   5.860   5.321   4.554
 4414SOL     OW14140   3.290   5.184   0.901
 4414SOL    HW114141   3.300   5.093   0.860
 4414SOL    HW214142   3.291   5.253   0.830
 4415SOL     OW14143   4.466   2.613   0.670
 4415SOL    HW114144   4.367   2.625   0.659
 4415SOL    HW214145   4.514   2.662   0.598
 4416SOL     OW14146   3.731   1.204   4.500
 4416SOL    HW114147   3.636   1.187   4.472
 4416SOL    HW214148   3.738   1.299   4.533
 4417SOL     OW14149   5.735   4.681   3.472
 4417SOL    HW114150   5.759   4.590   3.439
 4417SOL    HW214151   5.680   4.728   3.402
 4418SOL     OW14152   6.451   1.737   2.356
 4418SOL    HW114153   6.525   1.804   2.355
 4418SOL    HW214154   6.445   1.693   2.266
 4419SOL     OW14155   5.501   6.768   6.285
 4419SOL    HW114156   5.439   6.729   6.353
 4419SOL    HW214157   5.458   6.763   6.195
 4420SOL     OW14158   4.801   1.054   1.790
 4420SOL    HW114159   4.816   1.075   1.887
 4420SOL    HW214160   4.761   1.133   1.745
 4421SOL     OW14161   2.499   1.433   4.882
 4421SOL    HW114162   2.459   1.404   4.795
 4421SOL    HW214163   2.540   1.354   4.927
 4422SOL     OW14164   1.953   3.881   0.076
 4422SOL    HW114165   1.983   3.935   0.154
 4422SOL    HW214166   1.994   3.790   0.081
 4423SOL     OW14167   6.976   3.243   5.330
 4423SOL    HW114168   0.047   3.276   5.332
 4423SOL    HW214169   6.953   3.211   5.238
 4424SOL     OW14170   5.499   1.304   4.208
 4424SOL    HW114171   5.511   1.392   4.255
 4424SOL    HW214172   5.449   1.318   4.123
 4425SOL     OW14173   2.777   4.201   0.376
 4425SOL    HW114174   2.690   4.217   0.423
 4425SOL    HW214175   2.759   4.167   0.284
 4426SOL     OW14176   0.111   1.662   3.708
 4426SOL    HW114177   0.199   1.685   3.750
 4426SOL    HW214178   0.051   1.622   3.777
 4427SOL     OW14179   0.439   6.136   2.798
 4427SOL    HW114180   0.435   6.235   2.787
 4427SOL    HW214181   0.534   6.105   2.788
 4428SOL     OW14182   3.447   0.545   3.481
 4428SOL    HW114183   3.414   0.621   3.537
 4428SOL    HW214184   3.449   0.573   3.385
 4429SOL     OW14185   3.156   6.870   2.498
 4429SOL    HW114186   3.140   6.901   2.404
 4429SOL    HW214187   3.114   6.780   2.511
 4430SOL     OW14188   4.938   4.001   4.744
 4430SOL    HW114189   4.971   3.971   4.833
 4430SOL    HW214190   4.880   3.929   4.704
 4431SOL     OW14191   2.496   1.069   2.093
 4431SOL    HW114192   2.538   0.981   2.115
 4431SOL    HW214193   2.546   1.112   2.018
 4432SOL     OW14194   2.835   3.576   6.082
 4432SOL    HW114195   2.898   3.608   6.153
 4432SOL    HW214196   2.764   3.645   6.066
 4433SOL     OW14197   5.095   2.007   4.326
 4433SOL    HW114198   5.184   2.018   4.371
 4433SOL    HW214199   5.101   2.039   4.232
 4434SOL     OW14200   5.262   1.163   3.082
 4434SOL    HW114201   5.185   1.114   3.040
 4434SOL    HW214202   5.342   1.156   3.023
 4435SOL     OW14203   4.930   3.009   1.455
 4435SOL    HW114204   4.914   2.924   1.406
 4435SOL    HW214205   4.918   2.994   1.553
 4436SOL     OW14206   4.264   1.168   1.601
 4436SOL    HW114207   4.232   1.263   1.610
 4436SOL    HW214208   4.302   1.155   1.509
 4437SOL     OW14209   0.196   2.630   2.938
 4437SOL    HW114210   0.228   2.549   2.987
 4437SOL    HW214211   0.099   2.619   2.914
 4438SOL     OW14212   5.248   6.946   6.600
 4438SOL    HW114213   5.183   6.891   6.548
 4438SOL    HW214214   5.222   0.019   6.596
 4439SOL     OW14215   0.131   4.204   1.612
 4439SOL    HW114216   0.220   4.179   1.574
 4439SOL    HW214217   0.085   4.121   1.645
 4440SOL     OW14218   2.925   4.682   0.389
 4440SOL    HW114219   2.918   4.601   0.330
 4440SOL    HW214220   2.925   4.653   0.485
 4441SOL     OW14221   0.320   2.328   2.549
 4441SOL    HW114222   0.236   2.338   2.495
 4441SOL    HW214223   0.322   2.237   2.591
 4442SOL     OW14224   1.997   5.474   4.491
 4442SOL    HW114225   1.977   5.439   4.399
 4442SOL    HW214226   2.047   5.560   4.484
 4443SOL     OW14227   1.276   3.495   6.523
 4443SOL    HW114228   1.184   3.521   6.492
 4443SOL    HW214229   1.303   3.411   6.477
 4444SOL     OW14230   3.149   4.046   4.920
 4444SOL    HW114231   3.164   4.107   4.842
 4444SOL    HW214232   3.069   3.988   4.902
 4445SOL     OW14233   1.265   6.505   0.052
 4445SOL    HW114234   1.237   6.601   0.045
 4445SOL    HW214235   1.332   6.495   0.126
 4446SOL     OW14236   5.218   1.147   1.616
 4446SOL    HW114237   5.151   1.077   1.643
 4446SOL    HW214238   5.301   1.103   1.582
 4447SOL     OW14239   5.214   4.518   5.947
 4447SOL    HW114240   5.161   4.444   5.989
 4447SOL    HW214241   5.180   4.534   5.854
 4448SOL     OW14242   2.435   3.998   1.503
 4448SOL    HW114243   2.380   3.968   1.424
 4448SOL    HW214244   2.513   3.936   1.514
 4449SOL     OW14245   4.753   0.981   5.912
 4449SOL    HW114246   4.764   0.884   5.934
 4449SOL    HW214247   4.823   1.009   5.847
 4450SOL     OW14248   3.901   2.971   5.565
 4450SOL    HW114249   3.999   2.990   5.570
 4450SOL    HW214250   3.856   3.006   5.648
 4451SOL     OW14251   5.922   4.753   3.077
 4451SOL    HW114252   5.924   4.680   3.146
 4451SOL    HW214253   6.006   4.751   3.023
 4452SOL     OW14254   4.991   6.289   4.040
 4452SOL    HW114255   5.082   6.248   4.040
 4452SOL    HW214256   4.947   6.272   4.128
 4453SOL     OW14257   1.218   3.388   1.554
 4453SOL    HW114258   1.237   3.391   1.652
 4453SOL    HW214259   1.293   3.342   1.507
 4454SOL     OW14260   1.637   1.569   0.022
 4454SOL    HW114261   1.553   1.618   0.046
 4454SOL    HW214262   1.713   1.604   0.077
 4455SOL     OW14263   4.957   6.721   6.163
 4455SOL    HW114264   4.964   6.820   6.155
 4455SOL    HW214265   4.866   6.691   6.134
 4456SOL     OW14266   2.972   5.785   1.729
 4456SOL    HW114267   2.874   5.790   1.711
 4456SOL    HW214268   2.998   5.690   1.749
 4457SOL     OW14269   4.325   1.303   2.721
 4457SOL    HW114270   4.381   1.220   2.718
 4457SOL    HW214271   4.242   1.289   2.668
 4458SOL     OW14272   1.848   2.752   0.618
 4458SOL    HW114273   1.815   2.835   0.663
 4458SOL    HW214274   1.895   2.777   0.533
 4459SOL     OW14275   3.823   1.423   4.639
 4459SOL    HW114276   3.819   1.483   4.560
 4459SOL    HW214277   3.918   1.397   4.656
 4460SOL     OW14278   2.060   2.794   6.167
 4460SOL    HW114279   2.089   2.833   6.080
 4460SOL    HW214280   2.015   2.706   6.151
 4461SOL     OW14281   1.712   6.993   0.886
 4461SOL    HW114282   1.803   7.021   0.914
 4461SOL    HW214283   1.699   6.896   0.906
 4462SOL     OW14284   5.578   5.385   2.006
 4462SOL    HW114285   5.569   5.293   2.044
 4462SOL    HW214286   5.493   5.410   1.960
 4463SOL     OW14287   4.644   1.154   0.823
 4463SOL    HW114288   4.732   1.106   0.816
 4463SOL    HW214289   4.575   1.103   0.773
 4464SOL     OW14290   0.576   5.356   0.329
 4464SOL    HW114291   0.668   5.333   0.360
 4464SOL    HW214292   0.573   5.450   0.297
 4465SOL     OW14293   3.625   5.484   1.578
 4465SOL    HW114294   3.529   5.490   1.548
 4465SOL    HW214295   3.628   5.472   1.677
 4466SOL     OW14296   0.956   2.100   3.434
 4466SOL    HW114297   1.003   2.032   3.491
 4466SOL    HW214298   0.995   2.191   3.451
 4467SOL     OW14299   1.963   5.857   2.586
 4467SOL    HW114300   1.873   5.820   2.562
 4467SOL    HW214301   1.956   5.907   2.672
 4468SOL     OW14302   1.654   4.120   0.474
 4468SOL    HW114303   1.599   4.137   0.392
 4468SOL    HW214304   1.751   4.119   0.450
 4469SOL     OW14305   3.438   0.212   1.867
 4469SOL    HW114306   3.445   0.271   1.786
 4469SOL    HW214307   3.343   0.209   1.898
 4470SOL     OW14308   0.369   2.525   2.229
 4470SOL    HW114309   0.322   2.470   2.159
 4470SOL    HW214310   0.304   2.586   2.273
 4471SOL     OW14311   0.593   2.085   6.489
 4471SOL    HW114312   0.662   2.083   6.561
 4471SOL    HW214313   0.527   2.158   6.508
 4472SOL     OW14314   0.746   3.276   2.214
 4472SOL    HW114315   0.730   3.212   2.138
 4472SOL    HW214316   0.660   3.322   2.237
 4473SOL     OW14317   5.656   2.938   4.503
 4473SOL    HW114318   5.561   2.970   4.505
 4473SOL    HW214319   5.717   3.016   4.517
 4474SOL     OW14320   2.203   0.627   2.395
 4474SOL    HW114321   2.259   0.710   2.397
 4474SOL    HW214322   2.180   0.604   2.301
 4475SOL     OW14323   1.066   4.160   2.153
 4475SOL    HW114324   1.092   4.190   2.061
 4475SOL    HW214325   0.983   4.208   2.182
 4476SOL     OW14326   5.070   0.383   2.922
 4476SOL    HW114327   5.030   0.475   2.922
 4476SOL    HW214328   5.142   0.377   2.990
 4477SOL     OW14329   2.064   6.717   5.105
 4477SOL    HW114330   2.033   6.729   5.011
 4477SOL    HW214331   2.114   6.799   5.135
 4478SOL     OW14332   3.362   6.828   3.206
 4478SOL    HW114333   3.396   6.828   3.112
 4478SOL    HW214334   3.381   6.916   3.249
 4479SOL     OW14335   0.642   1.936   0.726
 4479SOL    HW114336   0.680   1.909   0.815
 4479SOL    HW214337   0.550   1.899   0.716
 4480SOL     OW14338   1.163   4.436   5.499
 4480SOL    HW114339   1.079   4.387   5.523
 4480SOL    HW214340   1.150   4.534   5.515
 4481SOL     OW14341   3.649   5.464   4.658
 4481SOL    HW114342   3.635   5.477   4.757
 4481SOL    HW214343   3.658   5.553   4.614
 4482SOL     OW14344   1.614   2.915   5.052
 4482SOL    HW114345   1.642   2.949   4.963
 4482SOL    HW214346   1.651   2.823   5.067
 4483SOL     OW14347   5.942   2.564   2.393
 4483SOL    HW114348   6.036   2.541   2.370
 4483SOL    HW214349   5.880   2.512   2.335
 4484SOL     OW14350   3.384   2.257   6.435
 4484SOL    HW114351   3.335   2.258   6.348
 4484SOL    HW214352   3.447   2.179   6.437
 4485SOL     OW14353   5.441   2.078   4.171
 4485SOL    HW114354   5.499   2.030   4.237
 4485SOL    HW214355   5.406   2.162   4.212
 4486SOL     OW14356   5.508   5.286   5.435
 4486SOL    HW114357   5.431   5.282   5.498
 4486SOL    HW214358   5.586   5.328   5.480
 4487SOL     OW14359   2.996   3.006   6.140
 4487SOL    HW114360   3.043   3.094   6.141
 4487SOL    HW214361   2.898   3.021   6.137
 4488SOL     OW14362   0.459   3.506   5.725
 4488SOL    HW114363   0.398   3.435   5.761
 4488SOL    HW214364   0.410   3.558   5.654
 4489SOL     OW14365   5.147   5.766   5.211
 4489SOL    HW114366   5.123   5.767   5.308
 4489SOL    HW214367   5.195   5.851   5.188
 4490SOL     OW14368   5.831   2.418   1.961
 4490SOL    HW114369   5.811   2.322   1.942
 4490SOL    HW214370   5.819   2.472   1.877
 4491SOL     OW14371   6.414   3.369   3.712
 4491SOL    HW114372   6.486   3.302   3.695
 4491SOL    HW214373   6.431   3.416   3.799
 4492SOL     OW14374   5.914   4.856   2.001
 4492SOL    HW114375   6.000   4.866   1.952
 4492SOL    HW214376   5.916   4.772   2.056
 4493SOL     OW14377   4.974   5.309   4.858
 4493SOL    HW114378   4.998   5.234   4.920
 4493SOL    HW214379   4.899   5.281   4.799
 4494SOL     OW14380   0.290   0.514   6.469
 4494SOL    HW114381   0.339   0.480   6.388
 4494SOL    HW214382   0.245   0.600   6.447
 4495SOL     OW14383   4.031   6.235   4.501
 4495SOL    HW114384   4.106   6.173   4.524
 4495SOL    HW214385   4.056   6.290   4.421
 4496SOL     OW14386   5.735   6.416   1.285
 4496SOL    HW114387   5.823   6.402   1.330
 4496SOL    HW214388   5.747   6.478   1.207
 4497SOL     OW14389   4.965   2.042   6.592
 4497SOL    HW114390   5.048   2.035   6.648
 4497SOL    HW214391   4.895   1.981   6.628
 4498SOL     OW14392   0.369   3.000   0.377
 4498SOL    HW114393   0.392   2.986   0.280
 4498SOL    HW214394   0.270   2.994   0.389
 4499SOL     OW14395   5.578   3.844   3.892
 4499SOL    HW114396   5.511   3.901   3.845
 4499SOL    HW214397   5.536   3.801   3.972
 4500SOL     OW14398   3.076   3.068   4.339
 4500SOL    HW114399   2.980   3.086   4.361
 4500SOL    HW214400   3.128   3.062   4.424
 4501SOL     OW14401   6.918   3.592   2.960
 4501SOL    HW114402   6.920   3.690   2.981
 4501SOL    HW214403   7.008   3.562   2.930
 4502SOL     OW14404   0.522   3.084   6.798
 4502SOL    HW114405   0.544   3.082   6.896
 4502SOL    HW214406   0.606   3.073   6.745
 4503SOL     OW14407   3.648   0.011   1.895
 4503SOL    HW114408   3.600   6.953   1.865
 4503SOL    HW214409   3.589   0.091   1.884
 4504SOL     OW14410   6.707   0.999   4.486
 4504SOL    HW114411   6.683   0.963   4.396
 4504SOL    HW214412   6.633   0.980   4.550
 4505SOL     OW14413   6.246   4.995   1.944
 4505SOL    HW114414   6.213   5.017   1.853
 4505SOL    HW214415   6.300   4.910   1.941
 4506SOL     OW14416   4.831   3.171   3.312
 4506SOL    HW114417   4.857   3.115   3.391
 4506SOL    HW214418   4.784   3.254   3.343
 4507SOL     OW14419   5.940   4.286   3.043
 4507SOL    HW114420   5.953   4.219   3.115
 4507SOL    HW214421   6.024   4.294   2.989
 4508SOL     OW14422   1.824   5.564   0.206
 4508SOL    HW114423   1.887   5.527   0.138
 4508SOL    HW214424   1.785   5.649   0.172
 4509SOL     OW14425   4.584   2.568   2.178
 4509SOL    HW114426   4.547   2.571   2.085
 4509SOL    HW214427   4.627   2.480   2.194
 4510SOL     OW14428   4.154   1.868   3.999
 4510SOL    HW114429   4.202   1.817   4.071
 4510SOL    HW214430   4.061   1.888   4.029
 4511SOL     OW14431   5.674   3.932   6.422
 4511SOL    HW114432   5.597   3.978   6.468
 4511SOL    HW214433   5.757   3.946   6.475
 4512SOL     OW14434   2.777   1.329   5.701
 4512SOL    HW114435   2.794   1.242   5.748
 4512SOL    HW214436   2.858   1.354   5.648
 4513SOL     OW14437   0.609   5.054   6.512
 4513SOL    HW114438   0.623   5.152   6.526
 4513SOL    HW214439   0.693   5.005   6.536
 4514SOL     OW14440   4.117   2.370   5.883
 4514SOL    HW114441   4.200   2.350   5.935
 4514SOL    HW214442   4.107   2.302   5.810
 4515SOL     OW14443   6.978   1.878   5.455
 4515SOL    HW114444   0.000   1.959   5.491
 4515SOL    HW214445   6.925   1.903   5.373
 4516SOL     OW14446   2.190   6.976   0.512
 4516SOL    HW114447   2.094   6.972   0.542
 4516SOL    HW214448   2.206   0.038   0.463
 4517SOL     OW14449   4.298   0.453   6.681
 4517SOL    HW114450   4.323   0.490   6.592
 4517SOL    HW214451   4.250   0.523   6.734
 4518SOL     OW14452   0.250   7.013   2.439
 4518SOL    HW114453   0.263   0.057   2.365
 4518SOL    HW214454   0.310   6.935   2.424
 4519SOL     OW14455   6.874   6.939   1.351
 4519SOL    HW114456   6.956   6.888   1.325
 4519SOL    HW214457   6.802   6.875   1.379
 4520SOL     OW14458   4.414   6.416   5.436
 4520SOL    HW114459   4.434   6.358   5.357
 4520SOL    HW214460   4.353   6.368   5.499
 4521SOL     OW14461   6.169   1.904   4.978
 4521SOL    HW114462   6.101   1.832   4.971
 4521SOL    HW214463   6.260   1.865   4.963
 4522SOL     OW14464   5.632   5.251   3.558
 4522SOL    HW114465   5.649   5.181   3.489
 4522SOL    HW214466   5.596   5.333   3.513
 4523SOL     OW14467   0.842   4.395   0.401
 4523SOL    HW114468   0.939   4.407   0.422
 4523SOL    HW214469   0.790   4.392   0.486
 4524SOL     OW14470   6.452   2.789   1.842
 4524SOL    HW114471   6.436   2.700   1.798
 4524SOL    HW214472   6.519   2.841   1.789
 4525SOL     OW14473   4.917   2.258   5.568
 4525SOL    HW114474   5.007   2.252   5.524
 4525SOL    HW214475   4.848   2.283   5.499
 4526SOL     OW14476   6.852   0.080   6.362
 4526SOL    HW114477   6.815   0.167   6.330
 4526SOL    HW214478   6.792   0.006   6.333
 4527SOL     OW14479   6.217   1.120   3.914
 4527SOL    HW114480   6.175   1.140   4.003
 4527SOL    HW214481   6.292   1.184   3.897
 4528SOL     OW14482   4.125   0.046   6.864
 4528SOL    HW114483   4.083   0.008   6.946
 4528SOL    HW214484   4.078   0.130   6.838
 4529SOL     OW14485   2.073   0.396   4.935
 4529SOL    HW114486   2.032   0.317   4.981
 4529SOL    HW214487   2.126   0.364   4.856
 4530SOL     OW14488   1.636   4.933   4.165
 4530SOL    HW114489   1.591   4.888   4.088
 4530SOL    HW214490   1.661   5.026   4.139
 4531SOL     OW14491   0.532   2.764   5.002
 4531SOL    HW114492   0.524   2.847   5.057
 4531SOL    HW214493   0.544   2.789   4.906
 4532SOL     OW14494   6.758   1.122   2.259
 4532SOL    HW114495   6.674   1.176   2.268
 4532SOL    HW214496   6.816   1.137   2.340
 4533SOL     OW14497   1.478   1.737   1.692
 4533SOL    HW114498   1.473   1.833   1.720
 4533SOL    HW214499   1.573   1.713   1.673
 4534SOL     OW14500   5.123   4.364   4.745
 4534SOL    HW114501   5.033   4.324   4.765
 4534SOL    HW214502   5.167   4.311   4.673
 4535SOL     OW14503   3.577   0.493   3.026
 4535SOL    HW114504   3.620   0.553   2.958
 4535SOL    HW214505   3.562   0.403   2.986
 4536SOL     OW14506   4.118   1.468   4.370
 4536SOL    HW114507   4.196   1.431   4.320
 4536SOL    HW214508   4.138   1.561   4.399
 4537SOL     OW14509   4.015   3.581   0.282
 4537SOL    HW114510   3.949   3.507   0.271
 4537SOL    HW214511   3.992   3.655   0.219
 4538SOL     OW14512   1.885   0.604   3.074
 4538SOL    HW114513   1.859   0.554   2.991
 4538SOL    HW214514   1.803   0.633   3.122
 4539SOL     OW14515   3.392   5.796   4.833
 4539SOL    HW114516   3.346   5.709   4.852
 4539SOL    HW214517   3.334   5.872   4.862
 4540SOL     OW14518   2.480   2.339   6.631
 4540SOL    HW114519   2.407   2.317   6.567
 4540SOL    HW214520   2.525   2.423   6.603
 4541SOL     OW14521   6.167   1.705   6.631
 4541SOL    HW114522   6.118   1.631   6.584
 4541SOL    HW214523   6.132   1.793   6.599
 4542SOL     OW14524   0.316   1.898   1.727
 4542SOL    HW114525   0.330   1.997   1.725
 4542SOL    HW214526   0.218   1.878   1.731
 4543SOL     OW14527   4.465   2.269   1.153
 4543SOL    HW114528   4.540   2.310   1.204
 4543SOL    HW214529   4.389   2.334   1.148
 4544SOL     OW14530   3.690   5.831   6.460
 4544SOL    HW114531   3.686   5.841   6.361
 4544SOL    HW214532   3.747   5.905   6.498
 4545SOL     OW14533   5.477   3.079   4.019
 4545SOL    HW114534   5.538   3.123   3.953
 4545SOL    HW214535   5.479   2.980   4.007
 4546SOL     OW14536   1.744   1.460   4.457
 4546SOL    HW114537   1.774   1.438   4.550
 4546SOL    HW214538   1.671   1.396   4.430
 4547SOL     OW14539   6.379   2.176   1.267
 4547SOL    HW114540   6.358   2.240   1.341
 4547SOL    HW214541   6.324   2.200   1.187
 4548SOL     OW14542   1.522   3.311   3.969
 4548SOL    HW114543   1.422   3.319   3.968
 4548SOL    HW214544   1.559   3.367   4.043
 4549SOL     OW14545   6.140   4.347   2.087
 4549SOL    HW114546   6.131   4.435   2.039
 4549SOL    HW214547   6.054   4.327   2.135
 4550SOL     OW14548   1.070   5.435   3.239
 4550SOL    HW114549   1.138   5.501   3.269
 4550SOL    HW214550   1.115   5.358   3.194
 4551SOL     OW14551   0.327   3.626   4.626
 4551SOL    HW114552   0.239   3.640   4.671
 4551SOL    HW214553   0.401   3.631   4.693
 4552SOL     OW14554   6.534   2.203   1.549
 4552SOL    HW114555   6.557   2.294   1.514
 4552SOL    HW214556   6.518   2.209   1.648
 4553SOL     OW14557   4.044   3.958   6.831
 4553SOL    HW114558   4.002   4.016   6.901
 4553SOL    HW214559   4.001   3.976   6.743
 4554SOL     OW14560   6.435   6.932   1.308
 4554SOL    HW114561   6.405   6.920   1.403
 4554SOL    HW214562   6.386   6.869   1.249
 4555SOL     OW14563   2.820   1.694   4.976
 4555SOL    HW114564   2.794   1.601   4.950
 4555SOL    HW214565   2.799   1.757   4.901
 4556SOL     OW14566   5.101   3.074   4.294
 4556SOL    HW114567   5.046   3.107   4.217
 4556SOL    HW214568   5.058   3.102   4.380
 4557SOL     OW14569   4.851   5.750   5.211
 4557SOL    HW114570   4.817   5.729   5.119
 4557SOL    HW214571   4.951   5.755   5.209
 4558SOL     OW14572   6.937   4.391   5.187
 4558SOL    HW114573   6.935   4.424   5.282
 4558SOL    HW214574   6.922   4.468   5.125
 4559SOL     OW14575   0.523   3.613   2.033
 4559SOL    HW114576   0.469   3.573   1.959
 4559SOL    HW214577   0.619   3.590   2.020
 4560SOL     OW14578   5.291   4.391   1.681
 4560SOL    HW114579   5.327   4.304   1.649
 4560SOL    HW214580   5.332   4.465   1.627
 4561SOL     OW14581   2.753   1.942   2.806
 4561SOL    HW114582   2.837   1.891   2.788
 4561SOL    HW214583   2.715   1.914   2.894
 4562SOL     OW14584   2.193   6.734   5.978
 4562SOL    HW114585   2.116   6.796   5.990
 4562SOL    HW214586   2.227   6.705   6.068
 4563SOL     OW14587   0.434   2.920   0.845
 4563SOL    HW114588   0.470   2.914   0.752
 4563SOL    HW214589   0.365   2.848   0.858
 4564SOL     OW14590   7.016   5.865   2.099
 4564SOL    HW114591   0.063   5.929   2.068
 4564SOL    HW214592   6.964   5.832   2.020
 4565SOL     OW14593   0.659   0.340   4.793
 4565SOL    HW114594   0.703   0.425   4.763
 4565SOL    HW214595   0.565   0.360   4.823
 4566SOL     OW14596   6.916   2.770   0.303
 4566SOL    HW114597   6.944   2.724   0.219
 4566SOL    HW214598   6.834   2.825   0.285
 4567SOL     OW14599   6.546   1.258   5.953
 4567SOL    HW114600   6.593   1.223   6.034
 4567SOL    HW214601   6.596   1.336   5.916
 4568SOL     OW14602   1.872   3.054   6.122
 4568SOL    HW114603   1.954   3.045   6.065
 4568SOL    HW214604   1.886   3.128   6.188
 4569SOL     OW14605   1.786   1.242   3.011
 4569SOL    HW114606   1.847   1.242   2.932
 4569SOL    HW214607   1.755   1.335   3.031
 4570SOL     OW14608   0.100   6.905   2.630
 4570SOL    HW114609   0.161   6.930   2.554
 4570SOL    HW214610   0.016   6.958   2.624
 4571SOL     OW14611   4.645   4.010   6.524
 4571SOL    HW114612   4.636   3.934   6.460
 4571SOL    HW214613   4.556   4.054   6.535
 4572SOL     OW14614   2.092   0.545   6.742
 4572SOL    HW114615   2.185   0.577   6.726
 4572SOL    HW214616   2.086   0.503   6.833
 4573SOL     OW14617   6.246   0.465   0.276
 4573SOL    HW114618   6.237   0.520   0.193
 4573SOL    HW214619   6.172   0.488   0.339
 4574SOL     OW14620   5.612   3.796   0.346
 4574SOL    HW114621   5.633   3.878   0.293
 4574SOL    HW214622   5.532   3.813   0.404
 4575SOL     OW14623   5.603   0.948   5.833
 4575SOL    HW114624   5.613   1.005   5.914
 4575SOL    HW214625   5.509   0.952   5.800
 4576SOL     OW14626   3.219   6.177   5.783
 4576SOL    HW114627   3.179   6.268   5.777
 4576SOL    HW214628   3.152   6.109   5.753
 4577SOL     OW14629   0.842   2.164   4.472
 4577SOL    HW114630   0.888   2.161   4.383
 4577SOL    HW214631   0.905   2.132   4.543
 4578SOL     OW14632   0.883   2.590   5.262
 4578SOL    HW114633   0.916   2.639   5.343
 4578SOL    HW214634   0.916   2.496   5.264
 4579SOL     OW14635   3.857   0.747   3.575
 4579SOL    HW114636   3.847   0.697   3.661
 4579SOL    HW214637   3.806   0.700   3.503
 4580SOL     OW14638   5.350   4.608   1.123
 4580SOL    HW114639   5.371   4.568   1.034
 4580SOL    HW214640   5.428   4.592   1.185
 4581SOL     OW14641   2.072   5.822   2.078
 4581SOL    HW114642   2.110   5.747   2.132
 4581SOL    HW214643   1.977   5.838   2.106
 4582SOL     OW14644   4.119   0.888   4.720
 4582SOL    HW114645   4.166   0.892   4.632
 4582SOL    HW214646   4.040   0.950   4.718
 4583SOL     OW14647   2.982   2.018   6.881
 4583SOL    HW114648   3.075   2.049   6.900
 4583SOL    HW214649   2.976   1.984   6.788
 4584SOL     OW14650   0.598   4.896   5.749
 4584SOL    HW114651   0.526   4.965   5.739
 4584SOL    HW214652   0.565   4.809   5.714
 4585SOL     OW14653   1.999   5.620   3.412
 4585SOL    HW114654   2.021   5.660   3.323
 4585SOL    HW214655   2.062   5.545   3.431
 4586SOL     OW14656   3.900   4.518   0.825
 4586SOL    HW114657   3.969   4.554   0.888
 4586SOL    HW214658   3.822   4.580   0.822
 4587SOL     OW14659   3.247   3.897   3.600
 4587SOL    HW114660   3.277   3.860   3.688
 4587SOL    HW214661   3.147   3.893   3.594
 4588SOL     OW14662   2.646   3.574   5.376
 4588SOL    HW114663   2.616   3.669   5.381
 4588SOL    HW214664   2.626   3.528   5.463
 4589SOL     OW14665   6.422   0.671   2.123
 4589SOL    HW114666   6.510   0.623   2.128
 4589SOL    HW214667   6.360   0.622   2.062
 4590SOL     OW14668   4.634   4.924   1.109
 4590SOL    HW114669   4.729   4.950   1.126
 4590SOL    HW214670   4.575   5.005   1.119
 4591SOL     OW14671   1.536   0.532   4.439
 4591SOL    HW114672   1.610   0.495   4.495
 4591SOL    HW214673   1.449   0.524   4.488
 4592SOL     OW14674   2.466   1.469   3.419
 4592SOL    HW114675   2.525   1.504   3.492
 4592SOL    HW214676   2.514   1.395   3.371
 4593SOL     OW14677   5.133   5.909   2.400
 4593SOL    HW114678   5.134   6.008   2.382
 4593SOL    HW214679   5.129   5.860   2.314
 4594SOL     OW14680   2.582   1.333   3.038
 4594SOL    HW114681   2.500   1.389   3.030
 4594SOL    HW214682   2.581   1.262   2.968
 4595SOL     OW14683   4.659   3.105   5.294
 4595SOL    HW114684   4.695   3.198   5.300
 4595SOL    HW214685   4.734   3.040   5.307
 4596SOL     OW14686   6.460   0.399   2.251
 4596SOL    HW114687   6.411   0.441   2.175
 4596SOL    HW214688   6.406   0.410   2.335
 4597SOL     OW14689   4.346   5.193   6.855
 4597SOL    HW114690   4.271   5.195   6.789
 4597SOL    HW214691   4.358   5.100   6.890
 4598SOL     OW14692   1.846   5.975   0.604
 4598SOL    HW114693   1.893   5.984   0.691
 4598SOL    HW214694   1.770   5.911   0.614
 4599SOL     OW14695   1.609   4.914   7.021
 4599SOL    HW114696   1.613   5.008   0.034
 4599SOL    HW214697   1.545   4.911   6.944
 4600SOL     OW14698   1.106   5.621   5.607
 4600SOL    HW114699   1.152   5.607   5.519
 4600SOL    HW214700   1.146   5.700   5.653
 4601SOL     OW14701   2.110   1.203   5.087
 4601SOL    HW114702   2.042   1.168   5.022
 4601SOL    HW214703   2.091   1.300   5.105
 4602SOL     OW14704   3.081   6.362   0.499
 4602SOL    HW114705   3.090   6.407   0.410
 4602SOL    HW214706   3.125   6.419   0.569
 4603SOL     OW14707   3.544   6.614   0.693
 4603SOL    HW114708   3.585   6.632   0.604
 4603SOL    HW214709   3.532   6.516   0.705
 4604SOL     OW14710   4.034   6.883   0.065
 4604SOL    HW114711   3.994   6.808   0.012
 4604SOL    HW214712   3.967   6.956   0.074
 4605SOL     OW14713   1.918   6.389   2.473
 4605SOL    HW114714   1.837   6.343   2.509
 4605SOL    HW214715   1.985   6.400   2.547
 4606SOL     OW14716   0.890   6.731   1.959
 4606SOL    HW114717   0.956   6.667   1.997
 4606SOL    HW214718   0.798   6.705   1.988
 4607SOL     OW14719   2.124   3.024   2.325
 4607SOL    HW114720   2.181   3.014   2.407
 4607SOL    HW214721   2.052   3.092   2.343
 4608SOL     OW14722   0.362   5.812   3.672
 4608SOL    HW114723   0.391   5.797   3.577
 4608SOL    HW214724   0.299   5.739   3.699
 4609SOL     OW14725   4.697   4.976   6.704
 4609SOL    HW114726   4.620   5.025   6.664
 4609SOL    HW214727   4.689   4.977   6.803
 4610SOL     OW14728   4.804   1.954   0.363
 4610SOL    HW114729   4.750   2.009   0.427
 4610SOL    HW214730   4.826   1.866   0.405
 4611SOL     OW14731   1.330   6.468   6.357
 4611SOL    HW114732   1.382   6.544   6.395
 4611SOL    HW214733   1.320   6.397   6.426
 4612SOL     OW14734   1.658   6.377   0.879
 4612SOL    HW114735   1.598   6.438   0.931
 4612SOL    HW214736   1.633   6.380   0.783
 4613SOL     OW14737   1.625   5.310   1.869
 4613SOL    HW114738   1.708   5.347   1.827
 4613SOL    HW214739   1.553   5.380   1.870
 4614SOL     OW14740   6.222   3.599   2.648
 4614SOL    HW114741   6.207   3.614   2.746
 4614SOL    HW214742   6.309   3.640   2.621
 4615SOL     OW14743   1.622   0.860   0.021
 4615SOL    HW114744   1.660   0.776   7.005
 4615SOL    HW214745   1.594   0.922   6.971
 4616SOL     OW14746   6.322   1.257   4.639
 4616SOL    HW114747   6.288   1.177   4.591
 4616SOL    HW214748   6.349   1.327   4.572
 4617SOL     OW14749   0.784   2.505   2.130
 4617SOL    HW114750   0.743   2.418   2.103
 4617SOL    HW214751   0.760   2.525   2.226
 4618SOL     OW14752   2.333   2.865   5.316
 4618SOL    HW114753   2.247   2.865   5.264
 4618SOL    HW214754   2.396   2.933   5.276
 4619SOL     OW14755   3.292   6.431   3.161
 4619SOL    HW114756   3.193   6.430   3.174
 4619SOL    HW214757   3.336   6.376   3.232
 4620SOL     OW14758   2.418   4.775   0.819
 4620SOL    HW114759   2.344   4.709   0.807
 4620SOL    HW214760   2.428   4.796   0.916
 4621SOL     OW14761   4.889   0.817   2.608
 4621SOL    HW114762   4.804   0.800   2.658
 4621SOL    HW214763   4.871   0.811   2.510
 4622SOL     OW14764   3.131   4.418   0.515
 4622SOL    HW114765   3.149   4.419   0.614
 4622SOL    HW214766   3.207   4.463   0.467
 4623SOL     OW14767   5.519   6.085   1.683
 4623SOL    HW114768   5.537   6.109   1.779
 4623SOL    HW214769   5.492   5.989   1.677
 4624SOL     OW14770   3.476   6.884   2.963
 4624SOL    HW114771   3.571   6.880   2.933
 4624SOL    HW214772   3.417   6.902   2.884
 4625SOL     OW14773   1.980   4.802   1.275
 4625SOL    HW114774   1.886   4.835   1.280
 4625SOL    HW214775   2.011   4.802   1.180
 4626SOL     OW14776   5.332   4.346   2.335
 4626SOL    HW114777   5.427   4.363   2.307
 4626SOL    HW214778   5.299   4.424   2.388
 4627SOL     OW14779   1.857   4.512   5.141
 4627SOL    HW114780   1.890   4.424   5.107
 4627SOL    HW214781   1.871   4.582   5.072
 4628SOL     OW14782   4.778   4.171   4.389
 4628SOL    HW114783   4.840   4.129   4.455
 4628SOL    HW214784   4.725   4.243   4.434
 4629SOL     OW14785   3.041   5.144   5.319
 4629SOL    HW114786   3.078   5.065   5.368
 4629SOL    HW214787   3.115   5.208   5.298
 4630SOL     OW14788   2.700   6.126   1.896
 4630SOL    HW114789   2.720   6.106   1.992
 4630SOL    HW214790   2.612   6.086   1.871
 4631SOL     OW14791   1.475   5.995   3.377
 4631SOL    HW114792   1.387   5.967   3.340
 4631SOL    HW214793   1.513   6.069   3.321
 4632SOL     OW14794   2.585   4.790   2.948
 4632SOL    HW114795   2.563   4.748   3.036
 4632SOL    HW214796   2.646   4.868   2.963
 4633SOL     OW14797   6.011   0.822   4.988
 4633SOL    HW114798   5.964   0.781   5.067
 4633SOL    HW214799   6.110   0.809   4.999
 4634SOL     OW14800   2.536   3.806   5.375
 4634SOL    HW114801   2.496   3.843   5.292
 4634SOL    HW214802   2.506   3.858   5.454
 4635SOL     OW14803   5.137   3.688   1.621
 4635SOL    HW114804   5.059   3.637   1.585
 4635SOL    HW214805   5.115   3.785   1.625
 4636SOL     OW14806   2.206   4.241   0.269
 4636SOL    HW114807   2.238   4.333   0.247
 4636SOL    HW214808   2.196   4.231   0.368
 4637SOL     OW14809   0.884   6.798   1.169
 4637SOL    HW114810   0.983   6.812   1.164
 4637SOL    HW214811   0.855   6.806   1.265
 4638SOL     OW14812   4.348   4.193   0.099
 4638SOL    HW114813   4.388   4.250   0.171
 4638SOL    HW214814   4.281   4.131   0.140
 4639SOL     OW14815   3.421   3.383   6.155
 4639SOL    HW114816   3.401   3.463   6.099
 4639SOL    HW214817   3.418   3.301   6.099
 4640SOL     OW14818   4.844   3.879   3.809
 4640SOL    HW114819   4.878   3.824   3.886
 4640SOL    HW214820   4.792   3.956   3.843
 4641SOL     OW14821   2.531   0.455   4.768
 4641SOL    HW114822   2.475   0.536   4.751
 4641SOL    HW214823   2.508   0.416   4.857
 4642SOL     OW14824   0.849   6.587   3.646
 4642SOL    HW114825   0.896   6.511   3.602
 4642SOL    HW214826   0.751   6.567   3.651
 4643SOL     OW14827   6.919   2.101   0.541
 4643SOL    HW114828   6.963   2.162   0.606
 4643SOL    HW214829   6.820   2.115   0.544
 4644SOL     OW14830   0.575   5.610   5.139
 4644SOL    HW114831   0.597   5.652   5.051
 4644SOL    HW214832   0.660   5.589   5.188
 4645SOL     OW14833   0.693   0.168   3.944
 4645SOL    HW114834   0.594   0.157   3.935
 4645SOL    HW214835   0.724   0.241   3.883
 4646SOL     OW14836   2.185   5.370   3.418
 4646SOL    HW114837   2.145   5.283   3.446
 4646SOL    HW214838   2.276   5.379   3.458
 4647SOL     OW14839   1.688   0.357   3.274
 4647SOL    HW114840   1.669   0.443   3.227
 4647SOL    HW214841   1.742   0.297   3.215
 4648SOL     OW14842   3.500   0.302   3.237
 4648SOL    HW114843   3.546   0.339   3.155
 4648SOL    HW214844   3.507   0.369   3.311
 4649SOL     OW14845   5.407   0.846   6.825
 4649SOL    HW114846   5.390   0.773   6.759
 4649SOL    HW214847   5.487   0.822   6.880
 4650SOL     OW14848   4.687   5.783   2.563
 4650SOL    HW114849   4.673   5.870   2.610
 4650SOL    HW214850   4.703   5.711   2.630
 4651SOL     OW14851   6.551   3.694   0.057
 4651SOL    HW114852   6.468   3.669   0.107
 4651SOL    HW214853   6.631   3.659   0.107
 4652SOL     OW14854   5.516   6.449   4.201
 4652SOL    HW114855   5.598   6.491   4.241
 4652SOL    HW214856   5.536   6.353   4.179
 4653SOL     OW14857   4.857   5.380   0.959
 4653SOL    HW114858   4.903   5.328   0.887
 4653SOL    HW214859   4.868   5.334   1.046
 4654SOL     OW14860   0.652   6.364   7.017
 4654SOL    HW114861   0.614   6.457   7.023
 4654SOL    HW214862   0.746   6.365   0.027
 4655SOL     OW14863   6.064   3.986   1.078
 4655SOL    HW114864   6.137   4.032   1.128
 4655SOL    HW214865   5.977   4.000   1.127
 4656SOL     OW14866   1.306   0.364   1.991
 4656SOL    HW114867   1.208   0.377   1.999
 4656SOL    HW214868   1.325   0.291   1.924
 4657SOL     OW14869   4.224   5.581   1.400
 4657SOL    HW114870   4.223   5.487   1.367
 4657SOL    HW214871   4.271   5.585   1.489
 4658SOL     OW14872   3.342   0.296   3.776
 4658SOL    HW114873   3.319   0.272   3.870
 4658SOL    HW214874   3.350   0.213   3.721
 4659SOL     OW14875   3.294   4.211   5.567
 4659SOL    HW114876   3.321   4.127   5.520
 4659SOL    HW214877   3.273   4.281   5.499
 4660SOL     OW14878   0.795   5.295   5.300
 4660SOL    HW114879   0.834   5.298   5.392
 4660SOL    HW214880   0.819   5.207   5.257
 4661SOL     OW14881   3.323   4.308   5.974
 4661SOL    HW114882   3.250   4.336   6.036
 4661SOL    HW214883   3.284   4.269   5.891
 4662SOL     OW14884   3.207   0.147   5.270
 4662SOL    HW114885   3.268   0.097   5.208
 4662SOL    HW214886   3.124   0.173   5.221
 4663SOL     OW14887   0.249   1.454   1.153
 4663SOL    HW114888   0.262   1.406   1.239
 4663SOL    HW214889   0.194   1.536   1.168
 4664SOL     OW14890   1.668   1.439   1.107
 4664SOL    HW114891   1.629   1.525   1.075
 4664SOL    HW214892   1.675   1.375   1.031
 4665SOL     OW14893   3.874   6.116   6.243
 4665SOL    HW114894   3.898   6.108   6.146
 4665SOL    HW214895   3.921   6.194   6.283
 4666SOL     OW14896   2.514   2.704   6.798
 4666SOL    HW114897   2.454   2.655   6.735
 4666SOL    HW214898   2.529   2.648   6.880
 4667SOL     OW14899   6.637   3.895   1.872
 4667SOL    HW114900   6.639   3.959   1.795
 4667SOL    HW214901   6.587   3.936   1.948
 4668SOL     OW14902   4.718   2.055   3.253
 4668SOL    HW114903   4.719   1.970   3.306
 4668SOL    HW214904   4.655   2.045   3.176
 4669SOL     OW14905   5.306   6.142   0.547
 4669SOL    HW114906   5.271   6.069   0.605
 4669SOL    HW214907   5.382   6.107   0.492
 4670SOL     OW14908   1.702   2.650   5.804
 4670SOL    HW114909   1.747   2.567   5.838
 4670SOL    HW214910   1.621   2.669   5.860
 4671SOL     OW14911   0.305   3.217   0.092
 4671SOL    HW114912   0.293   3.223   7.016
 4671SOL    HW214913   0.219   3.191   0.135
 4672SOL     OW14914   2.778   5.226   5.355
 4672SOL    HW114915   2.744   5.287   5.283
 4672SOL    HW214916   2.861   5.181   5.325
 4673SOL     OW14917   4.783   0.175   2.221
 4673SOL    HW114918   4.825   0.223   2.297
 4673SOL    HW214919   4.764   0.240   2.147
 4674SOL     OW14920   4.844   0.711   6.209
 4674SOL    HW114921   4.803   0.802   6.207
 4674SOL    HW214922   4.869   0.687   6.302
 4675SOL     OW14923   2.079   1.330   6.710
 4675SOL    HW114924   2.168   1.375   6.710
 4675SOL    HW214925   2.082   1.249   6.768
 4676SOL     OW14926   6.301   6.241   4.148
 4676SOL    HW114927   6.206   6.234   4.117
 4676SOL    HW214928   6.334   6.150   4.174
 4677SOL     OW14929   2.364   1.157   6.554
 4677SOL    HW114930   2.428   1.222   6.513
 4677SOL    HW214931   2.363   1.073   6.500
 4678SOL     OW14932   1.867   4.409   2.856
 4678SOL    HW114933   1.894   4.500   2.887
 4678SOL    HW214934   1.945   4.364   2.812
 4679SOL     OW14935   3.294   1.386   6.978
 4679SOL    HW114936   3.196   1.370   6.985
 4679SOL    HW214937   3.321   1.458   0.017
 4680SOL     OW14938   2.520   1.597   0.819
 4680SOL    HW114939   2.510   1.500   0.844
 4680SOL    HW214940   2.492   1.654   0.897
 4681SOL     OW14941   5.307   6.039   6.235
 4681SOL    HW114942   5.255   5.954   6.230
 4681SOL    HW214943   5.335   6.068   6.143
 4682SOL     OW14944   4.052   4.838   5.806
 4682SOL    HW114945   4.047   4.841   5.906
 4682SOL    HW214946   4.144   4.861   5.776
 4683SOL     OW14947   4.486   4.650   3.015
 4683SOL    HW114948   4.461   4.676   2.921
 4683SOL    HW214949   4.549   4.719   3.052
 4684SOL     OW14950   6.573   1.982   5.618
 4684SOL    HW114951   6.525   2.003   5.704
 4684SOL    HW214952   6.584   1.883   5.609
 4685SOL     OW14953   0.490   6.163   5.082
 4685SOL    HW114954   0.581   6.136   5.110
 4685SOL    HW214955   0.467   6.252   5.122
 4686SOL     OW14956   4.953   5.324   0.340
 4686SOL    HW114957   4.856   5.331   0.318
 4686SOL    HW214958   5.006   5.379   0.276
 4687SOL     OW14959   6.304   4.114   5.264
 4687SOL    HW114960   6.326   4.031   5.213
 4687SOL    HW214961   6.304   4.192   5.202
 4688SOL     OW14962   6.114   3.829   5.537
 4688SOL    HW114963   6.206   3.794   5.522
 4688SOL    HW214964   6.083   3.805   5.629
 4689SOL     OW14965   5.692   0.600   0.318
 4689SOL    HW114966   5.608   0.547   0.307
 4689SOL    HW214967   5.714   0.608   0.416
 4690SOL     OW14968   1.298   0.641   0.124
 4690SOL    HW114969   1.315   0.559   0.070
 4690SOL    HW214970   1.290   0.720   0.064
 4691SOL     OW14971   2.822   4.734   2.268
 4691SOL    HW114972   2.826   4.694   2.177
 4691SOL    HW214973   2.770   4.674   2.329
 4692SOL     OW14974   5.923   5.714   2.209
 4692SOL    HW114975   5.899   5.806   2.240
 4692SOL    HW214976   5.845   5.653   2.222
 4693SOL     OW14977   0.634   0.884   3.203
 4693SOL    HW114978   0.672   0.865   3.293
 4693SOL    HW214979   0.709   0.903   3.139
 4694SOL     OW14980   2.574   0.006   0.388
 4694SOL    HW114981   2.613   7.008   0.299
 4694SOL    HW214982   2.568   6.946   0.443
 4695SOL     OW14983   2.164   3.513   1.634
 4695SOL    HW114984   2.184   3.599   1.681
 4695SOL    HW214985   2.176   3.437   1.698
 4696SOL     OW14986   0.015   3.865   6.208
 4696SOL    HW114987   0.102   3.913   6.204
 4696SOL    HW214988   6.997   3.862   6.117
 4697SOL     OW14989   2.365   3.564   0.966
 4697SOL    HW114990   2.445   3.536   0.914
 4697SOL    HW214991   2.381   3.653   1.009
 4698SOL     OW14992   4.466   5.816   2.888
 4698SOL    HW114993   4.435   5.874   2.812
 4698SOL    HW214994   4.403   5.740   2.900
 4699SOL     OW14995   2.005   6.683   1.750
 4699SOL    HW114996   1.953   6.634   1.819
 4699SOL    HW214997   2.046   6.617   1.686
 4700SOL     OW14998   6.606   1.376   2.495
 4700SOL    HW114999   6.633   1.316   2.570
 4700SOL    HW215000   6.682   1.389   2.432
 4701SOL     OW15001   2.224   2.273   0.269
 4701SOL    HW115002   2.169   2.192   0.291
 4701SOL    HW215003   2.312   2.243   0.230
 4702SOL     OW15004   5.960   4.803   0.019
 4702SOL    HW115005   5.892   4.730   0.008
 4702SOL    HW215006   5.929   4.886   6.996
 4703SOL     OW15007   1.073   1.982   1.427
 4703SOL    HW115008   1.027   1.894   1.440
 4703SOL    HW215009   1.012   2.044   1.379
 4704SOL     OW15010   1.271   0.044   6.785
 4704SOL    HW115011   1.215   6.984   6.780
 4704SOL    HW215012   1.341   0.032   6.855
 4705SOL     OW15013   3.506   3.501   2.655
 4705SOL    HW115014   3.552   3.566   2.595
 4705SOL    HW215015   3.572   3.433   2.686
 4706SOL     OW15016   4.022   6.339   6.290
 4706SOL    HW115017   4.093   6.312   6.355
 4706SOL    HW215018   4.064   6.377   6.207
 4707SOL     OW15019   2.719   5.980   1.135
 4707SOL    HW115020   2.812   5.945   1.144
 4707SOL    HW215021   2.664   5.915   1.082
 4708SOL     OW15022   1.304   2.084   6.791
 4708SOL    HW115023   1.403   2.074   6.791
 4708SOL    HW215024   1.275   2.137   6.711
 4709SOL     OW15025   4.503   6.099   6.077
 4709SOL    HW115026   4.586   6.072   6.126
 4709SOL    HW215027   4.456   6.017   6.044
 4710SOL     OW15028   3.915   1.163   5.231
 4710SOL    HW115029   3.852   1.085   5.225
 4710SOL    HW215030   3.866   1.247   5.210
 4711SOL     OW15031   6.034   0.850   1.918
 4711SOL    HW115032   6.024   0.939   1.872
 4711SOL    HW215033   6.124   0.844   1.960
 4712SOL     OW15034   3.005   4.479   0.051
 4712SOL    HW115035   3.096   4.471   0.010
 4712SOL    HW215036   3.002   4.427   0.136
 4713SOL     OW15037   3.511   3.317   0.891
 4713SOL    HW115038   3.448   3.242   0.872
 4713SOL    HW215039   3.601   3.295   0.853
 4714SOL     OW15040   1.353   2.409   6.887
 4714SOL    HW115041   1.291   2.441   6.815
 4714SOL    HW215042   1.358   2.309   6.885
 4715SOL     OW15043   6.809   3.000   2.077
 4715SOL    HW115044   6.736   2.953   2.127
 4715SOL    HW215045   6.884   2.936   2.060
 4716SOL     OW15046   4.762   6.184   6.432
 4716SOL    HW115047   4.750   6.087   6.449
 4716SOL    HW215048   4.692   6.236   6.482
 4717SOL     OW15049   0.695   6.535   3.414
 4717SOL    HW115050   0.688   6.633   3.433
 4717SOL    HW215051   0.607   6.491   3.432
 4718SOL     OW15052   5.557   2.790   0.764
 4718SOL    HW115053   5.496   2.764   0.839
 4718SOL    HW215054   5.522   2.752   0.679
 4719SOL     OW15055   5.364   3.018   2.195
 4719SOL    HW115056   5.399   2.925   2.200
 4719SOL    HW215057   5.398   3.071   2.273
 4720SOL     OW15058   1.881   5.802   5.933
 4720SOL    HW115059   1.935   5.722   5.961
 4720SOL    HW215060   1.822   5.777   5.856
 4721SOL     OW15061   6.373   2.578   1.689
 4721SOL    HW115062   6.296   2.550   1.746
 4721SOL    HW215063   6.445   2.509   1.694
 4722SOL     OW15064   0.779   5.961   6.658
 4722SOL    HW115065   0.867   5.942   6.614
 4722SOL    HW215066   0.713   5.992   6.590
 4723SOL     OW15067   2.170   4.228   6.272
 4723SOL    HW115068   2.074   4.202   6.283
 4723SOL    HW215069   2.228   4.165   6.325
 4724SOL     OW15070   5.242   6.245   2.997
 4724SOL    HW115071   5.183   6.187   2.940
 4724SOL    HW215072   5.223   6.341   2.976
 4725SOL     OW15073   6.377   6.418   2.649
 4725SOL    HW115074   6.315   6.461   2.714
 4725SOL    HW215075   6.335   6.337   2.610
 4726SOL     OW15076   1.566   2.273   6.497
 4726SOL    HW115077   1.597   2.340   6.430
 4726SOL    HW215078   1.594   2.302   6.589
 4727SOL     OW15079   1.143   6.214   0.305
 4727SOL    HW115080   1.059   6.261   0.275
 4727SOL    HW215081   1.120   6.124   0.340
 4728SOL     OW15082   5.139   0.706   1.155
 4728SOL    HW115083   5.089   0.700   1.068
 4728SOL    HW215084   5.159   0.614   1.188
 4729SOL     OW15085   2.586   1.551   1.433
 4729SOL    HW115086   2.656   1.585   1.496
 4729SOL    HW215087   2.571   1.453   1.450
 4730SOL     OW15088   3.390   5.643   4.417
 4730SOL    HW115089   3.390   5.555   4.464
 4730SOL    HW215090   3.460   5.644   4.346
 4731SOL     OW15091   4.327   0.078   6.327
 4731SOL    HW115092   4.381   0.059   6.410
 4731SOL    HW215093   4.277   7.020   6.301
 4732SOL     OW15094   0.722   3.613   5.645
 4732SOL    HW115095   0.746   3.652   5.734
 4732SOL    HW215096   0.636   3.563   5.653
 4733SOL     OW15097   1.760   4.654   3.854
 4733SOL    HW115098   1.814   4.570   3.857
 4733SOL    HW215099   1.815   4.727   3.812
 4734SOL     OW15100   4.862   2.542   0.050
 4734SOL    HW115101   4.846   2.637   0.076
 4734SOL    HW215102   4.941   2.507   0.100
 4735SOL     OW15103   0.393   5.552   4.795
 4735SOL    HW115104   0.303   5.555   4.840
 4735SOL    HW215105   0.384   5.579   4.700
 4736SOL     OW15106   6.912   2.390   6.588
 4736SOL    HW115107   6.930   2.298   6.554
 4736SOL    HW215108   6.934   2.395   6.685
 4737SOL     OW15109   1.947   4.431   2.182
 4737SOL    HW115110   1.903   4.347   2.150
 4737SOL    HW215111   1.878   4.496   2.213
 4738SOL     OW15112   0.168   6.591   3.244
 4738SOL    HW115113   0.069   6.601   3.231
 4738SOL    HW215114   0.188   6.583   3.341
 4739SOL     OW15115   4.183   6.539   3.109
 4739SOL    HW115116   4.107   6.584   3.062
 4739SOL    HW215117   4.268   6.585   3.087
 4740SOL     OW15118   0.978   1.534   0.822
 4740SOL    HW115119   0.887   1.494   0.838
 4740SOL    HW215120   1.036   1.517   0.902
 4741SOL     OW15121   3.550   3.365   1.496
 4741SOL    HW115122   3.574   3.448   1.548
 4741SOL    HW215123   3.455   3.340   1.517
 4742SOL     OW15124   3.182   6.487   5.830
 4742SOL    HW115125   3.228   6.513   5.915
 4742SOL    HW215126   3.103   6.429   5.852
 4743SOL     OW15127   1.480   3.902   2.960
 4743SOL    HW115128   1.578   3.920   2.958
 4743SOL    HW215129   1.433   3.975   3.011
 4744SOL     OW15130   1.964   4.608   0.658
 4744SOL    HW115131   2.022   4.598   0.739
 4744SOL    HW215132   2.016   4.654   0.586
 4745SOL     OW15133   2.989   3.503   5.874
 4745SOL    HW115134   2.941   3.536   5.955
 4745SOL    HW215135   2.998   3.404   5.878
 4746SOL     OW15136   5.181   6.095   3.440
 4746SOL    HW115137   5.087   6.072   3.417
 4746SOL    HW215138   5.232   6.115   3.356
 4747SOL     OW15139   1.750   3.837   6.858
 4747SOL    HW115140   1.822   3.865   6.923
 4747SOL    HW215141   1.686   3.912   6.845
 4748SOL     OW15142   2.386   5.427   1.567
 4748SOL    HW115143   2.464   5.392   1.617
 4748SOL    HW215144   2.415   5.502   1.508
 4749SOL     OW15145   2.411   6.341   5.825
 4749SOL    HW115146   2.389   6.246   5.805
 4749SOL    HW215147   2.401   6.396   5.742
 4750SOL     OW15148   6.968   4.409   4.756
 4750SOL    HW115149   7.005   4.500   4.773
 4750SOL    HW215150   6.869   4.414   4.748
 4751SOL     OW15151   4.198   1.894   3.027
 4751SOL    HW115152   4.160   1.881   3.119
 4751SOL    HW215153   4.123   1.903   2.961
 4752SOL     OW15154   4.411   1.188   6.944
 4752SOL    HW115155   4.425   1.270   6.999
 4752SOL    HW215156   4.415   1.108   7.003
 4753SOL     OW15157   6.955   0.166   4.711
 4753SOL    HW115158   6.932   0.079   4.667
 4753SOL    HW215159   6.973   0.150   4.808
 4754SOL     OW15160   5.501   4.121   4.873
 4754SOL    HW115161   5.547   4.167   4.948
 4754SOL    HW215162   5.424   4.177   4.842
 4755SOL     OW15163   2.786   0.753   0.284
 4755SOL    HW115164   2.694   0.747   0.247
 4755SOL    HW215165   2.836   0.827   0.239
 4756SOL     OW15166   5.683   3.327   5.952
 4756SOL    HW115167   5.664   3.327   5.854
 4756SOL    HW215168   5.609   3.281   6.000
 4757SOL     OW15169   2.612   1.996   1.644
 4757SOL    HW115170   2.513   1.996   1.657
 4757SOL    HW215171   2.652   2.077   1.687
 4758SOL     OW15172   1.443   6.767   3.236
 4758SOL    HW115173   1.486   6.808   3.156
 4758SOL    HW215174   1.347   6.797   3.242
 4759SOL     OW15175   0.057   5.093   6.184
 4759SOL    HW115176   0.081   4.996   6.172
 4759SOL    HW215177   6.984   5.100   6.211
 4760SOL     OW15178   2.353   1.954   0.467
 4760SOL    HW115179   2.451   1.963   0.450
 4760SOL    HW215180   2.338   1.886   0.539
 4761SOL     OW15181   1.072   6.473   0.656
 4761SOL    HW115182   1.030   6.383   0.648
 4761SOL    HW215183   1.109   6.485   0.748
 4762SOL     OW15184   1.321   5.054   1.505
 4762SOL    HW115185   1.412   5.018   1.485
 4762SOL    HW215186   1.328   5.125   1.575
 4763SOL     OW15187   5.933   0.395   2.408
 4763SOL    HW115188   5.925   0.357   2.499
 4763SOL    HW215189   5.879   0.479   2.402
 4764SOL     OW15190   4.683   4.105   5.265
 4764SOL    HW115191   4.684   4.021   5.319
 4764SOL    HW215192   4.591   4.145   5.269
 4765SOL     OW15193   3.796   0.768   5.218
 4765SOL    HW115194   3.730   0.695   5.205
 4765SOL    HW215195   3.873   0.735   5.272
 4766SOL     OW15196   5.643   5.528   3.481
 4766SOL    HW115197   5.554   5.573   3.475
 4766SOL    HW215198   5.659   5.476   3.397
 4767SOL     OW15199   2.891   5.191   4.751
 4767SOL    HW115200   2.978   5.150   4.776
 4767SOL    HW215201   2.832   5.198   4.831
 4768SOL     OW15202   4.528   1.900   6.313
 4768SOL    HW115203   4.513   1.853   6.225
 4768SOL    HW215204   4.615   1.948   6.310
 4769SOL     OW15205   5.231   6.138   0.252
 4769SOL    HW115206   5.184   6.193   0.183
 4769SOL    HW215207   5.284   6.197   0.313
 4770SOL     OW15208   6.685   1.435   4.629
 4770SOL    HW115209   6.678   1.375   4.709
 4770SOL    HW215210   6.603   1.426   4.573
 4771SOL     OW15211   3.516   6.587   5.962
 4771SOL    HW115212   3.518   6.626   6.054
 4771SOL    HW215213   3.554   6.494   5.964
 4772SOL     OW15214   3.647   4.765   0.225
 4772SOL    HW115215   3.609   4.677   0.196
 4772SOL    HW215216   3.583   4.810   0.288
 4773SOL     OW15217   6.792   5.133   5.495
 4773SOL    HW115218   6.702   5.127   5.539
 4773SOL    HW215219   6.844   5.207   5.537
 4774SOL     OW15220   1.455   3.757   1.119
 4774SOL    HW115221   1.540   3.707   1.103
 4774SOL    HW215222   1.377   3.696   1.108
 4775SOL     OW15223   4.949   6.300   3.320
 4775SOL    HW115224   4.899   6.265   3.400
 4775SOL    HW215225   5.038   6.335   3.350
 4776SOL     OW15226   0.562   0.110   5.115
 4776SOL    HW115227   0.637   0.118   5.049
 4776SOL    HW215228   0.516   0.198   5.124
 4777SOL     OW15229   1.217   4.955   1.122
 4777SOL    HW115230   1.257   4.888   1.185
 4777SOL    HW215231   1.230   4.923   1.028
 4778SOL     OW15232   6.566   3.301   4.187
 4778SOL    HW115233   6.549   3.360   4.267
 4778SOL    HW215234   6.653   3.253   4.199
 4779SOL     OW15235   5.270   0.590   2.797
 4779SOL    HW115236   5.192   0.527   2.804
 4779SOL    HW215237   5.344   0.545   2.747
 4780SOL     OW15238   6.345   2.385   0.146
 4780SOL    HW115239   6.398   2.469   0.161
 4780SOL    HW215240   6.405   2.305   0.156
 4781SOL     OW15241   2.304   5.211   2.676
 4781SOL    HW115242   2.397   5.212   2.639
 4781SOL    HW215243   2.250   5.283   2.633
 4782SOL     OW15244   5.970   5.358   0.040
 4782SOL    HW115245   5.979   5.274   0.093
 4782SOL    HW215246   5.969   5.337   6.966
 4783SOL     OW15247   4.972   3.493   0.167
 4783SOL    HW115248   4.949   3.489   0.264
 4783SOL    HW215249   5.064   3.529   0.156
 4784SOL     OW15250   6.056   2.190   6.411
 4784SOL    HW115251   5.993   2.262   6.381
 4784SOL    HW215252   6.116   2.226   6.482
 4785SOL     OW15253   0.628   5.949   3.299
 4785SOL    HW115254   0.546   5.975   3.247
 4785SOL    HW215255   0.708   5.957   3.240
 4786SOL     OW15256   2.477   0.246   0.513
 4786SOL    HW115257   2.508   0.168   0.459
 4786SOL    HW215258   2.503   0.331   0.468
 4787SOL     OW15259   4.113   1.287   3.061
 4787SOL    HW115260   4.110   1.374   3.108
 4787SOL    HW215261   4.205   1.272   3.024
 4788SOL     OW15262   6.716   6.880   0.033
 4788SOL    HW115263   6.750   6.824   0.108
 4788SOL    HW215264   6.619   6.902   0.050
 4789SOL     OW15265   5.830   1.799   2.240
 4789SOL    HW115266   5.809   1.721   2.181
 4789SOL    HW215267   5.755   1.865   2.236
 4790SOL     OW15268   5.639   1.765   5.686
 4790SOL    HW115269   5.605   1.683   5.731
 4790SOL    HW215270   5.597   1.846   5.728
 4791SOL     OW15271   0.320   2.915   1.163
 4791SOL    HW115272   0.356   2.890   1.073
 4791SOL    HW215273   0.339   3.011   1.182
 4792SOL     OW15274   2.516   4.579   3.749
 4792SOL    HW115275   2.453   4.540   3.816
 4792SOL    HW215276   2.530   4.513   3.675
 4793SOL     OW15277   1.765   2.613   5.371
 4793SOL    HW115278   1.691   2.662   5.418
 4793SOL    HW215279   1.810   2.553   5.437
 4794SOL     OW15280   5.068   6.976   4.931
 4794SOL    HW115281   4.982   7.016   4.961
 4794SOL    HW215282   5.067   6.964   4.832
 4795SOL     OW15283   6.357   2.288   4.240
 4795SOL    HW115284   6.426   2.318   4.306
 4795SOL    HW215285   6.274   2.342   4.252
 4796SOL     OW15286   3.913   0.874   4.975
 4796SOL    HW115287   4.008   0.906   4.964
 4796SOL    HW215288   3.896   0.849   5.070
 4797SOL     OW15289   0.546   6.899   4.820
 4797SOL    HW115290   0.531   6.996   4.803
 4797SOL    HW215291   0.548   6.849   4.733
 4798SOL     OW15292   0.528   4.464   5.577
 4798SOL    HW115293   0.546   4.386   5.636
 4798SOL    HW215294   0.454   4.442   5.513
 4799SOL     OW15295   3.974   1.746   0.664
 4799SOL    HW115296   3.962   1.757   0.763
 4799SOL    HW215297   4.012   1.655   0.646
 4800SOL     OW15298   2.445   2.946   6.644
 4800SOL    HW115299   2.475   2.875   6.707
 4800SOL    HW215300   2.515   2.958   6.573
 4801SOL     OW15301   3.117   2.380   6.843
 4801SOL    HW115302   3.088   2.349   6.753
 4801SOL    HW215303   3.167   2.306   6.889
 4802SOL     OW15304   0.186   6.677   1.787
 4802SOL    HW115305   0.195   6.755   1.849
 4802SOL    HW215306   0.276   6.653   1.751
 4803SOL     OW15307   0.645   4.279   0.167
 4803SOL    HW115308   0.576   4.207   0.160
 4803SOL    HW215309   0.736   4.241   0.147
 4804SOL     OW15310   6.746   6.486   1.240
 4804SOL    HW115311   6.766   6.436   1.156
 4804SOL    HW215312   6.809   6.457   1.312
 4805SOL     OW15313   6.229   0.910   2.607
 4805SOL    HW115314   6.259   0.867   2.522
 4805SOL    HW215315   6.131   0.893   2.620
 4806SOL     OW15316   1.138   4.306   2.407
 4806SOL    HW115317   1.103   4.247   2.334
 4806SOL    HW215318   1.135   4.255   2.494
 4807SOL     OW15319   0.554   4.624   6.828
 4807SOL    HW115320   0.586   4.595   6.919
 4807SOL    HW215321   0.541   4.723   6.827
 4808SOL     OW15322   4.425   5.585   0.279
 4808SOL    HW115323   4.487   5.623   0.348
 4808SOL    HW215324   4.452   5.491   0.258
 4809SOL     OW15325   3.327   4.715   0.618
 4809SOL    HW115326   3.234   4.711   0.653
 4809SOL    HW215327   3.376   4.630   0.641
 4810SOL     OW15328   1.058   4.012   3.148
 4810SOL    HW115329   0.993   3.939   3.125
 4810SOL    HW215330   1.133   3.974   3.203
 4811SOL     OW15331   3.367   3.895   2.376
 4811SOL    HW115332   3.272   3.920   2.397
 4811SOL    HW215333   3.424   3.978   2.378
 4812SOL     OW15334   0.744   6.532   2.673
 4812SOL    HW115335   0.828   6.548   2.621
 4812SOL    HW215336   0.690   6.616   2.677
 4813SOL     OW15337   5.907   1.166   6.185
 4813SOL    HW115338   5.967   1.106   6.238
 4813SOL    HW215339   5.829   1.115   6.151
 4814SOL     OW15340   6.974   2.969   1.110
 4814SOL    HW115341   6.938   2.994   1.199
 4814SOL    HW215342   0.014   2.893   1.120
 4815SOL     OW15343   5.383   4.050   2.777
 4815SOL    HW115344   5.338   4.114   2.715
 4815SOL    HW215345   5.320   4.026   2.852
 4816SOL     OW15346   2.392   4.959   1.047
 4816SOL    HW115347   2.460   5.030   1.031
 4816SOL    HW215348   2.420   4.904   1.126
 4817SOL     OW15349   2.444   1.350   0.451
 4817SOL    HW115350   2.411   1.351   0.546
 4817SOL    HW215351   2.460   1.256   0.423
 4818SOL     OW15352   0.428   0.508   4.008
 4818SOL    HW115353   0.385   0.538   4.093
 4818SOL    HW215354   0.369   0.530   3.931
 4819SOL     OW15355   2.176   2.162   1.076
 4819SOL    HW115356   2.173   2.247   1.025
 4819SOL    HW215357   2.185   2.085   1.013
 4820SOL     OW15358   6.247   2.148   0.727
 4820SOL    HW115359   6.289   2.233   0.761
 4820SOL    HW215360   6.192   2.107   0.800
 4821SOL     OW15361   0.532   0.002   1.974
 4821SOL    HW115362   0.544   0.012   1.875
 4821SOL    HW215363   0.588   0.071   2.021
 4822SOL     OW15364   1.930   3.319   4.046
 4822SOL    HW115365   2.007   3.280   3.996
 4822SOL    HW215366   1.903   3.406   4.004
 4823SOL     OW15367   1.104   0.894   3.986
 4823SOL    HW115368   1.108   0.808   3.935
 4823SOL    HW215369   1.195   0.917   4.021
 4824SOL     OW15370   5.231   1.809   4.027
 4824SOL    HW115371   5.262   1.799   4.122
 4824SOL    HW215372   5.310   1.826   3.968
 4825SOL     OW15373   1.972   2.128   5.092
 4825SOL    HW115374   1.872   2.131   5.093
 4825SOL    HW215375   2.003   2.091   5.005
 4826SOL     OW15376   0.384   0.435   6.184
 4826SOL    HW115377   0.355   0.354   6.236
 4826SOL    HW215378   0.419   0.407   6.095
 4827SOL     OW15379   5.739   2.197   1.828
 4827SOL    HW115380   5.707   2.263   1.760
 4827SOL    HW215381   5.661   2.144   1.862
 4828SOL     OW15382   5.645   2.630   1.510
 4828SOL    HW115383   5.674   2.649   1.603
 4828SOL    HW215384   5.568   2.690   1.486
 4829SOL     OW15385   4.058   6.146   6.872
 4829SOL    HW115386   4.106   6.104   6.795
 4829SOL    HW215387   3.973   6.098   6.889
 4830SOL     OW15388   4.241   6.553   3.391
 4830SOL    HW115389   4.339   6.536   3.385
 4830SOL    HW215390   4.198   6.532   3.303
 4831SOL     OW15391   0.172   5.122   6.668
 4831SOL    HW115392   0.164   5.047   6.603
 4831SOL    HW215393   0.083   5.167   6.677
 4832SOL     OW15394   3.251   2.691   5.898
 4832SOL    HW115395   3.220   2.632   5.824
 4832SOL    HW215396   3.316   2.642   5.955
 4833SOL     OW15397   5.303   2.004   3.315
 4833SOL    HW115398   5.328   2.054   3.232
 4833SOL    HW215399   5.253   2.064   3.377
 4834SOL     OW15400   3.984   6.698   0.816
 4834SOL    HW115401   4.063   6.759   0.829
 4834SOL    HW215402   3.900   6.751   0.820
 4835SOL     OW15403   0.265   1.393   6.230
 4835SOL    HW115404   0.340   1.351   6.180
 4835SOL    HW215405   0.186   1.331   6.231
 4836SOL     OW15406   5.000   3.142   3.981
 4836SOL    HW115407   4.938   3.086   4.036
 4836SOL    HW215408   4.948   3.204   3.923
 4837SOL     OW15409   5.563   4.380   2.239
 4837SOL    HW115410   5.651   4.340   2.266
 4837SOL    HW215411   5.573   4.426   2.152
 4838SOL     OW15412   0.770   4.626   1.035
 4838SOL    HW115413   0.767   4.725   1.050
 4838SOL    HW215414   0.864   4.599   1.015
 4839SOL     OW15415   1.285   2.641   6.415
 4839SOL    HW115416   1.225   2.562   6.403
 4839SOL    HW215417   1.264   2.710   6.346
 4840SOL     OW15418   0.626   5.454   5.998
 4840SOL    HW115419   0.556   5.383   5.993
 4840SOL    HW215420   0.715   5.413   5.976
 4841SOL     OW15421   3.310   6.064   1.847
 4841SOL    HW115422   3.327   6.154   1.885
 4841SOL    HW215423   3.386   6.003   1.869
 4842SOL     OW15424   3.319   4.981   2.243
 4842SOL    HW115425   3.231   4.946   2.277
 4842SOL    HW215426   3.311   5.005   2.147
 4843SOL     OW15427   5.973   3.053   0.467
 4843SOL    HW115428   6.039   2.989   0.507
 4843SOL    HW215429   5.955   3.126   0.533
 4844SOL     OW15430   6.368   3.779   5.523
 4844SOL    HW115431   6.417   3.702   5.482
 4844SOL    HW215432   6.412   3.865   5.494
 4845SOL     OW15433   5.395   5.507   5.227
 4845SOL    HW115434   5.440   5.487   5.314
 4845SOL    HW215435   5.312   5.451   5.220
 4846SOL     OW15436   6.832   2.748   3.625
 4846SOL    HW115437   6.857   2.702   3.711
 4846SOL    HW215438   6.824   2.680   3.552
 4847SOL     OW15439   2.561   0.975   6.190
 4847SOL    HW115440   2.578   0.921   6.108
 4847SOL    HW215441   2.640   1.034   6.208
 4848SOL     OW15442   1.720   0.905   3.991
 4848SOL    HW115443   1.691   1.000   3.987
 4848SOL    HW215444   1.700   0.860   3.904
 4849SOL     OW15445   1.713   6.696   6.910
 4849SOL    HW115446   1.688   6.737   6.822
 4849SOL    HW215447   1.751   6.767   6.970
 4850SOL     OW15448   4.373   1.310   2.983
 4850SOL    HW115449   4.445   1.373   3.012
 4850SOL    HW215450   4.364   1.314   2.883
 4851SOL     OW15451   3.982   5.864   5.815
 4851SOL    HW115452   3.908   5.881   5.749
 4851SOL    HW215453   3.980   5.769   5.844
 4852SOL     OW15454   0.902   6.884   5.151
 4852SOL    HW115455   0.841   6.865   5.228
 4852SOL    HW215456   0.854   6.866   5.065
 4853SOL     OW15457   2.748   1.091   3.503
 4853SOL    HW115458   2.765   1.058   3.596
 4853SOL    HW215459   2.812   1.163   3.480
 4854SOL     OW15460   4.488   0.153   1.852
 4854SOL    HW115461   4.451   0.087   1.917
 4854SOL    HW215462   4.418   0.220   1.829
 4855SOL     OW15463   6.537   3.201   2.064
 4855SOL    HW115464   6.520   3.106   2.087
 4855SOL    HW215465   6.531   3.257   2.147
 4856SOL     OW15466   1.600   3.707   2.399
 4856SOL    HW115467   1.533   3.644   2.438
 4856SOL    HW215468   1.682   3.655   2.373
 4857SOL     OW15469   2.068   2.049   4.848
 4857SOL    HW115470   2.161   2.063   4.814
 4857SOL    HW215471   2.004   2.052   4.771
 4858SOL     OW15472   0.887   0.826   4.278
 4858SOL    HW115473   0.892   0.727   4.296
 4858SOL    HW215474   0.882   0.842   4.180
 4859SOL     OW15475   0.460   0.663   4.225
 4859SOL    HW115476   0.408   0.650   4.310
 4859SOL    HW215477   0.557   0.676   4.247
 4860SOL     OW15478   3.737   4.559   1.419
 4860SOL    HW115479   3.744   4.638   1.359
 4860SOL    HW215480   3.643   4.526   1.421
 4861SOL     OW15481   5.192   4.873   6.916
 4861SOL    HW115482   5.292   4.865   6.911
 4861SOL    HW215483   5.154   4.789   6.953
 4862SOL     OW15484   2.608   4.663   4.281
 4862SOL    HW115485   2.510   4.679   4.293
 4862SOL    HW215486   2.630   4.660   4.183
 4863SOL     OW15487   6.146   3.543   1.543
 4863SOL    HW115488   6.134   3.601   1.623
 4863SOL    HW215489   6.071   3.477   1.538
 4864SOL     OW15490   3.852   1.236   3.260
 4864SOL    HW115491   3.915   1.162   3.284
 4864SOL    HW215492   3.904   1.318   3.235
 4865SOL     OW15493   2.467   0.279   4.977
 4865SOL    HW115494   2.550   0.262   5.031
 4865SOL    HW215495   2.425   0.192   4.952
 4866SOL     OW15496   6.258   2.390   1.450
 4866SOL    HW115497   6.195   2.314   1.465
 4866SOL    HW215498   6.304   2.413   1.536
 4867SOL     OW15499   3.609   5.272   2.193
 4867SOL    HW115500   3.664   5.350   2.163
 4867SOL    HW215501   3.669   5.196   2.215
 4868SOL     OW15502   6.611   5.394   2.645
 4868SOL    HW115503   6.686   5.455   2.621
 4868SOL    HW215504   6.527   5.447   2.657
 4869SOL     OW15505   1.613   1.289   1.327
 4869SOL    HW115506   1.693   1.311   1.382
 4869SOL    HW215507   1.612   1.346   1.245
 4870SOL     OW15508   0.227   6.437   1.916
 4870SOL    HW115509   0.199   6.526   1.879
 4870SOL    HW215510   0.147   6.378   1.923
 4871SOL     OW15511   1.541   0.597   3.823
 4871SOL    HW115512   1.614   0.665   3.820
 4871SOL    HW215513   1.574   0.512   3.781
 4872SOL     OW15514   6.435   6.710   3.689
 4872SOL    HW115515   6.477   6.665   3.767
 4872SOL    HW215516   6.452   6.656   3.606
 4873SOL     OW15517   6.777   5.725   2.959
 4873SOL    HW115518   6.720   5.763   3.032
 4873SOL    HW215519   6.718   5.692   2.885
 4874SOL     OW15520   6.786   3.502   2.629
 4874SOL    HW115521   6.751   3.435   2.564
 4874SOL    HW215522   6.721   3.512   2.705
 4875SOL     OW15523   6.222   2.311   1.091
 4875SOL    HW115524   6.122   2.305   1.088
 4875SOL    HW215525   6.249   2.406   1.104
 4876SOL     OW15526   6.120   1.871   3.747
 4876SOL    HW115527   6.030   1.915   3.753
 4876SOL    HW215528   6.109   1.777   3.716
 4877SOL     OW15529   1.583   2.006   6.432
 4877SOL    HW115530   1.570   2.101   6.460
 4877SOL    HW215531   1.671   1.973   6.466
 4878SOL     OW15532   6.228   1.335   2.317
 4878SOL    HW115533   6.143   1.283   2.319
 4878SOL    HW215534   6.256   1.356   2.411
 4879SOL     OW15535   4.059   0.306   2.551
 4879SOL    HW115536   4.119   0.232   2.581
 4879SOL    HW215537   4.060   0.311   2.451
 4880SOL     OW15538   5.367   3.289   0.683
 4880SOL    HW115539   5.278   3.269   0.642
 4880SOL    HW215540   5.437   3.292   0.611
 4881SOL     OW15541   1.806   0.474   0.192
 4881SOL    HW115542   1.811   0.436   0.100
 4881SOL    HW215543   1.743   0.419   0.247
 4882SOL     OW15544   5.059   0.910   5.108
 4882SOL    HW115545   5.005   0.865   5.037
 4882SOL    HW215546   5.113   0.983   5.068
 4883SOL     OW15547   4.838   4.856   2.141
 4883SOL    HW115548   4.906   4.786   2.163
 4883SOL    HW215549   4.885   4.940   2.113
 4884SOL     OW15550   2.877   6.746   1.085
 4884SOL    HW115551   2.828   6.713   1.166
 4884SOL    HW215552   2.814   6.796   1.026
 4885SOL     OW15553   2.769   5.272   1.984
 4885SOL    HW115554   2.724   5.324   2.056
 4885SOL    HW215555   2.725   5.183   1.974
 4886SOL     OW15556   1.037   6.228   1.376
 4886SOL    HW115557   0.996   6.190   1.460
 4886SOL    HW215558   0.982   6.199   1.297
 4887SOL     OW15559   0.846   0.703   2.374
 4887SOL    HW115560   0.837   0.786   2.429
 4887SOL    HW215561   0.939   0.696   2.340
 4888SOL     OW15562   2.612   6.987   3.814
 4888SOL    HW115563   2.685   6.945   3.759
 4888SOL    HW215564   2.533   7.006   3.756
 4889SOL     OW15565   6.887   1.496   5.712
 4889SOL    HW115566   6.938   1.538   5.636
 4889SOL    HW215567   6.952   1.458   5.778
 4890SOL     OW15568   0.343   1.016   6.682
 4890SOL    HW115569   0.432   1.019   6.636
 4890SOL    HW215570   0.355   1.044   6.777
 4891SOL     OW15571   2.337   4.433   6.885
 4891SOL    HW115572   2.251   4.420   6.836
 4891SOL    HW215573   2.408   4.463   6.820
 4892SOL     OW15574   3.652   5.967   1.767
 4892SOL    HW115575   3.590   5.957   1.689
 4892SOL    HW215576   3.746   5.952   1.736
 4893SOL     OW15577   6.852   3.196   1.595
 4893SOL    HW115578   6.936   3.164   1.551
 4893SOL    HW215579   6.840   3.146   1.682
 4894SOL     OW15580   2.538   1.510   3.722
 4894SOL    HW115581   2.479   1.434   3.751
 4894SOL    HW215582   2.576   1.555   3.802
 4895SOL     OW15583   1.005   4.610   3.839
 4895SOL    HW115584   0.942   4.554   3.786
 4895SOL    HW215585   0.978   4.608   3.935
 4896SOL     OW15586   1.556   4.550   1.903
 4896SOL    HW115587   1.592   4.504   1.984
 4896SOL    HW215588   1.508   4.633   1.932
 4897SOL     OW15589   1.931   3.714   5.697
 4897SOL    HW115590   2.028   3.742   5.694
 4897SOL    HW215591   1.875   3.788   5.660
 4898SOL     OW15592   4.209   0.694   4.301
 4898SOL    HW115593   4.119   0.737   4.303
 4898SOL    HW215594   4.201   0.602   4.261
 4899SOL     OW15595   5.501   5.427   3.054
 4899SOL    HW115596   5.448   5.422   2.969
 4899SOL    HW215597   5.466   5.502   3.110
 4900SOL     OW15598   3.341   6.227   4.739
 4900SOL    HW115599   3.427   6.241   4.689
 4900SOL    HW215600   3.264   6.249   4.679
 4901SOL     OW15601   2.951   0.671   5.087
 4901SOL    HW115602   2.930   0.715   5.000
 4901SOL    HW215603   3.025   0.720   5.133
 4902SOL     OW15604   2.281   1.640   4.723
 4902SOL    HW115605   2.288   1.709   4.796
 4902SOL    HW215606   2.333   1.670   4.644
 4903SOL     OW15607   4.095   5.675   6.815
 4903SOL    HW115608   4.105   5.581   6.784
 4903SOL    HW215609   4.172   5.730   6.781
 4904SOL     OW15610   2.259   0.286   4.446
 4904SOL    HW115611   2.314   0.222   4.391
 4904SOL    HW215612   2.217   0.353   4.385
 4905SOL     OW15613   3.628   6.723   2.679
 4905SOL    HW115614   3.679   6.730   2.593
 4905SOL    HW215615   3.563   6.647   2.673
 4906SOL     OW15616   4.995   2.231   6.167
 4906SOL    HW115617   5.023   2.177   6.088
 4906SOL    HW215618   4.997   2.328   6.144
 4907SOL     OW15619   4.409   5.885   2.060
 4907SOL    HW115620   4.358   5.931   1.987
 4907SOL    HW215621   4.470   5.950   2.105
 4908SOL     OW15622   5.511   5.507   0.278
 4908SOL    HW115623   5.608   5.496   0.297
 4908SOL    HW215624   5.491   5.604   0.264
 4909SOL     OW15625   0.168   6.881   4.045
 4909SOL    HW115626   0.203   6.823   3.971
 4909SOL    HW215627   0.239   6.946   4.073
 4910SOL     OW15628   5.625   0.844   4.749
 4910SOL    HW115629   5.532   0.872   4.774
 4910SOL    HW215630   5.690   0.891   4.809
 4911SOL     OW15631   1.394   4.121   4.022
 4911SOL    HW115632   1.312   4.168   3.990
 4911SOL    HW215633   1.380   4.022   4.017
 4912SOL     OW15634   5.556   1.714   6.255
 4912SOL    HW115635   5.654   1.697   6.240
 4912SOL    HW215636   5.540   1.737   6.351
 4913SOL     OW15637   3.684   2.756   5.233
 4913SOL    HW115638   3.588   2.784   5.240
 4913SOL    HW215639   3.716   2.772   5.139
 4914SOL     OW15640   3.133   0.309   4.534
 4914SOL    HW115641   3.044   0.352   4.517
 4914SOL    HW215642   3.159   0.253   4.456
 4915SOL     OW15643   3.656   6.345   6.078
 4915SOL    HW115644   3.711   6.408   6.133
 4915SOL    HW215645   3.600   6.288   6.138
 4916SOL     OW15646   1.069   0.414   3.800
 4916SOL    HW115647   1.114   0.430   3.888
 4916SOL    HW215648   1.061   0.500   3.750
 4917SOL     OW15649   2.458   5.745   1.486
 4917SOL    HW115650   2.552   5.713   1.492
 4917SOL    HW215651   2.441   5.813   1.557
 4918SOL     OW15652   4.713   5.345   3.292
 4918SOL    HW115653   4.760   5.410   3.352
 4918SOL    HW215654   4.720   5.253   3.331
 4919SOL     OW15655   2.644   2.758   0.724
 4919SOL    HW115656   2.548   2.786   0.722
 4919SOL    HW215657   2.657   2.679   0.664
 4920SOL     OW15658   5.903   0.955   4.338
 4920SOL    HW115659   5.836   0.983   4.406
 4920SOL    HW215660   5.963   0.885   4.377
 4921SOL     OW15661   0.959   5.007   0.430
 4921SOL    HW115662   0.920   5.058   0.353
 4921SOL    HW215663   0.885   4.960   0.478
 4922SOL     OW15664   2.547   2.468   4.983
 4922SOL    HW115665   2.533   2.566   4.978
 4922SOL    HW215666   2.602   2.446   5.063
 4923SOL     OW15667   4.001   1.956   2.857
 4923SOL    HW115668   3.995   1.897   2.777
 4923SOL    HW215669   3.918   2.012   2.863
 4924SOL     OW15670   3.184   1.128   4.873
 4924SOL    HW115671   3.207   1.107   4.778
 4924SOL    HW215672   3.254   1.188   4.912
 4925SOL     OW15673   6.612   6.755   2.172
 4925SOL    HW115674   6.691   6.747   2.233
 4925SOL    HW215675   6.528   6.734   2.222
 4926SOL     OW15676   4.855   1.284   0.652
 4926SOL    HW115677   4.844   1.216   0.580
 4926SOL    HW215678   4.777   1.347   0.651
 4927SOL     OW15679   3.510   3.776   4.304
 4927SOL    HW115680   3.411   3.787   4.307
 4927SOL    HW215681   3.534   3.695   4.251
 4928SOL     OW15682   2.044   6.575   0.091
 4928SOL    HW115683   2.065   6.596   7.019
 4928SOL    HW215684   2.068   6.654   0.148
 4929SOL     OW15685   0.064   5.924   4.218
 4929SOL    HW115686   0.107   5.907   4.129
 4929SOL    HW215687   6.994   5.888   4.216
 4930SOL     OW15688   5.413   0.953   3.485
 4930SOL    HW115689   5.347   0.879   3.500
 4930SOL    HW215690   5.463   0.970   3.569
 4931SOL     OW15691   0.160   6.643   0.774
 4931SOL    HW115692   0.090   6.655   0.704
 4931SOL    HW215693   0.239   6.701   0.754
 4932SOL     OW15694   3.236   3.126   2.254
 4932SOL    HW115695   3.225   3.128   2.353
 4932SOL    HW215696   3.152   3.159   2.210
 4933SOL     OW15697   2.429   0.260   2.981
 4933SOL    HW115698   2.361   0.314   3.031
 4933SOL    HW215699   2.516   0.310   2.977
 4934SOL     OW15700   3.101   5.919   2.638
 4934SOL    HW115701   3.197   5.942   2.653
 4934SOL    HW215702   3.083   5.913   2.540
 4935SOL     OW15703   2.155   1.531   6.346
 4935SOL    HW115704   2.223   1.586   6.395
 4935SOL    HW215705   2.071   1.527   6.400
 4936SOL     OW15706   2.305   4.502   1.542
 4936SOL    HW115707   2.298   4.495   1.641
 4936SOL    HW215708   2.213   4.503   1.502
 4937SOL     OW15709   6.348   3.197   5.748
 4937SOL    HW115710   6.446   3.187   5.733
 4937SOL    HW215711   6.329   3.284   5.793
 4938SOL     OW15712   2.582   5.394   5.492
 4938SOL    HW115713   2.611   5.426   5.582
 4938SOL    HW215714   2.658   5.345   5.449
 4939SOL     OW15715   5.902   2.042   4.465
 4939SOL    HW115716   5.965   2.078   4.397
 4939SOL    HW215717   5.945   1.967   4.516
 4940SOL     OW15718   6.967   1.256   4.760
 4940SOL    HW115719   0.010   1.181   4.757
 4940SOL    HW215720   6.917   1.260   4.674
 4941SOL     OW15721   5.506   2.447   5.262
 4941SOL    HW115722   5.587   2.485   5.306
 4941SOL    HW215723   5.425   2.471   5.316
 4942SOL     OW15724   5.286   2.283   5.738
 4942SOL    HW115725   5.252   2.316   5.826
 4942SOL    HW215726   5.321   2.360   5.684
 4943SOL     OW15727   4.511   3.314   6.812
 4943SOL    HW115728   4.445   3.388   6.799
 4943SOL    HW215729   4.565   3.331   6.895
 4944SOL     OW15730   2.076   4.566   1.418
 4944SOL    HW115731   2.036   4.652   1.389
 4944SOL    HW215732   2.014   4.521   1.483
 4945SOL     OW15733   1.146   0.251   4.216
 4945SOL    HW115734   1.047   0.245   4.230
 4945SOL    HW215735   1.172   0.192   4.140
 4946SOL     OW15736   1.372   4.715   6.981
 4946SOL    HW115737   1.382   4.737   0.054
 4946SOL    HW215738   1.284   4.669   6.967
 4947SOL     OW15739   2.232   1.068   1.066
 4947SOL    HW115740   2.298   1.011   1.016
 4947SOL    HW215741   2.277   1.150   1.100
 4948SOL     OW15742   1.236   2.303   2.700
 4948SOL    HW115743   1.275   2.318   2.609
 4948SOL    HW215744   1.282   2.361   2.767
 4949SOL     OW15745   4.965   6.989   6.166
 4949SOL    HW115746   4.996   6.981   6.261
 4949SOL    HW215747   4.983   0.058   6.133
 4950SOL     OW15748   2.284   5.969   4.142
 4950SOL    HW115749   2.240   5.993   4.055
 4950SOL    HW215750   2.256   6.034   4.212
 4951SOL     OW15751   5.212   1.635   4.525
 4951SOL    HW115752   5.114   1.634   4.543
 4951SOL    HW215753   5.232   1.698   4.449
 4952SOL     OW15754   0.238   0.455   5.749
 4952SOL    HW115755   0.224   0.500   5.837
 4952SOL    HW215756   0.278   0.365   5.763
 4953SOL     OW15757   2.484   6.373   2.631
 4953SOL    HW115758   2.496   6.361   2.532
 4953SOL    HW215759   2.478   6.284   2.675
 4954SOL     OW15760   3.870   3.319   0.041
 4954SOL    HW115761   3.871   3.236   7.010
 4954SOL    HW215762   3.910   3.394   7.012
 4955SOL     OW15763   2.601   6.363   6.616
 4955SOL    HW115764   2.649   6.308   6.685
 4955SOL    HW215765   2.579   6.306   6.538
 4956SOL     OW15766   2.521   6.638   4.776
 4956SOL    HW115767   2.617   6.654   4.799
 4956SOL    HW215768   2.482   6.573   4.841
 4957SOL     OW15769   6.863   1.928   2.019
 4957SOL    HW115770   6.929   1.942   2.092
 4957SOL    HW215771   6.889   1.982   1.939
 4958SOL     OW15772   7.002   5.316   5.568
 4958SOL    HW115773   6.961   5.388   5.624
 4958SOL    HW215774   0.057   5.354   5.519
 4959SOL     OW15775   6.321   1.366   6.572
 4959SOL    HW115776   6.313   1.438   6.504
 4959SOL    HW215777   6.237   1.362   6.627
 4960SOL     OW15778   3.592   5.338   3.489
 4960SOL    HW115779   3.622   5.290   3.407
 4960SOL    HW215780   3.628   5.292   3.570
 4961SOL     OW15781   4.911   1.283   5.999
 4961SOL    HW115782   4.927   1.189   5.968
 4961SOL    HW215783   4.984   1.311   6.061
 4962SOL     OW15784   6.480   1.806   0.345
 4962SOL    HW115785   6.394   1.799   0.293
 4962SOL    HW215786   6.467   1.767   0.436
 4963SOL     OW15787   6.451   5.812   6.573
 4963SOL    HW115788   6.485   5.879   6.507
 4963SOL    HW215789   6.428   5.859   6.658
 4964SOL     OW15790   2.894   6.524   3.856
 4964SOL    HW115791   2.950   6.541   3.936
 4964SOL    HW215792   2.937   6.564   3.775
 4965SOL     OW15793   0.153   0.534   3.027
 4965SOL    HW115794   0.217   0.530   3.104
 4965SOL    HW215795   0.123   0.629   3.013
 4966SOL     OW15796   2.322   0.065   4.853
 4966SOL    HW115797   2.334   6.996   4.817
 4966SOL    HW215798   2.269   0.119   4.788
 4967SOL     OW15799   3.917   4.425   6.553
 4967SOL    HW115800   3.937   4.501   6.491
 4967SOL    HW215801   3.965   4.343   6.522
 4968SOL     OW15802   6.437   2.465   3.676
 4968SOL    HW115803   6.402   2.385   3.725
 4968SOL    HW215804   6.364   2.533   3.669
 4969SOL     OW15805   2.463   0.509   2.562
 4969SOL    HW115806   2.442   0.520   2.465
 4969SOL    HW215807   2.396   0.448   2.604
 4970SOL     OW15808   1.823   2.126   3.443
 4970SOL    HW115809   1.895   2.085   3.387
 4970SOL    HW215810   1.863   2.199   3.499
 4971SOL     OW15811   6.884   6.585   4.295
 4971SOL    HW115812   6.958   6.593   4.228
 4971SOL    HW215813   6.868   6.675   4.338
 4972SOL     OW15814   2.464   2.848   0.131
 4972SOL    HW115815   2.429   2.931   0.089
 4972SOL    HW215816   2.442   2.847   0.228
 4973SOL     OW15817   1.444   0.499   2.421
 4973SOL    HW115818   1.521   0.555   2.391
 4973SOL    HW215819   1.426   0.516   2.518
 4974SOL     OW15820   6.042   5.009   1.476
 4974SOL    HW115821   6.119   5.058   1.434
 4974SOL    HW215822   6.043   4.913   1.446
 4975SOL     OW15823   5.302   5.232   5.586
 4975SOL    HW115824   5.263   5.215   5.496
 4975SOL    HW215825   5.299   5.148   5.641
 4976SOL     OW15826   2.560   6.889   4.058
 4976SOL    HW115827   2.585   6.947   3.980
 4976SOL    HW215828   2.474   6.842   4.038
 4977SOL     OW15829   3.895   4.027   0.470
 4977SOL    HW115830   3.898   3.991   0.563
 4977SOL    HW215831   3.919   4.124   0.472
 4978SOL     OW15832   0.292   4.411   5.481
 4978SOL    HW115833   0.240   4.447   5.558
 4978SOL    HW215834   0.248   4.328   5.446
 4979SOL     OW15835   0.512   0.077   5.445
 4979SOL    HW115836   0.555   0.062   5.534
 4979SOL    HW215837   0.485   7.012   5.406
 4980SOL     OW15838   4.435   6.175   3.698
 4980SOL    HW115839   4.427   6.275   3.697
 4980SOL    HW215840   4.346   6.135   3.721
 4981SOL     OW15841   5.260   6.334   6.446
 4981SOL    HW115842   5.190   6.404   6.428
 4981SOL    HW215843   5.245   6.255   6.387
 4982SOL     OW15844   2.385   1.514   5.968
 4982SOL    HW115845   2.337   1.489   5.884
 4982SOL    HW215846   2.355   1.455   6.043
 4983SOL     OW15847   5.541   2.378   4.694
 4983SOL    HW115848   5.540   2.447   4.766
 4983SOL    HW215849   5.536   2.423   4.605
 4984SOL     OW15850   5.963   4.607   4.339
 4984SOL    HW115851   5.907   4.561   4.408
 4984SOL    HW215852   6.052   4.562   4.333
 4985SOL     OW15853   6.367   5.957   3.315
 4985SOL    HW115854   6.458   5.916   3.317
 4985SOL    HW215855   6.370   6.045   3.269
 4986SOL     OW15856   6.148   4.308   2.488
 4986SOL    HW115857   6.177   4.377   2.422
 4986SOL    HW215858   6.078   4.346   2.548
 4987SOL     OW15859   0.961   1.184   0.925
 4987SOL    HW115860   0.952   1.142   0.834
 4987SOL    HW215861   1.025   1.130   0.980
 4988SOL     OW15862   5.735   0.986   3.412
 4988SOL    HW115863   5.651   0.945   3.447
 4988SOL    HW215864   5.752   0.955   3.319
 4989SOL     OW15865   5.198   0.484   1.314
 4989SOL    HW115866   5.276   0.423   1.313
 4989SOL    HW215867   5.182   0.517   1.407
 4990SOL     OW15868   2.186   1.376   5.458
 4990SOL    HW115869   2.266   1.352   5.512
 4990SOL    HW215870   2.172   1.308   5.386
 4991SOL     OW15871   6.737   4.124   4.524
 4991SOL    HW115872   6.830   4.135   4.556
 4991SOL    HW215873   6.684   4.206   4.546
 4992SOL     OW15874   4.684   0.962   4.960
 4992SOL    HW115875   4.708   0.943   5.055
 4992SOL    HW215876   4.635   0.884   4.922
 4993SOL     OW15877   3.289   4.994   4.133
 4993SOL    HW115878   3.249   5.083   4.154
 4993SOL    HW215879   3.293   4.939   4.217
 4994SOL     OW15880   1.931   0.068   2.726
 4994SOL    HW115881   1.893   0.136   2.663
 4994SOL    HW215882   1.976   7.019   2.674
 4995SOL     OW15883   6.781   2.972   5.358
 4995SOL    HW115884   6.751   3.039   5.290
 4995SOL    HW215885   6.860   2.921   5.323
 4996SOL     OW15886   1.599   1.294   2.724
 4996SOL    HW115887   1.501   1.300   2.739
 4996SOL    HW215888   1.617   1.240   2.641
 4997SOL     OW15889   5.882   2.089   3.238
 4997SOL    HW115890   5.888   1.990   3.244
 4997SOL    HW215891   5.946   2.122   3.168
 4998SOL     OW15892   1.831   3.962   5.224
 4998SOL    HW115893   1.801   3.867   5.222
 4998SOL    HW215894   1.921   3.970   5.181
 4999SOL     OW15895   6.257   4.302   1.331
 4999SOL    HW115896   6.183   4.236   1.334
 4999SOL    HW215897   6.299   4.302   1.240
 5000SOL     OW15898   2.617   6.430   4.035
 5000SOL    HW115899   2.527   6.429   4.078
 5000SOL    HW215900   2.612   6.384   3.946
 5001SOL     OW15901   1.365   4.330   0.876
 5001SOL    HW115902   1.462   4.328   0.851
 5001SOL    HW215903   1.316   4.392   0.814
 5002SOL     OW15904   1.480   3.235   3.243
 5002SOL    HW115905   1.513   3.201   3.155
 5002SOL    HW215906   1.541   3.204   3.316
 5003SOL     OW15907   2.462   6.322   2.971
 5003SOL    HW115908   2.494   6.413   2.943
 5003SOL    HW215909   2.487   6.255   2.901
 5004SOL     OW15910   3.327   4.855   5.635
 5004SOL    HW115911   3.391   4.836   5.561
 5004SOL    HW215912   3.350   4.799   5.715
 5005SOL     OW15913   3.316   2.067   0.596
 5005SOL    HW115914   3.300   2.110   0.507
 5005SOL    HW215915   3.278   2.124   0.668
 5006SOL     OW15916   4.927   6.931   6.705
 5006SOL    HW115917   5.023   6.947   6.727
 5006SOL    HW215918   4.916   6.925   6.605
 5007SOL     OW15919   1.935   0.099   0.058
 5007SOL    HW115920   1.903   0.085   6.988
 5007SOL    HW215921   1.859   0.124   0.116
 5008SOL     OW15922   6.097   0.007   3.418
 5008SOL    HW115923   6.141   0.070   3.354
 5008SOL    HW215924   6.062   6.951   3.368
 5009SOL     OW15925   2.159   6.347   1.362
 5009SOL    HW115926   2.242   6.332   1.308
 5009SOL    HW215927   2.111   6.259   1.375
 5010SOL     OW15928   3.985   3.034   3.134
 5010SOL    HW115929   3.999   2.967   3.061
 5010SOL    HW215930   3.900   3.013   3.183
 5011SOL     OW15931   1.526   3.722   2.746
 5011SOL    HW115932   1.476   3.794   2.794
 5011SOL    HW215933   1.592   3.680   2.807
 5012SOL     OW15934   5.001   3.829   6.476
 5012SOL    HW115935   4.989   3.836   6.377
 5012SOL    HW215936   5.089   3.787   6.496
 5013SOL     OW15937   5.037   1.588   6.825
 5013SOL    HW115938   5.026   1.668   6.883
 5013SOL    HW215939   5.049   1.507   6.882
 5014SOL     OW15940   5.211   4.047   0.805
 5014SOL    HW115941   5.181   4.054   0.710
 5014SOL    HW215942   5.255   3.958   0.820
 5015SOL     OW15943   4.621   2.316   3.627
 5015SOL    HW115944   4.612   2.274   3.717
 5015SOL    HW215945   4.589   2.410   3.630
 5016SOL     OW15946   2.692   2.398   0.818
 5016SOL    HW115947   2.791   2.398   0.806
 5016SOL    HW215948   2.670   2.376   0.913
 5017SOL     OW15949   1.850   1.957   6.502
 5017SOL    HW115950   1.834   1.953   6.601
 5017SOL    HW215951   1.942   1.993   6.485
 5018SOL     OW15952   0.673   4.220   1.343
 5018SOL    HW115953   0.680   4.123   1.321
 5018SOL    HW215954   0.650   4.231   1.440
 5019SOL     OW15955   1.881   4.994   6.702
 5019SOL    HW115956   1.841   4.918   6.752
 5019SOL    HW215957   1.808   5.055   6.670
 5020SOL     OW15958   4.725   0.073   5.812
 5020SOL    HW115959   4.751   0.154   5.864
 5020SOL    HW215960   4.691   0.100   5.722
 5021SOL     OW15961   1.349   2.005   5.859
 5021SOL    HW115962   1.370   1.959   5.772
 5021SOL    HW215963   1.434   2.026   5.907
 5022SOL     OW15964   1.566   0.014   0.213
 5022SOL    HW115965   1.635   0.008   0.285
 5022SOL    HW215966   1.504   0.091   0.233
 5023SOL     OW15967   6.321   2.651   0.839
 5023SOL    HW115968   6.404   2.697   0.871
 5023SOL    HW215969   6.247   2.718   0.830
 5024SOL     OW15970   6.586   5.809   2.713
 5024SOL    HW115971   6.610   5.777   2.621
 5024SOL    HW215972   6.653   5.876   2.744
 5025SOL     OW15973   3.868   2.158   2.389
 5025SOL    HW115974   3.921   2.149   2.304
 5025SOL    HW215975   3.876   2.073   2.442
 5026SOL     OW15976   5.955   6.566   6.749
 5026SOL    HW115977   5.868   6.519   6.767
 5026SOL    HW215978   5.999   6.526   6.669
 5027SOL     OW15979   0.679   6.717   2.359
 5027SOL    HW115980   0.580   6.717   2.354
 5027SOL    HW215981   0.713   6.622   2.363
 5028SOL     OW15982   0.416   6.507   3.470
 5028SOL    HW115983   0.395   6.563   3.390
 5028SOL    HW215984   0.331   6.478   3.514
 5029SOL     OW15985   0.003   3.586   3.267
 5029SOL    HW115986   0.046   3.646   3.335
 5029SOL    HW215987   0.056   3.587   3.183
 5030SOL     OW15988   0.030   1.068   5.935
 5030SOL    HW115989   0.063   0.984   5.978
 5030SOL    HW215990   0.009   1.050   5.839
 5031SOL     OW15991   5.868   0.210   4.940
 5031SOL    HW115992   5.914   0.286   4.894
 5031SOL    HW215993   5.803   0.247   5.007
 5032SOL     OW15994   1.415   3.735   0.799
 5032SOL    HW115995   1.463   3.688   0.873
 5032SOL    HW215996   1.466   3.816   0.773
 5033SOL     OW15997   2.136   5.501   6.673
 5033SOL    HW115998   2.093   5.561   6.605
 5033SOL    HW215999   2.067   5.469   6.738
 5034SOL     OW16000   6.377   1.369   3.070
 5034SOL    HW116001   6.453   1.305   3.085
 5034SOL    HW216002   6.414   1.460   3.054
 5035SOL     OW16003   6.194   4.531   0.446
 5035SOL    HW116004   6.211   4.491   0.356
 5035SOL    HW216005   6.221   4.627   0.445
 5036SOL     OW16006   0.254   4.949   6.847
 5036SOL    HW116007   0.351   4.928   6.835
 5036SOL    HW216008   0.229   5.025   6.787
 5037SOL     OW16009   5.614   2.557   2.547
 5037SOL    HW116010   5.551   2.505   2.490
 5037SOL    HW216011   5.707   2.521   2.537
 5038SOL     OW16012   1.890   4.114   5.954
 5038SOL    HW116013   1.818   4.170   5.913
 5038SOL    HW216014   1.978   4.160   5.943
 5039SOL     OW16015   2.648   3.419   5.886
 5039SOL    HW116016   2.708   3.471   5.947
 5039SOL    HW216017   2.691   3.332   5.862
 5040SOL     OW16018   2.079   4.824   6.576
 5040SOL    HW116019   2.032   4.884   6.640
 5040SOL    HW216020   2.163   4.790   6.618
 5041SOL     OW16021   1.896   2.331   1.250
 5041SOL    HW116022   1.805   2.370   1.264
 5041SOL    HW216023   1.932   2.362   1.162
 5042SOL     OW16024   6.243   3.086   0.338
 5042SOL    HW116025   6.304   3.103   0.415
 5042SOL    HW216026   6.152   3.063   0.373
 5043SOL     OW16027   2.809   1.212   6.030
 5043SOL    HW116028   2.790   1.215   6.128
 5043SOL    HW216029   2.765   1.132   5.989
 5044SOL     OW16030   6.222   6.464   2.378
 5044SOL    HW116031   6.281   6.394   2.419
 5044SOL    HW216032   6.127   6.444   2.401
 5045SOL     OW16033   5.869   3.206   0.003
 5045SOL    HW116034   5.836   3.129   6.973
 5045SOL    HW216035   5.959   3.184   0.042
 5046SOL     OW16036   3.322   4.101   4.676
 5046SOL    HW116037   3.375   4.058   4.749
 5046SOL    HW216038   3.382   4.162   4.623
 5047SOL     OW16039   0.430   2.833   2.385
 5047SOL    HW116040   0.452   2.895   2.309
 5047SOL    HW216041   0.507   2.829   2.448
 5048SOL     OW16042   0.258   1.254   1.355
 5048SOL    HW116043   0.240   1.319   1.430
 5048SOL    HW216044   0.345   1.207   1.373
 5049SOL     OW16045   6.300   1.656   4.513
 5049SOL    HW116046   6.347   1.743   4.499
 5049SOL    HW216047   6.208   1.661   4.475
 5050SOL     OW16048   0.996   0.797   2.039
 5050SOL    HW116049   1.010   0.815   1.942
 5050SOL    HW216050   0.903   0.824   2.065
 5051SOL     OW16051   4.369   3.272   0.285
 5051SOL    HW116052   4.383   3.316   0.374
 5051SOL    HW216053   4.274   3.244   0.276
 5052SOL     OW16054   2.680   5.509   5.695
 5052SOL    HW116055   2.738   5.576   5.649
 5052SOL    HW216056   2.721   5.483   5.782
 5053SOL     OW16057   1.611   4.175   3.851
 5053SOL    HW116058   1.646   4.268   3.862
 5053SOL    HW216059   1.535   4.160   3.913
 5054SOL     OW16060   3.637   5.438   5.475
 5054SOL    HW116061   3.723   5.399   5.441
 5054SOL    HW216062   3.585   5.476   5.398
 5055SOL     OW16063   1.158   0.043   5.450
 5055SOL    HW116064   1.153   0.136   5.484
 5055SOL    HW216065   1.128   0.041   5.354
 5056SOL     OW16066   6.420   3.838   0.892
 5056SOL    HW116067   6.342   3.899   0.880
 5056SOL    HW216068   6.417   3.766   0.823
 5057SOL     OW16069   0.556   5.322   4.771
 5057SOL    HW116070   0.497   5.300   4.694
 5057SOL    HW216071   0.518   5.399   4.822
 5058SOL     OW16072   2.236   3.478   5.692
 5058SOL    HW116073   2.202   3.569   5.667
 5058SOL    HW216074   2.333   3.472   5.670
 5059SOL     OW16075   5.503   3.236   3.500
 5059SOL    HW116076   5.481   3.139   3.487
 5059SOL    HW216077   5.596   3.245   3.535
 5060SOL     OW16078   0.271   2.859   5.355
 5060SOL    HW116079   0.265   2.760   5.344
 5060SOL    HW216080   0.333   2.897   5.286
 5061SOL     OW16081   3.283   3.027   3.597
 5061SOL    HW116082   3.363   2.977   3.629
 5061SOL    HW216083   3.309   3.120   3.572
 5062SOL     OW16084   5.859   1.356   2.960
 5062SOL    HW116085   5.780   1.406   2.925
 5062SOL    HW216086   5.942   1.391   2.917
 5063SOL     OW16087   1.649   6.612   2.141
 5063SOL    HW116088   1.703   6.528   2.131
 5063SOL    HW216089   1.694   6.672   2.207
 5064SOL     OW16090   4.646   4.366   1.704
 5064SOL    HW116091   4.596   4.327   1.782
 5064SOL    HW216092   4.624   4.463   1.695
 5065SOL     OW16093   1.064   1.827   3.326
 5065SOL    HW116094   1.137   1.894   3.312
 5065SOL    HW216095   1.102   1.746   3.371
 5066SOL     OW16096   3.636   3.958   1.097
 5066SOL    HW116097   3.601   3.930   1.186
 5066SOL    HW216098   3.736   3.965   1.102
 5067SOL     OW16099   3.017   1.254   2.499
 5067SOL    HW116100   3.018   1.280   2.403
 5067SOL    HW216101   2.971   1.166   2.510
 5068SOL     OW16102   3.295   4.834   0.191
 5068SOL    HW116103   3.198   4.860   0.190
 5068SOL    HW216104   3.335   4.854   0.101
 5069SOL     OW16105   1.768   2.409   5.900
 5069SOL    HW116106   1.804   2.340   5.837
 5069SOL    HW216107   1.693   2.370   5.953
 5070SOL     OW16108   5.062   4.944   4.717
 5070SOL    HW116109   5.056   5.004   4.797
 5070SOL    HW216110   5.026   4.992   4.637
 5071SOL     OW16111   3.790   1.682   3.705
 5071SOL    HW116112   3.884   1.709   3.685
 5071SOL    HW216113   3.730   1.762   3.700
 5072SOL     OW16114   1.904   1.338   1.208
 5072SOL    HW116115   1.938   1.391   1.286
 5072SOL    HW216116   1.820   1.379   1.173
 5073SOL     OW16117   1.178   4.503   0.761
 5073SOL    HW116118   1.082   4.485   0.779
 5073SOL    HW216119   1.189   4.596   0.724
 5074SOL     OW16120   3.430   2.047   2.146
 5074SOL    HW116121   3.496   2.117   2.118
 5074SOL    HW216122   3.343   2.062   2.098
 5075SOL     OW16123   1.244   2.238   6.580
 5075SOL    HW116124   1.317   2.221   6.513
 5075SOL    HW216125   1.238   2.336   6.599
 5076SOL     OW16126   5.419   0.106   0.877
 5076SOL    HW116127   5.482   0.158   0.819
 5076SOL    HW216128   5.337   0.082   0.825
 5077SOL     OW16129   1.382   4.422   5.999
 5077SOL    HW116130   1.337   4.445   5.913
 5077SOL    HW216131   1.433   4.336   5.989
 5078SOL     OW16132   0.796   0.784   3.928
 5078SOL    HW116133   0.743   0.794   3.844
 5078SOL    HW216134   0.779   0.694   3.968
 5079SOL     OW16135   2.435   2.731   5.040
 5079SOL    HW116136   2.413   2.823   5.073
 5079SOL    HW216137   2.373   2.664   5.083
 5080SOL     OW16138   6.240   6.237   5.521
 5080SOL    HW116139   6.142   6.218   5.529
 5080SOL    HW216140   6.254   6.307   5.452
 5081SOL     OW16141   2.192   3.755   5.636
 5081SOL    HW116142   2.229   3.813   5.709
 5081SOL    HW216143   2.220   3.793   5.547
 5082SOL     OW16144   4.911   6.910   1.338
 5082SOL    HW116145   5.010   6.902   1.350
 5082SOL    HW216146   4.892   6.966   1.257
 5083SOL     OW16147   2.839   0.277   2.661
 5083SOL    HW116148   2.828   0.255   2.564
 5083SOL    HW216149   2.853   0.375   2.672
 5084SOL     OW16150   0.524   5.055   3.701
 5084SOL    HW116151   0.561   5.014   3.785
 5084SOL    HW216152   0.491   4.982   3.641
 5085SOL     OW16153   6.659   2.726   5.400
 5085SOL    HW116154   6.713   2.810   5.389
 5085SOL    HW216155   6.694   2.656   5.338
 5086SOL     OW16156   1.542   4.862   2.732
 5086SOL    HW116157   1.539   4.852   2.832
 5086SOL    HW216158   1.483   4.793   2.690
 5087SOL     OW16159   0.993   5.273   2.040
 5087SOL    HW116160   0.925   5.279   2.113
 5087SOL    HW216161   1.061   5.346   2.052
 5088SOL     OW16162   6.132   6.678   3.946
 5088SOL    HW116163   6.165   6.771   3.966
 5088SOL    HW216164   6.140   6.660   3.848
 5089SOL     OW16165   6.467   4.860   3.981
 5089SOL    HW116166   6.438   4.800   3.907
 5089SOL    HW216167   6.406   4.848   4.059
 5090SOL     OW16168   1.566   2.766   2.268
 5090SOL    HW116169   1.551   2.807   2.358
 5090SOL    HW216170   1.648   2.708   2.272
 5091SOL     OW16171   6.920   1.436   1.656
 5091SOL    HW116172   7.018   1.446   1.638
 5091SOL    HW216173   6.906   1.361   1.720
 5092SOL     OW16174   3.305   3.290   3.443
 5092SOL    HW116175   3.209   3.294   3.413
 5092SOL    HW216176   3.351   3.375   3.418
 5093SOL     OW16177   2.907   1.320   0.558
 5093SOL    HW116178   2.831   1.384   0.563
 5093SOL    HW216179   2.873   1.230   0.529
 5094SOL     OW16180   2.379   5.588   6.186
 5094SOL    HW116181   2.455   5.650   6.207
 5094SOL    HW216182   2.339   5.612   6.098
 5095SOL     OW16183   6.953   2.631   2.837
 5095SOL    HW116184   6.892   2.698   2.879
 5095SOL    HW216185   6.903   2.547   2.818
 5096SOL     OW16186   4.808   4.697   6.732
 5096SOL    HW116187   4.900   4.685   6.695
 5096SOL    HW216188   4.776   4.790   6.715
 5097SOL     OW16189   0.893   0.020   6.427
 5097SOL    HW116190   0.953   0.042   6.504
 5097SOL    HW216191   0.889   6.944   6.416
 5098SOL     OW16192   2.830   0.676   1.850
 5098SOL    HW116193   2.796   0.586   1.824
 5098SOL    HW216194   2.907   0.666   1.913
 5099SOL     OW16195   0.693   7.005   1.378
 5099SOL    HW116196   0.609   6.988   1.327
 5099SOL    HW216197   0.739   6.917   1.395
 5100SOL     OW16198   2.980   5.622   4.437
 5100SOL    HW116199   2.892   5.661   4.466
 5100SOL    HW216200   3.047   5.695   4.429
 5101SOL     OW16201   3.997   6.914   6.052
 5101SOL    HW116202   3.978   7.008   6.080
 5101SOL    HW216203   4.085   6.911   6.004
 5102SOL     OW16204   4.845   6.023   4.718
 5102SOL    HW116205   4.919   5.970   4.760
 5102SOL    HW216206   4.763   6.015   4.774
 5103SOL     OW16207   6.909   1.232   4.232
 5103SOL    HW116208   7.000   1.241   4.191
 5103SOL    HW216209   6.916   1.179   4.316
 5104SOL     OW16210   1.598   6.279   1.828
 5104SOL    HW116211   1.562   6.216   1.759
 5104SOL    HW216212   1.559   6.370   1.814
 5105SOL     OW16213   3.000   2.583   6.973
 5105SOL    HW116214   2.966   2.643   6.900
 5105SOL    HW216215   3.059   2.513   6.933
 5106SOL     OW16216   4.346   1.544   0.869
 5106SOL    HW116217   4.374   1.496   0.786
 5106SOL    HW216218   4.415   1.614   0.891
 5107SOL     OW16219   4.350   2.380   1.500
 5107SOL    HW116220   4.357   2.439   1.421
 5107SOL    HW216221   4.372   2.286   1.474
 5108SOL     OW16222   4.220   4.019   5.286
 5108SOL    HW116223   4.208   3.931   5.240
 5108SOL    HW216224   4.138   4.074   5.276
 5109SOL     OW16225   0.780   2.019   6.699
 5109SOL    HW116226   0.831   2.105   6.692
 5109SOL    HW216227   0.823   1.950   6.641
 5110SOL     OW16228   0.922   0.173   6.196
 5110SOL    HW116229   0.915   0.125   6.284
 5110SOL    HW216230   0.856   0.248   6.194
 5111SOL     OW16231   0.974   0.909   4.926
 5111SOL    HW116232   1.051   0.877   4.871
 5111SOL    HW216233   0.899   0.937   4.865
 5112SOL     OW16234   1.040   0.290   2.757
 5112SOL    HW116235   1.137   0.275   2.738
 5112SOL    HW216236   0.986   0.265   2.677
 5113SOL     OW16237   2.235   6.095   1.063
 5113SOL    HW116238   2.170   6.162   1.029
 5113SOL    HW216239   2.222   6.008   1.014
 5114SOL     OW16240   4.007   6.910   6.671
 5114SOL    HW116241   4.070   6.839   6.639
 5114SOL    HW216242   4.055   6.971   6.733
 5115SOL     OW16243   1.259   5.115   3.249
 5115SOL    HW116244   1.233   5.074   3.337
 5115SOL    HW216245   1.181   5.116   3.188
 5116SOL     OW16246   0.904   6.473   0.272
 5116SOL    HW116247   0.841   6.437   0.341
 5116SOL    HW216248   0.903   6.412   0.192
 5117SOL     OW16249   1.684   3.768   4.124
 5117SOL    HW116250   1.641   3.826   4.194
 5117SOL    HW216251   1.779   3.796   4.112
 5118SOL     OW16252   5.486   0.977   0.150
 5118SOL    HW116253   5.492   1.074   0.172
 5118SOL    HW216254   5.424   0.963   0.073
 5119SOL     OW16255   5.139   0.881   2.409
 5119SOL    HW116256   5.042   0.895   2.429
 5119SOL    HW216257   5.178   0.819   2.477
 5120SOL     OW16258   4.486   0.034   4.497
 5120SOL    HW116259   4.423   6.984   4.522
 5120SOL    HW216260   4.534   0.009   4.412
 5121SOL     OW16261   3.161   2.761   6.690
 5121SOL    HW116262   3.156   2.858   6.714
 5121SOL    HW216263   3.070   2.720   6.696
 5122SOL     OW16264   3.301   6.131   3.348
 5122SOL    HW116265   3.367   6.206   3.357
 5122SOL    HW216266   3.334   6.067   3.279
 5123SOL     OW16267   4.348   2.235   4.266
 5123SOL    HW116268   4.280   2.222   4.338
 5123SOL    HW216269   4.318   2.308   4.204
 5124SOL     OW16270   2.288   5.536   5.003
 5124SOL    HW116271   2.253   5.468   4.939
 5124SOL    HW216272   2.347   5.600   4.954
 5125SOL     OW16273   6.614   4.098   4.089
 5125SOL    HW116274   6.588   4.186   4.051
 5125SOL    HW216275   6.533   4.042   4.104
 5126SOL     OW16276   6.248   5.186   6.153
 5126SOL    HW116277   6.236   5.272   6.103
 5126SOL    HW216278   6.322   5.197   6.219
 5127SOL     OW16279   0.332   3.641   0.191
 5127SOL    HW116280   0.340   3.690   0.279
 5127SOL    HW216281   0.271   3.692   0.130
 5128SOL     OW16282   0.366   0.207   6.336
 5128SOL    HW116283   0.420   0.141   6.284
 5128SOL    HW216284   0.337   0.166   6.423
 5129SOL     OW16285   6.545   0.144   2.534
 5129SOL    HW116286   6.610   0.204   2.581
 5129SOL    HW216287   6.594   0.092   2.463
 5130SOL     OW16288   0.556   5.547   3.687
 5130SOL    HW116289   0.530   5.599   3.606
 5130SOL    HW216290   0.557   5.608   3.766
 5131SOL     OW16291   2.092   4.767   4.195
 5131SOL    HW116292   2.117   4.840   4.258
 5131SOL    HW216293   1.995   4.776   4.170
 5132SOL     OW16294   3.560   3.117   6.902
 5132SOL    HW116295   3.553   3.017   6.895
 5132SOL    HW216296   3.534   3.146   6.994
 5133SOL     OW16297   2.449   5.344   0.116
 5133SOL    HW116298   2.529   5.308   0.163
 5133SOL    HW216299   2.367   5.325   0.171
 5134SOL     OW16300   0.661   3.635   2.768
 5134SOL    HW116301   0.666   3.537   2.789
 5134SOL    HW216302   0.566   3.665   2.769
 5135SOL     OW16303   5.896   3.101   4.488
 5135SOL    HW116304   5.872   3.191   4.452
 5135SOL    HW216305   5.995   3.089   4.486
 5136SOL     OW16306   3.775   0.822   6.047
 5136SOL    HW116307   3.790   0.915   6.082
 5136SOL    HW216308   3.740   0.827   5.953
 5137SOL     OW16309   5.167   3.114   5.531
 5137SOL    HW116310   5.128   3.023   5.543
 5137SOL    HW216311   5.217   3.139   5.614
 5138SOL     OW16312   2.922   2.752   5.648
 5138SOL    HW116313   2.860   2.743   5.570
 5138SOL    HW216314   2.978   2.834   5.637
 5139SOL     OW16315   1.142   0.401   3.021
 5139SOL    HW116316   1.117   0.498   3.021
 5139SOL    HW216317   1.062   0.346   3.045
 5140SOL     OW16318   4.082   2.236   6.968
 5140SOL    HW116319   4.125   2.222   6.879
 5140SOL    HW216320   4.061   2.148   7.010
 5141SOL     OW16321   6.892   3.817   0.348
 5141SOL    HW116322   6.880   3.750   0.422
 5141SOL    HW216323   6.880   3.771   0.260
 5142SOL     OW16324   5.919   0.332   3.569
 5142SOL    HW116325   5.852   0.279   3.622
 5142SOL    HW216326   5.914   0.428   3.597
 5143SOL     OW16327   6.508   4.540   4.008
 5143SOL    HW116328   6.454   4.610   3.961
 5143SOL    HW216329   6.472   4.449   3.986
 5144SOL     OW16330   0.482   4.868   6.706
 5144SOL    HW116331   0.463   4.782   6.659
 5144SOL    HW216332   0.515   4.936   6.640
 5145SOL     OW16333   2.879   4.829   5.551
 5145SOL    HW116334   2.820   4.907   5.571
 5145SOL    HW216335   2.878   4.811   5.452
 5146SOL     OW16336   3.728   4.221   5.028
 5146SOL    HW116337   3.654   4.170   5.072
 5146SOL    HW216338   3.730   4.200   4.930
 5147SOL     OW16339   6.987   5.007   2.497
 5147SOL    HW116340   6.904   5.031   2.548
 5147SOL    HW216341   0.020   4.946   2.552
 5148SOL     OW16342   6.644   6.414   1.504
 5148SOL    HW116343   6.659   6.444   1.409
 5148SOL    HW216344   6.570   6.468   1.544
 5149SOL     OW16345   6.466   5.681   3.079
 5149SOL    HW116346   6.371   5.655   3.064
 5149SOL    HW216347   6.474   5.781   3.076
 5150SOL     OW16348   2.203   5.344   2.929
 5150SOL    HW116349   2.263   5.323   3.007
 5150SOL    HW216350   2.235   5.293   2.849
 5151SOL     OW16351   5.649   2.334   0.743
 5151SOL    HW116352   5.726   2.336   0.679
 5151SOL    HW216353   5.606   2.244   0.742
 5152SOL     OW16354   2.571   4.975   0.138
 5152SOL    HW116355   2.594   5.070   0.117
 5152SOL    HW216356   2.617   4.948   0.222
 5153SOL     OW16357   2.243   6.940   6.941
 5153SOL    HW116358   2.342   6.928   6.939
 5153SOL    HW216359   2.212   6.941   0.013
 5154SOL     OW16360   1.192   3.294   6.118
 5154SOL    HW116361   1.288   3.309   6.143
 5154SOL    HW216362   1.186   3.258   6.025
 5155SOL     OW16363   4.330   6.911   2.330
 5155SOL    HW116364   4.412   6.869   2.370
 5155SOL    HW216365   4.353   7.000   2.291
 5156SOL     OW16366   5.857   3.591   5.806
 5156SOL    HW116367   5.917   3.523   5.764
 5156SOL    HW216368   5.802   3.547   5.878
 5157SOL     OW16369   3.801   2.162   3.689
 5157SOL    HW116370   3.814   2.232   3.759
 5157SOL    HW216371   3.881   2.161   3.628
 5158SOL     OW16372   3.634   1.467   1.876
 5158SOL    HW116373   3.599   1.549   1.832
 5158SOL    HW216374   3.713   1.490   1.933
 5159SOL     OW16375   6.879   3.411   4.060
 5159SOL    HW116376   6.872   3.432   3.962
 5159SOL    HW216377   6.959   3.353   4.076
 5160SOL     OW16378   0.335   5.004   3.277
 5160SOL    HW116379   0.376   4.920   3.242
 5160SOL    HW216380   0.238   5.008   3.251
 5161SOL     OW16381   1.521   3.634   5.767
 5161SOL    HW116382   1.487   3.697   5.837
 5161SOL    HW216383   1.537   3.684   5.682
 5162SOL     OW16384   1.349   5.186   2.681
 5162SOL    HW116385   1.443   5.152   2.673
 5162SOL    HW216386   1.307   5.149   2.764
 5163SOL     OW16387   3.532   6.503   0.037
 5163SOL    HW116388   3.531   6.457   0.126
 5163SOL    HW216389   3.438   6.514   0.004
 5164SOL     OW16390   4.633   2.472   6.978
 5164SOL    HW116391   4.600   2.544   6.917
 5164SOL    HW216392   4.720   2.500   7.018
 5165SOL     OW16393   6.040   4.367   6.178
 5165SOL    HW116394   6.059   4.322   6.265
 5165SOL    HW216395   5.989   4.451   6.195
 5166SOL     OW16396   0.921   5.589   2.968
 5166SOL    HW116397   0.876   5.515   3.018
 5166SOL    HW216398   1.012   5.560   2.940
 5167SOL     OW16399   6.221   6.439   5.748
 5167SOL    HW116400   6.308   6.476   5.716
 5167SOL    HW216401   6.191   6.366   5.687
 5168SOL     OW16402   5.322   4.166   2.542
 5168SOL    HW116403   5.326   4.215   2.455
 5168SOL    HW216404   5.366   4.077   2.532
 5169SOL     OW16405   3.718   1.735   4.878
 5169SOL    HW116406   3.683   1.783   4.958
 5169SOL    HW216407   3.701   1.637   4.887
 5170SOL     OW16408   0.825   4.333   6.060
 5170SOL    HW116409   0.883   4.290   5.991
 5170SOL    HW216410   0.830   4.433   6.051
 5171SOL     OW16411   1.090   5.837   4.846
 5171SOL    HW116412   1.119   5.743   4.828
 5171SOL    HW216413   1.018   5.862   4.782
 5172SOL     OW16414   0.717   2.270   2.033
 5172SOL    HW116415   0.777   2.222   2.098
 5172SOL    HW216416   0.624   2.271   2.069
 5173SOL     OW16417   5.266   4.825   6.487
 5173SOL    HW116418   5.243   4.888   6.413
 5173SOL    HW216419   5.351   4.778   6.466
 5174SOL     OW16420   2.247   4.637   3.587
 5174SOL    HW116421   2.290   4.585   3.514
 5174SOL    HW216422   2.149   4.644   3.570
 5175SOL     OW16423   2.121   3.542   6.817
 5175SOL    HW116424   2.122   3.640   6.802
 5175SOL    HW216425   2.097   3.495   6.732
 5176SOL     OW16426   4.638   2.605   6.458
 5176SOL    HW116427   4.594   2.524   6.496
 5176SOL    HW216428   4.591   2.687   6.490
 5177SOL     OW16429   5.063   0.492   6.932
 5177SOL    HW116430   5.121   0.421   6.972
 5177SOL    HW216431   5.068   0.575   6.989
 5178SOL     OW16432   0.860   4.375   1.926
 5178SOL    HW116433   0.825   4.398   1.835
 5178SOL    HW216434   0.784   4.363   1.989
 5179SOL     OW16435   3.816   6.038   4.008
 5179SOL    HW116436   3.915   6.029   4.018
 5179SOL    HW216437   3.783   6.112   4.066
 5180SOL     OW16438   3.067   2.963   0.745
 5180SOL    HW116439   3.137   3.034   0.733
 5180SOL    HW216440   3.002   2.992   0.815
 5181SOL     OW16441   6.271   1.673   1.810
 5181SOL    HW116442   6.274   1.626   1.722
 5181SOL    HW216443   6.286   1.608   1.884
 5182SOL     OW16444   3.800   4.591   1.688
 5182SOL    HW116445   3.782   4.573   1.591
 5182SOL    HW216446   3.714   4.587   1.739
 5183SOL     OW16447   4.782   1.632   2.612
 5183SOL    HW116448   4.876   1.658   2.592
 5183SOL    HW216449   4.759   1.548   2.564
 5184SOL     OW16450   6.965   2.991   4.627
 5184SOL    HW116451   6.939   2.989   4.723
 5184SOL    HW216452   6.984   2.898   4.595
 5185SOL     OW16453   5.640   0.786   2.648
 5185SOL    HW116454   5.633   0.792   2.549
 5185SOL    HW216455   5.549   0.776   2.688
 5186SOL     OW16456   6.191   3.127   1.079
 5186SOL    HW116457   6.127   3.051   1.085
 5186SOL    HW216458   6.253   3.125   1.157
 5187SOL     OW16459   0.633   6.990   4.236
 5187SOL    HW116460   0.614   6.902   4.280
 5187SOL    HW216461   0.662   6.974   4.141
 5188SOL     OW16462   0.736   5.906   0.849
 5188SOL    HW116463   0.650   5.901   0.900
 5188SOL    HW216464   0.766   5.814   0.825
 5189SOL     OW16465   4.673   4.876   0.403
 5189SOL    HW116466   4.632   4.800   0.454
 5189SOL    HW216467   4.740   4.840   0.338
 5190SOL     OW16468   6.915   3.322   4.554
 5190SOL    HW116469   6.982   3.364   4.615
 5190SOL    HW216470   6.945   3.230   4.530
 5191SOL     OW16471   4.121   0.599   1.713
 5191SOL    HW116472   4.161   0.576   1.802
 5191SOL    HW216473   4.133   0.522   1.651
 5192SOL     OW16474   2.556   5.231   2.558
 5192SOL    HW116475   2.609   5.260   2.479
 5192SOL    HW216476   2.611   5.240   2.641
 5193SOL     OW16477   4.852   4.272   4.752
 5193SOL    HW116478   4.851   4.172   4.764
 5193SOL    HW216479   4.758   4.305   4.743
 5194SOL     OW16480   4.000   1.694   7.020
 5194SOL    HW116481   3.940   1.725   6.946
 5194SOL    HW216482   3.945   1.671   0.076
 5195SOL     OW16483   5.970   6.241   4.780
 5195SOL    HW116484   6.021   6.272   4.860
 5195SOL    HW216485   6.008   6.155   4.747
 5196SOL     OW16486   3.330   4.131   0.587
 5196SOL    HW116487   3.240   4.103   0.619
 5196SOL    HW216488   3.373   4.189   0.657
 5197SOL     OW16489   2.141   5.647   5.234
 5197SOL    HW116490   2.163   5.589   5.155
 5197SOL    HW216491   2.218   5.708   5.252
 5198SOL     OW16492   3.924   6.670   3.073
 5198SOL    HW116493   3.924   6.690   3.171
 5198SOL    HW216494   3.891   6.577   3.057
 5199SOL     OW16495   1.541   6.085   0.437
 5199SOL    HW116496   1.468   6.105   0.502
 5199SOL    HW216497   1.587   6.170   0.410
 5200SOL     OW16498   1.289   2.056   5.505
 5200SOL    HW116499   1.335   1.974   5.539
 5200SOL    HW216500   1.192   2.053   5.530
 5201SOL     OW16501   6.714   6.141   4.303
 5201SOL    HW116502   6.704   6.233   4.266
 5201SOL    HW216503   6.764   6.145   4.389
 5202SOL     OW16504   5.978   4.324   5.522
 5202SOL    HW116505   5.924   4.252   5.478
 5202SOL    HW216506   6.032   4.284   5.597
 5203SOL     OW16507   2.132   0.966   6.274
 5203SOL    HW116508   2.078   1.037   6.321
 5203SOL    HW216509   2.177   1.006   6.194
 5204SOL     OW16510   4.337   6.774   6.847
 5204SOL    HW116511   4.363   6.745   6.940
 5204SOL    HW216512   4.307   6.694   6.795
 5205SOL     OW16513   6.836   6.143   0.122
 5205SOL    HW116514   6.847   6.055   0.075
 5205SOL    HW216515   6.747   6.146   0.166
 5206SOL     OW16516   0.047   5.061   0.399
 5206SOL    HW116517   0.032   5.136   0.335
 5206SOL    HW216518   0.146   5.049   0.413
 5207SOL     OW16519   1.315   6.720   3.659
 5207SOL    HW116520   1.220   6.742   3.635
 5207SOL    HW216521   1.317   6.679   3.750
 5208SOL     OW16522   5.337   1.801   0.051
 5208SOL    HW116523   5.396   1.883   0.056
 5208SOL    HW216524   5.325   1.763   0.142
 5209SOL     OW16525   5.379   0.272   1.679
 5209SOL    HW116526   5.349   0.197   1.738
 5209SOL    HW216527   5.355   0.251   1.584
 5210SOL     OW16528   4.719   3.279   0.482
 5210SOL    HW116529   4.774   3.360   0.461
 5210SOL    HW216530   4.766   3.198   0.447
 5211SOL     OW16531   4.141   2.180   5.715
 5211SOL    HW116532   4.235   2.149   5.700
 5211SOL    HW216533   4.091   2.110   5.766
 5212SOL     OW16534   1.219   3.222   0.591
 5212SOL    HW116535   1.249   3.179   0.505
 5212SOL    HW216536   1.120   3.231   0.591
 5213SOL     OW16537   3.804   3.486   0.899
 5213SOL    HW116538   3.798   3.542   0.816
 5213SOL    HW216539   3.753   3.530   0.973
 5214SOL     OW16540   5.039   2.870   6.242
 5214SOL    HW116541   5.015   2.920   6.325
 5214SOL    HW216542   4.962   2.813   6.214
 5215SOL     OW16543   0.777   4.927   4.211
 5215SOL    HW116544   0.808   4.898   4.120
 5215SOL    HW216545   0.854   4.928   4.274
 5216SOL     OW16546   3.850   4.278   1.695
 5216SOL    HW116547   3.750   4.282   1.696
 5216SOL    HW216548   3.887   4.371   1.697
 5217SOL     OW16549   3.659   5.339   4.424
 5217SOL    HW116550   3.563   5.311   4.421
 5217SOL    HW216551   3.673   5.401   4.502
 5218SOL     OW16552   0.516   1.123   1.296
 5218SOL    HW116553   0.492   1.028   1.273
 5218SOL    HW216554   0.518   1.178   1.213
 5219SOL     OW16555   3.335   1.337   4.972
 5219SOL    HW116556   3.376   1.374   5.055
 5219SOL    HW216557   3.279   1.407   4.928
 5220SOL     OW16558   1.228   6.102   2.338
 5220SOL    HW116559   1.128   6.093   2.339
 5220SOL    HW216560   1.266   6.037   2.272
 5221SOL     OW16561   6.190   1.524   3.229
 5221SOL    HW116562   6.104   1.474   3.236
 5221SOL    HW216563   6.260   1.465   3.189
 5222SOL     OW16564   3.627   6.935   2.400
 5222SOL    HW116565   3.582   6.850   2.375
 5222SOL    HW216566   3.725   6.929   2.378
 5223SOL     OW16567   6.549   2.757   0.234
 5223SOL    HW116568   6.554   2.729   0.330
 5223SOL    HW216569   6.534   2.677   0.177
 5224SOL     OW16570   6.186   3.174   4.516
 5224SOL    HW116571   6.185   3.139   4.422
 5224SOL    HW216572   6.277   3.158   4.556
 5225SOL     OW16573   0.166   0.901   3.736
 5225SOL    HW116574   0.114   0.956   3.802
 5225SOL    HW216575   0.112   0.888   3.654
 5226SOL     OW16576   6.749   6.799   4.409
 5226SOL    HW116577   6.734   6.852   4.325
 5226SOL    HW216578   6.799   6.855   4.475
 5227SOL     OW16579   0.441   3.635   5.211
 5227SOL    HW116580   0.493   3.550   5.200
 5227SOL    HW216581   0.367   3.636   5.144
 5228SOL     OW16582   0.204   2.513   0.719
 5228SOL    HW116583   0.247   2.559   0.641
 5228SOL    HW216584   0.108   2.541   0.725
 5229SOL     OW16585   2.686   6.696   0.308
 5229SOL    HW116586   2.745   6.627   0.350
 5229SOL    HW216587   2.613   6.721   0.372
 5230SOL     OW16588   0.049   6.225   1.881
 5230SOL    HW116589   6.979   6.206   1.909
 5230SOL    HW216590   0.109   6.151   1.912
 5231SOL     OW16591   4.439   2.439   4.057
 5231SOL    HW116592   4.501   2.506   4.014
 5231SOL    HW216593   4.422   2.364   3.993
 5232SOL     OW16594   1.612   3.525   6.233
 5232SOL    HW116595   1.689   3.495   6.290
 5232SOL    HW216596   1.645   3.591   6.165
 5233SOL     OW16597   4.589   1.357   2.746
 5233SOL    HW116598   4.495   1.365   2.714
 5233SOL    HW216599   4.625   1.447   2.768
 5234SOL     OW16600   2.659   2.220   5.957
 5234SOL    HW116601   2.704   2.238   6.044
 5234SOL    HW216602   2.667   2.301   5.899
 5235SOL     OW16603   1.706   2.647   1.019
 5235SOL    HW116604   1.756   2.713   0.963
 5235SOL    HW216605   1.765   2.611   1.090
 5236SOL     OW16606   4.351   5.474   2.220
 5236SOL    HW116607   4.329   5.411   2.295
 5236SOL    HW216608   4.268   5.522   2.192
 5237SOL     OW16609   0.804   0.596   4.876
 5237SOL    HW116610   0.714   0.638   4.890
 5237SOL    HW216611   0.865   0.620   4.952
 5238SOL     OW16612   0.579   4.859   0.265
 5238SOL    HW116613   0.582   4.859   0.365
 5238SOL    HW216614   0.621   4.943   0.231
 5239SOL     OW16615   3.758   2.668   6.050
 5239SOL    HW116616   3.808   2.634   5.970
 5239SOL    HW216617   3.773   2.766   6.059
 5240SOL     OW16618   3.244   2.405   5.380
 5240SOL    HW116619   3.236   2.317   5.429
 5240SOL    HW216620   3.202   2.397   5.290
 5241SOL     OW16621   6.967   5.459   4.402
 5241SOL    HW116622   7.003   5.432   4.312
 5241SOL    HW216623   6.981   5.385   4.467
 5242SOL     OW16624   6.790   0.172   0.170
 5242SOL    HW116625   6.787   0.264   0.210
 5242SOL    HW216626   6.713   0.118   0.204
 5243SOL     OW16627   1.826   5.843   1.526
 5243SOL    HW116628   1.923   5.819   1.522
 5243SOL    HW216629   1.806   5.888   1.613
 5244SOL     OW16630   3.307   4.570   5.855
 5244SOL    HW116631   3.276   4.648   5.909
 5244SOL    HW216632   3.323   4.492   5.917
 5245SOL     OW16633   3.961   4.053   0.161
 5245SOL    HW116634   3.969   4.071   0.260
 5245SOL    HW216635   4.012   4.122   0.111
 5246SOL     OW16636   6.005   2.647   1.115
 5246SOL    HW116637   6.087   2.612   1.158
 5246SOL    HW216638   5.924   2.615   1.164
 5247SOL     OW16639   2.608   0.506   6.396
 5247SOL    HW116640   2.668   0.541   6.324
 5247SOL    HW216641   2.638   0.414   6.423
 5248SOL     OW16642   6.058   1.501   2.815
 5248SOL    HW116643   6.009   1.534   2.734
 5248SOL    HW216644   6.145   1.549   2.823
 5249SOL     OW16645   0.520   5.639   6.432
 5249SOL    HW116646   0.607   5.676   6.399
 5249SOL    HW216647   0.460   5.620   6.354
 5250SOL     OW16648   2.140   5.869   6.967
 5250SOL    HW116649   2.200   5.911   0.011
 5250SOL    HW216650   2.190   5.797   6.919
 5251SOL     OW16651   0.747   3.349   6.704
 5251SOL    HW116652   0.729   3.314   6.796
 5251SOL    HW216653   0.751   3.273   6.640
 5252SOL     OW16654   2.184   6.269   0.506
 5252SOL    HW116655   2.159   6.282   0.410
 5252SOL    HW216656   2.237   6.347   0.538
 5253SOL     OW16657   6.648   4.381   4.597
 5253SOL    HW116658   6.611   4.411   4.685
 5253SOL    HW216659   6.670   4.461   4.541
 5254SOL     OW16660   5.031   1.008   3.006
 5254SOL    HW116661   5.033   1.012   2.906
 5254SOL    HW216662   5.065   0.918   3.037
 5255SOL     OW16663   5.715   2.009   5.114
 5255SOL    HW116664   5.730   1.985   5.018
 5255SOL    HW216665   5.639   2.074   5.121
 5256SOL     OW16666   4.669   1.755   3.997
 5256SOL    HW116667   4.615   1.838   3.986
 5256SOL    HW216668   4.766   1.776   3.984
 5257SOL     OW16669   5.608   6.962   1.845
 5257SOL    HW116670   5.560   6.882   1.808
 5257SOL    HW216671   5.660   7.006   1.772
 5258SOL     OW16672   6.163   2.830   1.849
 5258SOL    HW116673   6.183   2.881   1.765
 5258SOL    HW216674   6.243   2.778   1.877
 5259SOL     OW16675   4.654   6.545   2.455
 5259SOL    HW116676   4.622   6.620   2.512
 5259SOL    HW216677   4.607   6.461   2.481
 5260SOL     OW16678   4.821   3.610   0.779
 5260SOL    HW116679   4.816   3.591   0.877
 5260SOL    HW216680   4.796   3.705   0.762
 5261SOL     OW16681   0.865   4.047   6.234
 5261SOL    HW116682   0.951   4.095   6.251
 5261SOL    HW216683   0.798   4.111   6.195
 5262SOL     OW16684   2.544   1.245   4.011
 5262SOL    HW116685   2.513   1.337   4.034
 5262SOL    HW216686   2.529   1.227   3.914
 5263SOL     OW16687   1.791   1.505   3.630
 5263SOL    HW116688   1.844   1.497   3.714
 5263SOL    HW216689   1.737   1.589   3.632
 5264SOL     OW16690   0.198   2.481   1.833
 5264SOL    HW116691   0.221   2.426   1.753
 5264SOL    HW216692   0.109   2.452   1.869
 5265SOL     OW16693   6.364   3.766   3.858
 5265SOL    HW116694   6.414   3.787   3.774
 5265SOL    HW216695   6.266   3.772   3.841
 5266SOL     OW16696   3.185   5.066   6.930
 5266SOL    HW116697   3.133   4.996   6.881
 5266SOL    HW216698   3.203   5.143   6.869
 5267SOL     OW16699   5.102   3.026   4.846
 5267SOL    HW116700   5.104   3.111   4.898
 5267SOL    HW216701   5.194   2.987   4.842
 5268SOL     OW16702   5.551   1.596   0.436
 5268SOL    HW116703   5.600   1.545   0.366
 5268SOL    HW216704   5.494   1.533   0.489
 5269SOL     OW16705   1.258   5.963   2.696
 5269SOL    HW116706   1.316   6.042   2.716
 5269SOL    HW216707   1.218   5.973   2.605
 5270SOL     OW16708   5.957   1.011   1.116
 5270SOL    HW116709   5.976   1.108   1.102
 5270SOL    HW216710   5.941   0.967   1.028
 5271SOL     OW16711   6.405   5.600   5.659
 5271SOL    HW116712   6.347   5.677   5.636
 5271SOL    HW216713   6.363   5.515   5.626
 5272SOL     OW16714   3.345   5.678   1.755
 5272SOL    HW116715   3.328   5.701   1.659
 5272SOL    HW216716   3.381   5.759   1.802
 5273SOL     OW16717   0.072   2.777   4.118
 5273SOL    HW116718   7.015   2.778   4.177
 5273SOL    HW216719   0.150   2.816   4.167
 5274SOL     OW16720   5.706   6.882   2.799
 5274SOL    HW116721   5.653   6.961   2.830
 5274SOL    HW216722   5.695   6.871   2.700
 5275SOL     OW16723   3.762   2.230   1.018
 5275SOL    HW116724   3.686   2.169   1.039
 5275SOL    HW216725   3.795   2.211   0.925
 5276SOL     OW16726   2.065   6.873   0.833
 5276SOL    HW116727   2.013   6.800   0.876
 5276SOL    HW216728   2.074   6.950   0.896
 5277SOL     OW16729   1.960   1.568   2.250
 5277SOL    HW116730   2.025   1.554   2.326
 5277SOL    HW216731   1.876   1.518   2.269
 5278SOL     OW16732   6.318   6.992   4.115
 5278SOL    HW116733   6.298   6.897   4.138
 5278SOL    HW216734   6.233   0.016   4.093
 5279SOL     OW16735   2.671   5.370   6.196
 5279SOL    HW116736   2.724   5.286   6.193
 5279SOL    HW216737   2.579   5.353   6.161
 5280SOL     OW16738   2.584   6.037   4.812
 5280SOL    HW116739   2.616   5.963   4.752
 5280SOL    HW216740   2.484   6.042   4.807
 5281SOL     OW16741   0.195   2.585   2.568
 5281SOL    HW116742   0.265   2.516   2.555
 5281SOL    HW216743   0.184   2.639   2.484
 5282SOL     OW16744   3.050   1.863   4.031
 5282SOL    HW116745   3.077   1.960   4.030
 5282SOL    HW216746   3.041   1.830   3.937
 5283SOL     OW16747   4.211   6.856   1.445
 5283SOL    HW116748   4.198   6.950   1.478
 5283SOL    HW216749   4.229   6.857   1.346
 5284SOL     OW16750   4.821   4.037   3.323
 5284SOL    HW116751   4.825   4.136   3.313
 5284SOL    HW216752   4.913   3.999   3.314
 5285SOL     OW16753   2.459   4.861   4.029
 5285SOL    HW116754   2.402   4.830   3.953
 5285SOL    HW216755   2.532   4.795   4.045
 5286SOL     OW16756   1.849   4.877   0.133
 5286SOL    HW116757   1.763   4.908   0.091
 5286SOL    HW216758   1.898   4.818   0.068
 5287SOL     OW16759   3.143   6.809   0.957
 5287SOL    HW116760   3.047   6.792   0.935
 5287SOL    HW216761   3.148   6.884   1.024
 5288SOL     OW16762   3.293   0.088   2.107
 5288SOL    HW116763   3.340   0.105   2.193
 5288SOL    HW216764   3.254   0.174   2.073
 5289SOL     OW16765   1.730   5.216   6.652
 5289SOL    HW116766   1.641   5.232   6.693
 5289SOL    HW216767   1.758   5.297   6.600
 5290SOL     OW16768   2.046   6.020   4.791
 5290SOL    HW116769   1.990   6.014   4.874
 5290SOL    HW216770   2.057   5.929   4.751
 5291SOL     OW16771   2.763   5.451   5.945
 5291SOL    HW116772   2.726   5.457   6.037
 5291SOL    HW216773   2.799   5.359   5.929
 5292SOL     OW16774   6.535   3.093   6.499
 5292SOL    HW116775   6.445   3.121   6.465
 5292SOL    HW216776   6.605   3.117   6.432
 5293SOL     OW16777   0.280   0.701   4.661
 5293SOL    HW116778   0.324   0.701   4.751
 5293SOL    HW216779   0.189   0.742   4.669
 5294SOL     OW16780   4.691   3.543   5.871
 5294SOL    HW116781   4.775   3.516   5.824
 5294SOL    HW216782   4.671   3.639   5.851
 5295SOL     OW16783   6.462   0.574   2.652
 5295SOL    HW116784   6.487   0.660   2.696
 5295SOL    HW216785   6.461   0.501   2.721
 5296SOL     OW16786   1.931   5.128   0.041
 5296SOL    HW116787   1.928   5.048   0.100
 5296SOL    HW216788   2.004   5.117   6.997
 5297SOL     OW16789   2.259   1.977   1.570
 5297SOL    HW116790   2.291   2.026   1.651
 5297SOL    HW216791   2.211   1.894   1.598
 5298SOL     OW16792   0.239   5.883   1.350
 5298SOL    HW116793   0.184   5.836   1.280
 5298SOL    HW216794   0.283   5.816   1.409
 5299SOL     OW16795   2.757   2.153   0.616
 5299SOL    HW116796   2.761   2.253   0.617
 5299SOL    HW216797   2.740   2.120   0.709
 5300SOL     OW16798   0.646   5.631   2.776
 5300SOL    HW116799   0.745   5.645   2.775
 5300SOL    HW216800   0.605   5.685   2.850
 5301SOL     OW16801   4.512   1.291   0.384
 5301SOL    HW116802   4.413   1.293   0.373
 5301SOL    HW216803   4.547   1.200   0.360
 5302SOL     OW16804   5.565   4.821   3.299
 5302SOL    HW116805   5.494   4.761   3.334
 5302SOL    HW216806   5.526   4.884   3.231
 5303SOL     OW16807   6.956   5.838   3.923
 5303SOL    HW116808   6.893   5.915   3.912
 5303SOL    HW216809   6.903   5.755   3.939
 5304SOL     OW16810   6.238   2.419   5.795
 5304SOL    HW116811   6.158   2.388   5.847
 5304SOL    HW216812   6.212   2.437   5.700
 5305SOL     OW16813   1.337   6.524   4.309
 5305SOL    HW116814   1.333   6.561   4.401
 5305SOL    HW216815   1.350   6.425   4.313
 5306SOL     OW16816   1.345   5.601   5.117
 5306SOL    HW116817   1.379   5.695   5.128
 5306SOL    HW216818   1.407   5.549   5.059
 5307SOL     OW16819   4.187   6.507   0.031
 5307SOL    HW116820   4.124   6.574   7.015
 5307SOL    HW216821   4.212   6.534   0.123
 5308SOL     OW16822   0.627   0.096   4.642
 5308SOL    HW116823   0.659   0.190   4.649
 5308SOL    HW216824   0.698   0.040   4.599
 5309SOL     OW16825   3.134   3.998   2.428
 5309SOL    HW116826   3.107   4.063   2.499
 5309SOL    HW216827   3.052   3.962   2.382
 5310SOL     OW16828   5.311   2.765   2.325
 5310SOL    HW116829   5.325   2.807   2.415
 5310SOL    HW216830   5.229   2.708   2.328
 5311SOL     OW16831   0.160   6.024   0.753
 5311SOL    HW116832   0.150   6.027   0.852
 5311SOL    HW216833   0.257   6.021   0.729
 5312SOL     OW16834   6.832   4.586   1.936
 5312SOL    HW116835   6.834   4.487   1.943
 5312SOL    HW216836   6.869   4.627   2.020
 5313SOL     OW16837   1.090   5.470   0.083
 5313SOL    HW116838   1.110   5.429   0.172
 5313SOL    HW216839   0.992   5.488   0.075
 5314SOL     OW16840   4.213   4.804   0.493
 5314SOL    HW116841   4.239   4.839   0.583
 5314SOL    HW216842   4.143   4.734   0.504
 5315SOL     OW16843   4.116   4.328   1.534
 5315SOL    HW116844   4.022   4.361   1.542
 5315SOL    HW216845   4.138   4.271   1.614
 5316SOL     OW16846   6.143   5.202   4.887
 5316SOL    HW116847   6.215   5.242   4.830
 5316SOL    HW216848   6.062   5.185   4.831
 5317SOL     OW16849   6.128   1.354   4.787
 5317SOL    HW116850   6.148   1.351   4.885
 5317SOL    HW216851   6.199   1.306   4.737
 5318SOL     OW16852   0.318   1.863   5.791
 5318SOL    HW116853   0.296   1.781   5.739
 5318SOL    HW216854   0.244   1.883   5.855
 5319SOL     OW16855   4.617   6.889   0.184
 5319SOL    HW116856   4.518   6.897   0.193
 5319SOL    HW216857   4.640   6.800   0.145
 5320SOL     OW16858   5.682   5.190   6.780
 5320SOL    HW116859   5.623   5.269   6.797
 5320SOL    HW216860   5.626   5.113   6.747
 5321SOL     OW16861   1.170   5.644   2.390
 5321SOL    HW116862   1.074   5.662   2.408
 5321SOL    HW216863   1.183   5.547   2.371
 5322SOL     OW16864   4.070   6.548   6.060
 5322SOL    HW116865   4.077   6.624   5.995
 5322SOL    HW216866   3.978   6.545   6.099
 5323SOL     OW16867   3.845   3.208   1.065
 5323SOL    HW116868   3.938   3.233   1.037
 5323SOL    HW216869   3.791   3.291   1.080
 5324SOL     OW16870   3.744   2.556   1.737
 5324SOL    HW116871   3.836   2.593   1.724
 5324SOL    HW216872   3.750   2.469   1.785
 5325SOL     OW16873   5.852   6.347   3.361
 5325SOL    HW116874   5.875   6.307   3.450
 5325SOL    HW216875   5.872   6.445   3.361
 5326SOL     OW16876   6.139   5.126   2.864
 5326SOL    HW116877   6.053   5.083   2.889
 5326SOL    HW216878   6.214   5.060   2.874
 5327SOL     OW16879   0.729   5.970   5.881
 5327SOL    HW116880   0.807   5.971   5.818
 5327SOL    HW216881   0.682   5.882   5.874
 5328SOL     OW16882   3.751   2.134   5.778
 5328SOL    HW116883   3.824   2.071   5.751
 5328SOL    HW216884   3.781   2.187   5.857
 5329SOL     OW16885   0.481   3.838   6.491
 5329SOL    HW116886   0.496   3.861   6.395
 5329SOL    HW216887   0.474   3.739   6.501
 5330SOL     OW16888   3.330   4.226   0.025
 5330SOL    HW116889   3.382   4.141   0.020
 5330SOL    HW216890   3.264   4.220   0.100
 5331SOL     OW16891   5.111   1.278   1.405
 5331SOL    HW116892   5.131   1.225   1.487
 5331SOL    HW216893   5.195   1.293   1.354
 5332SOL     OW16894   6.619   4.240   6.977
 5332SOL    HW116895   6.654   4.292   0.031
 5332SOL    HW216896   6.519   4.239   6.979
 5333SOL     OW16897   1.207   0.739   3.792
 5333SOL    HW116898   1.135   0.706   3.731
 5333SOL    HW216899   1.290   0.686   3.777
 5334SOL     OW16900   4.239   5.197   5.223
 5334SOL    HW116901   4.197   5.184   5.313
 5334SOL    HW216902   4.171   5.176   5.152
 5335SOL     OW16903   0.242   4.985   1.946
 5335SOL    HW116904   0.198   5.043   1.878
 5335SOL    HW216905   0.297   4.915   1.900
 5336SOL     OW16906   2.273   1.991   3.589
 5336SOL    HW116907   2.190   1.936   3.577
 5336SOL    HW216908   2.350   1.931   3.613
 5337SOL     OW16909   5.843   5.252   2.213
 5337SOL    HW116910   5.817   5.348   2.200
 5337SOL    HW216911   5.922   5.247   2.275
 5338SOL     OW16912   5.447   1.457   0.102
 5338SOL    HW116913   5.544   1.450   0.125
 5338SOL    HW216914   5.402   1.518   0.167
 5339SOL     OW16915   5.739   1.557   2.115
 5339SOL    HW116916   5.739   1.478   2.053
 5339SOL    HW216917   5.756   1.526   2.209
 5340SOL     OW16918   5.711   3.339   1.414
 5340SOL    HW116919   5.787   3.378   1.361
 5340SOL    HW216920   5.664   3.412   1.464
 5341SOL     OW16921   3.495   4.921   4.878
 5341SOL    HW116922   3.500   4.842   4.940
 5341SOL    HW216923   3.503   5.005   4.932
 5342SOL     OW16924   4.777   6.323   4.881
 5342SOL    HW116925   4.810   6.229   4.891
 5342SOL    HW216926   4.829   6.383   4.941
 5343SOL     OW16927   3.826   3.594   4.875
 5343SOL    HW116928   3.732   3.566   4.895
 5343SOL    HW216929   3.845   3.579   4.778
 5344SOL     OW16930   0.505   1.276   6.591
 5344SOL    HW116931   0.545   1.352   6.642
 5344SOL    HW216932   0.575   1.206   6.575
 5345SOL     OW16933   4.804   0.669   6.853
 5345SOL    HW116934   4.848   0.654   6.942
 5345SOL    HW216935   4.744   0.591   6.832
 5346SOL     OW16936   2.183   5.021   4.346
 5346SOL    HW116937   2.275   5.038   4.382
 5346SOL    HW216938   2.116   5.038   4.418
 5347SOL     OW16939   6.922   3.763   3.624
 5347SOL    HW116940   7.014   3.801   3.616
 5347SOL    HW216941   6.893   3.725   3.536
 5348SOL     OW16942   0.300   1.114   5.644
 5348SOL    HW116943   0.279   1.138   5.549
 5348SOL    HW216944   0.264   1.023   5.664
 5349SOL     OW16945   2.474   3.377   1.206
 5349SOL    HW116946   2.451   3.446   1.275
 5349SOL    HW216947   2.465   3.418   1.115
 5350SOL     OW16948   2.065   6.469   5.460
 5350SOL    HW116949   2.156   6.476   5.503
 5350SOL    HW216950   2.022   6.384   5.490
 5351SOL     OW16951   0.431   5.477   2.020
 5351SOL    HW116952   0.360   5.537   2.056
 5351SOL    HW216953   0.412   5.383   2.047
 5352SOL     OW16954   2.243   4.244   3.073
 5352SOL    HW116955   2.192   4.238   2.987
 5352SOL    HW216956   2.297   4.328   3.074
 5353SOL     OW16957   4.107   5.003   3.168
 5353SOL    HW116958   4.103   4.918   3.116
 5353SOL    HW216959   4.129   4.982   3.264
 5354SOL     OW16960   2.758   4.154   0.113
 5354SOL    HW116961   2.721   4.238   0.071
 5354SOL    HW216962   2.702   4.076   0.085
 5355SOL     OW16963   5.718   4.397   4.918
 5355SOL    HW116964   5.672   4.479   4.883
 5355SOL    HW216965   5.794   4.424   4.977
 5356SOL     OW16966   6.879   3.482   1.712
 5356SOL    HW116967   6.828   3.466   1.797
 5356SOL    HW216968   6.858   3.409   1.647
 5357SOL     OW16969   3.965   4.477   1.206
 5357SOL    HW116970   3.940   4.567   1.240
 5357SOL    HW216971   3.887   4.415   1.215
 5358SOL     OW16972   4.619   2.041   0.607
 5358SOL    HW116973   4.523   2.017   0.589
 5358SOL    HW216974   4.627   2.139   0.621
 5359SOL     OW16975   1.946   1.658   6.481
 5359SOL    HW116976   1.951   1.637   6.579
 5359SOL    HW216977   1.915   1.753   6.469
 5360SOL     OW16978   5.366   5.558   3.589
 5360SOL    HW116979   5.291   5.625   3.593
 5360SOL    HW216980   5.329   5.467   3.572
 5361SOL     OW16981   1.744   6.563   4.021
 5361SOL    HW116982   1.712   6.575   3.927
 5361SOL    HW216983   1.844   6.554   4.021
 5362SOL     OW16984   6.246   6.811   2.665
 5362SOL    HW116985   6.316   6.882   2.670
 5362SOL    HW216986   6.182   6.823   2.742
 5363SOL     OW16987   4.961   6.508   5.465
 5363SOL    HW116988   5.032   6.541   5.527
 5363SOL    HW216989   5.000   6.496   5.374
 5364SOL     OW16990   5.890   0.149   2.071
 5364SOL    HW116991   5.885   0.059   2.028
 5364SOL    HW216992   5.969   0.152   2.133
 5365SOL     OW16993   3.644   3.126   2.505
 5365SOL    HW116994   3.573   3.169   2.561
 5365SOL    HW216995   3.606   3.046   2.459
 5366SOL     OW16996   6.959   0.468   2.415
 5366SOL    HW116997   6.972   0.370   2.433
 5366SOL    HW216998   6.864   0.486   2.390
 5367SOL     OW16999   6.560   0.037   1.052
 5367SOL    HW117000   6.609   6.974   1.042
 5367SOL    HW217001   6.601   0.090   1.126
 5368SOL     OW17002   6.494   5.973   2.204
 5368SOL    HW117003   6.561   5.952   2.275
 5368SOL    HW217004   6.402   5.957   2.239
 5369SOL     OW17005   3.020   5.620   1.425
 5369SOL    HW117006   2.977   5.532   1.406
 5369SOL    HW217007   3.007   5.681   1.347
 5370SOL     OW17008   4.428   3.676   1.315
 5370SOL    HW117009   4.440   3.582   1.283
 5370SOL    HW217010   4.429   3.678   1.415
 5371SOL     OW17011   0.007   4.881   5.727
 5371SOL    HW117012   6.945   4.905   5.682
 5371SOL    HW217013   0.004   4.784   5.754
 5372SOL     OW17014   1.624   6.573   2.566
 5372SOL    HW117015   1.698   6.582   2.633
 5372SOL    HW217016   1.622   6.480   2.530
 5373SOL     OW17017   3.768   6.889   5.676
 5373SOL    HW117018   3.682   6.847   5.647
 5373SOL    HW217019   3.758   6.988   5.677
 5374SOL     OW17020   2.490   4.257   1.063
 5374SOL    HW117021   2.585   4.248   1.033
 5374SOL    HW217022   2.488   4.273   1.162
 5375SOL     OW17023   0.598   5.345   5.730
 5375SOL    HW117024   0.682   5.372   5.683
 5375SOL    HW217025   0.520   5.392   5.687
 5376SOL     OW17026   1.253   2.307   2.140
 5376SOL    HW117027   1.225   2.402   2.126
 5376SOL    HW217028   1.294   2.298   2.232
 5377SOL     OW17029   1.358   0.540   2.677
 5377SOL    HW117030   1.315   0.625   2.705
 5377SOL    HW217031   1.357   0.475   2.753
 5378SOL     OW17032   6.672   0.492   1.841
 5378SOL    HW117033   6.727   0.519   1.921
 5378SOL    HW217034   6.657   0.394   1.842
 5379SOL     OW17035   1.180   3.113   5.041
 5379SOL    HW117036   1.197   3.014   5.040
 5379SOL    HW217037   1.210   3.152   4.954
 5380SOL     OW17038   3.076   0.263   1.212
 5380SOL    HW117039   3.053   0.239   1.118
 5380SOL    HW217040   3.165   0.224   1.236
 5381SOL     OW17041   6.275   6.198   2.506
 5381SOL    HW117042   6.187   6.199   2.459
 5381SOL    HW217043   6.313   6.106   2.504
 5382SOL     OW17044   2.982   2.231   2.761
 5382SOL    HW117045   2.906   2.295   2.758
 5382SOL    HW217046   2.969   2.160   2.691
 5383SOL     OW17047   1.722   2.642   4.495
 5383SOL    HW117048   1.689   2.550   4.517
 5383SOL    HW217049   1.821   2.638   4.477
 5384SOL     OW17050   4.716   5.670   4.995
 5384SOL    HW117051   4.753   5.587   5.038
 5384SOL    HW217052   4.666   5.645   4.912
 5385SOL     OW17053   5.605   3.307   4.766
 5385SOL    HW117054   5.645   3.373   4.830
 5385SOL    HW217055   5.658   3.306   4.681
 5386SOL     OW17056   5.756   1.368   4.107
 5386SOL    HW117057   5.665   1.334   4.132
 5386SOL    HW217058   5.758   1.387   4.008
 5387SOL     OW17059   2.561   6.659   3.757
 5387SOL    HW117060   2.591   6.564   3.743
 5387SOL    HW217061   2.639   6.720   3.750
 5388SOL     OW17062   1.694   6.668   2.996
 5388SOL    HW117063   1.671   6.587   2.943
 5388SOL    HW217064   1.626   6.739   2.981
 5389SOL     OW17065   3.980   1.635   4.893
 5389SOL    HW117066   3.884   1.661   4.894
 5389SOL    HW217067   4.028   1.687   4.823
 5390SOL     OW17068   5.111   4.165   3.914
 5390SOL    HW117069   5.198   4.214   3.903
 5390SOL    HW217070   5.102   4.135   4.008
 5391SOL     OW17071   2.980   2.086   0.351
 5391SOL    HW117072   2.911   2.075   0.279
 5391SOL    HW217073   2.988   2.000   0.402
 5392SOL     OW17074   5.173   3.673   2.039
 5392SOL    HW117075   5.144   3.746   1.978
 5392SOL    HW217076   5.100   3.606   2.049
 5393SOL     OW17077   4.117   1.050   5.064
 5393SOL    HW117078   4.080   1.086   5.150
 5393SOL    HW217079   4.217   1.061   5.065
 5394SOL     OW17080   0.583   6.358   0.879
 5394SOL    HW117081   0.622   6.391   0.965
 5394SOL    HW217082   0.514   6.288   0.898
 5395SOL     OW17083   4.562   1.324   1.068
 5395SOL    HW117084   4.654   1.349   1.098
 5395SOL    HW217085   4.565   1.289   0.974
 5396SOL     OW17086   5.493   5.762   1.656
 5396SOL    HW117087   5.412   5.796   1.607
 5396SOL    HW217088   5.569   5.752   1.592
 5397SOL     OW17089   0.032   1.849   1.761
 5397SOL    HW117090   7.010   1.785   1.822
 5397SOL    HW217091   0.026   1.941   1.799
 5398SOL     OW17092   3.449   2.087   3.676
 5398SOL    HW117093   3.378   2.112   3.742
 5398SOL    HW217094   3.521   2.157   3.677
 5399SOL     OW17095   2.688   6.528   5.990
 5399SOL    HW117096   2.622   6.587   6.036
 5399SOL    HW217097   2.779   6.543   6.028
 5400SOL     OW17098   3.128   3.433   0.873
 5400SOL    HW117099   3.110   3.525   0.838
 5400SOL    HW217100   3.160   3.439   0.968
 5401SOL     OW17101   5.579   4.527   2.511
 5401SOL    HW117102   5.609   4.476   2.430
 5401SOL    HW217103   5.552   4.619   2.484
 5402SOL     OW17104   3.248   6.496   0.680
 5402SOL    HW117105   3.251   6.456   0.772
 5402SOL    HW217106   3.341   6.521   0.652
 5403SOL     OW17107   5.280   3.266   6.886
 5403SOL    HW117108   5.194   3.247   6.839
 5403SOL    HW217109   5.266   3.261   6.985
 5404SOL     OW17110   1.111   0.763   0.916
 5404SOL    HW117111   1.207   0.779   0.896
 5404SOL    HW217112   1.070   0.707   0.844
 5405SOL     OW17113   6.253   5.259   0.409
 5405SOL    HW117114   6.212   5.246   0.499
 5405SOL    HW217115   6.230   5.181   0.350
 5406SOL     OW17116   2.269   1.038   4.746
 5406SOL    HW117117   2.219   0.982   4.812
 5406SOL    HW217118   2.341   0.983   4.703
 5407SOL     OW17119   3.065   1.504   0.765
 5407SOL    HW117120   3.158   1.533   0.740
 5407SOL    HW217121   2.999   1.550   0.705
 5408SOL     OW17122   3.164   1.517   4.806
 5408SOL    HW117123   3.239   1.582   4.792
 5408SOL    HW217124   3.096   1.529   4.734
 5409SOL     OW17125   6.781   1.372   2.035
 5409SOL    HW117126   6.684   1.378   2.012
 5409SOL    HW217127   6.792   1.378   2.134
 5410SOL     OW17128   0.663   3.055   0.012
 5410SOL    HW117129   0.749   3.080   6.989
 5410SOL    HW217130   0.644   3.122   0.083
 5411SOL     OW17131   5.299   4.535   0.233
 5411SOL    HW117132   5.279   4.593   0.312
 5411SOL    HW217133   5.383   4.566   0.189
 5412SOL     OW17134   2.327   1.063   6.112
 5412SOL    HW117135   2.413   1.034   6.153
 5412SOL    HW217136   2.301   1.153   6.148
 5413SOL     OW17137   0.348   6.931   6.407
 5413SOL    HW117138   0.350   6.885   6.319
 5413SOL    HW217139   0.254   6.957   6.429
 5414SOL     OW17140   6.752   4.655   5.552
 5414SOL    HW117141   6.747   4.734   5.614
 5414SOL    HW217142   6.746   4.686   5.457
 5415SOL     OW17143   3.293   5.928   0.222
 5415SOL    HW117144   3.236   5.928   0.304
 5415SOL    HW217145   3.302   6.021   0.188
 5416SOL     OW17146   2.644   5.304   5.120
 5416SOL    HW117147   2.669   5.256   5.037
 5416SOL    HW217148   2.562   5.262   5.160
 5417SOL     OW17149   3.657   6.852   4.213
 5417SOL    HW117150   3.729   6.825   4.149
 5417SOL    HW217151   3.611   6.770   4.248
 5418SOL     OW17152   5.289   5.519   4.747
 5418SOL    HW117153   5.367   5.573   4.717
 5418SOL    HW217154   5.251   5.560   4.831
 5419SOL     OW17155   4.513   6.322   0.360
 5419SOL    HW117156   4.475   6.360   0.444
 5419SOL    HW217157   4.544   6.228   0.376
 5420SOL     OW17158   2.091   1.927   0.722
 5420SOL    HW117159   2.173   1.912   0.777
 5420SOL    HW217160   2.051   1.839   0.696
 5421SOL     OW17161   3.253   5.218   1.714
 5421SOL    HW117162   3.216   5.300   1.670
 5421SOL    HW217163   3.188   5.185   1.783
 5422SOL     OW17164   2.046   5.835   4.276
 5422SOL    HW117165   2.141   5.866   4.280
 5422SOL    HW217166   1.988   5.896   4.330
 5423SOL     OW17167   6.265   5.431   1.151
 5423SOL    HW117168   6.310   5.466   1.069
 5423SOL    HW217169   6.166   5.428   1.136
 5424SOL     OW17170   4.847   3.763   4.283
 5424SOL    HW117171   4.937   3.726   4.307
 5424SOL    HW217172   4.780   3.734   4.352
 5425SOL     OW17173   6.198   2.895   4.647
 5425SOL    HW117174   6.248   2.976   4.678
 5425SOL    HW217175   6.212   2.883   4.549
 5426SOL     OW17176   4.353   5.669   2.534
 5426SOL    HW117177   4.258   5.638   2.547
 5426SOL    HW217178   4.360   5.717   2.446
 5427SOL     OW17179   4.873   2.804   0.198
 5427SOL    HW117180   4.873   2.728   0.263
 5427SOL    HW217181   4.789   2.802   0.144
 5428SOL     OW17182   4.896   6.929   2.240
 5428SOL    HW117183   4.866   7.023   2.256
 5428SOL    HW217184   4.816   6.868   2.241
 5429SOL     OW17185   2.016   0.019   4.687
 5429SOL    HW117186   2.050   6.991   4.608
 5429SOL    HW217187   1.957   6.985   4.742
 5430SOL     OW17188   2.036   2.917   5.554
 5430SOL    HW117189   2.026   2.897   5.457
 5430SOL    HW217190   2.125   2.959   5.570
 5431SOL     OW17191   3.148   4.367   6.208
 5431SOL    HW117192   3.057   4.338   6.240
 5431SOL    HW217193   3.140   4.456   6.163
 5432SOL     OW17194   5.110   5.455   0.079
 5432SOL    HW117195   5.149   5.369   0.046
 5432SOL    HW217196   5.184   5.517   0.106
 5433SOL     OW17197   1.873   0.257   1.138
 5433SOL    HW117198   1.773   0.266   1.136
 5433SOL    HW217199   1.912   0.305   1.060
 5434SOL     OW17200   4.548   0.971   4.595
 5434SOL    HW117201   4.635   0.922   4.603
 5434SOL    HW217202   4.540   1.037   4.670
 5435SOL     OW17203   6.352   3.737   1.147
 5435SOL    HW117204   6.312   3.645   1.142
 5435SOL    HW217205   6.385   3.763   1.057
 5436SOL     OW17206   6.644   5.172   4.343
 5436SOL    HW117207   6.734   5.157   4.303
 5436SOL    HW217208   6.605   5.085   4.372
 5437SOL     OW17209   3.799   4.625   5.651
 5437SOL    HW117210   3.875   4.564   5.628
 5437SOL    HW217211   3.718   4.572   5.673
 5438SOL     OW17212   4.957   5.140   2.171
 5438SOL    HW117213   5.033   5.198   2.142
 5438SOL    HW217214   4.890   5.195   2.222
 5439SOL     OW17215   1.229   3.598   0.214
 5439SOL    HW117216   1.154   3.647   0.258
 5439SOL    HW217217   1.196   3.556   0.129
 5440SOL     OW17218   5.645   6.485   3.798
 5440SOL    HW117219   5.736   6.448   3.814
 5440SOL    HW217220   5.651   6.584   3.780
 5441SOL     OW17221   5.571   3.405   2.956
 5441SOL    HW117222   5.590   3.397   2.858
 5441SOL    HW217223   5.527   3.321   2.988
 5442SOL     OW17224   3.693   6.963   3.246
 5442SOL    HW117225   3.731   6.887   3.299
 5442SOL    HW217226   3.617   6.929   3.190
 5443SOL     OW17227   4.039   6.559   4.105
 5443SOL    HW117228   4.042   6.462   4.128
 5443SOL    HW217229   4.122   6.603   4.137
 5444SOL     OW17230   6.999   1.516   3.981
 5444SOL    HW117231   6.918   1.531   3.924
 5444SOL    HW217232   6.979   1.545   4.075
 5445SOL     OW17233   5.200   4.428   3.618
 5445SOL    HW117234   5.186   4.468   3.708
 5445SOL    HW217235   5.297   4.437   3.592
 5446SOL     OW17236   6.091   4.468   4.666
 5446SOL    HW117237   6.111   4.427   4.577
 5446SOL    HW217238   6.057   4.397   4.728
 5447SOL     OW17239   1.909   1.744   1.210
 5447SOL    HW117240   1.969   1.670   1.179
 5447SOL    HW217241   1.960   1.802   1.274
 5448SOL     OW17242   4.775   5.233   3.890
 5448SOL    HW117243   4.798   5.323   3.927
 5448SOL    HW217244   4.860   5.183   3.869
 5449SOL     OW17245   2.518   1.297   1.484
 5449SOL    HW117246   2.509   1.231   1.410
 5449SOL    HW217247   2.437   1.293   1.542
 5450SOL     OW17248   3.738   6.373   1.226
 5450SOL    HW117249   3.789   6.385   1.140
 5450SOL    HW217250   3.643   6.399   1.212
 5451SOL     OW17251   1.634   6.127   3.623
 5451SOL    HW117252   1.549   6.146   3.673
 5451SOL    HW217253   1.614   6.077   3.539
 5452SOL     OW17254   2.352   4.485   1.016
 5452SOL    HW117255   2.392   4.393   1.012
 5452SOL    HW217256   2.273   4.484   1.076
 5453SOL     OW17257   4.942   4.160   2.031
 5453SOL    HW117258   4.974   4.068   2.009
 5453SOL    HW217259   4.981   4.225   1.966
 5454SOL     OW17260   5.512   6.162   1.946
 5454SOL    HW117261   5.563   6.242   1.978
 5454SOL    HW217262   5.446   6.134   2.016
 5455SOL     OW17263   0.108   1.977   3.432
 5455SOL    HW117264   0.084   1.970   3.529
 5455SOL    HW217265   0.171   1.903   3.408
 5456SOL     OW17266   4.113   1.299   6.405
 5456SOL    HW117267   4.027   1.261   6.372
 5456SOL    HW217268   4.117   1.290   6.505
 5457SOL     OW17269   6.244   1.391   0.542
 5457SOL    HW117270   6.284   1.459   0.603
 5457SOL    HW217271   6.304   1.311   0.539
 5458SOL     OW17272   6.864   4.967   1.257
 5458SOL    HW117273   6.834   5.048   1.206
 5458SOL    HW217274   6.942   4.926   1.211
 5459SOL     OW17275   2.137   4.876   4.751
 5459SOL    HW117276   2.056   4.830   4.715
 5459SOL    HW217277   2.119   4.909   4.844
 5460SOL     OW17278   2.842   0.388   2.202
 5460SOL    HW117279   2.799   0.444   2.131
 5460SOL    HW217280   2.916   0.439   2.245
 5461SOL     OW17281   0.915   1.491   4.894
 5461SOL    HW117282   0.851   1.425   4.855
 5461SOL    HW217283   0.955   1.546   4.821
 5462SOL     OW17284   5.298   6.435   6.743
 5462SOL    HW117285   5.334   6.386   6.663
 5462SOL    HW217286   5.352   6.413   6.824
 5463SOL     OW17287   6.693   1.861   6.630
 5463SOL    HW117288   6.655   1.954   6.638
 5463SOL    HW217289   6.620   1.794   6.638
 5464SOL     OW17290   5.997   5.474   5.205
 5464SOL    HW117291   6.033   5.548   5.261
 5464SOL    HW217292   5.934   5.512   5.137
 5465SOL     OW17293   7.023   0.013   3.222
 5465SOL    HW117294   0.060   0.028   3.143
 5465SOL    HW217295   6.934   0.055   3.204
 5466SOL     OW17296   6.407   2.834   5.403
 5466SOL    HW117297   6.486   2.772   5.402
 5466SOL    HW217298   6.332   2.790   5.451
 5467SOL     OW17299   5.766   3.903   3.054
 5467SOL    HW117300   5.734   3.986   3.008
 5467SOL    HW217301   5.687   3.850   3.084
 5468SOL     OW17302   6.851   2.817   4.277
 5468SOL    HW117303   6.784   2.756   4.235
 5468SOL    HW217304   6.807   2.874   4.346
 5469SOL     OW17305   3.324   5.762   6.186
 5469SOL    HW117306   3.419   5.730   6.185
 5469SOL    HW217307   3.292   5.775   6.092
 5470SOL     OW17308   3.649   5.252   3.744
 5470SOL    HW117309   3.601   5.273   3.830
 5470SOL    HW217310   3.725   5.191   3.763
 5471SOL     OW17311   5.648   0.257   2.460
 5471SOL    HW117312   5.718   0.262   2.531
 5471SOL    HW217313   5.641   0.345   2.414
 5472SOL     OW17314   3.042   3.448   6.496
 5472SOL    HW117315   3.084   3.361   6.469
 5472SOL    HW217316   3.055   3.515   6.423
 5473SOL     OW17317   2.021   4.170   0.083
 5473SOL    HW117318   2.083   4.169   0.161
 5473SOL    HW217319   1.939   4.222   0.105
 5474SOL     OW17320   0.261   5.898   4.003
 5474SOL    HW117321   0.340   5.867   4.056
 5474SOL    HW217322   0.233   5.826   3.939
 5475SOL     OW17323   1.920   2.110   0.918
 5475SOL    HW117324   1.970   2.179   0.866
 5475SOL    HW217325   1.955   2.108   1.012
 5476SOL     OW17326   2.464   4.556   4.913
 5476SOL    HW117327   2.507   4.588   4.998
 5476SOL    HW217328   2.396   4.486   4.934
 5477SOL     OW17329   1.403   3.644   3.027
 5477SOL    HW117330   1.334   3.625   3.097
 5477SOL    HW217331   1.420   3.743   3.024
 5478SOL     OW17332   5.012   6.331   5.673
 5478SOL    HW117333   4.941   6.347   5.604
 5478SOL    HW217334   5.089   6.392   5.657
 5479SOL     OW17335   4.327   1.579   4.922
 5479SOL    HW117336   4.367   1.502   4.972
 5479SOL    HW217337   4.272   1.633   4.986
 5480SOL     OW17338   5.805   4.823   5.215
 5480SOL    HW117339   5.896   4.829   5.257
 5480SOL    HW217340   5.735   4.826   5.286
 5481SOL     OW17341   4.886   0.976   4.740
 5481SOL    HW117342   4.967   1.025   4.770
 5481SOL    HW217343   4.809   0.998   4.800
 5482SOL     OW17344   3.292   4.023   2.746
 5482SOL    HW117345   3.334   4.080   2.675
 5482SOL    HW217346   3.287   3.928   2.715
 5483SOL     OW17347   6.653   1.940   5.137
 5483SOL    HW117348   6.750   1.923   5.153
 5483SOL    HW217349   6.608   1.962   5.223
 5484SOL     OW17350   6.241   0.539   3.557
 5484SOL    HW117351   6.339   0.559   3.556
 5484SOL    HW217352   6.218   0.488   3.640
 5485SOL     OW17353   3.092   6.483   4.770
 5485SOL    HW117354   3.131   6.468   4.861
 5485SOL    HW217355   3.046   6.572   4.767
 5486SOL     OW17356   1.303   6.277   4.388
 5486SOL    HW117357   1.350   6.222   4.458
 5486SOL    HW217358   1.205   6.258   4.392
 5487SOL     OW17359   5.552   3.332   6.580
 5487SOL    HW117360   5.478   3.392   6.610
 5487SOL    HW217361   5.530   3.237   6.606
 5488SOL     OW17362   5.374   1.529   1.367
 5488SOL    HW117363   5.345   1.454   1.309
 5488SOL    HW217364   5.357   1.616   1.321
 5489SOL     OW17365   0.811   4.439   1.267
 5489SOL    HW117366   0.858   4.452   1.180
 5489SOL    HW217367   0.777   4.345   1.272
 5490SOL     OW17368   3.416   0.436   1.100
 5490SOL    HW117369   3.428   0.398   1.008
 5490SOL    HW217370   3.392   0.533   1.093
 5491SOL     OW17371   1.869   3.454   6.340
 5491SOL    HW117372   1.866   3.361   6.376
 5491SOL    HW217373   1.889   3.451   6.242
 5492SOL     OW17374   0.965   2.224   6.654
 5492SOL    HW117375   0.969   2.206   6.556
 5492SOL    HW217376   1.057   2.221   6.693
 5493SOL     OW17377   4.073   3.646   4.127
 5493SOL    HW117378   4.078   3.648   4.028
 5493SOL    HW217379   4.082   3.552   4.159
 5494SOL     OW17380   6.123   2.457   7.002
 5494SOL    HW117381   6.156   2.503   6.920
 5494SOL    HW217382   6.199   2.412   0.025
 5495SOL     OW17383   3.365   2.458   1.342
 5495SOL    HW117384   3.424   2.389   1.384
 5495SOL    HW217385   3.324   2.515   1.414
 5496SOL     OW17386   2.420   6.876   3.608
 5496SOL    HW117387   2.332   6.897   3.565
 5496SOL    HW217388   2.428   6.778   3.621
 5497SOL     OW17389   0.117   1.983   3.731
 5497SOL    HW117390   0.039   1.979   3.794
 5497SOL    HW217391   0.153   1.891   3.716
 5498SOL     OW17392   5.227   0.184   1.472
 5498SOL    HW117393   5.191   0.096   1.443
 5498SOL    HW217394   5.152   0.244   1.500
 5499SOL     OW17395   0.835   0.870   3.418
 5499SOL    HW117396   0.826   0.872   3.517
 5499SOL    HW217397   0.915   0.816   3.392
 5500SOL     OW17398   2.044   6.415   6.842
 5500SOL    HW117399   2.016   6.323   6.870
 5500SOL    HW217400   2.123   6.408   6.781
 5501SOL     OW17401   3.768   0.236   1.067
 5501SOL    HW117402   3.826   0.229   0.986
 5501SOL    HW217403   3.688   0.177   1.056
 5502SOL     OW17404   5.676   4.023   6.901
 5502SOL    HW117405   5.673   3.928   6.872
 5502SOL    HW217406   5.583   4.061   6.899
 5503SOL     OW17407   0.201   5.265   3.104
 5503SOL    HW117408   0.167   5.180   3.064
 5503SOL    HW217409   0.297   5.253   3.129
 5504SOL     OW17410   3.921   1.326   5.467
 5504SOL    HW117411   3.890   1.267   5.392
 5504SOL    HW217412   3.978   1.399   5.430
 5505SOL     OW17413   2.132   5.585   4.158
 5505SOL    HW117414   2.226   5.555   4.169
 5505SOL    HW217415   2.122   5.679   4.193
 5506SOL     OW17416   0.372   1.141   6.132
 5506SOL    HW117417   0.408   1.216   6.077
 5506SOL    HW217418   0.426   1.133   6.216
 5507SOL     OW17419   2.388   7.003   2.883
 5507SOL    HW117420   2.459   6.938   2.908
 5507SOL    HW217421   2.412   0.071   2.916
 5508SOL     OW17422   1.847   1.043   0.056
 5508SOL    HW117423   1.756   1.006   0.070
 5508SOL    HW217424   1.884   1.008   6.993
 5509SOL     OW17425   1.021   6.622   0.994
 5509SOL    HW117426   1.050   6.690   0.926
 5509SOL    HW217427   0.958   6.663   1.059
 5510SOL     OW17428   5.567   6.423   0.634
 5510SOL    HW117429   5.561   6.435   0.733
 5510SOL    HW217430   5.569   6.512   0.590
 5511SOL     OW17431   2.854   0.177   4.178
 5511SOL    HW117432   2.950   0.198   4.194
 5511SOL    HW217433   2.843   0.139   4.086
 5512SOL     OW17434   5.652   2.327   1.609
 5512SOL    HW117435   5.573   2.388   1.613
 5512SOL    HW217436   5.719   2.363   1.544
 5513SOL     OW17437   3.932   3.837   6.010
 5513SOL    HW117438   4.009   3.788   5.969
 5513SOL    HW217439   3.896   3.785   6.087
 5514SOL     OW17440   4.778   6.006   2.274
 5514SOL    HW117441   4.864   6.019   2.225
 5514SOL    HW217442   4.786   6.042   2.367
 5515SOL     OW17443   0.131   4.962   1.501
 5515SOL    HW117444   0.076   5.037   1.463
 5515SOL    HW217445   0.096   4.938   1.591
 5516SOL     OW17446   1.302   3.604   6.763
 5516SOL    HW117447   1.289   3.542   6.685
 5516SOL    HW217448   1.261   3.564   6.845
 5517SOL     OW17449   2.194   2.847   2.106
 5517SOL    HW117450   2.200   2.939   2.145
 5517SOL    HW217451   2.102   2.811   2.120
 5518SOL     OW17452   6.335   6.744   6.041
 5518SOL    HW117453   6.303   6.788   6.125
 5518SOL    HW217454   6.311   6.802   5.963
 5519SOL     OW17455   5.264   3.231   2.692
 5519SOL    HW117456   5.255   3.173   2.611
 5519SOL    HW217457   5.174   3.260   2.723
 5520SOL     OW17458   0.309   5.749   2.436
 5520SOL    HW117459   0.317   5.800   2.522
 5520SOL    HW217460   0.342   5.806   2.361
 5521SOL     OW17461   4.325   7.022   2.013
 5521SOL    HW117462   4.244   6.964   2.007
 5521SOL    HW217463   4.306   0.075   2.075
 5522SOL     OW17464   0.115   5.642   0.928
 5522SOL    HW117465   0.145   5.682   0.840
 5522SOL    HW217466   0.191   5.591   0.968
 5523SOL     OW17467   2.972   6.518   2.340
 5523SOL    HW117468   2.943   6.486   2.250
 5523SOL    HW217469   2.904   6.582   2.376
 5524SOL     OW17470   5.065   5.416   4.625
 5524SOL    HW117471   5.142   5.455   4.674
 5524SOL    HW217472   5.021   5.346   4.681
 5525SOL     OW17473   6.762   3.158   0.053
 5525SOL    HW117474   6.787   3.156   0.149
 5525SOL    HW217475   6.689   3.092   0.036
 5526SOL     OW17476   5.451   4.686   4.581
 5526SOL    HW117477   5.369   4.744   4.584
 5526SOL    HW217478   5.530   4.743   4.556
 5527SOL     OW17479   6.858   3.796   4.259
 5527SOL    HW117480   6.835   3.806   4.162
 5527SOL    HW217481   6.853   3.700   4.284
 5528SOL     OW17482   1.345   1.811   6.726
 5528SOL    HW117483   1.313   1.903   6.745
 5528SOL    HW217484   1.267   1.752   6.705
 5529SOL     OW17485   1.789   0.669   4.365
 5529SOL    HW117486   1.693   0.648   4.383
 5529SOL    HW217487   1.838   0.584   4.341
 5530SOL     OW17488   0.548   2.333   2.274
 5530SOL    HW117489   0.593   2.341   2.362
 5530SOL    HW217490   0.481   2.407   2.263
 5531SOL     OW17491   3.730   3.366   2.365
 5531SOL    HW117492   3.727   3.335   2.270
 5531SOL    HW217493   3.692   3.296   2.425
 5532SOL     OW17494   1.395   1.681   0.058
 5532SOL    HW117495   1.413   1.766   0.108
 5532SOL    HW217496   1.365   1.610   0.123
 5533SOL     OW17497   2.981   0.987   3.347
 5533SOL    HW117498   2.924   1.069   3.346
 5533SOL    HW217499   2.987   0.950   3.254
 5534SOL     OW17500   0.709   2.010   5.571
 5534SOL    HW117501   0.655   1.928   5.592
 5534SOL    HW217502   0.703   2.029   5.473
 5535SOL     OW17503   0.478   3.264   4.457
 5535SOL    HW117504   0.416   3.317   4.516
 5535SOL    HW217505   0.477   3.303   4.365
 5536SOL     OW17506   2.907   0.762   4.503
 5536SOL    HW117507   2.898   0.663   4.507
 5536SOL    HW217508   2.985   0.786   4.444
 5537SOL     OW17509   3.076   0.351   4.135
 5537SOL    HW117510   3.096   0.441   4.174
 5537SOL    HW217511   3.006   0.360   4.064
 5538SOL     OW17512   3.349   7.019   5.112
 5538SOL    HW117513   3.325   6.932   5.154
 5538SOL    HW217514   3.351   7.009   5.012
 5539SOL     OW17515   1.666   2.780   0.316
 5539SOL    HW117516   1.638   2.868   0.278
 5539SOL    HW217517   1.613   2.707   0.274
 5540SOL     OW17518   6.220   3.389   2.912
 5540SOL    HW117519   6.297   3.326   2.903
 5540SOL    HW217520   6.163   3.382   2.830
 5541SOL     OW17521   5.680   1.150   6.450
 5541SOL    HW117522   5.751   1.084   6.427
 5541SOL    HW217523   5.647   1.133   6.543
 5542SOL     OW17524   6.177   6.350   6.168
 5542SOL    HW117525   6.204   6.305   6.253
 5542SOL    HW217526   6.253   6.407   6.135
 5543SOL     OW17527   3.144   5.319   5.909
 5543SOL    HW117528   3.122   5.408   5.949
 5543SOL    HW217529   3.227   5.327   5.853
 5544SOL     OW17530   5.490   6.483   6.125
 5544SOL    HW117531   5.550   6.523   6.056
 5544SOL    HW217532   5.407   6.538   6.133
 5545SOL     OW17533   4.484   1.931   3.477
 5545SOL    HW117534   4.472   1.993   3.400
 5545SOL    HW217535   4.465   1.837   3.448
 5546SOL     OW17536   1.271   6.242   4.746
 5546SOL    HW117537   1.336   6.318   4.753
 5546SOL    HW217538   1.290   6.190   4.663
 5547SOL     OW17539   3.743   0.778   4.487
 5547SOL    HW117540   3.685   0.806   4.564
 5547SOL    HW217541   3.685   0.754   4.409
 5548SOL     OW17542   5.793   3.503   4.827
 5548SOL    HW117543   5.744   3.538   4.747
 5548SOL    HW217544   5.891   3.517   4.815
 5549SOL     OW17545   4.278   4.353   0.827
 5549SOL    HW117546   4.344   4.353   0.902
 5549SOL    HW217547   4.186   4.336   0.863
 5550SOL     OW17548   2.306   4.204   2.399
 5550SOL    HW117549   2.348   4.182   2.487
 5550SOL    HW217550   2.240   4.279   2.411
 5551SOL     OW17551   1.972   5.824   3.604
 5551SOL    HW117552   1.969   5.921   3.580
 5551SOL    HW217553   2.005   5.771   3.525
 5552SOL     OW17554   6.555   0.496   6.607
 5552SOL    HW117555   6.623   0.425   6.585
 5552SOL    HW217556   6.591   0.555   6.679
 5553SOL     OW17557   4.786   6.727   0.867
 5553SOL    HW117558   4.765   6.806   0.810
 5553SOL    HW217559   4.802   6.647   0.810
 5554SOL     OW17560   4.451   1.680   6.133
 5554SOL    HW117561   4.480   1.584   6.139
 5554SOL    HW217562   4.372   1.687   6.072
 5555SOL     OW17563   1.084   4.014   3.713
 5555SOL    HW117564   1.109   4.110   3.705
 5555SOL    HW217565   1.097   3.983   3.807
 5556SOL     OW17566   6.686   1.406   3.101
 5556SOL    HW117567   6.652   1.325   3.148
 5556SOL    HW217568   6.615   1.442   3.041
 5557SOL     OW17569   3.356   6.835   2.717
 5557SOL    HW117570   3.275   6.834   2.659
 5557SOL    HW217571   3.415   6.757   2.694
 5558SOL     OW17572   4.228   3.508   5.646
 5558SOL    HW117573   4.316   3.464   5.627
 5558SOL    HW217574   4.159   3.472   5.583
 5559SOL     OW17575   1.895   0.491   1.874
 5559SOL    HW117576   1.832   0.510   1.950
 5559SOL    HW217577   1.848   0.506   1.787
 5560SOL     OW17578   0.791   6.231   2.224
 5560SOL    HW117579   0.840   6.283   2.154
 5560SOL    HW217580   0.702   6.201   2.187
 5561SOL     OW17581   1.113   1.798   4.198
 5561SOL    HW117582   1.105   1.702   4.171
 5561SOL    HW217583   1.047   1.818   4.271
 5562SOL     OW17584   4.222   2.183   6.416
 5562SOL    HW117585   4.258   2.131   6.339
 5562SOL    HW217586   4.244   2.137   6.502
 5563SOL     OW17587   3.979   5.169   2.075
 5563SOL    HW117588   3.922   5.164   2.157
 5563SOL    HW217589   4.075   5.174   2.101
 5564SOL     OW17590   4.527   0.654   1.195
 5564SOL    HW117591   4.555   0.656   1.099
 5564SOL    HW217592   4.601   0.690   1.252
 5565SOL     OW17593   4.670   1.490   5.991
 5565SOL    HW117594   4.754   1.435   5.988
 5565SOL    HW217595   4.694   1.586   6.005
 5566SOL     OW17596   1.491   4.954   6.634
 5566SOL    HW117597   1.566   4.913   6.582
 5566SOL    HW217598   1.406   4.943   6.582
 5567SOL     OW17599   6.973   2.299   1.065
 5567SOL    HW117600   6.985   2.204   1.095
 5567SOL    HW217601   6.897   2.341   1.115
 5568SOL     OW17602   4.389   2.056   3.726
 5568SOL    HW117603   4.292   2.038   3.709
 5568SOL    HW217604   4.444   2.005   3.660
 5569SOL     OW17605   1.527   1.776   2.931
 5569SOL    HW117606   1.445   1.830   2.911
 5569SOL    HW217607   1.563   1.737   2.847
 5570SOL     OW17608   6.304   4.551   4.972
 5570SOL    HW117609   6.209   4.574   4.952
 5570SOL    HW217610   6.335   4.478   4.911
 5571SOL     OW17611   7.006   6.164   0.325
 5571SOL    HW117612   6.969   6.094   0.385
 5571SOL    HW217613   6.950   6.170   0.242
 5572SOL     OW17614   0.981   2.270   5.436
 5572SOL    HW117615   0.976   2.172   5.454
 5572SOL    HW217616   0.981   2.286   5.337
 5573SOL     OW17617   2.037   4.239   5.090
 5573SOL    HW117618   2.094   4.277   5.018
 5573SOL    HW217619   2.045   4.140   5.090
 5574SOL     OW17620   0.123   2.032   2.517
 5574SOL    HW117621   0.107   1.983   2.603
 5574SOL    HW217622   0.160   1.969   2.449
 5575SOL     OW17623   7.003   1.349   0.901
 5575SOL    HW117624   6.937   1.388   0.966
 5575SOL    HW217625   0.072   1.372   0.931
 5576SOL     OW17626   1.218   5.388   1.730
 5576SOL    HW117627   1.207   5.417   1.635
 5576SOL    HW217628   1.129   5.367   1.769
 5577SOL     OW17629   2.966   3.313   5.062
 5577SOL    HW117630   2.904   3.317   4.984
 5577SOL    HW217631   3.060   3.331   5.031
 5578SOL     OW17632   3.439   3.693   0.738
 5578SOL    HW117633   3.383   3.766   0.777
 5578SOL    HW217634   3.399   3.664   0.651
 5579SOL     OW17635   1.079   3.835   6.281
 5579SOL    HW117636   1.029   3.919   6.259
 5579SOL    HW217637   1.177   3.856   6.289
 5580SOL     OW17638   5.491   2.453   5.588
 5580SOL    HW117639   5.531   2.491   5.671
 5580SOL    HW217640   5.476   2.526   5.521
 5581SOL     OW17641   1.711   6.860   1.623
 5581SOL    HW117642   1.718   6.938   1.684
 5581SOL    HW217643   1.734   6.776   1.672
 5582SOL     OW17644   3.275   3.699   4.556
 5582SOL    HW117645   3.272   3.600   4.544
 5582SOL    HW217646   3.317   3.722   4.643
 5583SOL     OW17647   4.512   0.701   2.476
 5583SOL    HW117648   4.516   0.779   2.414
 5583SOL    HW217649   4.589   0.640   2.458
 5584SOL     OW17650   5.616   4.460   4.120
 5584SOL    HW117651   5.550   4.496   4.055
 5584SOL    HW217652   5.569   4.403   4.188
 5585SOL     OW17653   4.893   6.258   3.790
 5585SOL    HW117654   4.909   6.242   3.888
 5585SOL    HW217655   4.960   6.323   3.756
 5586SOL     OW17656   6.969   2.358   6.882
 5586SOL    HW117657   0.039   2.328   6.903
 5586SOL    HW217658   6.904   2.291   6.918
 5587SOL     OW17659   4.038   6.267   1.909
 5587SOL    HW117660   3.964   6.334   1.908
 5587SOL    HW217661   4.054   6.235   2.002
 5588SOL     OW17662   1.767   6.295   3.013
 5588SOL    HW117663   1.716   6.248   3.084
 5588SOL    HW217664   1.824   6.366   3.054
 5589SOL     OW17665   5.802   4.048   5.685
 5589SOL    HW117666   5.862   4.005   5.753
 5589SOL    HW217667   5.846   4.047   5.596
 5590SOL     OW17668   6.439   5.755   4.242
 5590SOL    HW117669   6.361   5.730   4.184
 5590SOL    HW217670   6.432   5.851   4.267
 5591SOL     OW17671   5.497   1.926   0.471
 5591SOL    HW117672   5.449   1.856   0.525
 5591SOL    HW217673   5.541   1.882   0.393
 5592SOL     OW17674   6.732   4.920   2.625
 5592SOL    HW117675   6.653   4.976   2.599
 5592SOL    HW217676   6.761   4.944   2.717
 5593SOL     OW17677   0.085   3.013   6.970
 5593SOL    HW117678   0.112   2.937   0.006
 5593SOL    HW217679   0.167   3.052   6.928
 5594SOL     OW17680   3.243   1.096   6.608
 5594SOL    HW117681   3.175   1.110   6.537
 5594SOL    HW217682   3.335   1.107   6.569
 5595SOL     OW17683   6.551   0.753   5.169
 5595SOL    HW117684   6.592   0.666   5.142
 5595SOL    HW217685   6.622   0.812   5.208
 5596SOL     OW17686   4.714   0.577   3.392
 5596SOL    HW117687   4.725   0.651   3.458
 5596SOL    HW217688   4.725   0.613   3.299
 5597SOL     OW17689   5.777   2.521   5.340
 5597SOL    HW117690   5.839   2.510   5.263
 5597SOL    HW217691   5.814   2.474   5.420
 5598SOL     OW17692   6.200   3.458   3.558
 5598SOL    HW117693   6.108   3.462   3.598
 5598SOL    HW217694   6.265   3.428   3.628
 5599SOL     OW17695   0.988   3.128   1.771
 5599SOL    HW117696   1.020   3.073   1.848
 5599SOL    HW217697   1.046   3.111   1.692
 5600SOL     OW17698   2.110   0.386   2.493
 5600SOL    HW117699   2.164   0.334   2.560
 5600SOL    HW217700   2.155   0.473   2.475
 5601SOL     OW17701   2.714   0.743   5.966
 5601SOL    HW117702   2.627   0.694   5.971
 5601SOL    HW217703   2.755   0.731   5.876
 5602SOL     OW17704   0.067   0.860   1.483
 5602SOL    HW117705   0.048   0.833   1.578
 5602SOL    HW217706   0.065   0.779   1.424
 5603SOL     OW17707   5.565   2.399   0.108
 5603SOL    HW117708   5.526   2.334   0.173
 5603SOL    HW217709   5.641   2.356   0.060
 5604SOL     OW17710   6.591   2.249   4.659
 5604SOL    HW117711   6.532   2.255   4.739
 5604SOL    HW217712   6.687   2.254   4.688
 5605SOL     OW17713   0.684   0.868   4.750
 5605SOL    HW117714   0.717   0.962   4.749
 5605SOL    HW217715   0.661   0.842   4.844
 5606SOL     OW17716   5.131   6.941   0.836
 5606SOL    HW117717   5.159   6.852   0.800
 5606SOL    HW217718   5.114   6.934   0.934
 5607SOL     OW17719   5.955   1.174   3.736
 5607SOL    HW117720   5.982   1.129   3.651
 5607SOL    HW217721   6.028   1.164   3.804
 5608SOL     OW17722   6.742   0.875   3.670
 5608SOL    HW117723   6.690   0.917   3.595
 5608SOL    HW217724   6.746   0.939   3.747
 5609SOL     OW17725   4.299   5.897   1.791
 5609SOL    HW117726   4.231   5.847   1.737
 5609SOL    HW217727   4.252   5.964   1.849
 5610SOL     OW17728   4.541   5.013   1.851
 5610SOL    HW117729   4.635   4.983   1.835
 5610SOL    HW217730   4.539   5.112   1.861
 5611SOL     OW17731   0.849   5.013   2.948
 5611SOL    HW117732   0.832   4.947   2.875
 5611SOL    HW217733   0.767   5.069   2.962
 5612SOL     OW17734   4.442   3.083   6.220
 5612SOL    HW117735   4.395   3.008   6.174
 5612SOL    HW217736   4.417   3.084   6.317
 5613SOL     OW17737   5.553   5.729   5.117
 5613SOL    HW117738   5.619   5.743   5.191
 5613SOL    HW217739   5.521   5.635   5.119
 5614SOL     OW17740   4.946   2.613   4.690
 5614SOL    HW117741   4.948   2.587   4.593
 5614SOL    HW217742   5.039   2.609   4.727
 5615SOL     OW17743   6.528   1.602   3.811
 5615SOL    HW117744   6.438   1.605   3.855
 5615SOL    HW217745   6.532   1.670   3.738
 5616SOL     OW17746   2.509   2.302   5.429
 5616SOL    HW117747   2.418   2.291   5.389
 5616SOL    HW217748   2.501   2.338   5.522
 5617SOL     OW17749   2.328   6.076   5.739
 5617SOL    HW117750   2.276   6.021   5.804
 5617SOL    HW217751   2.283   6.074   5.650
 5618SOL     OW17752   6.636   4.629   4.463
 5618SOL    HW117753   6.562   4.680   4.507
 5618SOL    HW217754   6.655   4.668   4.373
 5619SOL     OW17755   3.899   4.021   4.486
 5619SOL    HW117756   3.952   3.962   4.546
 5619SOL    HW217757   3.941   4.025   4.396
 5620SOL     OW17758   3.668   3.881   0.398
 5620SOL    HW117759   3.737   3.952   0.414
 5620SOL    HW217760   3.710   3.791   0.409
 5621SOL     OW17761   2.112   2.362   0.016
 5621SOL    HW117762   2.142   2.318   0.101
 5621SOL    HW217763   2.190   2.379   6.980
 5622SOL     OW17764   4.249   0.125   5.708
 5622SOL    HW117765   4.174   0.180   5.673
 5622SOL    HW217766   4.333   0.149   5.660
 5623SOL     OW17767   4.669   6.323   5.207
 5623SOL    HW117768   4.597   6.297   5.142
 5623SOL    HW217769   4.745   6.364   5.157
 5624SOL     OW17770   0.802   4.474   3.734
 5624SOL    HW117771   0.763   4.418   3.661
 5624SOL    HW217772   0.785   4.429   3.822
 5625SOL     OW17773   6.630   7.000   5.560
 5625SOL    HW117774   6.597   0.071   5.561
 5625SOL    HW217775   6.705   6.990   5.625
 5626SOL     OW17776   2.450   6.262   3.811
 5626SOL    HW117777   2.464   6.174   3.858
 5626SOL    HW217778   2.539   6.297   3.781
 5627SOL     OW17779   1.048   5.278   6.700
 5627SOL    HW117780   0.964   5.333   6.701
 5627SOL    HW217781   1.025   5.182   6.682
 5628SOL     OW17782   2.004   2.281   2.373
 5628SOL    HW117783   2.069   2.301   2.300
 5628SOL    HW217784   1.911   2.299   2.342
 5629SOL     OW17785   4.322   3.200   1.812
 5629SOL    HW117786   4.344   3.291   1.777
 5629SOL    HW217787   4.406   3.153   1.838
 5630SOL     OW17788   1.974   3.695   6.399
 5630SOL    HW117789   1.922   3.611   6.382
 5630SOL    HW217790   1.922   3.754   6.461
 5631SOL     OW17791   4.764   1.511   1.920
 5631SOL    HW117792   4.837   1.454   1.956
 5631SOL    HW217793   4.724   1.564   1.995
 5632SOL     OW17794   3.156   2.507   5.689
 5632SOL    HW117795   3.059   2.499   5.665
 5632SOL    HW217796   3.208   2.531   5.607
 5633SOL     OW17797   5.765   4.888   4.352
 5633SOL    HW117798   5.802   4.797   4.330
 5633SOL    HW217799   5.793   4.953   4.280
 5634SOL     OW17800   2.135   4.642   3.949
 5634SOL    HW117801   2.186   4.708   3.894
 5634SOL    HW217802   2.144   4.665   4.046
 5635SOL     OW17803   2.133   5.666   0.144
 5635SOL    HW117804   2.169   5.688   0.053
 5635SOL    HW217805   2.088   5.577   0.141
 5636SOL     OW17806   4.838   6.887   4.762
 5636SOL    HW117807   4.847   6.901   4.663
 5636SOL    HW217808   4.750   6.922   4.793
 5637SOL     OW17809   4.513   6.879   3.357
 5637SOL    HW117810   4.419   6.849   3.376
 5637SOL    HW217811   4.567   6.802   3.324
 5638SOL     OW17812   0.118   3.786   0.724
 5638SOL    HW117813   0.148   3.882   0.727
 5638SOL    HW217814   0.175   3.736   0.659
 5639SOL     OW17815   2.041   0.242   2.248
 5639SOL    HW117816   2.068   0.287   2.334
 5639SOL    HW217817   2.005   0.151   2.268
 5640SOL     OW17818   3.093   0.533   2.968
 5640SOL    HW117819   3.160   0.604   2.989
 5640SOL    HW217820   3.131   0.443   2.991
 5641SOL     OW17821   0.592   4.981   5.333
 5641SOL    HW117822   0.507   5.032   5.346
 5641SOL    HW217823   0.572   4.883   5.331
 5642SOL     OW17824   1.330   5.966   4.818
 5642SOL    HW117825   1.295   6.025   4.745
 5642SOL    HW217826   1.254   5.918   4.861
 5643SOL     OW17827   4.139   1.319   3.889
 5643SOL    HW117828   4.142   1.255   3.966
 5643SOL    HW217829   4.132   1.413   3.923
 5644SOL     OW17830   3.250   6.757   5.289
 5644SOL    HW117831   3.225   6.756   5.386
 5644SOL    HW217832   3.342   6.720   5.278
 5645SOL     OW17833   5.884   5.000   2.916
 5645SOL    HW117834   5.901   4.918   2.971
 5645SOL    HW217835   5.832   5.066   2.971
 5646SOL     OW17836   0.813   6.039   4.058
 5646SOL    HW117837   0.790   5.967   4.124
 5646SOL    HW217838   0.802   6.005   3.965
 5647SOL     OW17839   4.691   6.323   0.850
 5647SOL    HW117840   4.747   6.339   0.931
 5647SOL    HW217841   4.602   6.288   0.878
 5648SOL     OW17842   1.400   0.115   3.417
 5648SOL    HW117843   1.350   0.180   3.474
 5648SOL    HW217844   1.422   0.033   3.470
 5649SOL     OW17845   0.339   1.132   4.541
 5649SOL    HW117846   0.420   1.085   4.508
 5649SOL    HW217847   0.262   1.115   4.479
 5650SOL     OW17848   0.433   5.386   0.548
 5650SOL    HW117849   0.489   5.372   0.467
 5650SOL    HW217850   0.375   5.306   0.563
 5651SOL     OW17851   1.775   1.229   1.562
 5651SOL    HW117852   1.791   1.169   1.483
 5651SOL    HW217853   1.707   1.186   1.622
 5652SOL     OW17854   6.178   6.851   2.153
 5652SOL    HW117855   6.202   6.893   2.241
 5652SOL    HW217856   6.085   6.814   2.158
 5653SOL     OW17857   6.687   6.123   6.620
 5653SOL    HW117858   6.651   6.086   6.534
 5653SOL    HW217859   6.691   6.051   6.689
 5654SOL     OW17860   6.337   6.949   5.451
 5654SOL    HW117861   6.279   6.879   5.493
 5654SOL    HW217862   6.426   6.909   5.428
 5655SOL     OW17863   1.097   3.724   4.800
 5655SOL    HW117864   1.047   3.658   4.857
 5655SOL    HW217865   1.195   3.719   4.821
 5656SOL     OW17866   0.050   3.604   6.528
 5656SOL    HW117867   0.078   3.684   6.475
 5656SOL    HW217868   0.015   3.533   6.467
 5657SOL     OW17869   5.636   1.812   0.218
 5657SOL    HW117870   5.658   1.831   0.122
 5657SOL    HW217871   5.709   1.758   0.259
 5658SOL     OW17872   3.645   3.705   6.699
 5658SOL    HW117873   3.617   3.640   6.628
 5658SOL    HW217874   3.666   3.793   6.657
 5659SOL     OW17875   3.976   3.048   4.854
 5659SOL    HW117876   4.066   3.006   4.872
 5659SOL    HW217877   3.987   3.146   4.841
 5660SOL     OW17878   4.791   0.010   0.581
 5660SOL    HW117879   4.890   0.020   0.587
 5660SOL    HW217880   4.757   0.055   0.498
 5661SOL     OW17881   1.610   5.652   5.532
 5661SOL    HW117882   1.556   5.737   5.537
 5661SOL    HW217883   1.656   5.646   5.444
 5662SOL     OW17884   2.630   6.157   3.334
 5662SOL    HW117885   2.656   6.106   3.252
 5662SOL    HW217886   2.663   6.108   3.415
 5663SOL     OW17887   1.524   3.280   0.113
 5663SOL    HW117888   1.541   3.374   0.142
 5663SOL    HW217889   1.574   3.261   0.028
 5664SOL     OW17890   6.886   4.196   4.222
 5664SOL    HW117891   6.894   4.146   4.136
 5664SOL    HW217892   6.813   4.156   4.278
 5665SOL     OW17893   1.996   0.989   0.292
 5665SOL    HW117894   1.942   0.907   0.308
 5665SOL    HW217895   1.956   1.040   0.216
 5666SOL     OW17896   6.168   6.794   2.997
 5666SOL    HW117897   6.113   6.719   3.035
 5666SOL    HW217898   6.217   6.840   3.071
 5667SOL     OW17899   1.575   5.223   4.680
 5667SOL    HW117900   1.630   5.273   4.747
 5667SOL    HW217901   1.506   5.168   4.728
 5668SOL     OW17902   4.868   2.443   3.799
 5668SOL    HW117903   4.799   2.510   3.771
 5668SOL    HW217904   4.869   2.435   3.898
 5669SOL     OW17905   6.943   3.448   6.992
 5669SOL    HW117906   6.957   3.360   6.947
 5669SOL    HW217907   6.933   3.520   6.923
 5670SOL     OW17908   6.815   3.121   4.222
 5670SOL    HW117909   6.790   3.137   4.317
 5670SOL    HW217910   6.907   3.156   4.205
 5671SOL     OW17911   6.333   6.188   6.353
 5671SOL    HW117912   6.423   6.192   6.309
 5671SOL    HW217913   6.318   6.271   6.406
 5672SOL     OW17914   4.280   3.961   6.643
 5672SOL    HW117915   4.211   3.956   6.715
 5672SOL    HW217916   4.343   4.037   6.662
 5673SOL     OW17917   1.233   0.678   2.104
 5673SOL    HW117918   1.308   0.728   2.060
 5673SOL    HW217919   1.146   0.719   2.077
 5674SOL     OW17920   0.407   5.010   5.024
 5674SOL    HW117921   0.465   5.090   5.037
 5674SOL    HW217922   0.341   5.004   5.100
 5675SOL     OW17923   4.302   2.891   6.848
 5675SOL    HW117924   4.272   2.831   6.773
 5675SOL    HW217925   4.311   2.984   6.814
 5676SOL     OW17926   2.453   2.491   2.175
 5676SOL    HW117927   2.529   2.434   2.142
 5676SOL    HW217928   2.430   2.559   2.106
 5677SOL     OW17929   1.091   1.627   0.382
 5677SOL    HW117930   1.182   1.624   0.341
 5677SOL    HW217931   1.076   1.544   0.436
 5678SOL     OW17932   4.160   6.582   2.647
 5678SOL    HW117933   4.164   6.505   2.583
 5678SOL    HW217934   4.066   6.595   2.678
 5679SOL     OW17935   0.121   1.044   3.996
 5679SOL    HW117936   0.144   1.130   4.042
 5679SOL    HW217937   0.203   0.987   3.990
 5680SOL     OW17938   1.760   5.138   6.339
 5680SOL    HW117939   1.859   5.127   6.350
 5680SOL    HW217940   1.713   5.070   6.396
 5681SOL     OW17941   0.355   4.074   0.977
 5681SOL    HW117942   0.389   4.158   1.019
 5681SOL    HW217943   0.422   4.041   0.910
 5682SOL     OW17944   2.285   4.597   5.357
 5682SOL    HW117945   2.346   4.530   5.315
 5682SOL    HW217946   2.312   4.689   5.328
 5683SOL     OW17947   4.695   0.936   6.271
 5683SOL    HW117948   4.718   1.026   6.234
 5683SOL    HW217949   4.596   0.928   6.281
 5684SOL     OW17950   2.818   3.660   5.204
 5684SOL    HW117951   2.813   3.760   5.212
 5684SOL    HW217952   2.747   3.618   5.260
 5685SOL     OW17953   2.288   1.918   2.524
 5685SOL    HW117954   2.370   1.957   2.483
 5685SOL    HW217955   2.294   1.925   2.624
 5686SOL     OW17956   2.927   1.139   6.527
 5686SOL    HW117957   2.934   1.106   6.621
 5686SOL    HW217958   2.978   1.224   6.518
 5687SOL     OW17959   0.728   5.074   0.175
 5687SOL    HW117960   0.757   5.136   0.247
 5687SOL    HW217961   0.761   5.108   0.086
 5688SOL     OW17962   0.250   2.357   1.568
 5688SOL    HW117963   0.162   2.365   1.520
 5688SOL    HW217964   0.318   2.414   1.521
 5689SOL     OW17965   3.438   1.169   0.761
 5689SOL    HW117966   3.524   1.156   0.809
 5689SOL    HW217967   3.452   1.155   0.663
 5690SOL     OW17968   2.552   5.608   0.169
 5690SOL    HW117969   2.650   5.615   0.147
 5690SOL    HW217970   2.515   5.523   0.132
 5691SOL     OW17971   3.246   0.445   2.257
 5691SOL    HW117972   3.171   0.382   2.272
 5691SOL    HW217973   3.232   0.527   2.313
 5692SOL     OW17974   5.690   3.556   1.089
 5692SOL    HW117975   5.786   3.535   1.106
 5692SOL    HW217976   5.649   3.482   1.035
 5693SOL     OW17977   5.368   2.305   2.733
 5693SOL    HW117978   5.277   2.277   2.764
 5693SOL    HW217979   5.424   2.328   2.813
 5694SOL     OW17980   0.550   1.621   3.405
 5694SOL    HW117981   0.612   1.680   3.355
 5694SOL    HW217982   0.586   1.528   3.407
 5695SOL     OW17983   1.661   1.885   3.188
 5695SOL    HW117984   1.736   1.952   3.185
 5695SOL    HW217985   1.619   1.878   3.098
 5696SOL     OW17986   0.876   1.230   3.170
 5696SOL    HW117987   0.924   1.301   3.220
 5696SOL    HW217988   0.805   1.189   3.229
 5697SOL     OW17989   5.457   2.343   0.959
 5697SOL    HW117990   5.486   2.363   1.052
 5697SOL    HW217991   5.525   2.379   0.895
 5698SOL     OW17992   1.278   4.628   3.908
 5698SOL    HW117993   1.277   4.628   4.008
 5698SOL    HW217994   1.187   4.611   3.873
 5699SOL     OW17995   0.498   3.012   3.417
 5699SOL    HW117996   0.491   2.915   3.392
 5699SOL    HW217997   0.410   3.042   3.454
 5700SOL     OW17998   6.792   6.813   3.311
 5700SOL    HW117999   6.770   6.896   3.260
 5700SOL    HW218000   6.839   6.837   3.396
 5701SOL     OW18001   1.631   0.805   1.902
 5701SOL    HW118002   1.544   0.833   1.944
 5701SOL    HW218003   1.704   0.810   1.970
 5702SOL     OW18004   2.677   5.588   4.399
 5702SOL    HW118005   2.585   5.586   4.437
 5702SOL    HW218006   2.704   5.496   4.371
 5703SOL     OW18007   6.571   4.607   2.044
 5703SOL    HW118008   6.532   4.535   2.102
 5703SOL    HW218009   6.648   4.570   1.992
 5704SOL     OW18010   4.745   4.365   2.937
 5704SOL    HW118011   4.793   4.418   2.868
 5704SOL    HW218012   4.743   4.269   2.909
 5705SOL     OW18013   4.996   7.009   0.150
 5705SOL    HW118014   4.899   7.021   0.169
 5705SOL    HW218015   5.010   6.924   0.099
 5706SOL     OW18016   6.963   3.954   1.147
 5706SOL    HW118017   6.885   3.941   1.085
 5706SOL    HW218018   7.007   4.042   1.128
 5707SOL     OW18019   0.289   6.487   0.286
 5707SOL    HW118020   0.322   6.576   0.255
 5707SOL    HW218021   0.355   6.449   0.352
 5708SOL     OW18022   5.225   5.735   2.047
 5708SOL    HW118023   5.168   5.705   2.123
 5708SOL    HW218024   5.170   5.788   1.982
 5709SOL     OW18025   1.011   0.907   2.480
 5709SOL    HW118026   1.083   0.839   2.468
 5709SOL    HW218027   1.018   0.976   2.408
 5710SOL     OW18028   2.372   2.784   0.705
 5710SOL    HW118029   2.295   2.727   0.676
 5710SOL    HW218030   2.339   2.856   0.766
 5711SOL     OW18031   5.600   0.852   2.393
 5711SOL    HW118032   5.531   0.923   2.399
 5711SOL    HW218033   5.603   0.815   2.300
 5712SOL     OW18034   6.367   0.921   6.278
 5712SOL    HW118035   6.344   0.981   6.201
 5712SOL    HW218036   6.463   0.934   6.303
 5713SOL     OW18037   3.707   2.812   1.930
 5713SOL    HW118038   3.636   2.801   2.000
 5713SOL    HW218039   3.684   2.754   1.851
 5714SOL     OW18040   0.530   5.652   0.295
 5714SOL    HW118041   0.581   5.667   0.379
 5714SOL    HW218042   0.473   5.732   0.275
 5715SOL     OW18043   0.942   0.878   2.751
 5715SOL    HW118044   0.995   0.802   2.790
 5715SOL    HW218045   0.980   0.903   2.662
 5716SOL     OW18046   1.773   4.201   6.598
 5716SOL    HW118047   1.784   4.300   6.593
 5716SOL    HW218048   1.747   4.166   6.507
 5717SOL     OW18049   1.710   4.876   1.247
 5717SOL    HW118050   1.683   4.960   1.201
 5717SOL    HW218051   1.656   4.799   1.212
 5718SOL     OW18052   0.224   3.388   5.290
 5718SOL    HW118053   0.264   3.438   5.367
 5718SOL    HW218054   0.199   3.452   5.218
 5719SOL     OW18055   2.613   2.031   6.328
 5719SOL    HW118056   2.633   2.014   6.425
 5719SOL    HW218057   2.658   2.115   6.299
 5720SOL     OW18058   1.825   5.994   4.957
 5720SOL    HW118059   1.850   5.947   5.042
 5720SOL    HW218060   1.743   5.953   4.918
 5721SOL     OW18061   6.660   3.328   1.271
 5721SOL    HW118062   6.747   3.375   1.261
 5721SOL    HW218063   6.607   3.369   1.345
 5722SOL     OW18064   0.069   1.515   5.051
 5722SOL    HW118065   6.999   1.485   5.073
 5722SOL    HW218066   0.133   1.473   5.114
 5723SOL     OW18067   4.838   2.678   0.686
 5723SOL    HW118068   4.853   2.670   0.588
 5723SOL    HW218069   4.769   2.749   0.704
 5724SOL     OW18070   5.598   2.898   4.789
 5724SOL    HW118071   5.654   2.874   4.711
 5724SOL    HW218072   5.508   2.929   4.757
 5725SOL     OW18073   5.055   5.731   4.598
 5725SOL    HW118074   5.122   5.659   4.619
 5725SOL    HW218075   5.012   5.762   4.683
 5726SOL     OW18076   0.031   5.207   4.504
 5726SOL    HW118077   0.042   5.154   4.588
 5726SOL    HW218078   0.092   5.171   4.433
 5727SOL     OW18079   6.973   1.577   4.248
 5727SOL    HW118080   7.006   1.663   4.287
 5727SOL    HW218081   6.883   1.557   4.285
 5728SOL     OW18082   3.998   0.453   6.057
 5728SOL    HW118083   4.093   0.426   6.074
 5728SOL    HW218084   3.969   0.520   6.125
 5729SOL     OW18085   1.374   0.773   0.830
 5729SOL    HW118086   1.409   0.853   0.782
 5729SOL    HW218087   1.450   0.710   0.849
 5730SOL     OW18088   5.370   5.043   6.659
 5730SOL    HW118089   5.381   5.111   6.587
 5730SOL    HW218090   5.310   4.969   6.627
 5731SOL     OW18091   0.267   6.451   3.725
 5731SOL    HW118092   0.226   6.528   3.676
 5731SOL    HW218093   0.234   6.366   3.685
 5732SOL     OW18094   6.674   5.612   4.936
 5732SOL    HW118095   6.751   5.612   4.873
 5732SOL    HW218096   6.613   5.689   4.915
 5733SOL     OW18097   4.083   6.595   5.547
 5733SOL    HW118098   4.178   6.625   5.561
 5733SOL    HW218099   4.025   6.675   5.532
 5734SOL     OW18100   1.277   6.692   5.649
 5734SOL    HW118101   1.229   6.773   5.682
 5734SOL    HW218102   1.213   6.615   5.646
 5735SOL     OW18103   4.268   2.064   1.857
 5735SOL    HW118104   4.308   2.150   1.828
 5735SOL    HW218105   4.269   2.059   1.957
 5736SOL     OW18106   6.228   4.087   0.188
 5736SOL    HW118107   6.284   4.025   0.243
 5736SOL    HW218108   6.276   4.110   0.103
 5737SOL     OW18109   5.866   6.733   1.268
 5737SOL    HW118110   5.854   6.686   1.356
 5737SOL    HW218111   5.856   6.831   1.281
 5738SOL     OW18112   2.477   2.380   5.705
 5738SOL    HW118113   2.421   2.309   5.748
 5738SOL    HW218114   2.570   2.376   5.741
 5739SOL     OW18115   1.562   0.595   6.205
 5739SOL    HW118116   1.539   0.649   6.286
 5739SOL    HW218117   1.505   0.512   6.204
 5740SOL     OW18118   4.181   3.793   1.334
 5740SOL    HW118119   4.248   3.726   1.302
 5740SOL    HW218120   4.108   3.803   1.266
 5741SOL     OW18121   0.797   4.429   4.429
 5741SOL    HW118122   0.775   4.337   4.461
 5741SOL    HW218123   0.857   4.424   4.349
 5742SOL     OW18124   5.271   6.932   2.024
 5742SOL    HW118125   5.220   7.006   2.070
 5742SOL    HW218126   5.212   6.852   2.014
 5743SOL     OW18127   2.310   5.070   5.119
 5743SOL    HW118128   2.343   5.161   5.141
 5743SOL    HW218129   2.286   5.066   5.022
 5744SOL     OW18130   4.903   1.030   2.164
 5744SOL    HW118131   4.820   1.084   2.152
 5744SOL    HW218132   4.908   0.960   2.094
 5745SOL     OW18133   2.199   1.077   3.887
 5745SOL    HW118134   2.109   1.101   3.851
 5745SOL    HW218135   2.225   0.986   3.852
 5746SOL     OW18136   6.181   6.843   1.485
 5746SOL    HW118137   6.187   6.853   1.584
 5746SOL    HW218138   6.106   6.899   1.450
 5747SOL     OW18139   6.842   4.491   2.967
 5747SOL    HW118140   6.927   4.474   3.016
 5747SOL    HW218141   6.765   4.463   3.024
 5748SOL     OW18142   1.809   5.920   0.994
 5748SOL    HW118143   1.711   5.938   0.993
 5748SOL    HW218144   1.828   5.842   1.054
 5749SOL     OW18145   1.567   0.308   4.681
 5749SOL    HW118146   1.566   0.391   4.737
 5749SOL    HW218147   1.645   0.312   4.618
 5750SOL     OW18148   5.022   6.459   4.461
 5750SOL    HW118149   5.091   6.462   4.389
 5750SOL    HW218150   4.936   6.497   4.428
 5751SOL     OW18151   2.404   2.683   4.772
 5751SOL    HW118152   2.377   2.749   4.701
 5751SOL    HW218153   2.432   2.733   4.854
 5752SOL     OW18154   6.379   0.797   0.013
 5752SOL    HW118155   6.433   0.880   7.023
 5752SOL    HW218156   6.352   0.760   6.948
 5753SOL     OW18157   4.030   3.943   5.566
 5753SOL    HW118158   4.100   3.873   5.575
 5753SOL    HW218159   3.962   3.933   5.638
 5754SOL     OW18160   6.171   4.440   1.639
 5754SOL    HW118161   6.094   4.389   1.601
 5754SOL    HW218162   6.252   4.424   1.583
 5755SOL     OW18163   2.186   3.142   6.322
 5755SOL    HW118164   2.264   3.173   6.376
 5755SOL    HW218165   2.207   3.152   6.225
 5756SOL     OW18166   5.890   6.343   3.830
 5756SOL    HW118167   5.940   6.345   3.916
 5756SOL    HW218168   5.954   6.345   3.753
 5757SOL     OW18169   6.691   6.796   2.636
 5757SOL    HW118170   6.609   6.740   2.624
 5757SOL    HW218171   6.764   6.740   2.675
 5758SOL     OW18172   2.583   1.111   4.465
 5758SOL    HW118173   2.605   1.099   4.562
 5758SOL    HW218174   2.629   1.041   4.411
 5759SOL     OW18175   5.061   1.215   6.584
 5759SOL    HW118176   5.028   1.222   6.490
 5759SOL    HW218177   5.145   1.161   6.587
 5760SOL     OW18178   0.920   4.897   0.936
 5760SOL    HW118179   0.988   4.829   0.966
 5760SOL    HW218180   0.968   4.980   0.908
 5761SOL     OW18181   5.684   6.977   6.287
 5761SOL    HW118182   5.611   6.910   6.297
 5761SOL    HW218183   5.763   6.934   6.243
 5762SOL     OW18184   4.623   6.085   0.438
 5762SOL    HW118185   4.670   6.098   0.526
 5762SOL    HW218186   4.562   6.007   0.444
 5763SOL     OW18187   6.979   0.868   6.904
 5763SOL    HW118188   6.994   0.966   6.912
 5763SOL    HW218189   6.887   0.845   6.938
 5764SOL     OW18190   4.524   4.416   6.357
 5764SOL    HW118191   4.607   4.397   6.410
 5764SOL    HW218192   4.546   4.479   6.282
 5765SOL     OW18193   6.991   4.226   6.761
 5765SOL    HW118194   0.017   4.204   6.844
 5765SOL    HW218195   6.898   4.190   6.767
 5766SOL     OW18196   2.519   2.573   0.340
 5766SOL    HW118197   2.451   2.522   0.394
 5766SOL    HW218198   2.570   2.508   0.283
 5767SOL     OW18199   2.318   6.656   0.411
 5767SOL    HW118200   2.264   6.662   0.495
 5767SOL    HW218201   2.301   6.568   0.367
 5768SOL     OW18202   0.755   0.361   3.055
 5768SOL    HW118203   0.669   0.413   3.046
 5768SOL    HW218204   0.760   0.292   2.982
 5769SOL     OW18205   2.085   6.365   4.320
 5769SOL    HW118206   2.000   6.349   4.371
 5769SOL    HW218207   2.067   6.428   4.245
 5770SOL     OW18208   6.013   0.303   6.324
 5770SOL    HW118209   6.076   0.349   6.262
 5770SOL    HW218210   5.986   0.365   6.397
 5771SOL     OW18211   1.239   6.329   2.781
 5771SOL    HW118212   1.305   6.261   2.813
 5771SOL    HW218213   1.287   6.400   2.729
 5772SOL     OW18214   6.580   2.653   0.475
 5772SOL    HW118215   6.565   2.560   0.440
 5772SOL    HW218216   6.495   2.687   0.514
 5773SOL     OW18217   4.785   1.067   4.274
 5773SOL    HW118218   4.779   0.984   4.329
 5773SOL    HW218219   4.878   1.077   4.239
 5774SOL     OW18220   2.699   5.193   3.806
 5774SOL    HW118221   2.627   5.173   3.872
 5774SOL    HW218222   2.680   5.281   3.762
 5775SOL     OW18223   1.563   0.414   1.932
 5775SOL    HW118224   1.469   0.448   1.924
 5775SOL    HW218225   1.577   0.339   1.868
 5776SOL     OW18226   6.662   1.202   6.197
 5776SOL    HW118227   6.754   1.167   6.217
 5776SOL    HW218228   6.612   1.214   6.283
 5777SOL     OW18229   6.257   0.831   4.388
 5777SOL    HW118230   6.226   0.802   4.298
 5777SOL    HW218231   6.295   0.753   4.437
 5778SOL     OW18232   1.957   0.232   1.616
 5778SOL    HW118233   1.948   0.149   1.672
 5778SOL    HW218234   1.888   0.229   1.543
 5779SOL     OW18235   4.090   1.250   0.547
 5779SOL    HW118236   4.039   1.268   0.631
 5779SOL    HW218237   4.109   1.153   0.540
 5780SOL     OW18238   5.922   5.677   3.064
 5780SOL    HW118239   5.981   5.609   3.107
 5780SOL    HW218240   5.891   5.742   3.133
 5781SOL     OW18241   1.134   3.946   4.577
 5781SOL    HW118242   1.123   3.870   4.641
 5781SOL    HW218243   1.153   4.030   4.628
 5782SOL     OW18244   1.824   0.970   1.077
 5782SOL    HW118245   1.832   1.017   1.165
 5782SOL    HW218246   1.881   1.016   1.009
 5783SOL     OW18247   2.016   1.228   0.958
 5783SOL    HW118248   1.979   1.272   1.040
 5783SOL    HW218249   2.091   1.167   0.985
 5784SOL     OW18250   0.279   6.576   6.933
 5784SOL    HW118251   0.320   6.498   6.980
 5784SOL    HW218252   0.351   6.635   6.896
 5785SOL     OW18253   2.073   1.805   1.689
 5785SOL    HW118254   2.131   1.761   1.758
 5785SOL    HW218255   1.976   1.793   1.713
 5786SOL     OW18256   0.637   3.862   0.566
 5786SOL    HW118257   0.705   3.876   0.494
 5786SOL    HW218258   0.665   3.784   0.623
 5787SOL     OW18259   4.487   2.522   4.718
 5787SOL    HW118260   4.457   2.520   4.623
 5787SOL    HW218261   4.587   2.514   4.721
 5788SOL     OW18262   3.198   0.738   1.760
 5788SOL    HW118263   3.159   0.831   1.757
 5788SOL    HW218264   3.223   0.710   1.668
 5789SOL     OW18265   3.375   3.167   5.968
 5789SOL    HW118266   3.461   3.197   5.925
 5789SOL    HW218267   3.390   3.079   6.013
 5790SOL     OW18268   0.333   5.006   4.754
 5790SOL    HW118269   0.368   5.003   4.847
 5790SOL    HW218270   0.239   5.041   4.755
 5791SOL     OW18271   2.836   2.286   2.327
 5791SOL    HW118272   2.874   2.311   2.237
 5791SOL    HW218273   2.784   2.364   2.363
 5792SOL     OW18274   5.524   3.960   2.182
 5792SOL    HW118275   5.429   3.975   2.210
 5792SOL    HW218276   5.537   3.862   2.164
 5793SOL     OW18277   5.683   0.580   4.669
 5793SOL    HW118278   5.651   0.673   4.686
 5793SOL    HW218279   5.693   0.532   4.756
 5794SOL     OW18280   3.195   6.722   6.878
 5794SOL    HW118281   3.182   6.722   6.779
 5794SOL    HW218282   3.217   6.814   6.909
 5795SOL     OW18283   6.978   6.985   0.851
 5795SOL    HW118284   6.907   6.928   0.810
 5795SOL    HW218285   6.979   0.051   0.807
 5796SOL     OW18286   4.283   0.770   6.704
 5796SOL    HW118287   4.348   0.708   6.661
 5796SOL    HW218288   4.266   0.847   6.642
 5797SOL     OW18289   5.251   1.416   0.426
 5797SOL    HW118290   5.201   1.345   0.375
 5797SOL    HW218291   5.188   1.489   0.453
 5798SOL     OW18292   6.987   4.145   4.661
 5798SOL    HW118293   0.055   4.114   4.635
 5798SOL    HW218294   6.989   4.243   4.679
 5799SOL     OW18295   0.202   0.240   3.822
 5799SOL    HW118296   0.174   0.265   3.729
 5799SOL    HW218297   0.159   0.302   3.888
 5800SOL     OW18298   0.971   6.896   1.660
 5800SOL    HW118299   0.923   6.946   1.732
 5800SOL    HW218300   1.043   6.840   1.700
 5801SOL     OW18301   1.943   2.388   3.568
 5801SOL    HW118302   1.972   2.459   3.505
 5801SOL    HW218303   1.866   2.421   3.624
 5802SOL     OW18304   6.314   3.351   2.597
 5802SOL    HW118305   6.273   3.441   2.614
 5802SOL    HW218306   6.263   3.282   2.648
 5803SOL     OW18307   1.339   4.990   3.732
 5803SOL    HW118308   1.410   5.040   3.682
 5803SOL    HW218309   1.374   4.964   3.822
 5804SOL     OW18310   6.931   5.911   3.294
 5804SOL    HW118311   7.005   5.877   3.236
 5804SOL    HW218312   6.946   6.008   3.313
 5805SOL     OW18313   1.618   2.580   0.636
 5805SOL    HW118314   1.686   2.653   0.648
 5805SOL    HW218315   1.604   2.563   0.539
 5806SOL     OW18316   0.166   4.971   5.218
 5806SOL    HW118317   0.160   4.873   5.198
 5806SOL    HW218318   0.074   5.011   5.212
 5807SOL     OW18319   1.226   5.596   1.252
 5807SOL    HW118320   1.167   5.547   1.189
 5807SOL    HW218321   1.192   5.689   1.265
 5808SOL     OW18322   6.720   6.769   4.765
 5808SOL    HW118323   6.793   6.773   4.697
 5808SOL    HW218324   6.724   6.849   4.824
 5809SOL     OW18325   6.479   1.984   5.342
 5809SOL    HW118326   6.445   1.891   5.353
 5809SOL    HW218327   6.527   2.012   5.426
 5810SOL     OW18328   4.547   1.155   5.885
 5810SOL    HW118329   4.630   1.107   5.913
 5810SOL    HW218330   4.546   1.164   5.785
 5811SOL     OW18331   3.211   1.577   5.244
 5811SOL    HW118332   3.115   1.588   5.219
 5811SOL    HW218333   3.269   1.617   5.173
 5812SOL     OW18334   4.885   3.252   5.820
 5812SOL    HW118335   4.808   3.220   5.765
 5812SOL    HW218336   4.958   3.183   5.817
 5813SOL     OW18337   2.814   0.406   0.872
 5813SOL    HW118338   2.725   0.394   0.829
 5813SOL    HW218339   2.880   0.344   0.830
 5814SOL     OW18340   0.212   2.844   2.078
 5814SOL    HW118341   0.274   2.790   2.021
 5814SOL    HW218342   0.251   2.934   2.095
 5815SOL     OW18343   4.706   1.770   4.272
 5815SOL    HW118344   4.666   1.773   4.180
 5815SOL    HW218345   4.698   1.678   4.309
 5816SOL     OW18346   6.137   4.857   0.803
 5816SOL    HW118347   6.097   4.809   0.726
 5816SOL    HW218348   6.138   4.797   0.883
 5817SOL     OW18349   6.127   5.156   5.663
 5817SOL    HW118350   6.046   5.191   5.710
 5817SOL    HW218351   6.141   5.060   5.688
 5818SOL     OW18352   7.007   5.635   5.320
 5818SOL    HW118353   0.038   5.572   5.375
 5818SOL    HW218354   6.988   5.594   5.231
 5819SOL     OW18355   3.134   5.303   6.740
 5819SOL    HW118356   3.200   5.376   6.724
 5819SOL    HW218357   3.082   5.286   6.657
 5820SOL     OW18358   4.489   4.431   2.610
 5820SOL    HW118359   4.467   4.466   2.519
 5820SOL    HW218360   4.576   4.383   2.608
 5821SOL     OW18361   6.749   0.447   1.052
 5821SOL    HW118362   6.713   0.379   0.988
 5821SOL    HW218363   6.699   0.441   1.138
 5822SOL     OW18364   1.870   2.497   1.613
 5822SOL    HW118365   1.801   2.428   1.636
 5822SOL    HW218366   1.953   2.451   1.580
 5823SOL     OW18367   2.781   6.877   4.963
 5823SOL    HW118368   2.740   6.931   4.889
 5823SOL    HW218369   2.708   6.838   5.020
 5824SOL     OW18370   0.585   6.188   3.528
 5824SOL    HW118371   0.530   6.120   3.576
 5824SOL    HW218372   0.568   6.278   3.568
 5825SOL     OW18373   0.359   5.916   5.087
 5825SOL    HW118374   0.416   5.997   5.082
 5825SOL    HW218375   0.305   5.919   5.171
 5826SOL     OW18376   0.688   6.170   6.099
 5826SOL    HW118377   0.752   6.247   6.110
 5826SOL    HW218378   0.734   6.096   6.051
 5827SOL     OW18379   1.184   3.256   4.800
 5827SOL    HW118380   1.228   3.198   4.732
 5827SOL    HW218381   1.247   3.330   4.826
 5828SOL     OW18382   4.875   1.179   3.141
 5828SOL    HW118383   4.915   1.270   3.136
 5828SOL    HW218384   4.931   1.115   3.089
 5829SOL     OW18385   1.173   0.759   4.800
 5829SOL    HW118386   1.209   0.680   4.849
 5829SOL    HW218387   1.216   0.843   4.835
 5830SOL     OW18388   4.628   0.392   5.358
 5830SOL    HW118389   4.708   0.337   5.382
 5830SOL    HW218390   4.555   0.332   5.326
 5831SOL     OW18391   1.584   1.253   5.777
 5831SOL    HW118392   1.484   1.250   5.767
 5831SOL    HW218393   1.611   1.337   5.824
 5832SOL     OW18394   3.703   4.345   0.343
 5832SOL    HW118395   3.680   4.255   0.380
 5832SOL    HW218396   3.802   4.356   0.340
 5833SOL     OW18397   4.220   3.493   5.270
 5833SOL    HW118398   4.311   3.519   5.303
 5833SOL    HW218399   4.191   3.409   5.316
 5834SOL     OW18400   6.644   3.964   6.489
 5834SOL    HW118401   6.553   3.927   6.474
 5834SOL    HW218402   6.646   4.013   6.576
 5835SOL     OW18403   6.071   1.936   2.698
 5835SOL    HW118404   6.158   1.890   2.715
 5835SOL    HW218405   6.023   1.890   2.623
 5836SOL     OW18406   3.059   6.723   2.137
 5836SOL    HW118407   3.062   6.813   2.180
 5836SOL    HW218408   3.013   6.658   2.197
 5837SOL     OW18409   3.701   3.507   6.889
 5837SOL    HW118410   3.693   3.563   6.806
 5837SOL    HW218411   3.651   3.551   6.963
 5838SOL     OW18412   3.302   1.938   1.692
 5838SOL    HW118413   3.330   2.027   1.730
 5838SOL    HW218414   3.300   1.870   1.765
 5839SOL     OW18415   0.738   1.739   0.543
 5839SOL    HW118416   0.740   1.826   0.593
 5839SOL    HW218417   0.738   1.758   0.444
 5840SOL     OW18418   0.748   3.653   0.667
 5840SOL    HW118419   0.824   3.658   0.732
 5840SOL    HW218420   0.778   3.603   0.586
 5841SOL     OW18421   5.303   0.840   1.572
 5841SOL    HW118422   5.341   0.867   1.660
 5841SOL    HW218423   5.255   0.752   1.581
 5842SOL     OW18424   4.733   2.376   1.987
 5842SOL    HW118425   4.763   2.287   1.952
 5842SOL    HW218426   4.639   2.393   1.959
 5843SOL     OW18427   1.089   4.225   1.878
 5843SOL    HW118428   1.003   4.274   1.893
 5843SOL    HW218429   1.072   4.148   1.815
 5844SOL     OW18430   1.471   5.901   5.467
 5844SOL    HW118431   1.432   5.971   5.527
 5844SOL    HW218432   1.532   5.945   5.401
 5845SOL     OW18433   1.053   0.480   2.111
 5845SOL    HW118434   0.992   0.494   2.190
 5845SOL    HW218435   1.111   0.560   2.100
 5846SOL     OW18436   5.575   3.446   5.343
 5846SOL    HW118437   5.487   3.492   5.360
 5846SOL    HW218438   5.581   3.365   5.400
 5847SOL     OW18439   2.827   2.510   1.683
 5847SOL    HW118440   2.868   2.457   1.609
 5847SOL    HW218441   2.873   2.487   1.769
 5848SOL     OW18442   1.590   5.685   3.452
 5848SOL    HW118443   1.667   5.631   3.487
 5848SOL    HW218444   1.504   5.640   3.474
 5849SOL     OW18445   1.862   6.982   4.940
 5849SOL    HW118446   1.783   6.969   5.000
 5849SOL    HW218447   1.910   0.042   4.967
 5850SOL     OW18448   0.072   3.132   1.928
 5850SOL    HW118449   7.002   3.133   1.892
 5850SOL    HW218450   0.070   3.120   2.027
 5851SOL     OW18451   5.226   3.834   4.140
 5851SOL    HW118452   5.203   3.800   4.048
 5851SOL    HW218453   5.166   3.791   4.207
 5852SOL     OW18454   4.660   6.008   2.749
 5852SOL    HW118455   4.713   6.091   2.768
 5852SOL    HW218456   4.578   6.008   2.805
 5853SOL     OW18457   4.385   5.082   5.850
 5853SOL    HW118458   4.316   5.058   5.782
 5853SOL    HW218459   4.450   5.006   5.860
 5854SOL     OW18460   4.351   4.502   5.656
 5854SOL    HW118461   4.378   4.406   5.661
 5854SOL    HW218462   4.429   4.560   5.684
 5855SOL     OW18463   1.401   1.385   4.835
 5855SOL    HW118464   1.399   1.484   4.847
 5855SOL    HW218465   1.409   1.363   4.738
 5856SOL     OW18466   1.119   6.453   3.241
 5856SOL    HW118467   1.206   6.423   3.202
 5856SOL    HW218468   1.137   6.511   3.321
 5857SOL     OW18469   6.717   3.735   4.895
 5857SOL    HW118470   6.744   3.727   4.991
 5857SOL    HW218471   6.775   3.802   4.849
 5858SOL     OW18472   2.272   2.435   3.014
 5858SOL    HW118473   2.337   2.507   3.038
 5858SOL    HW218474   2.309   2.346   3.041
 5859SOL     OW18475   6.454   6.295   1.326
 5859SOL    HW118476   6.501   6.315   1.411
 5859SOL    HW218477   6.511   6.236   1.269
 5860SOL     OW18478   0.161   4.995   3.042
 5860SOL    HW118479   0.239   4.933   3.048
 5860SOL    HW218480   0.079   4.948   3.073
 5861SOL     OW18481   5.360   0.880   4.128
 5861SOL    HW118482   5.413   0.956   4.090
 5861SOL    HW218483   5.272   0.873   4.080
 5862SOL     OW18484   5.990   5.201   1.682
 5862SOL    HW118485   6.000   5.117   1.628
 5862SOL    HW218486   5.948   5.178   1.770
 5863SOL     OW18487   2.793   2.148   4.604
 5863SOL    HW118488   2.884   2.144   4.562
 5863SOL    HW218489   2.801   2.183   4.697
 5864SOL     OW18490   3.030   3.447   2.415
 5864SOL    HW118491   3.128   3.434   2.429
 5864SOL    HW218492   2.990   3.360   2.384
 5865SOL     OW18493   5.744   0.570   5.046
 5865SOL    HW118494   5.688   0.651   5.061
 5865SOL    HW218495   5.705   0.493   5.096
 5866SOL     OW18496   3.431   3.013   1.406
 5866SOL    HW118497   3.375   2.998   1.487
 5866SOL    HW218498   3.428   2.932   1.348
 5867SOL     OW18499   2.130   3.240   1.400
 5867SOL    HW118500   2.197   3.224   1.473
 5867SOL    HW218501   2.073   3.158   1.389
 5868SOL     OW18502   1.685   1.415   5.986
 5868SOL    HW118503   1.682   1.514   6.003
 5868SOL    HW218504   1.611   1.370   6.036
 5869SOL     OW18505   1.867   4.799   2.697
 5869SOL    HW118506   1.778   4.788   2.652
 5869SOL    HW218507   1.886   4.897   2.707
 5870SOL     OW18508   4.892   6.460   5.083
 5870SOL    HW118509   4.976   6.408   5.099
 5870SOL    HW218510   4.905   6.555   5.111
 5871SOL     OW18511   3.834   3.048   1.858
 5871SOL    HW118512   3.780   2.965   1.871
 5871SOL    HW218513   3.925   3.036   1.898
 5872SOL     OW18514   4.008   6.700   1.154
 5872SOL    HW118515   4.085   6.755   1.123
 5872SOL    HW218516   3.930   6.760   1.174
 5873SOL     OW18517   3.359   6.172   2.288
 5873SOL    HW118518   3.375   6.083   2.330
 5873SOL    HW218519   3.411   6.180   2.203
 5874SOL     OW18520   2.356   4.318   4.645
 5874SOL    HW118521   2.351   4.322   4.745
 5874SOL    HW218522   2.421   4.386   4.612
 5875SOL     OW18523   3.881   1.686   0.310
 5875SOL    HW118524   3.951   1.751   0.340
 5875SOL    HW218525   3.800   1.735   0.280
 5876SOL     OW18526   3.983   3.426   1.685
 5876SOL    HW118527   4.018   3.493   1.619
 5876SOL    HW218528   4.060   3.383   1.732
 5877SOL     OW18529   6.444   6.491   0.988
 5877SOL    HW118530   6.525   6.520   0.937
 5877SOL    HW218531   6.369   6.473   0.924
 5878SOL     OW18532   0.037   5.741   4.515
 5878SOL    HW118533   7.021   5.654   4.486
 5878SOL    HW218534   0.014   5.812   4.448
 5879SOL     OW18535   1.358   3.978   7.018
 5879SOL    HW118536   1.386   4.069   6.987
 5879SOL    HW218537   1.259   3.975   0.006
 5880SOL     OW18538   4.256   3.993   0.322
 5880SOL    HW118539   4.216   4.048   0.394
 5880SOL    HW218540   4.292   3.908   0.361
 5881SOL     OW18541   0.335   5.836   2.991
 5881SOL    HW118542   0.276   5.911   3.021
 5881SOL    HW218543   0.297   5.749   3.022
 5882SOL     OW18544   0.123   6.370   0.828
 5882SOL    HW118545   0.151   6.466   0.826
 5882SOL    HW218546   0.059   6.352   0.754
 5883SOL     OW18547   0.919   1.517   6.297
 5883SOL    HW118548   1.017   1.529   6.313
 5883SOL    HW218549   0.868   1.563   6.370
 5884SOL     OW18550   3.019   1.552   4.551
 5884SOL    HW118551   3.110   1.584   4.523
 5884SOL    HW218552   2.952   1.625   4.537
 5885SOL     OW18553   0.537   0.550   2.682
 5885SOL    HW118554   0.539   0.561   2.781
 5885SOL    HW218555   0.486   0.626   2.641
 5886SOL     OW18556   0.191   2.499   4.524
 5886SOL    HW118557   0.186   2.444   4.608
 5886SOL    HW218558   0.232   2.444   4.451
 5887SOL     OW18559   2.807   1.592   3.677
 5887SOL    HW118560   2.711   1.566   3.679
 5887SOL    HW218561   2.839   1.596   3.583
 5888SOL     OW18562   2.994   1.016   2.024
 5888SOL    HW118563   3.051   1.081   1.974
 5888SOL    HW218564   3.034   0.924   2.017
 5889SOL     OW18565   1.459   6.814   1.529
 5889SOL    HW118566   1.408   6.900   1.524
 5889SOL    HW218567   1.551   6.832   1.564
 5890SOL     OW18568   2.083   0.745   4.468
 5890SOL    HW118569   1.990   0.737   4.434
 5890SOL    HW218570   2.147   0.718   4.396
 5891SOL     OW18571   3.096   3.258   5.930
 5891SOL    HW118572   3.050   3.183   5.883
 5891SOL    HW218573   3.195   3.243   5.930
 5892SOL     OW18574   0.205   5.465   1.421
 5892SOL    HW118575   0.258   5.547   1.439
 5892SOL    HW218576   0.266   5.389   1.400
 5893SOL     OW18577   1.675   4.221   4.533
 5893SOL    HW118578   1.655   4.310   4.575
 5893SOL    HW218579   1.636   4.217   4.441
 5894SOL     OW18580   6.640   5.284   4.604
 5894SOL    HW118581   6.680   5.376   4.603
 5894SOL    HW218582   6.617   5.257   4.510
 5895SOL     OW18583   5.192   3.408   4.227
 5895SOL    HW118584   5.260   3.383   4.158
 5895SOL    HW218585   5.102   3.416   4.184
 5896SOL     OW18586   4.391   0.981   0.090
 5896SOL    HW118587   4.386   0.917   0.014
 5896SOL    HW218588   4.301   0.989   0.134
 5897SOL     OW18589   4.170   0.923   1.491
 5897SOL    HW118590   4.258   0.897   1.529
 5897SOL    HW218591   4.114   0.965   1.563
 5898SOL     OW18592   2.518   6.663   3.287
 5898SOL    HW118593   2.582   6.587   3.282
 5898SOL    HW218594   2.450   6.645   3.358
 5899SOL     OW18595   5.140   6.631   5.883
 5899SOL    HW118596   5.151   6.703   5.952
 5899SOL    HW218597   5.076   6.562   5.916
 5900SOL     OW18598   5.009   5.153   3.490
 5900SOL    HW118599   4.996   5.063   3.531
 5900SOL    HW218600   5.018   5.144   3.391
 5901SOL     OW18601   2.492   0.419   0.108
 5901SOL    HW118602   2.578   0.439   0.060
 5901SOL    HW218603   2.480   0.320   0.116
 5902SOL     OW18604   6.709   2.590   5.891
 5902SOL    HW118605   6.782   2.650   5.857
 5902SOL    HW218606   6.664   2.545   5.814
 5903SOL     OW18607   3.860   3.806   0.146
 5903SOL    HW118608   3.790   3.803   0.074
 5903SOL    HW218609   3.893   3.900   0.155
 5904SOL     OW18610   0.817   3.466   2.014
 5904SOL    HW118611   0.820   3.416   1.928
 5904SOL    HW218612   0.787   3.405   2.088
 5905SOL     OW18613   6.250   6.156   2.903
 5905SOL    HW118614   6.338   6.185   2.866
 5905SOL    HW218615   6.178   6.170   2.836
 5906SOL     OW18616   4.308   2.384   3.540
 5906SOL    HW118617   4.218   2.341   3.533
 5906SOL    HW218618   4.375   2.329   3.490
 5907SOL     OW18619   0.948   5.126   0.838
 5907SOL    HW118620   0.961   5.172   0.750
 5907SOL    HW218621   0.990   5.181   0.910
 5908SOL     OW18622   0.219   2.659   6.873
 5908SOL    HW118623   0.196   2.684   6.967
 5908SOL    HW218624   0.282   2.581   6.874
 5909SOL     OW18625   6.705   5.613   0.875
 5909SOL    HW118626   6.759   5.538   0.912
 5909SOL    HW218627   6.637   5.578   0.811
 5910SOL     OW18628   0.261   3.066   4.025
 5910SOL    HW118629   0.228   3.084   3.932
 5910SOL    HW218630   0.291   2.970   4.031
 5911SOL     OW18631   6.534   6.729   6.554
 5911SOL    HW118632   6.518   6.665   6.479
 5911SOL    HW218633   6.447   6.766   6.586
 5912SOL     OW18634   0.006   0.573   5.636
 5912SOL    HW118635   0.088   0.527   5.671
 5912SOL    HW218636   0.033   0.649   5.577
 5913SOL     OW18637   4.679   3.010   6.354
 5913SOL    HW118638   4.597   3.039   6.305
 5913SOL    HW218639   4.728   3.090   6.388
 5914SOL     OW18640   1.659   5.181   0.018
 5914SOL    HW118641   1.757   5.162   0.013
 5914SOL    HW218642   1.633   5.243   6.967
 5915SOL     OW18643   4.694   5.779   1.292
 5915SOL    HW118644   4.677   5.740   1.201
 5915SOL    HW218645   4.777   5.835   1.289
 5916SOL     OW18646   6.069   6.105   3.456
 5916SOL    HW118647   6.148   6.158   3.425
 5916SOL    HW218648   6.089   6.007   3.448
 5917SOL     OW18649   3.461   4.163   4.199
 5917SOL    HW118650   3.513   4.125   4.276
 5917SOL    HW218651   3.363   4.147   4.214
 5918SOL     OW18652   2.391   4.164   5.316
 5918SOL    HW118653   2.391   4.099   5.240
 5918SOL    HW218654   2.298   4.179   5.347
 5919SOL     OW18655   4.097   3.232   3.280
 5919SOL    HW118656   4.137   3.308   3.228
 5919SOL    HW218657   4.067   3.161   3.216
 5920SOL     OW18658   4.984   0.663   6.466
 5920SOL    HW118659   5.058   0.683   6.403
 5920SOL    HW218660   5.002   0.576   6.512
 5921SOL     OW18661   4.041   5.040   6.395
 5921SOL    HW118662   4.124   5.092   6.375
 5921SOL    HW218663   3.967   5.103   6.419
 5922SOL     OW18664   5.726   3.618   3.553
 5922SOL    HW118665   5.638   3.632   3.507
 5922SOL    HW218666   5.797   3.600   3.485
 5923SOL     OW18667   0.206   1.701   1.980
 5923SOL    HW118668   0.108   1.692   1.966
 5923SOL    HW218669   0.250   1.725   1.893
 5924SOL     OW18670   6.875   7.004   2.614
 5924SOL    HW118671   6.842   0.025   2.531
 5924SOL    HW218672   6.814   6.928   2.638
 5925SOL     OW18673   3.939   6.602   1.877
 5925SOL    HW118674   3.907   6.647   1.794
 5925SOL    HW218675   3.879   6.524   1.897
 5926SOL     OW18676   3.964   5.114   2.516
 5926SOL    HW118677   4.026   5.152   2.585
 5926SOL    HW218678   3.888   5.068   2.562
 5927SOL     OW18679   0.856   4.833   2.198
 5927SOL    HW118680   0.811   4.877   2.276
 5927SOL    HW218681   0.893   4.904   2.137
 5928SOL     OW18682   3.190   6.332   1.045
 5928SOL    HW118683   3.202   6.429   1.066
 5928SOL    HW218684   3.094   6.316   1.020
 5929SOL     OW18685   6.520   0.788   5.974
 5929SOL    HW118686   6.607   0.836   5.963
 5929SOL    HW218687   6.537   0.692   5.999
 5930SOL     OW18688   6.804   4.171   3.053
 5930SOL    HW118689   6.884   4.208   3.006
 5930SOL    HW218690   6.752   4.112   2.990
 5931SOL     OW18691   6.246   6.523   2.903
 5931SOL    HW118692   6.233   6.621   2.885
 5931SOL    HW218693   6.198   6.499   2.988
 5932SOL     OW18694   3.163   6.985   1.182
 5932SOL    HW118695   3.108   7.002   1.264
 5932SOL    HW218696   3.260   6.988   1.206
 5933SOL     OW18697   6.411   4.750   4.259
 5933SOL    HW118698   6.504   4.719   4.239
 5933SOL    HW218699   6.414   4.827   4.322
 5934SOL     OW18700   3.436   3.139   4.904
 5934SOL    HW118701   3.370   3.065   4.892
 5934SOL    HW218702   3.483   3.127   4.992
 5935SOL     OW18703   6.863   5.424   6.360
 5935SOL    HW118704   6.818   5.354   6.415
 5935SOL    HW218705   6.842   5.514   6.398
 5936SOL     OW18706   3.381   2.915   1.671
 5936SOL    HW118707   3.309   2.859   1.713
 5936SOL    HW218708   3.461   2.858   1.653
 5937SOL     OW18709   6.083   3.222   1.968
 5937SOL    HW118710   6.138   3.219   2.051
 5937SOL    HW218711   6.117   3.293   1.906
 5938SOL     OW18712   6.592   5.625   3.333
 5938SOL    HW118713   6.647   5.701   3.366
 5938SOL    HW218714   6.540   5.654   3.252
 5939SOL     OW18715   2.134   5.981   3.153
 5939SOL    HW118716   2.204   6.006   3.219
 5939SOL    HW218717   2.061   6.050   3.154
 5940SOL     OW18718   4.690   5.255   2.535
 5940SOL    HW118719   4.642   5.342   2.549
 5940SOL    HW218720   4.623   5.180   2.535
 5941SOL     OW18721   6.233   4.074   2.111
 5941SOL    HW118722   6.163   4.031   2.167
 5941SOL    HW218723   6.216   4.173   2.106
 5942SOL     OW18724   4.929   3.897   7.014
 5942SOL    HW118725   4.985   3.954   0.051
 5942SOL    HW218726   4.962   3.906   6.920
 5943SOL     OW18727   3.593   4.196   5.984
 5943SOL    HW118728   3.577   4.099   6.000
 5943SOL    HW218729   3.505   4.244   5.979
 5944SOL     OW18730   0.006   2.256   0.224
 5944SOL    HW118731   0.017   2.320   0.301
 5944SOL    HW218732   0.054   2.171   0.245
 5945SOL     OW18733   6.318   4.753   5.139
 5945SOL    HW118734   6.330   4.697   5.058
 5945SOL    HW218735   6.263   4.703   5.206
 5946SOL     OW18736   3.384   3.630   6.025
 5946SOL    HW118737   3.352   3.625   5.930
 5946SOL    HW218738   3.352   3.716   6.065
 5947SOL     OW18739   3.774   3.640   2.806
 5947SOL    HW118740   3.849   3.677   2.751
 5947SOL    HW218741   3.745   3.552   2.768
 5948SOL     OW18742   4.226   4.830   2.738
 5948SOL    HW118743   4.257   4.738   2.760
 5948SOL    HW218744   4.176   4.828   2.652
 5949SOL     OW18745   5.323   4.101   1.725
 5949SOL    HW118746   5.423   4.100   1.712
 5949SOL    HW218747   5.303   4.090   1.823
 5950SOL     OW18748   4.908   1.686   5.139
 5950SOL    HW118749   4.985   1.672   5.077
 5950SOL    HW218750   4.834   1.623   5.115
 5951SOL     OW18751   1.428   5.059   4.265
 5951SOL    HW118752   1.515   5.016   4.241
 5951SOL    HW218753   1.401   5.032   4.357
 5952SOL     OW18754   5.128   5.714   3.289
 5952SOL    HW118755   5.198   5.663   3.239
 5952SOL    HW218756   5.143   5.702   3.387
 5953SOL     OW18757   6.767   3.837   5.437
 5953SOL    HW118758   6.844   3.862   5.495
 5953SOL    HW218759   6.685   3.885   5.469
 5954SOL     OW18760   6.261   6.052   5.746
 5954SOL    HW118761   6.251   6.116   5.669
 5954SOL    HW218762   6.256   5.958   5.712
 5955SOL     OW18763   4.621   5.747   1.773
 5955SOL    HW118764   4.567   5.687   1.832
 5955SOL    HW218765   4.587   5.840   1.780
 5956SOL     OW18766   4.611   2.228   3.885
 5956SOL    HW118767   4.601   2.141   3.934
 5956SOL    HW218768   4.664   2.292   3.940
 5957SOL     OW18769   2.891   1.245   4.352
 5957SOL    HW118770   2.862   1.317   4.289
 5957SOL    HW218771   2.833   1.246   4.433
 5958SOL     OW18772   4.369   6.956   2.861
 5958SOL    HW118773   4.351   6.858   2.866
 5958SOL    HW218774   4.433   6.982   2.933
 5959SOL     OW18775   4.131   2.984   5.288
 5959SOL    HW118776   4.089   3.067   5.251
 5959SOL    HW218777   4.228   3.001   5.305
 5960SOL     OW18778   4.042   5.218   5.014
 5960SOL    HW118779   3.970   5.172   5.066
 5960SOL    HW218780   4.003   5.264   4.935
 5961SOL     OW18781   4.285   2.304   2.695
 5961SOL    HW118782   4.190   2.291   2.669
 5961SOL    HW218783   4.317   2.224   2.745
 5962SOL     OW18784   6.347   6.402   6.510
 5962SOL    HW118785   6.431   6.386   6.562
 5962SOL    HW218786   6.304   6.486   6.542
 5963SOL     OW18787   3.304   3.855   6.164
 5963SOL    HW118788   3.233   3.925   6.158
 5963SOL    HW218789   3.296   3.806   6.251
 5964SOL     OW18790   1.314   6.665   4.935
 5964SOL    HW118791   1.408   6.697   4.920
 5964SOL    HW218792   1.251   6.742   4.932
 5965SOL     OW18793   1.896   1.684   0.265
 5965SOL    HW118794   1.916   1.599   0.313
 5965SOL    HW218795   1.974   1.709   0.207
 5966SOL     OW18796   2.626   5.863   5.958
 5966SOL    HW118797   2.686   5.800   6.008
 5966SOL    HW218798   2.542   5.876   6.009
 5967SOL     OW18799   2.887   0.183   6.145
 5967SOL    HW118800   2.849   0.276   6.154
 5967SOL    HW218801   2.948   0.180   6.065
 5968SOL     OW18802   5.052   2.299   0.212
 5968SOL    HW118803   5.087   2.280   0.303
 5968SOL    HW218804   4.959   2.264   0.203
 5969SOL     OW18805   6.309   0.713   6.655
 5969SOL    HW118806   6.254   0.692   6.574
 5969SOL    HW218807   6.405   0.692   6.637
 5970SOL     OW18808   0.127   4.203   2.688
 5970SOL    HW118809   0.152   4.299   2.672
 5970SOL    HW218810   0.028   4.193   2.684
 5971SOL     OW18811   0.244   1.400   1.968
 5971SOL    HW118812   0.331   1.360   1.940
 5971SOL    HW218813   0.240   1.495   1.938
 5972SOL     OW18814   5.162   5.772   6.368
 5972SOL    HW118815   5.086   5.771   6.303
 5972SOL    HW218816   5.137   5.825   6.449
 5973SOL     OW18817   1.725   3.093   1.777
 5973SOL    HW118818   1.646   3.148   1.750
 5973SOL    HW218819   1.715   3.000   1.741
 5974SOL     OW18820   5.776   6.072   6.905
 5974SOL    HW118821   5.790   5.989   6.850
 5974SOL    HW218822   5.724   6.138   6.852
 5975SOL     OW18823   4.213   6.898   1.144
 5975SOL    HW118824   4.236   6.916   1.049
 5975SOL    HW218825   4.147   6.966   1.176
 5976SOL     OW18826   4.319   2.518   6.154
 5976SOL    HW118827   4.320   2.420   6.138
 5976SOL    HW218828   4.254   2.562   6.093
 5977SOL     OW18829   1.185   6.168   0.740
 5977SOL    HW118830   1.175   6.246   0.802
 5977SOL    HW218831   1.108   6.105   0.752
 5978SOL     OW18832   3.950   5.400   1.507
 5978SOL    HW118833   3.863   5.400   1.457
 5978SOL    HW218834   4.022   5.362   1.449
 5979SOL     OW18835   6.331   0.468   2.927
 5979SOL    HW118836   6.421   0.505   2.949
 5979SOL    HW218837   6.270   0.543   2.900
 5980SOL     OW18838   3.905   4.031   1.784
 5980SOL    HW118839   3.885   4.119   1.742
 5980SOL    HW218840   3.865   4.028   1.876
 5981SOL     OW18841   5.481   2.100   0.696
 5981SOL    HW118842   5.447   2.028   0.635
 5981SOL    HW218843   5.409   2.125   0.761
 5982SOL     OW18844   6.420   2.273   2.301
 5982SOL    HW118845   6.401   2.217   2.220
 5982SOL    HW218846   6.497   2.234   2.352
 5983SOL     OW18847   1.157   0.986   4.333
 5983SOL    HW118848   1.228   0.946   4.275
 5983SOL    HW218849   1.067   0.959   4.298
 5984SOL     OW18850   5.450   5.870   3.336
 5984SOL    HW118851   5.397   5.952   3.314
 5984SOL    HW218852   5.542   5.897   3.365
 5985SOL     OW18853   6.672   3.152   3.959
 5985SOL    HW118854   6.629   3.069   3.993
 5985SOL    HW218855   6.697   3.211   4.036
 5986SOL     OW18856   3.215   4.086   4.224
 5986SOL    HW118857   3.233   3.991   4.250
 5986SOL    HW218858   3.191   4.139   4.304
 5987SOL     OW18859   5.954   0.303   4.022
 5987SOL    HW118860   5.861   0.324   3.994
 5987SOL    HW218861   5.956   0.214   4.067
 5988SOL     OW18862   4.137   0.883   5.469
 5988SOL    HW118863   4.090   0.799   5.442
 5988SOL    HW218864   4.072   0.946   5.511
 5989SOL     OW18865   2.208   5.712   6.445
 5989SOL    HW118866   2.222   5.669   6.356
 5989SOL    HW218867   2.110   5.714   6.466
 5990SOL     OW18868   3.139   3.364   1.133
 5990SOL    HW118869   3.215   3.299   1.142
 5990SOL    HW218870   3.053   3.314   1.123
 5991SOL     OW18871   4.241   5.447   6.659
 5991SOL    HW118872   4.185   5.367   6.680
 5991SOL    HW218873   4.326   5.444   6.712
 5992SOL     OW18874   3.634   0.338   2.353
 5992SOL    HW118875   3.592   0.406   2.292
 5992SOL    HW218876   3.701   0.284   2.301
 5993SOL     OW18877   3.600   4.136   6.363
 5993SOL    HW118878   3.520   4.173   6.315
 5993SOL    HW218879   3.672   4.205   6.365
 5994SOL     OW18880   6.837   2.454   0.499
 5994SOL    HW118881   6.838   2.432   0.596
 5994SOL    HW218882   6.931   2.466   0.466
 5995SOL     OW18883   4.939   3.550   2.063
 5995SOL    HW118884   4.861   3.611   2.075
 5995SOL    HW218885   4.914   3.475   2.003
 5996SOL     OW18886   0.394   6.762   0.749
 5996SOL    HW118887   0.462   6.689   0.740
 5996SOL    HW218888   0.421   6.840   0.692
 5997SOL     OW18889   0.266   5.189   2.339
 5997SOL    HW118890   0.236   5.273   2.384
 5997SOL    HW218891   0.186   5.140   2.305
 5998SOL     OW18892   6.533   1.688   2.631
 5998SOL    HW118893   6.588   1.617   2.676
 5998SOL    HW218894   6.527   1.669   2.533
 5999SOL     OW18895   2.993   2.995   1.568
 5999SOL    HW118896   3.075   2.969   1.620
 5999SOL    HW218897   3.012   2.984   1.470
 6000SOL     OW18898   2.285   6.593   6.933
 6000SOL    HW118899   2.296   6.655   7.011
 6000SOL    HW218900   2.229   6.515   6.960
 6001SOL     OW18901   6.983   4.873   6.821
 6001SOL    HW118902   6.918   4.949   6.824
 6001SOL    HW218903   0.052   4.909   6.814
 6002SOL     OW18904   5.859   0.497   0.132
 6002SOL    HW118905   5.929   0.565   0.154
 6002SOL    HW218906   5.789   0.498   0.204
 6003SOL     OW18907   5.348   2.069   4.843
 6003SOL    HW118908   5.294   2.133   4.788
 6003SOL    HW218909   5.431   2.045   4.793
 6004SOL     OW18910   0.082   3.955   3.134
 6004SOL    HW118911   0.047   3.945   3.227
 6004SOL    HW218912   0.039   4.034   3.091
 6005SOL     OW18913   5.148   5.621   4.971
 6005SOL    HW118914   5.162   5.670   5.057
 6005SOL    HW218915   5.136   5.523   4.990
 6006SOL     OW18916   2.388   0.466   5.537
 6006SOL    HW118917   2.440   0.479   5.452
 6006SOL    HW218918   2.449   0.476   5.615
 6007SOL     OW18919   5.620   3.692   5.726
 6007SOL    HW118920   5.633   3.709   5.628
 6007SOL    HW218921   5.703   3.652   5.764
 6008SOL     OW18922   2.872   4.797   5.277
 6008SOL    HW118923   2.948   4.840   5.227
 6008SOL    HW218924   2.868   4.699   5.253
 6009SOL     OW18925   2.406   0.817   3.547
 6009SOL    HW118926   2.491   0.765   3.557
 6009SOL    HW218927   2.424   0.901   3.497
 6010SOL     OW18928   1.139   5.269   3.911
 6010SOL    HW118929   1.231   5.272   3.951
 6010SOL    HW218930   1.129   5.342   3.844
 6011SOL     OW18931   5.756   2.964   3.400
 6011SOL    HW118932   5.728   2.883   3.452
 6011SOL    HW218933   5.741   3.046   3.455
 6012SOL     OW18934   5.571   0.913   0.905
 6012SOL    HW118935   5.580   0.816   0.884
 6012SOL    HW218936   5.536   0.924   0.998
 6013SOL     OW18937   5.462   1.102   2.919
 6013SOL    HW118938   5.481   1.157   2.838
 6013SOL    HW218939   5.459   1.005   2.893
 6014SOL     OW18940   3.793   4.039   3.221
 6014SOL    HW118941   3.748   4.080   3.300
 6014SOL    HW218942   3.727   4.031   3.146
 6015SOL     OW18943   5.605   3.983   4.405
 6015SOL    HW118944   5.624   3.889   4.376
 6015SOL    HW218945   5.671   4.045   4.361
 6016SOL     OW18946   6.473   2.301   5.839
 6016SOL    HW118947   6.527   2.352   5.772
 6016SOL    HW218948   6.381   2.339   5.844
 6017SOL     OW18949   5.992   4.923   3.563
 6017SOL    HW118950   5.974   4.825   3.573
 6017SOL    HW218951   5.932   4.974   3.624
 6018SOL     OW18952   4.146   0.666   6.282
 6018SOL    HW118953   4.056   0.687   6.244
 6018SOL    HW218954   4.216   0.696   6.217
 6019SOL     OW18955   0.586   3.013   4.545
 6019SOL    HW118956   0.680   3.020   4.579
 6019SOL    HW218957   0.552   3.104   4.521
 6020SOL     OW18958   0.723   5.419   0.738
 6020SOL    HW118959   0.650   5.485   0.721
 6020SOL    HW218960   0.684   5.334   0.774
 6021SOL     OW18961   4.449   0.640   3.058
 6021SOL    HW118962   4.470   0.544   3.037
 6021SOL    HW218963   4.417   0.647   3.152
 6022SOL     OW18964   6.321   1.735   3.366
 6022SOL    HW118965   6.352   1.809   3.307
 6022SOL    HW218966   6.271   1.668   3.312
 6023SOL     OW18967   6.054   0.994   1.454
 6023SOL    HW118968   6.098   0.918   1.503
 6023SOL    HW218969   5.966   1.014   1.496
 6024SOL     OW18970   1.333   4.685   2.164
 6024SOL    HW118971   1.358   4.743   2.087
 6024SOL    HW218972   1.234   4.672   2.165
 6025SOL     OW18973   3.354   1.905   3.357
 6025SOL    HW118974   3.379   1.811   3.382
 6025SOL    HW218975   3.427   1.967   3.384
 6026SOL     OW18976   0.408   4.717   5.674
 6026SOL    HW118977   0.358   4.766   5.603
 6026SOL    HW218978   0.468   4.649   5.631
 6027SOL     OW18979   0.617   3.458   4.935
 6027SOL    HW118980   0.627   3.412   5.023
 6027SOL    HW218981   0.628   3.391   4.861
 6028SOL     OW18982   5.986   4.752   0.593
 6028SOL    HW118983   5.923   4.829   0.601
 6028SOL    HW218984   6.015   4.743   0.497
 6029SOL     OW18985   2.181   6.887   4.518
 6029SOL    HW118986   2.133   6.799   4.511
 6029SOL    HW218987   2.251   6.881   4.590
 6030SOL     OW18988   4.166   5.122   2.736
 6030SOL    HW118989   4.176   5.025   2.713
 6030SOL    HW218990   4.223   5.143   2.816
 6031SOL     OW18991   3.394   5.334   4.410
 6031SOL    HW118992   3.310   5.282   4.422
 6031SOL    HW218993   3.387   5.392   4.329
 6032SOL     OW18994   2.122   4.423   2.397
 6032SOL    HW118995   2.117   4.514   2.436
 6032SOL    HW218996   2.055   4.413   2.324
 6033SOL     OW18997   2.448   2.672   3.082
 6033SOL    HW118998   2.481   2.609   3.151
 6033SOL    HW218999   2.512   2.675   3.005
 6034SOL     OW19000   1.539   0.250   5.048
 6034SOL    HW119001   1.543   0.280   4.952
 6034SOL    HW219002   1.449   0.212   5.067
 6035SOL     OW19003   1.054   1.549   1.985
 6035SOL    HW119004   1.105   1.555   1.899
 6035SOL    HW219005   1.005   1.634   2.001
 6036SOL     OW19006   5.165   5.015   3.063
 6036SOL    HW119007   5.107   5.054   3.135
 6036SOL    HW219008   5.148   5.063   2.977
 6037SOL     OW19009   3.858   6.829   0.346
 6037SOL    HW119010   3.847   6.762   0.272
 6037SOL    HW219011   3.920   6.793   0.415
 6038SOL     OW19012   1.295   2.904   5.903
 6038SOL    HW119013   1.307   3.003   5.907
 6038SOL    HW219014   1.376   2.859   5.942
 6039SOL     OW19015   3.912   3.112   2.462
 6039SOL    HW119016   3.921   3.058   2.379
 6039SOL    HW219017   3.815   3.129   2.480
 6040SOL     OW19018   1.647   2.248   1.085
 6040SOL    HW119019   1.740   2.241   1.049
 6040SOL    HW219020   1.649   2.284   1.178
 6041SOL     OW19021   2.848   1.019   5.466
 6041SOL    HW119022   2.771   1.065   5.420
 6041SOL    HW219023   2.841   0.920   5.451
 6042SOL     OW19024   4.141   6.846   2.517
 6042SOL    HW119025   4.147   6.773   2.585
 6042SOL    HW219026   4.217   6.838   2.452
 6043SOL     OW19027   1.054   6.075   5.453
 6043SOL    HW119028   1.084   6.150   5.395
 6043SOL    HW219029   1.112   5.995   5.437
 6044SOL     OW19030   1.667   2.636   1.434
 6044SOL    HW119031   1.754   2.681   1.416
 6044SOL    HW219032   1.592   2.699   1.415
 6045SOL     OW19033   6.507   4.005   2.112
 6045SOL    HW119034   6.572   4.081   2.119
 6045SOL    HW219035   6.414   4.041   2.107
 6046SOL     OW19036   3.556   2.487   1.023
 6046SOL    HW119037   3.519   2.412   1.078
 6046SOL    HW219038   3.480   2.538   0.981
 6047SOL     OW19039   5.474   1.707   2.037
 6047SOL    HW119040   5.421   1.710   1.952
 6047SOL    HW219041   5.538   1.631   2.034
 6048SOL     OW19042   4.645   5.242   5.293
 6048SOL    HW119043   4.658   5.209   5.387
 6048SOL    HW219044   4.594   5.328   5.295
 6049SOL     OW19045   4.864   3.256   0.131
 6049SOL    HW119046   4.766   3.243   0.113
 6049SOL    HW219047   4.883   3.353   0.141
 6050SOL     OW19048   3.241   4.818   5.967
 6050SOL    HW119049   3.291   4.894   5.925
 6050SOL    HW219050   3.164   4.793   5.908
 6051SOL     OW19051   1.418   0.286   3.848
 6051SOL    HW119052   1.499   0.320   3.800
 6051SOL    HW219053   1.368   0.364   3.887
 6052SOL     OW19054   5.213   1.528   0.846
 6052SOL    HW119055   5.128   1.540   0.795
 6052SOL    HW219056   5.209   1.442   0.897
 6053SOL     OW19057   4.482   1.121   6.139
 6053SOL    HW119058   4.481   1.146   6.042
 6053SOL    HW219059   4.564   1.158   6.182
 6054SOL     OW19060   2.679   2.826   6.978
 6054SOL    HW119061   2.631   2.787   6.900
 6054SOL    HW219062   2.613   2.848   0.027
 6055SOL     OW19063   5.289   6.768   5.483
 6055SOL    HW119064   5.223   6.798   5.552
 6055SOL    HW219065   5.316   6.845   5.426
 6056SOL     OW19066   4.922   3.415   4.849
 6056SOL    HW119067   4.901   3.335   4.905
 6056SOL    HW219068   4.874   3.495   4.884
 6057SOL     OW19069   7.014   1.399   2.692
 6057SOL    HW119070   0.045   1.476   2.725
 6057SOL    HW219071   7.003   1.332   2.766
 6058SOL     OW19072   4.743   3.877   1.820
 6058SOL    HW119073   4.777   3.840   1.733
 6058SOL    HW219074   4.660   3.930   1.804
 6059SOL     OW19075   5.074   5.331   6.225
 6059SOL    HW119076   5.054   5.335   6.323
 6059SOL    HW219077   5.006   5.275   6.179
 6060SOL     OW19078   3.119   3.543   6.201
 6060SOL    HW119079   3.123   3.624   6.260
 6060SOL    HW219080   3.164   3.563   6.114
 6061SOL     OW19081   4.741   3.109   1.134
 6061SOL    HW119082   4.722   3.112   1.232
 6061SOL    HW219083   4.721   3.018   1.099
 6062SOL     OW19084   2.983   1.480   5.601
 6062SOL    HW119085   3.070   1.459   5.556
 6062SOL    HW219086   2.990   1.568   5.647
 6063SOL     OW19087   4.711   2.411   6.090
 6063SOL    HW119088   4.656   2.493   6.105
 6063SOL    HW219089   4.688   2.342   6.158
 6064SOL     OW19090   1.061   0.019   1.401
 6064SOL    HW119091   1.008   0.100   1.374
 6064SOL    HW219092   1.023   7.005   1.485
 6065SOL     OW19093   0.658   6.606   3.100
 6065SOL    HW119094   0.696   6.573   3.186
 6065SOL    HW219095   0.593   6.539   3.064
 6066SOL     OW19096   4.529   1.834   5.239
 6066SOL    HW119097   4.550   1.911   5.298
 6066SOL    HW219098   4.576   1.752   5.272
 6067SOL     OW19099   5.885   0.878   5.888
 6067SOL    HW119100   5.793   0.892   5.926
 6067SOL    HW219101   5.903   0.945   5.817
 6068SOL     OW19102   4.714   2.642   4.342
 6068SOL    HW119103   4.725   2.681   4.251
 6068SOL    HW219104   4.684   2.713   4.405
 6069SOL     OW19105   6.126   2.776   5.125
 6069SOL    HW119106   6.141   2.836   5.046
 6069SOL    HW219107   6.142   2.828   5.209
 6070SOL     OW19108   2.909   2.042   1.402
 6070SOL    HW119109   2.816   2.065   1.373
 6070SOL    HW219110   2.960   2.006   1.324
 6071SOL     OW19111   5.802   5.577   5.043
 6071SOL    HW119112   5.768   5.670   5.058
 6071SOL    HW219113   5.730   5.511   5.062
 6072SOL     OW19114   6.649   0.095   1.317
 6072SOL    HW119115   6.591   0.014   1.328
 6072SOL    HW219116   6.745   0.069   1.319
 6073SOL     OW19117   5.828   2.942   0.820
 6073SOL    HW119118   5.756   2.881   0.788
 6073SOL    HW219119   5.807   2.972   0.913
 6074SOL     OW19120   0.931   6.333   2.007
 6074SOL    HW119121   0.896   6.350   1.915
 6074SOL    HW219122   0.995   6.406   2.032
 6075SOL     OW19123   4.873   0.587   5.762
 6075SOL    HW119124   4.844   0.626   5.674
 6075SOL    HW219125   4.938   0.648   5.806
 6076SOL     OW19126   3.511   5.600   3.518
 6076SOL    HW119127   3.582   5.668   3.532
 6076SOL    HW219128   3.552   5.508   3.517
 6077SOL     OW19129   6.511   5.537   0.688
 6077SOL    HW119130   6.479   5.445   0.662
 6077SOL    HW219131   6.489   5.601   0.615
 6078SOL     OW19132   4.779   5.568   0.436
 6078SOL    HW119133   4.765   5.646   0.376
 6078SOL    HW219134   4.705   5.502   0.423
 6079SOL     OW19135   4.555   3.695   6.184
 6079SOL    HW119136   4.648   3.706   6.219
 6079SOL    HW219137   4.545   3.606   6.140
 6080SOL     OW19138   0.003   6.235   0.624
 6080SOL    HW119139   0.048   6.159   0.670
 6080SOL    HW219140   6.928   6.217   0.618
 6081SOL     OW19141   6.697   2.440   4.897
 6081SOL    HW119142   6.688   2.349   4.936
 6081SOL    HW219143   6.753   2.435   4.814
 6082SOL     OW19144   2.394   1.241   3.785
 6082SOL    HW119145   2.349   1.168   3.836
 6082SOL    HW219146   2.392   1.221   3.687
 6083SOL     OW19147   6.106   6.159   0.306
 6083SOL    HW119148   6.040   6.157   0.231
 6083SOL    HW219149   6.182   6.220   0.282
 6084SOL     OW19150   0.875   6.839   3.262
 6084SOL    HW119151   0.808   6.870   3.195
 6084SOL    HW219152   0.829   6.818   3.348
 6085SOL     OW19153   0.110   6.867   0.085
 6085SOL    HW119154   0.059   6.816   0.155
 6085SOL    HW219155   0.045   6.918   0.028
 6086SOL     OW19156   3.091   1.139   5.495
 6086SOL    HW119157   3.167   1.083   5.527
 6086SOL    HW219158   3.008   1.083   5.490
 6087SOL     OW19159   3.841   5.802   1.069
 6087SOL    HW119160   3.921   5.858   1.047
 6087SOL    HW219161   3.759   5.859   1.070
 6088SOL     OW19162   5.407   6.572   4.501
 6088SOL    HW119163   5.371   6.566   4.595
 6088SOL    HW219164   5.334   6.550   4.436
 6089SOL     OW19165   5.578   2.789   2.341
 6089SOL    HW119166   5.630   2.755   2.420
 6089SOL    HW219167   5.485   2.753   2.344
 6090SOL     OW19168   2.268   5.665   4.643
 6090SOL    HW119169   2.315   5.675   4.731
 6090SOL    HW219170   2.173   5.696   4.653
 6091SOL     OW19171   1.940   1.186   0.499
 6091SOL    HW119172   1.981   1.116   0.440
 6091SOL    HW219173   1.898   1.257   0.443
 6092SOL     OW19174   4.618   0.387   2.354
 6092SOL    HW119175   4.651   0.389   2.448
 6092SOL    HW219176   4.518   0.393   2.354
 6093SOL     OW19177   2.317   2.945   1.690
 6093SOL    HW119178   2.356   3.026   1.647
 6093SOL    HW219179   2.217   2.954   1.692
 6094SOL     OW19180   1.722   6.138   2.292
 6094SOL    HW119181   1.645   6.136   2.355
 6094SOL    HW219182   1.797   6.083   2.329
 6095SOL     OW19183   5.127   4.110   0.561
 6095SOL    HW119184   5.143   4.209   0.559
 6095SOL    HW219185   5.033   4.092   0.530
 6096SOL     OW19186   6.233   0.088   3.808
 6096SOL    HW119187   6.142   0.047   3.818
 6096SOL    HW219188   6.235   0.145   3.727
 6097SOL     OW19189   1.828   5.886   2.132
 6097SOL    HW119190   1.869   5.935   2.208
 6097SOL    HW219191   1.784   5.951   2.070
 6098SOL     OW19192   0.567   1.385   5.266
 6098SOL    HW119193   0.501   1.403   5.339
 6098SOL    HW219194   0.622   1.467   5.250
 6099SOL     OW19195   5.481   6.358   6.946
 6099SOL    HW119196   5.465   6.282   7.010
 6099SOL    HW219197   5.569   6.346   6.902
 6100SOL     OW19198   5.678   6.162   1.233
 6100SOL    HW119199   5.754   6.140   1.172
 6100SOL    HW219200   5.670   6.261   1.242
 6101SOL     OW19201   6.761   3.659   3.326
 6101SOL    HW119202   6.840   3.602   3.305
 6101SOL    HW219203   6.680   3.601   3.332
 6102SOL     OW19204   3.381   5.969   3.103
 6102SOL    HW119205   3.428   6.016   3.028
 6102SOL    HW219206   3.378   5.871   3.083
 6103SOL     OW19207   6.184   1.925   1.612
 6103SOL    HW119208   6.249   1.943   1.687
 6103SOL    HW219209   6.104   1.878   1.648
 6104SOL     OW19210   5.631   0.699   6.014
 6104SOL    HW119211   5.724   0.662   6.013
 6104SOL    HW219212   5.568   0.631   5.976
 6105SOL     OW19213   3.103   5.786   6.846
 6105SOL    HW119214   3.188   5.805   6.798
 6105SOL    HW219215   3.051   5.870   6.858
 6106SOL     OW19216   1.093   4.348   6.618
 6106SOL    HW119217   1.107   4.419   6.549
 6106SOL    HW219218   1.013   4.293   6.594
 6107SOL     OW19219   4.165   6.002   4.852
 6107SOL    HW119220   4.169   6.102   4.850
 6107SOL    HW219221   4.211   5.968   4.933
 6108SOL     OW19222   2.487   2.738   1.741
 6108SOL    HW119223   2.582   2.765   1.731
 6108SOL    HW219224   2.429   2.820   1.742
 6109SOL     OW19225   5.793   1.695   4.927
 6109SOL    HW119226   5.729   1.697   5.004
 6109SOL    HW219227   5.798   1.786   4.886
 6110SOL     OW19228   3.243   3.725   1.026
 6110SOL    HW119229   3.152   3.688   1.007
 6110SOL    HW219230   3.307   3.649   1.039
 6111SOL     OW19231   1.369   3.955   2.565
 6111SOL    HW119232   1.294   3.890   2.552
 6111SOL    HW219233   1.412   3.975   2.477
 6112SOL     OW19234   3.271   0.326   3.087
 6112SOL    HW119235   3.348   0.303   3.147
 6112SOL    HW219236   3.261   0.255   3.018
 6113SOL     OW19237   3.233   2.263   5.875
 6113SOL    HW119238   3.163   2.212   5.826
 6113SOL    HW219239   3.244   2.353   5.833
 6114SOL     OW19240   4.624   5.014   2.261
 6114SOL    HW119241   4.564   5.020   2.181
 6114SOL    HW219242   4.703   4.956   2.240
 6115SOL     OW19243   5.923   0.574   3.747
 6115SOL    HW119244   5.935   0.661   3.700
 6115SOL    HW219245   6.011   0.542   3.781
 6116SOL     OW19246   4.188   1.608   6.005
 6116SOL    HW119247   4.268   1.548   6.012
 6116SOL    HW219248   4.117   1.562   5.951
 6117SOL     OW19249   1.416   1.279   3.337
 6117SOL    HW119250   1.436   1.375   3.314
 6117SOL    HW219251   1.492   1.222   3.308
 6118SOL     OW19252   0.388   1.141   1.889
 6118SOL    HW119253   0.311   1.101   1.839
 6118SOL    HW219254   0.464   1.157   1.825
 6119SOL     OW19255   0.859   3.612   6.732
 6119SOL    HW119256   0.817   3.521   6.733
 6119SOL    HW219257   0.951   3.606   6.691
 6120SOL     OW19258   3.710   6.197   5.457
 6120SOL    HW119259   3.735   6.109   5.417
 6120SOL    HW219260   3.622   6.227   5.421
 6121SOL     OW19261   0.617   3.394   5.205
 6121SOL    HW119262   0.572   3.305   5.206
 6121SOL    HW219263   0.683   3.399   5.280
 6122SOL     OW19264   4.337   5.352   0.781
 6122SOL    HW119265   4.322   5.351   0.683
 6122SOL    HW219266   4.434   5.361   0.800
 6123SOL     OW19267   5.324   0.095   6.168
 6123SOL    HW119268   5.245   0.156   6.177
 6123SOL    HW219269   5.398   0.128   6.226
 6124SOL     OW19270   1.751   6.822   6.017
 6124SOL    HW119271   1.827   6.882   5.993
 6124SOL    HW219272   1.698   6.864   6.090
 6125SOL     OW19273   2.005   4.338   0.695
 6125SOL    HW119274   1.975   4.336   0.791
 6125SOL    HW219275   1.984   4.427   0.655
 6126SOL     OW19276   0.810   6.900   4.542
 6126SOL    HW119277   0.826   6.803   4.524
 6126SOL    HW219278   0.857   6.955   4.473
 6127SOL     OW19279   3.035   0.564   1.484
 6127SOL    HW119280   3.034   0.532   1.389
 6127SOL    HW219281   3.127   0.592   1.509
 6128SOL     OW19282   6.192   3.980   0.843
 6128SOL    HW119283   6.165   4.029   0.926
 6128SOL    HW219284   6.131   3.903   0.829
 6129SOL     OW19285   0.052   3.648   2.325
 6129SOL    HW119286   7.008   3.601   2.267
 6129SOL    HW219287   0.143   3.615   2.303
 6130SOL     OW19288   5.980   3.060   2.537
 6130SOL    HW119289   5.889   3.096   2.558
 6130SOL    HW219290   5.975   2.960   2.531
 6131SOL     OW19291   0.671   1.847   4.533
 6131SOL    HW119292   0.620   1.898   4.603
 6131SOL    HW219293   0.614   1.772   4.499
 6132SOL     OW19294   4.804   1.888   0.102
 6132SOL    HW119295   4.879   1.822   0.103
 6132SOL    HW219296   4.790   1.925   0.194
 6133SOL     OW19297   1.974   3.219   2.467
 6133SOL    HW119298   1.880   3.203   2.437
 6133SOL    HW219299   2.013   3.295   2.415
 6134SOL     OW19300   4.205   4.383   6.971
 6134SOL    HW119301   4.270   4.424   6.907
 6134SOL    HW219302   4.251   4.312   0.001
 6135SOL     OW19303   0.069   0.659   0.452
 6135SOL    HW119304   0.163   0.688   0.435
 6135SOL    HW219305   0.006   0.730   0.423
 6136SOL     OW19306   1.114   3.000   1.993
 6136SOL    HW119307   1.168   2.916   2.005
 6136SOL    HW219308   1.090   3.036   2.083
 6137SOL     OW19309   6.837   3.919   2.298
 6137SOL    HW119310   6.805   4.008   2.265
 6137SOL    HW219311   6.911   3.886   2.240
 6138SOL     OW19312   3.917   6.577   2.756
 6138SOL    HW119313   3.868   6.607   2.675
 6138SOL    HW219314   3.853   6.564   2.832
 6139SOL     OW19315   1.678   6.390   6.151
 6139SOL    HW119316   1.681   6.377   6.052
 6139SOL    HW219317   1.765   6.360   6.191
 6140SOL     OW19318   0.666   6.509   1.751
 6140SOL    HW119319   0.648   6.421   1.794
 6140SOL    HW219320   0.688   6.495   1.654
 6141SOL     OW19321   0.511   6.620   6.116
 6141SOL    HW119322   0.456   6.576   6.046
 6141SOL    HW219323   0.599   6.647   6.078
 6142SOL     OW19324   0.853   6.624   0.003
 6142SOL    HW119325   0.912   6.571   6.966
 6142SOL    HW219326   0.897   6.634   0.092
 6143SOL     OW19327   6.568   3.136   1.069
 6143SOL    HW119328   6.496   3.092   1.122
 6143SOL    HW219329   6.606   3.212   1.121
 6144SOL     OW19330   4.767   4.585   4.271
 6144SOL    HW119331   4.693   4.541   4.219
 6144SOL    HW219332   4.733   4.609   4.362
 6145SOL     OW19333   5.218   5.273   3.820
 6145SOL    HW119334   5.141   5.215   3.847
 6145SOL    HW219335   5.251   5.244   3.730
 6146SOL     OW19336   2.922   5.452   3.826
 6146SOL    HW119337   2.980   5.443   3.745
 6146SOL    HW219338   2.826   5.444   3.800
 6147SOL     OW19339   2.129   2.108   4.073
 6147SOL    HW119340   2.178   2.185   4.032
 6147SOL    HW219341   2.090   2.137   4.161
 6148SOL     OW19342   4.891   0.027   5.290
 6148SOL    HW119343   4.851   6.959   5.281
 6148SOL    HW219344   4.879   0.077   5.204
 6149SOL     OW19345   2.762   6.391   1.493
 6149SOL    HW119346   2.676   6.402   1.443
 6149SOL    HW219347   2.811   6.312   1.456
 6150SOL     OW19348   5.290   5.386   0.411
 6150SOL    HW119349   5.360   5.434   0.358
 6150SOL    HW219350   5.311   5.288   0.414
 6151SOL     OW19351   5.868   4.998   6.531
 6151SOL    HW119352   5.894   5.012   6.626
 6151SOL    HW219353   5.948   5.015   6.472
 6152SOL     OW19354   6.224   5.659   4.825
 6152SOL    HW119355   6.133   5.619   4.813
 6152SOL    HW219356   6.273   5.659   4.738
 6153SOL     OW19357   5.285   4.722   1.477
 6153SOL    HW119358   5.270   4.650   1.409
 6153SOL    HW219359   5.370   4.705   1.527
 6154SOL     OW19360   6.056   2.475   2.847
 6154SOL    HW119361   6.044   2.564   2.891
 6154SOL    HW219362   5.967   2.431   2.836
 6155SOL     OW19363   1.476   1.550   3.243
 6155SOL    HW119364   1.569   1.514   3.253
 6155SOL    HW219365   1.470   1.639   3.288
 6156SOL     OW19366   4.244   4.687   1.918
 6156SOL    HW119367   4.336   4.657   1.894
 6156SOL    HW219368   4.184   4.681   1.839
 6157SOL     OW19369   6.999   1.838   4.742
 6157SOL    HW119370   0.054   1.879   4.697
 6157SOL    HW219371   6.964   1.762   4.687
 6158SOL     OW19372   3.807   2.038   6.091
 6158SOL    HW119373   3.817   2.113   6.025
 6158SOL    HW219374   3.888   2.032   6.148
 6159SOL     OW19375   4.973   1.947   2.113
 6159SOL    HW119376   5.042   1.944   2.041
 6159SOL    HW219377   5.017   1.945   2.202
 6160SOL     OW19378   5.454   1.229   6.266
 6160SOL    HW119379   5.448   1.301   6.197
 6160SOL    HW219380   5.465   1.271   6.356
 6161SOL     OW19381   4.596   1.774   4.955
 6161SOL    HW119382   4.649   1.843   4.906
 6161SOL    HW219383   4.599   1.792   5.053
 6162SOL     OW19384   0.165   5.934   3.510
 6162SOL    HW119385   0.235   5.913   3.579
 6162SOL    HW219386   0.085   5.974   3.554
 6163SOL     OW19387   6.202   6.833   1.114
 6163SOL    HW119388   6.273   6.766   1.135
 6163SOL    HW219389   6.113   6.788   1.109
 6164SOL     OW19390   3.201   4.018   3.257
 6164SOL    HW119391   3.233   3.924   3.265
 6164SOL    HW219392   3.211   4.049   3.162
 6165SOL     OW19393   4.766   2.072   6.908
 6165SOL    HW119394   4.782   2.018   6.991
 6165SOL    HW219395   4.745   2.011   6.832
 6166SOL     OW19396   5.407   1.737   6.488
 6166SOL    HW119397   5.330   1.751   6.426
 6166SOL    HW219398   5.374   1.738   6.583
 6167SOL     OW19399   1.005   5.004   2.555
 6167SOL    HW119400   0.907   5.003   2.536
 6167SOL    HW219401   1.049   5.074   2.499
 6168SOL     OW19402   1.786   3.482   2.101
 6168SOL    HW119403   1.805   3.491   2.199
 6168SOL    HW219404   1.687   3.486   2.086
 6169SOL     OW19405   1.764   1.939   6.747
 6169SOL    HW119406   1.813   1.963   6.831
 6169SOL    HW219407   1.703   1.862   6.765
 6170SOL     OW19408   2.089   4.269   5.342
 6170SOL    HW119409   2.071   4.273   5.243
 6170SOL    HW219410   2.014   4.315   5.391
 6171SOL     OW19411   1.412   3.124   1.168
 6171SOL    HW119412   1.347   3.048   1.164
 6171SOL    HW219413   1.382   3.197   1.106
 6172SOL     OW19414   1.834   2.495   2.577
 6172SOL    HW119415   1.764   2.424   2.564
 6172SOL    HW219416   1.882   2.479   2.663
 6173SOL     OW19417   6.409   5.493   1.929
 6173SOL    HW119418   6.375   5.450   1.846
 6173SOL    HW219419   6.340   5.556   1.965
 6174SOL     OW19420   4.906   4.391   3.972
 6174SOL    HW119421   4.961   4.309   3.959
 6174SOL    HW219422   4.926   4.431   4.061
 6175SOL     OW19423   4.786   0.363   3.587
 6175SOL    HW119424   4.726   0.428   3.539
 6175SOL    HW219425   4.772   0.271   3.550
 6176SOL     OW19426   4.898   3.702   6.715
 6176SOL    HW119427   4.955   3.745   6.644
 6176SOL    HW219428   4.832   3.769   6.748
 6177SOL     OW19429   5.241   0.962   1.169
 6177SOL    HW119430   5.324   0.963   1.226
 6177SOL    HW219431   5.202   0.869   1.169
 6178SOL     OW19432   4.871   4.787   2.873
 6178SOL    HW119433   4.867   4.874   2.824
 6178SOL    HW219434   4.955   4.739   2.849
 6179SOL     OW19435   0.386   4.826   4.017
 6179SOL    HW119436   0.413   4.920   4.036
 6179SOL    HW219437   0.461   4.764   4.041
 6180SOL     OW19438   3.657   4.432   6.952
 6180SOL    HW119439   3.730   4.500   6.955
 6180SOL    HW219440   3.687   4.348   6.997
 6181SOL     OW19441   3.767   6.820   0.775
 6181SOL    HW119442   3.722   6.758   0.711
 6181SOL    HW219443   3.745   6.914   0.750
 6182SOL     OW19444   5.323   2.865   4.993
 6182SOL    HW119445   5.387   2.938   4.969
 6182SOL    HW219446   5.373   2.787   5.029
 6183SOL     OW19447   2.015   1.738   3.491
 6183SOL    HW119448   2.057   1.788   3.415
 6183SOL    HW219449   1.935   1.689   3.458
 6184SOL     OW19450   1.921   6.585   6.367
 6184SOL    HW119451   1.921   6.546   6.275
 6184SOL    HW219452   1.888   6.679   6.363
 6185SOL     OW19453   0.517   3.956   6.204
 6185SOL    HW119454   0.579   4.035   6.210
 6185SOL    HW219455   0.532   3.909   6.117
 6186SOL     OW19456   0.129   6.699   6.145
 6186SOL    HW119457   0.054   6.748   6.188
 6186SOL    HW219458   0.093   6.633   6.079
 6187SOL     OW19459   4.770   4.765   3.111
 6187SOL    HW119460   4.811   4.765   3.020
 6187SOL    HW219461   4.824   4.709   3.172
 6188SOL     OW19462   2.556   0.291   1.033
 6188SOL    HW119463   2.612   0.362   1.075
 6188SOL    HW219464   2.538   0.314   0.937
 6189SOL     OW19465   5.044   4.207   3.582
 6189SOL    HW119466   5.012   4.243   3.494
 6189SOL    HW219467   5.097   4.276   3.630
 6190SOL     OW19468   0.477   3.973   5.445
 6190SOL    HW119469   0.505   3.887   5.403
 6190SOL    HW219470   0.496   4.049   5.382
 6191SOL     OW19471   3.255   1.820   0.232
 6191SOL    HW119472   3.325   1.890   0.220
 6191SOL    HW219473   3.201   1.813   0.147
 6192SOL     OW19474   3.823   2.324   6.266
 6192SOL    HW119475   3.763   2.262   6.317
 6192SOL    HW219476   3.903   2.347   6.321
 6193SOL     OW19477   5.375   1.025   2.427
 6193SOL    HW119478   5.300   0.959   2.423
 6193SOL    HW219479   5.353   1.096   2.493
 6194SOL     OW19480   1.486   0.328   1.421
 6194SOL    HW119481   1.414   0.398   1.427
 6194SOL    HW219482   1.446   0.238   1.436
 6195SOL     OW19483   4.214   6.092   5.830
 6195SOL    HW119484   4.194   6.038   5.748
 6195SOL    HW219485   4.263   6.035   5.895
 6196SOL     OW19486   5.549   2.504   1.838
 6196SOL    HW119487   5.644   2.524   1.814
 6196SOL    HW219488   5.505   2.587   1.873
 6197SOL     OW19489   4.348   4.463   0.560
 6197SOL    HW119490   4.252   4.487   0.549
 6197SOL    HW219491   4.364   4.430   0.653
 6198SOL     OW19492   3.609   6.421   2.155
 6198SOL    HW119493   3.683   6.370   2.198
 6198SOL    HW219494   3.587   6.501   2.211
 6199SOL     OW19495   1.278   1.008   0.410
 6199SOL    HW119496   1.221   0.996   0.328
 6199SOL    HW219497   1.371   0.978   0.390
 6200SOL     OW19498   1.232   1.358   5.521
 6200SOL    HW119499   1.233   1.311   5.433
 6200SOL    HW219500   1.201   1.452   5.509
 6201SOL     OW19501   1.144   3.480   5.130
 6201SOL    HW119502   1.125   3.467   5.227
 6201SOL    HW219503   1.229   3.531   5.118
 6202SOL     OW19504   3.766   1.560   2.623
 6202SOL    HW119505   3.828   1.499   2.672
 6202SOL    HW219506   3.786   1.558   2.526
 6203SOL     OW19507   6.945   6.521   2.939
 6203SOL    HW119508   6.862   6.514   2.884
 6203SOL    HW219509   6.920   6.525   3.036
 6204SOL     OW19510   0.371   5.190   4.562
 6204SOL    HW119511   0.386   5.117   4.630
 6204SOL    HW219512   0.306   5.159   4.494
 6205SOL     OW19513   6.364   6.485   0.708
 6205SOL    HW119514   6.414   6.425   0.647
 6205SOL    HW219515   6.357   6.576   0.668
 6206SOL     OW19516   6.791   1.593   3.813
 6206SOL    HW119517   6.823   1.687   3.812
 6206SOL    HW219518   6.691   1.592   3.816
 6207SOL     OW19519   1.667   5.125   5.129
 6207SOL    HW119520   1.573   5.111   5.096
 6207SOL    HW219521   1.699   5.041   5.172
 6208SOL     OW19522   5.533   1.886   5.929
 6208SOL    HW119523   5.608   1.907   5.991
 6208SOL    HW219524   5.522   1.961   5.863
 6209SOL     OW19525   4.507   5.517   6.775
 6209SOL    HW119526   4.561   5.586   6.823
 6209SOL    HW219527   4.560   5.434   6.764
 6210SOL     OW19528   5.278   3.396   3.120
 6210SOL    HW119529   5.307   3.354   3.034
 6210SOL    HW219530   5.221   3.332   3.171
 6211SOL     OW19531   3.351   6.511   5.609
 6211SOL    HW119532   3.285   6.471   5.673
 6211SOL    HW219533   3.319   6.602   5.582
 6212SOL     OW19534   1.971   5.523   3.956
 6212SOL    HW119535   2.034   5.539   4.032
 6212SOL    HW219536   1.878   5.548   3.984
 6213SOL     OW19537   5.581   0.261   0.473
 6213SOL    HW119538   5.554   0.167   0.487
 6213SOL    HW219539   5.678   0.264   0.446
 6214SOL     OW19540   5.207   4.911   4.284
 6214SOL    HW119541   5.108   4.907   4.293
 6214SOL    HW219542   5.237   5.007   4.288
 6215SOL     OW19543   4.237   1.270   0.289
 6215SOL    HW119544   4.227   1.356   0.240
 6215SOL    HW219545   4.168   1.264   0.361
 6216SOL     OW19546   6.466   1.362   1.976
 6216SOL    HW119547   6.457   1.264   1.995
 6216SOL    HW219548   6.386   1.410   2.013
 6217SOL     OW19549   0.327   4.031   2.906
 6217SOL    HW119550   0.290   3.998   2.820
 6217SOL    HW219551   0.306   3.966   2.979
 6218SOL     OW19552   4.007   5.916   6.641
 6218SOL    HW119553   3.981   5.909   6.738
 6218SOL    HW219554   3.953   5.988   6.597
 6219SOL     OW19555   1.363   2.507   4.677
 6219SOL    HW119556   1.374   2.605   4.663
 6219SOL    HW219557   1.287   2.490   4.740
 6220SOL     OW19558   2.131   1.472   5.198
 6220SOL    HW119559   2.223   1.507   5.184
 6220SOL    HW219560   2.113   1.464   5.296
 6221SOL     OW19561   6.025   5.911   6.688
 6221SOL    HW119562   6.038   6.001   6.646
 6221SOL    HW219563   6.094   5.848   6.652
 6222SOL     OW19564   1.242   6.562   1.492
 6222SOL    HW119565   1.314   6.630   1.505
 6222SOL    HW219566   1.278   6.486   1.438
 6223SOL     OW19567   0.942   5.185   4.061
 6223SOL    HW119568   1.022   5.207   4.005
 6223SOL    HW219569   0.971   5.140   4.146
 6224SOL     OW19570   2.668   1.552   5.906
 6224SOL    HW119571   2.571   1.546   5.928
 6224SOL    HW219572   2.699   1.466   5.866
 6225SOL     OW19573   4.053   3.718   6.992
 6225SOL    HW119574   4.040   3.780   6.914
 6225SOL    HW219575   3.997   3.749   0.045
 6226SOL     OW19576   0.052   1.632   5.494
 6226SOL    HW119577   0.023   1.722   5.462
 6226SOL    HW219578   0.132   1.642   5.554
 6227SOL     OW19579   3.406   5.966   5.311
 6227SOL    HW119580   3.455   5.960   5.225
 6227SOL    HW219581   3.310   5.941   5.297
 6228SOL     OW19582   1.404   2.862   2.712
 6228SOL    HW119583   1.316   2.844   2.669
 6228SOL    HW219584   1.393   2.931   2.784
 6229SOL     OW19585   0.546   2.339   3.101
 6229SOL    HW119586   0.595   2.375   3.180
 6229SOL    HW219587   0.560   2.240   3.094
 6230SOL     OW19588   0.537   1.623   3.700
 6230SOL    HW119589   0.623   1.603   3.748
 6230SOL    HW219590   0.548   1.607   3.602
 6231SOL     OW19591   6.389   6.019   1.104
 6231SOL    HW119592   6.446   6.025   1.187
 6231SOL    HW219593   6.437   5.967   1.034
 6232SOL     OW19594   0.173   0.864   0.752
 6232SOL    HW119595   0.206   0.903   0.666
 6232SOL    HW219596   0.079   0.833   0.742
 6233SOL     OW19597   6.956   1.361   1.280
 6233SOL    HW119598   6.887   1.414   1.329
 6233SOL    HW219599   0.011   1.420   1.261
 6234SOL     OW19600   6.572   1.720   5.547
 6234SOL    HW119601   6.659   1.690   5.506
 6234SOL    HW219602   6.496   1.689   5.490
 6235SOL     OW19603   1.143   6.878   1.188
 6235SOL    HW119604   1.234   6.903   1.155
 6235SOL    HW219605   1.115   6.941   1.260
 6236SOL     OW19606   0.609   3.468   1.255
 6236SOL    HW119607   0.511   3.472   1.239
 6236SOL    HW219608   0.657   3.523   1.187
 6237SOL     OW19609   3.275   0.591   6.419
 6237SOL    HW119610   3.250   0.577   6.323
 6237SOL    HW219611   3.374   0.596   6.428
 6238SOL     OW19612   3.787   4.847   2.847
 6238SOL    HW119613   3.701   4.802   2.870
 6238SOL    HW219614   3.801   4.925   2.908
 6239SOL     OW19615   2.920   0.235   1.928
 6239SOL    HW119616   2.864   0.153   1.917
 6239SOL    HW219617   2.883   0.308   1.870
 6240SOL     OW19618   2.101   3.215   5.535
 6240SOL    HW119619   2.038   3.288   5.508
 6240SOL    HW219620   2.174   3.209   5.467
 6241SOL     OW19621   3.715   6.995   1.471
 6241SOL    HW119622   3.630   7.013   1.520
 6241SOL    HW219623   3.787   0.034   1.504
 6242SOL     OW19624   4.598   0.441   4.285
 6242SOL    HW119625   4.541   0.477   4.359
 6242SOL    HW219626   4.556   0.464   4.197
 6243SOL     OW19627   6.249   6.337   4.528
 6243SOL    HW119628   6.150   6.353   4.533
 6243SOL    HW219629   6.267   6.239   4.538
 6244SOL     OW19630   7.016   2.344   1.988
 6244SOL    HW119631   6.931   2.376   2.030
 6244SOL    HW219632   0.050   2.301   2.057
 6245SOL     OW19633   1.390   4.287   0.505
 6245SOL    HW119634   1.402   4.248   0.413
 6245SOL    HW219635   1.466   4.259   0.563
 6246SOL     OW19636   1.821   2.017   5.591
 6246SOL    HW119637   1.775   1.981   5.510
 6246SOL    HW219638   1.917   2.031   5.571
 6247SOL     OW19639   6.967   5.824   4.782
 6247SOL    HW119640   6.958   5.725   4.784
 6247SOL    HW219641   6.992   5.854   4.690
 6248SOL     OW19642   3.255   3.361   0.648
 6248SOL    HW119643   3.222   3.369   0.743
 6248SOL    HW219644   3.299   3.446   0.621
 6249SOL     OW19645   0.439   3.716   0.429
 6249SOL    HW119646   0.382   3.678   0.501
 6249SOL    HW219647   0.501   3.784   0.468
 6250SOL     OW19648   6.822   0.289   6.689
 6250SOL    HW119649   6.828   0.361   6.758
 6250SOL    HW219650   6.874   0.315   6.608
 6251SOL     OW19651   4.142   5.773   6.445
 6251SOL    HW119652   4.236   5.783   6.478
 6251SOL    HW219653   4.079   5.812   6.513
 6252SOL     OW19654   2.030   6.196   5.592
 6252SOL    HW119655   1.967   6.119   5.581
 6252SOL    HW219656   2.005   6.248   5.673
 6253SOL     OW19657   2.286   4.348   3.696
 6253SOL    HW119658   2.351   4.390   3.632
 6253SOL    HW219659   2.320   4.356   3.789
 6254SOL     OW19660   5.338   1.318   1.217
 6254SOL    HW119661   5.437   1.311   1.203
 6254SOL    HW219662   5.291   1.307   1.130
 6255SOL     OW19663   3.361   0.697   1.021
 6255SOL    HW119664   3.340   0.738   1.110
 6255SOL    HW219665   3.285   0.713   0.958
 6256SOL     OW19666   3.603   5.387   1.841
 6256SOL    HW119667   3.514   5.404   1.885
 6256SOL    HW219668   3.675   5.385   1.911
 6257SOL     OW19669   5.104   1.964   0.919
 6257SOL    HW119670   5.021   2.016   0.901
 6257SOL    HW219671   5.095   1.915   1.006
 6258SOL     OW19672   3.572   0.425   3.678
 6258SOL    HW119673   3.522   0.357   3.732
 6258SOL    HW219674   3.512   0.464   3.609
 6259SOL     OW19675   1.834   2.288   7.009
 6259SOL    HW119676   1.829   2.200   6.962
 6259SOL    HW219677   1.928   2.323   7.003
 6260SOL     OW19678   3.655   5.703   0.060
 6260SOL    HW119679   3.622   5.765   0.132
 6260SOL    HW219680   3.742   5.737   0.024
 6261SOL     OW19681   3.690   1.036   6.920
 6261SOL    HW119682   3.769   1.084   6.881
 6261SOL    HW219683   3.607   1.089   6.902
 6262SOL     OW19684   2.459   6.519   1.850
 6262SOL    HW119685   2.468   6.469   1.764
 6262SOL    HW219686   2.527   6.592   1.854
 6263SOL     OW19687   0.066   1.021   5.459
 6263SOL    HW119688   0.014   1.062   5.384
 6263SOL    HW219689   0.091   0.927   5.435
 6264SOL     OW19690   1.579   0.190   1.730
 6264SOL    HW119691   1.547   0.095   1.735
 6264SOL    HW219692   1.641   0.199   1.652
 6265SOL     OW19693   3.662   3.346   0.241
 6265SOL    HW119694   3.739   3.333   0.179
 6265SOL    HW219695   3.593   3.275   0.224
 6266SOL     OW19696   3.961   0.592   4.548
 6266SOL    HW119697   4.019   0.670   4.523
 6266SOL    HW219698   3.865   0.621   4.550
 6267SOL     OW19699   2.159   6.946   6.244
 6267SOL    HW119700   2.159   6.879   6.318
 6267SOL    HW219701   2.096   7.021   6.267
 6268SOL     OW19702   2.700   0.349   3.235
 6268SOL    HW119703   2.638   0.415   3.276
 6268SOL    HW219704   2.696   0.356   3.135
 6269SOL     OW19705   0.284   6.990   1.745
 6269SOL    HW119706   0.221   7.014   1.671
 6269SOL    HW219707   0.375   6.973   1.707
 6270SOL     OW19708   1.621   0.193   6.020
 6270SOL    HW119709   1.606   0.108   6.071
 6270SOL    HW219710   1.543   0.210   5.961
 6271SOL     OW19711   6.656   2.347   6.493
 6271SOL    HW119712   6.745   2.393   6.487
 6271SOL    HW219713   6.617   2.339   6.401
 6272SOL     OW19714   0.182   2.814   0.104
 6272SOL    HW119715   0.273   2.853   0.116
 6272SOL    HW219716   0.163   2.751   0.179
 6273SOL     OW19717   0.973   6.573   2.508
 6273SOL    HW119718   1.056   6.548   2.557
 6273SOL    HW219719   0.981   6.666   2.472
 6274SOL     OW19720   3.350   5.561   5.827
 6274SOL    HW119721   3.349   5.660   5.809
 6274SOL    HW219722   3.425   5.539   5.888
 6275SOL     OW19723   2.561   6.180   6.451
 6275SOL    HW119724   2.616   6.125   6.389
 6275SOL    HW219725   2.531   6.124   6.529
 6276SOL     OW19726   1.449   4.418   3.842
 6276SOL    HW119727   1.412   4.373   3.761
 6276SOL    HW219728   1.389   4.495   3.867
 6277SOL     OW19729   5.469   3.675   1.918
 6277SOL    HW119730   5.475   3.577   1.905
 6277SOL    HW219731   5.373   3.704   1.912
 6278SOL     OW19732   5.056   6.471   4.753
 6278SOL    HW119733   4.971   6.523   4.760
 6278SOL    HW219734   5.067   6.437   4.660
 6279SOL     OW19735   3.831   6.596   6.719
 6279SOL    HW119736   3.761   6.668   6.720
 6279SOL    HW219737   3.854   6.573   6.625
 6280SOL     OW19738   1.000   2.332   4.879
 6280SOL    HW119739   0.907   2.368   4.870
 6280SOL    HW219740   1.000   2.233   4.864
 6281SOL     OW19741   0.677   4.985   3.941
 6281SOL    HW119742   0.703   4.888   3.937
 6281SOL    HW219743   0.756   5.039   3.971
 6282SOL     OW19744   0.792   5.963   5.456
 6282SOL    HW119745   0.745   5.995   5.538
 6282SOL    HW219746   0.872   6.020   5.439
 6283SOL     OW19747   6.662   3.155   5.185
 6283SOL    HW119748   6.578   3.155   5.239
 6283SOL    HW219749   6.707   3.244   5.193
 6284SOL     OW19750   1.050   5.548   5.167
 6284SOL    HW119751   0.963   5.543   5.216
 6284SOL    HW219752   1.120   5.499   5.219
 6285SOL     OW19753   0.225   4.289   4.798
 6285SOL    HW119754   0.157   4.217   4.814
 6285SOL    HW219755   0.181   4.378   4.806
 6286SOL     OW19756   5.674   1.828   4.131
 6286SOL    HW119757   5.759   1.877   4.114
 6286SOL    HW219758   5.618   1.829   4.048
 6287SOL     OW19759   3.648   4.938   4.614
 6287SOL    HW119760   3.603   4.912   4.700
 6287SOL    HW219761   3.719   4.871   4.592
 6288SOL     OW19762   5.161   4.368   2.679
 6288SOL    HW119763   5.174   4.291   2.617
 6288SOL    HW219764   5.239   4.431   2.671
 6289SOL     OW19765   1.711   5.019   0.993
 6289SOL    HW119766   1.627   5.073   0.987
 6289SOL    HW219767   1.764   5.029   0.909
 6290SOL     OW19768   6.531   5.142   5.628
 6290SOL    HW119769   6.532   5.241   5.610
 6290SOL    HW219770   6.511   5.126   5.724
 6291SOL     OW19771   4.105   3.478   4.389
 6291SOL    HW119772   4.089   3.460   4.486
 6291SOL    HW219773   4.173   3.550   4.379
 6292SOL     OW19774   1.216   2.190   4.637
 6292SOL    HW119775   1.192   2.268   4.579
 6292SOL    HW219776   1.136   2.132   4.649
 6293SOL     OW19777   3.291   0.887   0.472
 6293SOL    HW119778   3.255   0.859   0.383
 6293SOL    HW219779   3.216   0.904   0.535
 6294SOL     OW19780   3.427   6.513   4.038
 6294SOL    HW119781   3.361   6.455   3.990
 6294SOL    HW219782   3.384   6.601   4.061
 6295SOL     OW19783   5.395   4.591   6.134
 6295SOL    HW119784   5.299   4.613   6.116
 6295SOL    HW219785   5.429   4.531   6.062
 6296SOL     OW19786   0.864   6.393   6.104
 6296SOL    HW119787   0.885   6.443   6.187
 6296SOL    HW219788   0.904   6.439   6.025
 6297SOL     OW19789   5.859   0.864   4.060
 6297SOL    HW119790   5.815   0.934   4.004
 6297SOL    HW219791   5.866   0.897   4.154
 6298SOL     OW19792   1.932   2.691   0.314
 6298SOL    HW119793   1.837   2.721   0.308
 6298SOL    HW219794   1.991   2.769   0.336
 6299SOL     OW19795   5.781   1.887   0.536
 6299SOL    HW119796   5.872   1.929   0.539
 6299SOL    HW219797   5.718   1.946   0.486
 6300SOL     OW19798   6.412   0.694   0.411
 6300SOL    HW119799   6.327   0.676   0.462
 6300SOL    HW219800   6.399   0.773   0.351
 6301SOL     OW19801   3.886   6.617   0.183
 6301SOL    HW119802   3.835   6.658   0.108
 6301SOL    HW219803   3.893   6.518   0.168
 6302SOL     OW19804   1.675   0.654   3.249
 6302SOL    HW119805   1.685   0.603   3.334
 6302SOL    HW219806   1.671   0.752   3.269
 6303SOL     OW19807   2.110   1.401   3.761
 6303SOL    HW119808   2.170   1.347   3.820
 6303SOL    HW219809   2.021   1.413   3.806
 6304SOL     OW19810   2.270   0.734   1.333
 6304SOL    HW119811   2.208   0.674   1.384
 6304SOL    HW219812   2.305   0.685   1.253
 6305SOL     OW19813   6.356   7.000   0.919
 6305SOL    HW119814   6.287   6.982   0.989
 6305SOL    HW219815   6.444   7.018   0.963
 6306SOL     OW19816   0.688   4.352   3.944
 6306SOL    HW119817   0.707   4.376   4.040
 6306SOL    HW219818   0.597   4.383   3.919
 6307SOL     OW19819   3.454   4.111   5.149
 6307SOL    HW119820   3.366   4.158   5.153
 6307SOL    HW219821   3.447   4.025   5.200
 6308SOL     OW19822   2.435   2.258   4.304
 6308SOL    HW119823   2.395   2.333   4.252
 6308SOL    HW219824   2.488   2.294   4.380
 6309SOL     OW19825   6.045   4.409   5.283
 6309SOL    HW119826   6.024   4.388   5.379
 6309SOL    HW219827   6.017   4.333   5.225
 6310SOL     OW19828   2.227   6.120   2.530
 6310SOL    HW119829   2.288   6.043   2.509
 6310SOL    HW219830   2.191   6.159   2.445
 6311SOL     OW19831   5.101   1.100   5.991
 6311SOL    HW119832   5.140   1.014   6.024
 6311SOL    HW219833   5.172   1.170   5.988
 6312SOL     OW19834   6.277   5.599   5.232
 6312SOL    HW119835   6.362   5.598   5.178
 6312SOL    HW219836   6.250   5.505   5.252
 6313SOL     OW19837   6.822   5.892   5.043
 6313SOL    HW119838   6.811   5.980   4.996
 6313SOL    HW219839   6.875   5.830   4.985
 6314SOL     OW19840   3.794   6.720   1.672
 6314SOL    HW119841   3.695   6.721   1.655
 6314SOL    HW219842   3.832   6.811   1.655
 6315SOL     OW19843   2.168   2.571   5.477
 6315SOL    HW119844   2.088   2.629   5.488
 6315SOL    HW219845   2.238   2.599   5.543
 6316SOL     OW19846   5.077   1.949   0.261
 6316SOL    HW119847   5.093   1.964   0.163
 6316SOL    HW219848   4.983   1.975   0.284
 6317SOL     OW19849   4.438   5.233   1.637
 6317SOL    HW119850   4.408   5.138   1.644
 6317SOL    HW219851   4.433   5.276   1.728
 6318SOL     OW19852   3.833   1.323   5.787
 6318SOL    HW119853   3.815   1.278   5.700
 6318SOL    HW219854   3.792   1.415   5.787
 6319SOL     OW19855   6.357   1.626   4.824
 6319SOL    HW119856   6.341   1.614   4.726
 6319SOL    HW219857   6.269   1.634   4.871
 6320SOL     OW19858   6.021   6.209   5.272
 6320SOL    HW119859   5.944   6.265   5.243
 6320SOL    HW219860   6.105   6.246   5.233
 6321SOL     OW19861   3.875   3.327   0.692
 6321SOL    HW119862   3.861   3.345   0.790
 6321SOL    HW219863   3.906   3.411   0.647
 6322SOL     OW19864   2.079   2.190   0.631
 6322SOL    HW119865   2.016   2.196   0.554
 6322SOL    HW219866   2.100   2.094   0.650
 6323SOL     OW19867   3.169   2.794   1.825
 6323SOL    HW119868   3.072   2.803   1.801
 6323SOL    HW219869   3.197   2.698   1.813
 6324SOL     OW19870   5.391   0.500   7.017
 6324SOL    HW119871   5.345   0.589   7.016
 6324SOL    HW219872   5.434   0.486   0.082
 6325SOL     OW19873   1.661   2.286   2.558
 6325SOL    HW119874   1.623   2.213   2.614
 6325SOL    HW219875   1.673   2.254   2.464
 6326SOL     OW19876   4.808   5.323   1.718
 6326SOL    HW119877   4.742   5.292   1.787
 6326SOL    HW219878   4.760   5.374   1.646
 6327SOL     OW19879   6.949   0.512   4.934
 6327SOL    HW119880   6.862   0.531   4.979
 6327SOL    HW219881   6.965   0.580   4.862
 6328SOL     OW19882   3.253   3.293   0.091
 6328SOL    HW119883   3.239   3.358   0.165
 6328SOL    HW219884   3.174   3.295   0.030
 6329SOL     OW19885   2.464   2.171   3.055
 6329SOL    HW119886   2.454   2.193   3.152
 6329SOL    HW219887   2.474   2.072   3.044
 6330SOL     OW19888   4.921   0.665   0.986
 6330SOL    HW119889   4.871   0.605   1.048
 6330SOL    HW219890   4.902   0.760   1.009
 6331SOL     OW19891   6.324   2.982   5.168
 6331SOL    HW119892   6.342   2.919   5.092
 6331SOL    HW219893   6.386   2.962   5.244
 6332SOL     OW19894   0.256   3.440   0.810
 6332SOL    HW119895   0.278   3.348   0.843
 6332SOL    HW219896   0.334   3.501   0.827
 6333SOL     OW19897   4.188   5.489   4.991
 6333SOL    HW119898   4.281   5.504   5.025
 6333SOL    HW219899   4.188   5.491   4.891
 6334SOL     OW19900   2.725   0.740   2.318
 6334SOL    HW119901   2.750   0.800   2.242
 6334SOL    HW219902   2.667   0.666   2.284
 6335SOL     OW19903   3.274   0.523   0.385
 6335SOL    HW119904   3.200   0.585   0.358
 6335SOL    HW219905   3.264   0.500   0.482
 6336SOL     OW19906   0.649   2.798   5.921
 6336SOL    HW119907   0.685   2.828   6.010
 6336SOL    HW219908   0.659   2.872   5.855
 6337SOL     OW19909   4.738   4.705   5.979
 6337SOL    HW119910   4.752   4.706   5.880
 6337SOL    HW219911   4.826   4.701   6.025
 6338SOL     OW19912   3.242   1.668   4.323
 6338SOL    HW119913   3.275   1.700   4.234
 6338SOL    HW219914   3.320   1.648   4.382
 6339SOL     OW19915   0.842   3.503   3.592
 6339SOL    HW119916   0.767   3.569   3.588
 6339SOL    HW219917   0.884   3.494   3.502
 6340SOL     OW19918   2.108   5.406   2.572
 6340SOL    HW119919   2.152   5.495   2.557
 6340SOL    HW219920   2.014   5.420   2.602
 6341SOL     OW19921   0.431   4.266   4.544
 6341SOL    HW119922   0.498   4.285   4.616
 6341SOL    HW219923   0.371   4.345   4.532
 6342SOL     OW19924   1.693   0.992   2.245
 6342SOL    HW119925   1.737   1.080   2.264
 6342SOL    HW219926   1.763   0.921   2.235
 6343SOL     OW19927   4.816   2.271   6.698
 6343SOL    HW119928   4.848   2.204   6.630
 6343SOL    HW219929   4.794   2.224   6.783
 6344SOL     OW19930   5.005   2.621   4.058
 6344SOL    HW119931   5.049   2.533   4.075
 6344SOL    HW219932   5.074   2.692   4.047
 6345SOL     OW19933   6.294   2.923   2.313
 6345SOL    HW119934   6.224   2.994   2.312
 6345SOL    HW219935   6.329   2.909   2.220
 6346SOL     OW19936   6.657   5.378   4.178
 6346SOL    HW119937   6.632   5.344   4.088
 6346SOL    HW219938   6.639   5.307   4.247
 6347SOL     OW19939   2.261   0.353   0.637
 6347SOL    HW119940   2.333   0.301   0.591
 6347SOL    HW219941   2.240   0.310   0.725
 6348SOL     OW19942   1.276   3.535   5.633
 6348SOL    HW119943   1.206   3.508   5.698
 6348SOL    HW219944   1.363   3.547   5.680
 6349SOL     OW19945   2.095   0.571   1.487
 6349SOL    HW119946   2.023   0.553   1.420
 6349SOL    HW219947   2.092   0.502   1.559
 6350SOL     OW19948   0.844   5.601   4.001
 6350SOL    HW119949   0.804   5.535   3.937
 6350SOL    HW219950   0.787   5.684   4.004
 6351SOL     OW19951   6.366   3.949   4.110
 6351SOL    HW119952   6.300   4.021   4.093
 6351SOL    HW219953   6.374   3.891   4.028
 6352SOL     OW19954   3.831   5.934   5.050
 6352SOL    HW119955   3.853   5.906   4.956
 6352SOL    HW219956   3.756   6.000   5.048
 6353SOL     OW19957   0.873   6.637   6.244
 6353SOL    HW119958   0.819   6.697   6.185
 6353SOL    HW219959   0.862   6.664   6.339
 6354SOL     OW19960   2.374   6.011   2.957
 6354SOL    HW119961   2.337   5.918   2.953
 6354SOL    HW219962   2.306   6.073   2.995
 6355SOL     OW19963   0.818   5.523   0.132
 6355SOL    HW119964   0.809   5.610   0.180
 6355SOL    HW219965   0.774   5.529   0.043
 6356SOL     OW19966   5.006   6.007   2.118
 6356SOL    HW119967   4.974   6.091   2.075
 6356SOL    HW219968   5.000   5.932   2.053
 6357SOL     OW19969   6.022   3.753   2.559
 6357SOL    HW119970   6.037   3.836   2.613
 6357SOL    HW219971   6.083   3.681   2.590
 6358SOL     OW19972   0.904   2.593   6.209
 6358SOL    HW119973   0.948   2.580   6.120
 6358SOL    HW219974   0.971   2.578   6.282
 6359SOL     OW19975   5.750   6.972   6.549
 6359SOL    HW119976   5.846   6.986   6.573
 6359SOL    HW219977   5.738   6.983   6.450
 6360SOL     OW19978   1.508   4.528   4.085
 6360SOL    HW119979   1.498   4.480   3.999
 6360SOL    HW219980   1.566   4.475   4.147
 6361SOL     OW19981   1.205   6.779   1.730
 6361SOL    HW119982   1.271   6.741   1.665
 6361SOL    HW219983   1.224   6.743   1.822
 6362SOL     OW19984   6.705   6.413   0.004
 6362SOL    HW119985   6.708   6.383   0.100
 6362SOL    HW219986   6.784   6.471   7.009
 6363SOL     OW19987   1.629   5.047   3.553
 6363SOL    HW119988   1.688   5.058   3.634
 6363SOL    HW219989   1.601   5.137   3.520
 6364SOL     OW19990   3.020   1.321   5.919
 6364SOL    HW119991   3.098   1.272   5.958
 6364SOL    HW219992   2.935   1.282   5.955
 6365SOL     OW19993   5.582   0.286   3.711
 6365SOL    HW119994   5.523   0.367   3.705
 6365SOL    HW219995   5.634   0.289   3.797
 6366SOL     OW19996   1.193   6.205   6.157
 6366SOL    HW119997   1.258   6.155   6.215
 6366SOL    HW219998   1.142   6.270   6.212
 6367SOL     OW19999   3.931   1.187   4.903
 6367SOL    HW120000   3.987   1.125   4.957
 6367SOL    HW220001   3.837   1.185   4.935
 6368SOL     OW20002   3.859   5.103   3.806
 6368SOL    HW120003   3.897   5.125   3.895
 6368SOL    HW220004   3.898   5.017   3.773
 6369SOL     OW20005   2.347   5.500   3.794
 6369SOL    HW120006   2.305   5.584   3.827
 6369SOL    HW220007   2.393   5.454   3.870
 6370SOL     OW20008   6.843   3.218   3.760
 6370SOL    HW120009   6.862   3.315   3.777
 6370SOL    HW220010   6.805   3.176   3.842
 6371SOL     OW20011   5.047   4.452   3.406
 6371SOL    HW120012   4.985   4.530   3.415
 6371SOL    HW220013   5.114   4.455   3.480
 6372SOL     OW20014   2.120   0.542   2.150
 6372SOL    HW120015   2.139   0.556   2.053
 6372SOL    HW220016   2.040   0.482   2.160
 6373SOL     OW20017   4.826   4.095   2.414
 6373SOL    HW120018   4.775   4.109   2.328
 6373SOL    HW220019   4.801   4.167   2.479
 6374SOL     OW20020   3.284   4.051   3.005
 6374SOL    HW120021   3.370   4.046   3.056
 6374SOL    HW220022   3.301   4.033   2.908
 6375SOL     OW20023   6.823   1.856   3.859
 6375SOL    HW120024   6.760   1.934   3.864
 6375SOL    HW220025   6.902   1.874   3.917
 6376SOL     OW20026   5.817   1.970   4.828
 6376SOL    HW120027   5.755   2.029   4.776
 6376SOL    HW220028   5.883   2.026   4.877
 6377SOL     OW20029   6.927   1.831   5.764
 6377SOL    HW120030   6.956   1.883   5.683
 6377SOL    HW220031   6.899   1.740   5.737
 6378SOL     OW20032   4.440   5.041   4.167
 6378SOL    HW120033   4.519   4.979   4.167
 6378SOL    HW220034   4.411   5.057   4.262
 6379SOL     OW20035   1.590   3.920   4.334
 6379SOL    HW120036   1.583   4.016   4.305
 6379SOL    HW220037   1.503   3.891   4.372
 6380SOL     OW20038   0.278   1.575   5.679
 6380SOL    HW120039   0.324   1.526   5.604
 6380SOL    HW220040   0.264   1.513   5.756
 6381SOL     OW20041   4.084   3.170   1.638
 6381SOL    HW120042   4.172   3.198   1.677
 6381SOL    HW220043   4.098   3.094   1.575
 6382SOL     OW20044   2.506   2.244   1.019
 6382SOL    HW120045   2.587   2.226   1.076
 6382SOL    HW220046   2.489   2.164   0.961
 6383SOL     OW20047   1.610   2.071   2.763
 6383SOL    HW120048   1.555   2.017   2.700
 6383SOL    HW220049   1.687   2.016   2.795
 6384SOL     OW20050   6.737   4.178   2.183
 6384SOL    HW120051   6.767   4.218   2.096
 6384SOL    HW220052   6.792   4.216   2.257
 6385SOL     OW20053   0.402   4.329   3.979
 6385SOL    HW120054   0.408   4.401   4.048
 6385SOL    HW220055   0.310   4.289   3.980
 6386SOL     OW20056   2.916   4.928   6.010
 6386SOL    HW120057   2.953   4.863   5.944
 6386SOL    HW220058   2.816   4.926   6.006
 6387SOL     OW20059   0.193   1.658   6.365
 6387SOL    HW120060   0.210   1.614   6.453
 6387SOL    HW220061   0.197   1.589   6.292
 6388SOL     OW20062   3.747   5.741   1.884
 6388SOL    HW120063   3.842   5.755   1.858
 6388SOL    HW220064   3.691   5.817   1.851
 6389SOL     OW20065   0.460   5.884   2.243
 6389SOL    HW120066   0.425   5.896   2.150
 6389SOL    HW220067   0.556   5.860   2.240
 6390SOL     OW20068   0.785   0.912   5.811
 6390SOL    HW120069   0.705   0.879   5.761
 6390SOL    HW220070   0.757   0.984   5.875
 6391SOL     OW20071   2.904   6.945   5.739
 6391SOL    HW120072   2.956   6.867   5.773
 6391SOL    HW220073   2.811   6.915   5.714
 6392SOL     OW20074   2.708   5.582   2.766
 6392SOL    HW120075   2.700   5.489   2.800
 6392SOL    HW220076   2.800   5.616   2.784
 6393SOL     OW20077   6.972   6.863   2.220
 6393SOL    HW120078   7.020   6.776   2.234
 6393SOL    HW220079   6.995   6.899   2.130
 6394SOL     OW20080   1.510   4.901   0.735
 6394SOL    HW120081   1.435   4.932   0.794
 6394SOL    HW220082   1.531   4.805   0.756
 6395SOL     OW20083   0.454   2.420   0.870
 6395SOL    HW120084   0.404   2.470   0.800
 6395SOL    HW220085   0.401   2.340   0.897
 6396SOL     OW20086   4.824   3.358   6.708
 6396SOL    HW120087   4.812   3.387   6.804
 6396SOL    HW220088   4.734   3.337   6.669
 6397SOL     OW20089   5.352   1.758   0.633
 6397SOL    HW120090   5.384   1.664   0.641
 6397SOL    HW220091   5.319   1.790   0.722
 6398SOL     OW20092   2.266   6.891   2.055
 6398SOL    HW120093   2.202   6.815   2.043
 6398SOL    HW220094   2.307   6.914   1.966
 6399SOL     OW20095   1.755   6.507   6.588
 6399SOL    HW120096   1.827   6.530   6.523
 6399SOL    HW220097   1.794   6.504   6.681
 6400SOL     OW20098   2.763   6.010   2.125
 6400SOL    HW120099   2.858   6.008   2.094
 6400SOL    HW220100   2.760   5.987   2.223
 6401SOL     OW20101   5.691   5.099   3.356
 6401SOL    HW120102   5.712   5.180   3.301
 6401SOL    HW220103   5.775   5.065   3.398
 6402SOL     OW20104   3.086   2.012   3.220
 6402SOL    HW120105   3.110   2.054   3.132
 6402SOL    HW220106   3.169   1.999   3.275
 6403SOL     OW20107   6.892   6.293   6.717
 6403SOL    HW120108   6.799   6.265   6.692
 6403SOL    HW220109   6.956   6.219   6.699
 6404SOL     OW20110   4.242   0.991   1.967
 6404SOL    HW120111   4.290   1.026   2.048
 6404SOL    HW220112   4.305   0.990   1.890
 6405SOL     OW20113   2.965   0.399   3.892
 6405SOL    HW120114   3.016   0.390   3.807
 6405SOL    HW220115   2.913   0.485   3.891
 6406SOL     OW20116   0.672   3.068   2.988
 6406SOL    HW120117   0.640   3.116   3.070
 6406SOL    HW220118   0.593   3.044   2.931
 6407SOL     OW20119   2.624   6.201   4.376
 6407SOL    HW120120   2.575   6.286   4.353
 6407SOL    HW220121   2.712   6.224   4.417
 6408SOL     OW20122   5.276   1.746   6.779
 6408SOL    HW120123   5.222   1.662   6.785
 6408SOL    HW220124   5.252   1.807   6.855
 6409SOL     OW20125   6.768   4.482   3.846
 6409SOL    HW120126   6.685   4.457   3.895
 6409SOL    HW220127   6.840   4.414   3.864
 6410SOL     OW20128   1.851   1.316   0.072
 6410SOL    HW120129   1.850   1.218   0.093
 6410SOL    HW220130   1.818   1.330   7.002
 6411SOL     OW20131   1.007   2.904   3.180
 6411SOL    HW120132   0.939   2.917   3.252
 6411SOL    HW220133   0.995   2.975   3.110
 6412SOL     OW20134   0.718   2.371   4.797
 6412SOL    HW120135   0.636   2.369   4.740
 6412SOL    HW220136   0.694   2.399   4.890
 6413SOL     OW20137   3.922   4.849   3.762
 6413SOL    HW120138   3.927   4.843   3.861
 6413SOL    HW220139   3.858   4.780   3.727
 6414SOL     OW20140   5.329   1.128   0.793
 6414SOL    HW120141   5.291   1.115   0.702
 6414SOL    HW220142   5.426   1.148   0.786
 6415SOL     OW20143   1.522   3.425   2.906
 6415SOL    HW120144   1.492   3.519   2.917
 6415SOL    HW220145   1.614   3.414   2.945
 6416SOL     OW20146   0.643   1.472   6.697
 6416SOL    HW120147   0.729   1.430   6.729
 6416SOL    HW220148   0.608   1.532   6.769
 6417SOL     OW20149   6.340   5.119   1.004
 6417SOL    HW120150   6.260   5.118   0.944
 6417SOL    HW220151   6.311   5.142   1.097
 6418SOL     OW20152   5.021   3.904   1.915
 6418SOL    HW120153   5.053   3.898   1.820
 6418SOL    HW220154   4.921   3.896   1.917
 6419SOL     OW20155   2.219   4.820   3.295
 6419SOL    HW120156   2.153   4.756   3.334
 6419SOL    HW220157   2.188   4.849   3.204
 6420SOL     OW20158   3.179   5.463   4.594
 6420SOL    HW120159   3.192   5.400   4.517
 6420SOL    HW220160   3.100   5.520   4.577
 6421SOL     OW20161   5.282   0.287   2.608
 6421SOL    HW120162   5.349   0.359   2.628
 6421SOL    HW220163   5.303   0.246   2.520
 6422SOL     OW20164   0.208   0.981   4.360
 6422SOL    HW120165   0.116   0.947   4.338
 6422SOL    HW220166   0.273   0.948   4.292
 6423SOL     OW20167   4.814   5.322   2.941
 6423SOL    HW120168   4.851   5.375   3.018
 6423SOL    HW220169   4.886   5.306   2.874
 6424SOL     OW20170   6.856   5.686   6.117
 6424SOL    HW120171   6.837   5.726   6.028
 6424SOL    HW220172   6.851   5.587   6.111
 6425SOL     OW20173   6.482   6.658   2.552
 6425SOL    HW120174   6.460   6.564   2.577
 6425SOL    HW220175   6.409   6.695   2.494
 6426SOL     OW20176   1.237   5.117   2.449
 6426SOL    HW120177   1.274   5.122   2.542
 6426SOL    HW220178   1.275   5.038   2.402
 6427SOL     OW20179   3.645   3.538   4.545
 6427SOL    HW120180   3.641   3.626   4.593
 6427SOL    HW220181   3.724   3.536   4.485
 6428SOL     OW20182   5.836   3.396   6.178
 6428SOL    HW120183   5.812   3.483   6.219
 6428SOL    HW220184   5.776   3.379   6.099
 6429SOL     OW20185   1.647   1.850   5.832
 6429SOL    HW120186   1.667   1.789   5.909
 6429SOL    HW220187   1.725   1.853   5.770
 6430SOL     OW20188   6.477   1.028   2.488
 6430SOL    HW120189   6.458   1.086   2.409
 6430SOL    HW220190   6.412   1.051   2.561
 6431SOL     OW20191   5.474   6.656   4.020
 6431SOL    HW120192   5.491   6.628   4.115
 6431SOL    HW220193   5.521   6.593   3.958
 6432SOL     OW20194   4.298   4.376   6.535
 6432SOL    HW120195   4.378   4.400   6.479
 6432SOL    HW220196   4.231   4.329   6.478
 6433SOL     OW20197   2.326   4.741   6.662
 6433SOL    HW120198   2.385   4.662   6.652
 6433SOL    HW220199   2.347   4.789   6.747
 6434SOL     OW20200   2.397   4.059   6.809
 6434SOL    HW120201   2.390   4.096   6.901
 6434SOL    HW220202   2.483   4.090   6.767
 6435SOL     OW20203   4.578   6.856   0.554
 6435SOL    HW120204   4.671   6.888   0.535
 6435SOL    HW220205   4.520   6.934   0.577
 6436SOL     OW20206   2.092   3.054   2.905
 6436SOL    HW120207   2.180   3.018   2.936
 6436SOL    HW220208   2.108   3.131   2.842
 6437SOL     OW20209   2.344   1.723   0.645
 6437SOL    HW120210   2.395   1.665   0.709
 6437SOL    HW220211   2.246   1.715   0.663
 6438SOL     OW20212   6.282   4.529   6.304
 6438SOL    HW120213   6.370   4.481   6.312
 6438SOL    HW220214   6.228   4.512   6.386
 6439SOL     OW20215   5.752   1.019   1.564
 6439SOL    HW120216   5.736   0.934   1.613
 6439SOL    HW220217   5.670   1.076   1.568
 6440SOL     OW20218   2.140   1.064   5.661
 6440SOL    HW120219   2.230   1.077   5.704
 6440SOL    HW220220   2.089   1.150   5.665
 6441SOL     OW20221   6.774   6.727   2.385
 6441SOL    HW120222   6.714   6.763   2.457
 6441SOL    HW220223   6.868   6.757   2.400
 6442SOL     OW20224   1.865   1.000   4.405
 6442SOL    HW120225   1.880   1.060   4.327
 6442SOL    HW220226   1.944   0.940   4.418
 6443SOL     OW20227   4.013   1.979   5.835
 6443SOL    HW120228   3.998   1.895   5.782
 6443SOL    HW220229   4.051   1.956   5.924
 6444SOL     OW20230   5.864   2.764   4.146
 6444SOL    HW120231   5.864   2.864   4.140
 6444SOL    HW220232   5.875   2.736   4.242
 6445SOL     OW20233   4.177   3.548   4.936
 6445SOL    HW120234   4.135   3.638   4.945
 6445SOL    HW220235   4.241   3.534   5.011
 6446SOL     OW20236   1.579   1.349   6.280
 6446SOL    HW120237   1.600   1.447   6.291
 6446SOL    HW220238   1.482   1.338   6.263
 6447SOL     OW20239   5.452   4.984   3.087
 6447SOL    HW120240   5.457   4.982   2.987
 6447SOL    HW220241   5.357   4.992   3.116
 6448SOL     OW20242   3.802   5.460   2.087
 6448SOL    HW120243   3.900   5.463   2.105
 6448SOL    HW220244   3.776   5.539   2.033
 6449SOL     OW20245   3.470   5.067   0.553
 6449SOL    HW120246   3.449   4.990   0.491
 6449SOL    HW220247   3.395   5.132   0.551
 6450SOL     OW20248   0.577   3.833   1.017
 6450SOL    HW120249   0.551   3.885   0.936
 6450SOL    HW220250   0.594   3.897   1.093
 6451SOL     OW20251   2.407   0.648   4.561
 6451SOL    HW120252   2.336   0.580   4.542
 6451SOL    HW220253   2.366   0.726   4.608
 6452SOL     OW20254   4.257   6.007   4.193
 6452SOL    HW120255   4.264   6.106   4.203
 6452SOL    HW220256   4.259   5.984   4.096
 6453SOL     OW20257   2.364   6.281   1.200
 6453SOL    HW120258   2.416   6.337   1.136
 6453SOL    HW220259   2.320   6.206   1.150
 6454SOL     OW20260   2.043   1.868   3.244
 6454SOL    HW120261   1.981   1.939   3.210
 6454SOL    HW220262   2.110   1.846   3.174
 6455SOL     OW20263   0.087   2.861   3.797
 6455SOL    HW120264   0.073   2.901   3.707
 6455SOL    HW220265   0.047   2.920   3.867
 6456SOL     OW20266   0.854   1.132   3.725
 6456SOL    HW120267   0.790   1.126   3.802
 6456SOL    HW220268   0.945   1.104   3.757
 6457SOL     OW20269   4.719   1.863   0.798
 6457SOL    HW120270   4.703   1.946   0.745
 6457SOL    HW220271   4.632   1.826   0.829
 6458SOL     OW20272   0.876   6.357   3.972
 6458SOL    HW120273   0.785   6.330   3.941
 6458SOL    HW220274   0.873   6.451   4.008
 6459SOL     OW20275   6.327   3.291   0.884
 6459SOL    HW120276   6.378   3.247   0.810
 6459SOL    HW220277   6.288   3.222   0.944
 6460SOL     OW20278   5.750   6.126   5.372
 6460SOL    HW120279   5.718   6.220   5.382
 6460SOL    HW220280   5.744   6.099   5.276
 6461SOL     OW20281   2.585   4.905   5.726
 6461SOL    HW120282   2.650   4.978   5.704
 6461SOL    HW220283   2.558   4.858   5.642
 6462SOL     OW20284   2.361   2.799   4.483
 6462SOL    HW120285   2.323   2.824   4.394
 6462SOL    HW220286   2.317   2.851   4.555
 6463SOL     OW20287   6.262   3.385   6.524
 6463SOL    HW120288   6.164   3.387   6.544
 6463SOL    HW220289   6.305   3.466   6.564
 6464SOL     OW20290   0.992   5.579   4.641
 6464SOL    HW120291   0.905   5.597   4.688
 6464SOL    HW220292   1.066   5.573   4.709
 6465SOL     OW20293   0.040   3.235   2.826
 6465SOL    HW120294   0.093   3.232   2.911
 6465SOL    HW220295   0.065   3.156   2.769
 6466SOL     OW20296   1.317   1.258   5.759
 6466SOL    HW120297   1.288   1.309   5.678
 6466SOL    HW220298   1.264   1.289   5.839
 6467SOL     OW20299   3.373   1.406   0.458
 6467SOL    HW120300   3.316   1.442   0.531
 6467SOL    HW220301   3.372   1.307   0.459
 6468SOL     OW20302   3.507   6.393   0.508
 6468SOL    HW120303   3.501   6.296   0.483
 6468SOL    HW220304   3.599   6.413   0.542
 6469SOL     OW20305   5.241   1.076   4.557
 6469SOL    HW120306   5.303   1.144   4.596
 6469SOL    HW220307   5.196   1.113   4.476
 6470SOL     OW20308   6.240   3.886   0.528
 6470SOL    HW120309   6.203   3.812   0.471
 6470SOL    HW220310   6.193   3.888   0.616
 6471SOL     OW20311   6.844   6.790   5.818
 6471SOL    HW120312   6.909   6.721   5.787
 6471SOL    HW220313   6.762   6.788   5.760
 6472SOL     OW20314   0.468   6.286   1.449
 6472SOL    HW120315   0.528   6.245   1.517
 6472SOL    HW220316   0.396   6.339   1.495
 6473SOL     OW20317   3.177   1.105   4.592
 6473SOL    HW120318   3.221   1.034   4.537
 6473SOL    HW220319   3.220   1.194   4.572
 6474SOL     OW20320   2.654   4.426   5.954
 6474SOL    HW120321   2.591   4.476   5.896
 6474SOL    HW220322   2.616   4.417   6.046
 6475SOL     OW20323   6.023   5.025   3.954
 6475SOL    HW120324   6.107   5.079   3.957
 6475SOL    HW220325   6.045   4.928   3.964
 6476SOL     OW20326   4.002   3.713   1.153
 6476SOL    HW120327   3.932   3.644   1.171
 6476SOL    HW220328   4.008   3.730   1.054
 6477SOL     OW20329   6.249   4.711   1.286
 6477SOL    HW120330   6.285   4.617   1.286
 6477SOL    HW220331   6.324   4.775   1.304
 6478SOL     OW20332   3.538   0.589   1.884
 6478SOL    HW120333   3.603   0.665   1.883
 6478SOL    HW220334   3.530   0.550   1.792
 6479SOL     OW20335   4.192   5.303   3.937
 6479SOL    HW120336   4.149   5.355   3.863
 6479SOL    HW220337   4.290   5.296   3.920
 6480SOL     OW20338   2.928   1.764   6.182
 6480SOL    HW120339   3.003   1.699   6.169
 6480SOL    HW220340   2.934   1.837   6.113
 6481SOL     OW20341   3.744   2.010   2.116
 6481SOL    HW120342   3.844   2.019   2.123
 6481SOL    HW220343   3.707   2.088   2.064
 6482SOL     OW20344   0.267   0.797   6.413
 6482SOL    HW120345   0.249   0.878   6.468
 6482SOL    HW220346   0.314   0.823   6.329
 6483SOL     OW20347   1.326   6.226   1.624
 6483SOL    HW120348   1.335   6.255   1.529
 6483SOL    HW220349   1.269   6.291   1.674
 6484SOL     OW20350   3.554   6.792   1.331
 6484SOL    HW120351   3.579   6.696   1.319
 6484SOL    HW220352   3.604   6.831   1.408
 6485SOL     OW20353   1.977   4.802   3.781
 6485SOL    HW120354   2.014   4.892   3.805
 6485SOL    HW220355   2.017   4.733   3.842
 6486SOL     OW20356   2.485   4.432   3.531
 6486SOL    HW120357   2.543   4.495   3.478
 6486SOL    HW220358   2.471   4.348   3.479
 6487SOL     OW20359   6.963   6.093   4.885
 6487SOL    HW120360   7.013   6.155   4.945
 6487SOL    HW220361   7.018   6.012   4.866
 6488SOL     OW20362   3.779   5.864   4.342
 6488SOL    HW120363   3.871   5.881   4.307
 6488SOL    HW220364   3.737   5.789   4.290
 6489SOL     OW20365   3.149   2.431   6.364
 6489SOL    HW120366   3.226   2.487   6.335
 6489SOL    HW220367   3.173   2.379   6.446
 6490SOL     OW20368   3.960   0.641   6.614
 6490SOL    HW120369   3.904   0.724   6.608
 6490SOL    HW220370   3.977   0.606   6.522
 6491SOL     OW20371   3.664   0.510   0.718
 6491SOL    HW120372   3.651   0.600   0.761
 6491SOL    HW220373   3.632   0.513   0.624
 6492SOL     OW20374   4.212   5.203   0.189
 6492SOL    HW120375   4.256   5.129   0.240
 6492SOL    HW220376   4.139   5.243   0.245
 6493SOL     OW20377   1.356   4.985   5.130
 6493SOL    HW120378   1.369   5.015   5.224
 6493SOL    HW220379   1.259   4.970   5.113
 6494SOL     OW20380   0.052   0.179   3.423
 6494SOL    HW120381   0.060   0.113   3.348
 6494SOL    HW220382   6.997   0.154   3.481
 6495SOL     OW20383   5.552   0.125   4.271
 6495SOL    HW120384   5.505   0.212   4.284
 6495SOL    HW220385   5.520   0.059   4.339
 6496SOL     OW20386   6.914   0.338   3.214
 6496SOL    HW120387   6.970   0.359   3.134
 6496SOL    HW220388   6.963   0.364   3.297
 6497SOL     OW20389   1.491   2.479   0.980
 6497SOL    HW120390   1.555   2.556   0.977
 6497SOL    HW220391   1.540   2.395   1.005
 6498SOL     OW20392   2.152   3.906   3.361
 6498SOL    HW120393   2.118   3.871   3.274
 6498SOL    HW220394   2.193   3.996   3.348
 6499SOL     OW20395   4.865   2.857   4.772
 6499SOL    HW120396   4.904   2.769   4.744
 6499SOL    HW220397   4.939   2.922   4.787
 6500SOL     OW20398   6.747   3.868   3.983
 6500SOL    HW120399   6.810   3.898   3.912
 6500SOL    HW220400   6.681   3.941   4.001
 6501SOL     OW20401   6.733   2.208   6.911
 6501SOL    HW120402   6.729   2.291   6.967
 6501SOL    HW220403   6.723   2.128   6.970
 6502SOL     OW20404   6.147   2.206   1.906
 6502SOL    HW120405   6.125   2.297   1.872
 6502SOL    HW220406   6.082   2.140   1.869
 6503SOL     OW20407   5.012   1.419   3.100
 6503SOL    HW120408   4.984   1.445   3.008
 6503SOL    HW220409   5.108   1.445   3.115
 6504SOL     OW20410   4.577   5.742   5.914
 6504SOL    HW120411   4.502   5.802   5.942
 6504SOL    HW220412   4.540   5.659   5.873
 6505SOL     OW20413   5.531   5.879   0.937
 6505SOL    HW120414   5.583   5.865   1.022
 6505SOL    HW220415   5.576   5.950   0.882
 6506SOL     OW20416   6.863   2.856   2.651
 6506SOL    HW120417   6.906   2.781   2.701
 6506SOL    HW220418   6.769   2.833   2.630
 6507SOL     OW20419   2.204   5.162   5.693
 6507SOL    HW120420   2.295   5.164   5.652
 6507SOL    HW220421   2.167   5.255   5.696
 6508SOL     OW20422   1.282   0.789   2.762
 6508SOL    HW120423   1.344   0.784   2.841
 6508SOL    HW220424   1.273   0.885   2.733
 6509SOL     OW20425   3.023   1.946   4.682
 6509SOL    HW120426   3.045   1.934   4.585
 6509SOL    HW220427   3.100   1.991   4.728
 6510SOL     OW20428   6.284   5.267   0.001
 6510SOL    HW120429   6.217   5.340   7.020
 6510SOL    HW220430   6.351   5.278   6.952
 6511SOL     OW20431   4.338   1.349   4.245
 6511SOL    HW120432   4.425   1.311   4.277
 6511SOL    HW220433   4.304   1.295   4.168
 6512SOL     OW20434   4.779   6.353   2.114
 6512SOL    HW120435   4.714   6.398   2.053
 6512SOL    HW220436   4.853   6.313   2.059
 6513SOL     OW20437   2.980   5.257   2.808
 6513SOL    HW120438   3.044   5.327   2.776
 6513SOL    HW220439   3.020   5.206   2.883
 6514SOL     OW20440   5.976   1.157   4.159
 6514SOL    HW120441   5.941   1.091   4.226
 6514SOL    HW220442   5.901   1.216   4.129
 6515SOL     OW20443   0.304   4.736   4.685
 6515SOL    HW120444   0.322   4.715   4.589
 6515SOL    HW220445   0.341   4.826   4.707
 6516SOL     OW20446   0.058   3.469   1.159
 6516SOL    HW120447   7.014   3.444   1.229
 6516SOL    HW220448   0.010   3.488   1.073
 6517SOL     OW20449   6.464   0.443   0.793
 6517SOL    HW120450   6.397   0.381   0.753
 6517SOL    HW220451   6.534   0.389   0.842
 6518SOL     OW20452   6.610   0.068   6.711
 6518SOL    HW120453   6.687   0.131   6.707
 6518SOL    HW220454   6.618   0.010   6.792
 6519SOL     OW20455   1.467   1.805   3.370
 6519SOL    HW120456   1.550   1.820   3.316
 6519SOL    HW220457   1.410   1.886   3.369
 6520SOL     OW20458   5.484   5.737   2.575
 6520SOL    HW120459   5.424   5.781   2.642
 6520SOL    HW220460   5.432   5.668   2.524
 6521SOL     OW20461   2.007   2.621   4.451
 6521SOL    HW120462   2.063   2.687   4.400
 6521SOL    HW220463   2.067   2.555   4.496
 6522SOL     OW20464   3.906   4.589   0.003
 6522SOL    HW120465   3.840   4.664   0.005
 6522SOL    HW220466   3.952   4.588   6.938
 6523SOL     OW20467   4.360   1.425   6.764
 6523SOL    HW120468   4.417   1.454   6.687
 6523SOL    HW220469   4.409   1.441   6.849
 6524SOL     OW20470   2.865   4.071   1.597
 6524SOL    HW120471   2.787   4.133   1.600
 6524SOL    HW220472   2.837   3.985   1.554
 6525SOL     OW20473   2.142   4.668   2.512
 6525SOL    HW120474   2.100   4.717   2.436
 6525SOL    HW220475   2.117   4.714   2.598
 6526SOL     OW20476   2.288   6.739   6.667
 6526SOL    HW120477   2.295   6.831   6.705
 6526SOL    HW220478   2.286   6.672   6.741
 6527SOL     OW20479   0.848   3.048   4.636
 6527SOL    HW120480   0.862   3.129   4.693
 6527SOL    HW220481   0.934   3.024   4.591
 6528SOL     OW20482   0.031   0.882   5.136
 6528SOL    HW120483   6.974   0.823   5.142
 6528SOL    HW220484   0.114   0.826   5.133
 6529SOL     OW20485   1.185   1.546   2.730
 6529SOL    HW120486   1.118   1.618   2.713
 6529SOL    HW220487   1.233   1.524   2.645
 6530SOL     OW20488   6.664   4.094   0.333
 6530SOL    HW120489   6.654   4.082   0.432
 6530SOL    HW220490   6.603   4.031   0.286
 6531SOL     OW20491   5.555   3.147   5.090
 6531SOL    HW120492   5.473   3.144   5.033
 6531SOL    HW220493   5.611   3.226   5.064
 6532SOL     OW20494   6.492   1.186   0.493
 6532SOL    HW120495   6.536   1.182   0.583
 6532SOL    HW220496   6.516   1.272   0.448
 6533SOL     OW20497   4.733   6.990   1.794
 6533SOL    HW120498   4.741   6.890   1.799
 6533SOL    HW220499   4.652   7.020   1.845
 6534SOL     OW20500   3.504   4.383   1.350
 6534SOL    HW120501   3.479   4.384   1.253
 6534SOL    HW220502   3.422   4.398   1.405
 6535SOL     OW20503   6.176   4.111   4.059
 6535SOL    HW120504   6.165   4.158   3.972
 6535SOL    HW220505   6.184   4.178   4.133
 6536SOL     OW20506   0.996   1.304   5.665
 6536SOL    HW120507   0.972   1.209   5.649
 6536SOL    HW220508   1.079   1.327   5.614
 6537SOL     OW20509   6.709   5.327   0.210
 6537SOL    HW120510   6.735   5.383   0.288
 6537SOL    HW220511   6.610   5.321   0.205
 6538SOL     OW20512   2.601   3.419   6.813
 6538SOL    HW120513   2.527   3.478   6.781
 6538SOL    HW220514   2.563   3.334   6.850
 6539SOL     OW20515   4.140   0.766   5.997
 6539SOL    HW120516   4.230   0.804   5.977
 6539SOL    HW220517   4.098   0.734   5.912
 6540SOL     OW20518   4.604   2.080   5.344
 6540SOL    HW120519   4.517   2.127   5.358
 6540SOL    HW220520   4.666   2.101   5.419
 6541SOL     OW20521   4.885   1.916   5.310
 6541SOL    HW120522   4.864   1.838   5.250
 6541SOL    HW220523   4.897   1.998   5.255
 6542SOL     OW20524   5.879   4.398   4.017
 6542SOL    HW120525   5.795   4.421   4.065
 6542SOL    HW220526   5.870   4.308   3.974
 6543SOL     OW20527   5.895   3.192   5.439
 6543SOL    HW120528   5.952   3.132   5.384
 6543SOL    HW220529   5.938   3.209   5.528
 6544SOL     OW20530   0.324   6.707   2.614
 6544SOL    HW120531   0.324   6.782   2.680
 6544SOL    HW220532   0.230   6.684   2.589
 6545SOL     OW20533   4.381   1.969   0.498
 6545SOL    HW120534   4.373   1.883   0.447
 6545SOL    HW220535   4.291   1.995   0.533
 6546SOL     OW20536   3.258   4.473   6.980
 6546SOL    HW120537   3.294   4.383   7.004
 6546SOL    HW220538   3.332   4.540   6.981
 6547SOL     OW20539   4.689   1.328   5.545
 6547SOL    HW120540   4.663   1.419   5.578
 6547SOL    HW220541   4.676   1.324   5.446
 6548SOL     OW20542   1.420   4.197   0.249
 6548SOL    HW120543   1.448   4.198   0.153
 6548SOL    HW220544   1.353   4.124   0.263
 6549SOL     OW20545   4.433   0.871   1.535
 6549SOL    HW120546   4.487   0.792   1.505
 6549SOL    HW220547   4.475   0.910   1.617
 6550SOL     OW20548   0.312   6.794   4.431
 6550SOL    HW120549   0.265   6.716   4.472
 6550SOL    HW220550   0.256   6.875   4.440
 6551SOL     OW20551   1.588   5.099   2.640
 6551SOL    HW120552   1.560   5.019   2.692
 6551SOL    HW220553   1.653   5.153   2.693
 6552SOL     OW20554   1.876   6.602   5.911
 6552SOL    HW120555   1.820   6.665   5.965
 6552SOL    HW220556   1.934   6.549   5.973
 6553SOL     OW20557   0.680   2.046   3.383
 6553SOL    HW120558   0.764   2.091   3.414
 6553SOL    HW220559   0.601   2.102   3.405
 6554SOL     OW20560   0.227   1.015   4.996
 6554SOL    HW120561   0.140   0.999   5.042
 6554SOL    HW220562   0.212   1.073   4.916
 6555SOL     OW20563   6.991   2.276   2.823
 6555SOL    HW120564   6.891   2.277   2.830
 6555SOL    HW220565   7.019   2.338   2.750
 6556SOL     OW20566   5.582   4.579   4.804
 6556SOL    HW120567   5.544   4.624   4.723
 6556SOL    HW220568   5.582   4.643   4.880
 6557SOL     OW20569   3.131   6.791   1.530
 6557SOL    HW120570   3.199   6.733   1.485
 6557SOL    HW220571   3.055   6.734   1.562
 6558SOL     OW20572   6.359   4.786   0.189
 6558SOL    HW120573   6.294   4.789   0.265
 6558SOL    HW220574   6.309   4.782   0.102
 6559SOL     OW20575   1.249   4.176   6.088
 6559SOL    HW120576   1.306   4.106   6.130
 6559SOL    HW220577   1.307   4.243   6.041
 6560SOL     OW20578   4.360   5.125   1.223
 6560SOL    HW120579   4.408   5.037   1.224
 6560SOL    HW220580   4.309   5.134   1.137
 6561SOL     OW20581   3.551   3.879   1.665
 6561SOL    HW120582   3.629   3.895   1.725
 6561SOL    HW220583   3.468   3.915   1.708
 6562SOL     OW20584   5.766   3.854   0.950
 6562SOL    HW120585   5.739   3.775   0.896
 6562SOL    HW220586   5.863   3.872   0.937
 6563SOL     OW20587   5.571   6.634   0.466
 6563SOL    HW120588   5.656   6.626   0.414
 6563SOL    HW220589   5.494   6.645   0.403
 6564SOL     OW20590   0.067   4.475   3.334
 6564SOL    HW120591   0.098   4.569   3.321
 6564SOL    HW220592   0.045   4.459   3.430
 6565SOL     OW20593   6.662   2.845   3.821
 6565SOL    HW120594   6.750   2.866   3.864
 6565SOL    HW220595   6.676   2.832   3.723
 6566SOL     OW20596   3.734   6.125   2.532
 6566SOL    HW120597   3.785   6.119   2.617
 6566SOL    HW220598   3.636   6.115   2.551
 6567SOL     OW20599   4.052   1.426   1.822
 6567SOL    HW120600   3.994   1.346   1.837
 6567SOL    HW220601   4.013   1.481   1.748
 6568SOL     OW20602   3.774   1.297   4.026
 6568SOL    HW120603   3.742   1.202   4.021
 6568SOL    HW220604   3.834   1.308   4.105
 6569SOL     OW20605   2.751   3.372   6.504
 6569SOL    HW120606   2.713   3.459   6.537
 6569SOL    HW220607   2.851   3.376   6.511
 6570SOL     OW20608   3.523   0.079   2.680
 6570SOL    HW120609   3.555   0.023   2.604
 6570SOL    HW220610   3.424   0.093   2.672
 6571SOL     OW20611   2.254   5.597   1.973
 6571SOL    HW120612   2.340   5.640   2.003
 6571SOL    HW220613   2.260   5.498   1.985
 6572SOL     OW20614   6.703   4.849   6.234
 6572SOL    HW120615   6.687   4.833   6.136
 6572SOL    HW220616   6.772   4.785   6.267
 6573SOL     OW20617   2.426   1.602   2.071
 6573SOL    HW120618   2.460   1.681   2.121
 6573SOL    HW220619   2.503   1.544   2.044
 6574SOL     OW20620   3.743   5.598   2.385
 6574SOL    HW120621   3.743   5.580   2.287
 6574SOL    HW220622   3.701   5.687   2.403
 6575SOL     OW20623   1.385   0.312   2.256
 6575SOL    HW120624   1.358   0.346   2.166
 6575SOL    HW220625   1.400   0.390   2.317
 6576SOL     OW20626   2.624   5.606   6.307
 6576SOL    HW120627   2.656   5.516   6.277
 6576SOL    HW220628   2.554   5.596   6.377
 6577SOL     OW20629   0.675   0.986   4.115
 6577SOL    HW120630   0.689   0.909   4.053
 6577SOL    HW220631   0.644   1.065   4.062
 6578SOL     OW20632   1.341   4.587   2.819
 6578SOL    HW120633   1.392   4.567   2.903
 6578SOL    HW220634   1.289   4.672   2.832
 6579SOL     OW20635   6.610   3.700   5.216
 6579SOL    HW120636   6.662   3.737   5.293
 6579SOL    HW220637   6.516   3.680   5.245
 6580SOL     OW20638   0.146   2.113   0.412
 6580SOL    HW120639   0.077   2.077   0.475
 6580SOL    HW220640   0.223   2.150   0.465
 6581SOL     OW20641   2.498   1.243   0.151
 6581SOL    HW120642   2.508   1.191   0.236
 6581SOL    HW220643   2.580   1.298   0.136
 6582SOL     OW20644   1.317   1.389   1.566
 6582SOL    HW120645   1.345   1.475   1.525
 6582SOL    HW220646   1.391   1.354   1.624
 6583SOL     OW20647   3.300   0.434   4.700
 6583SOL    HW120648   3.392   0.410   4.672
 6583SOL    HW220649   3.234   0.380   4.647
 6584SOL     OW20650   4.359   1.772   0.295
 6584SOL    HW120651   4.453   1.749   0.320
 6584SOL    HW220652   4.359   1.815   0.204
 6585SOL     OW20653   6.375   6.568   0.240
 6585SOL    HW120654   6.288   6.617   0.246
 6585SOL    HW220655   6.411   6.575   0.147
 6586SOL     OW20656   0.163   1.870   6.035
 6586SOL    HW120657   0.173   1.771   6.026
 6586SOL    HW220658   0.206   1.900   6.121
 6587SOL     OW20659   2.405   6.439   4.927
 6587SOL    HW120660   2.462   6.371   4.975
 6587SOL    HW220661   2.352   6.393   4.856
 6588SOL     OW20662   0.796   3.794   1.515
 6588SOL    HW120663   0.819   3.762   1.607
 6588SOL    HW220664   0.810   3.892   1.509
 6589SOL     OW20665   4.594   0.278   0.197
 6589SOL    HW120666   4.640   0.367   0.195
 6589SOL    HW220667   4.597   0.237   0.106
 6590SOL     OW20668   0.946   0.680   5.075
 6590SOL    HW120669   0.947   0.774   5.043
 6590SOL    HW220670   1.024   0.663   5.134
 6591SOL     OW20671   5.558   5.919   2.218
 6591SOL    HW120672   5.488   5.986   2.194
 6591SOL    HW220673   5.627   5.916   2.145
 6592SOL     OW20674   6.502   0.078   4.295
 6592SOL    HW120675   6.431   0.036   4.238
 6592SOL    HW220676   6.518   0.019   4.375
 6593SOL     OW20677   3.001   1.849   2.426
 6593SOL    HW120678   2.942   1.769   2.439
 6593SOL    HW220679   2.977   1.894   2.340
 6594SOL     OW20680   3.663   2.281   0.029
 6594SOL    HW120681   3.755   2.307   7.022
 6594SOL    HW220682   3.638   2.193   7.011
 6595SOL     OW20683   1.004   3.735   0.194
 6595SOL    HW120684   0.931   3.795   0.226
 6595SOL    HW220685   0.963   3.656   0.148
 6596SOL     OW20686   3.250   6.056   4.429
 6596SOL    HW120687   3.217   6.135   4.479
 6596SOL    HW220688   3.314   6.005   4.486
 6597SOL     OW20689   2.272   5.324   2.007
 6597SOL    HW120690   2.279   5.241   1.950
 6597SOL    HW220691   2.306   5.304   2.099
 6598SOL     OW20692   1.257   6.705   4.101
 6598SOL    HW120693   1.291   6.798   4.089
 6598SOL    HW220694   1.316   6.656   4.166
 6599SOL     OW20695   4.797   6.838   5.737
 6599SOL    HW120696   4.750   6.921   5.764
 6599SOL    HW220697   4.864   6.813   5.807
 6600SOL     OW20698   4.970   5.032   5.814
 6600SOL    HW120699   5.029   4.979   5.874
 6600SOL    HW220700   5.020   5.113   5.781
 6601SOL     OW20701   0.910   1.803   5.315
 6601SOL    HW120702   0.930   1.763   5.226
 6601SOL    HW220703   0.840   1.873   5.305
 6602SOL     OW20704   0.687   1.472   1.838
 6602SOL    HW120705   0.674   1.467   1.937
 6602SOL    HW220706   0.777   1.512   1.818
 6603SOL     OW20707   0.373   2.812   3.829
 6603SOL    HW120708   0.362   2.714   3.843
 6603SOL    HW220709   0.286   2.859   3.848
 6604SOL     OW20710   2.290   6.812   1.595
 6604SOL    HW120711   2.351   6.750   1.547
 6604SOL    HW220712   2.202   6.767   1.610
 6605SOL     OW20713   5.632   3.531   1.587
 6605SOL    HW120714   5.551   3.578   1.551
 6605SOL    HW220715   5.624   3.524   1.686
 6606SOL     OW20716   6.837   6.220   1.967
 6606SOL    HW120717   6.805   6.314   1.962
 6606SOL    HW220718   6.780   6.162   1.908
 6607SOL     OW20719   1.484   3.148   2.423
 6607SOL    HW120720   1.524   3.066   2.464
 6607SOL    HW220721   1.388   3.131   2.401
 6608SOL     OW20722   6.376   6.657   1.219
 6608SOL    HW120723   6.347   6.583   1.279
 6608SOL    HW220724   6.405   6.619   1.131
 6609SOL     OW20725   4.474   0.704   5.705
 6609SOL    HW120726   4.427   0.624   5.742
 6609SOL    HW220727   4.501   0.764   5.779
 6610SOL     OW20728   2.680   0.495   6.708
 6610SOL    HW120729   2.666   0.549   6.625
 6610SOL    HW220730   2.596   0.445   6.729
 6611SOL     OW20731   6.204   3.097   3.529
 6611SOL    HW120732   6.218   3.058   3.619
 6611SOL    HW220733   6.292   3.099   3.480
 6612SOL     OW20734   6.441   1.954   6.291
 6612SOL    HW120735   6.378   1.952   6.214
 6612SOL    HW220736   6.530   1.990   6.261
 6613SOL     OW20737   6.578   6.203   5.124
 6613SOL    HW120738   6.626   6.289   5.144
 6613SOL    HW220739   6.563   6.153   5.209
 6614SOL     OW20740   5.422   6.279   0.984
 6614SOL    HW120741   5.342   6.223   0.961
 6614SOL    HW220742   5.406   6.324   1.072
 6615SOL     OW20743   1.386   4.884   2.348
 6615SOL    HW120744   1.441   4.966   2.332
 6615SOL    HW220745   1.410   4.814   2.282
 6616SOL     OW20746   3.875   1.316   6.070
 6616SOL    HW120747   3.850   1.340   5.977
 6616SOL    HW220748   3.974   1.305   6.076
 6617SOL     OW20749   3.772   5.073   3.002
 6617SOL    HW120750   3.833   5.101   3.076
 6617SOL    HW220751   3.693   5.025   3.040
 6618SOL     OW20752   1.241   3.035   2.372
 6618SOL    HW120753   1.159   3.051   2.316
 6618SOL    HW220754   1.224   2.958   2.434
 6619SOL     OW20755   6.127   0.115   4.427
 6619SOL    HW120756   6.166   0.207   4.420
 6619SOL    HW220757   6.042   0.112   4.374
 6620SOL     OW20758   1.553   2.793   5.470
 6620SOL    HW120759   1.574   2.745   5.555
 6620SOL    HW220760   1.500   2.733   5.411
 6621SOL     OW20761   2.163   2.935   6.584
 6621SOL    HW120762   2.254   2.915   6.620
 6621SOL    HW220763   2.169   3.005   6.513
 6622SOL     OW20764   5.829   7.016   1.333
 6622SOL    HW120765   5.740   0.031   1.361
 6622SOL    HW220766   5.875   0.057   1.272
 6623SOL     OW20767   2.661   3.039   6.410
 6623SOL    HW120768   2.608   2.988   6.343
 6623SOL    HW220769   2.667   3.135   6.383
 6624SOL     OW20770   1.239   5.575   5.376
 6624SOL    HW120771   1.296   5.526   5.443
 6624SOL    HW220772   1.288   5.583   5.290
 6625SOL     OW20773   5.178   2.240   5.462
 6625SOL    HW120774   5.202   2.335   5.440
 6625SOL    HW220775   5.217   2.216   5.551
 6626SOL     OW20776   4.842   5.762   5.863
 6626SOL    HW120777   4.896   5.687   5.903
 6626SOL    HW220778   4.747   5.754   5.894
 6627SOL     OW20779   2.695   0.025   4.767
 6627SOL    HW120780   2.610   7.022   4.720
 6627SOL    HW220781   2.762   0.053   4.699
 6628SOL     OW20782   4.618   4.476   4.807
 6628SOL    HW120783   4.592   4.570   4.785
 6628SOL    HW220784   4.551   4.437   4.870
 6629SOL     OW20785   4.850   6.095   0.269
 6629SOL    HW120786   4.763   6.091   0.319
 6629SOL    HW220787   4.926   6.078   0.331
 6630SOL     OW20788   3.992   0.980   1.754
 6630SOL    HW120789   4.088   0.971   1.781
 6630SOL    HW220790   3.967   1.077   1.753
 6631SOL     OW20791   2.651   5.440   3.207
 6631SOL    HW120792   2.699   5.527   3.212
 6631SOL    HW220793   2.624   5.412   3.299
 6632SOL     OW20794   0.354   6.658   0.999
 6632SOL    HW120795   0.364   6.734   0.935
 6632SOL    HW220796   0.342   6.573   0.949
 6633SOL     OW20797   0.859   4.253   6.553
 6633SOL    HW120798   0.856   4.285   6.458
 6633SOL    HW220799   0.800   4.310   6.609
 6634SOL     OW20800   6.053   2.339   3.696
 6634SOL    HW120801   5.985   2.291   3.751
 6634SOL    HW220802   6.041   2.315   3.599
 6635SOL     OW20803   4.280   4.691   3.209
 6635SOL    HW120804   4.215   4.688   3.133
 6635SOL    HW220805   4.373   4.676   3.175
 6636SOL     OW20806   4.687   2.745   5.551
 6636SOL    HW120807   4.702   2.755   5.649
 6636SOL    HW220808   4.648   2.654   5.533
 6637SOL     OW20809   1.605   6.996   6.449
 6637SOL    HW120810   1.652   0.043   6.503
 6637SOL    HW220811   1.569   6.926   6.510
 6638SOL     OW20812   3.212   3.626   4.086
 6638SOL    HW120813   3.281   3.557   4.109
 6638SOL    HW220814   3.121   3.591   4.109
 6639SOL     OW20815   5.712   4.830   6.360
 6639SOL    HW120816   5.744   4.847   6.267
 6639SOL    HW220817   5.748   4.901   6.420
 6640SOL     OW20818   1.194   1.818   5.284
 6640SOL    HW120819   1.244   1.890   5.236
 6640SOL    HW220820   1.095   1.835   5.276
 6641SOL     OW20821   2.210   1.647   6.943
 6641SOL    HW120822   2.144   1.677   6.875
 6641SOL    HW220823   2.167   1.645   0.010
 6642SOL     OW20824   3.039   4.978   6.554
 6642SOL    HW120825   3.137   4.967   6.541
 6642SOL    HW220826   3.011   5.070   6.529
 6643SOL     OW20827   6.226   5.516   0.306
 6643SOL    HW120828   6.229   5.438   0.367
 6643SOL    HW220829   6.160   5.499   0.232
 6644SOL     OW20830   2.369   4.829   2.056
 6644SOL    HW120831   2.439   4.757   2.056
 6644SOL    HW220832   2.278   4.786   2.055
 6645SOL     OW20833   6.738   5.525   0.390
 6645SOL    HW120834   6.643   5.500   0.408
 6645SOL    HW220835   6.788   5.534   0.476
 6646SOL     OW20836   3.971   7.005   5.002
 6646SOL    HW120837   3.967   0.080   4.981
 6646SOL    HW220838   4.017   6.957   4.928
 6647SOL     OW20839   4.418   1.103   2.160
 6647SOL    HW120840   4.507   1.146   2.142
 6647SOL    HW220841   4.385   1.131   2.250
 6648SOL     OW20842   4.217   0.064   2.656
 6648SOL    HW120843   4.193   7.007   2.603
 6648SOL    HW220844   4.273   0.037   2.735
 6649SOL     OW20845   5.684   0.492   6.881
 6649SOL    HW120846   5.587   0.485   6.905
 6649SOL    HW220847   5.729   0.555   6.944
 6650SOL     OW20848   2.970   1.485   5.200
 6650SOL    HW120849   2.878   1.454   5.225
 6650SOL    HW220850   2.994   1.447   5.111
 6651SOL     OW20851   2.175   1.672   5.566
 6651SOL    HW120852   2.104   1.677   5.495
 6651SOL    HW220853   2.265   1.685   5.524
 6652SOL     OW20854   0.468   4.770   0.751
 6652SOL    HW120855   0.388   4.741   0.803
 6652SOL    HW220856   0.536   4.809   0.814
 6653SOL     OW20857   3.440   2.848   2.875
 6653SOL    HW120858   3.442   2.775   2.942
 6653SOL    HW220859   3.354   2.899   2.883
 6654SOL     OW20860   1.780   3.895   1.640
 6654SOL    HW120861   1.878   3.909   1.650
 6654SOL    HW220862   1.742   3.969   1.584
 6655SOL     OW20863   1.549   6.896   2.984
 6655SOL    HW120864   1.606   6.966   2.940
 6655SOL    HW220865   1.455   6.930   2.992
 6656SOL     OW20866   6.251   1.693   2.763
 6656SOL    HW120867   6.339   1.726   2.798
 6656SOL    HW220868   6.265   1.645   2.677
 6657SOL     OW20869   5.946   6.471   6.252
 6657SOL    HW120870   6.037   6.468   6.212
 6657SOL    HW220871   5.883   6.514   6.187
 6658SOL     OW20872   6.849   0.717   5.224
 6658SOL    HW120873   6.808   0.802   5.255
 6658SOL    HW220874   6.794   0.640   5.257
 6659SOL     OW20875   2.331   2.449   0.476
 6659SOL    HW120876   2.308   2.366   0.425
 6659SOL    HW220877   2.247   2.499   0.498
 6660SOL     OW20878   1.106   5.691   0.880
 6660SOL    HW120879   1.096   5.764   0.949
 6660SOL    HW220880   1.024   5.688   0.824
 6661SOL     OW20881   0.856   6.446   4.882
 6661SOL    HW120882   0.938   6.389   4.892
 6661SOL    HW220883   0.840   6.465   4.785
 6662SOL     OW20884   0.751   1.399   0.046
 6662SOL    HW120885   0.841   1.359   0.065
 6662SOL    HW220886   0.689   1.327   0.012
 6663SOL     OW20887   0.103   5.467   4.163
 6663SOL    HW120888   0.197   5.449   4.194
 6663SOL    HW220889   0.102   5.477   4.064
 6664SOL     OW20890   2.490   5.953   6.876
 6664SOL    HW120891   2.482   5.967   6.975
 6664SOL    HW220892   2.493   5.855   6.856
 6665SOL     OW20893   1.338   6.300   3.961
 6665SOL    HW120894   1.420   6.316   4.016
 6665SOL    HW220895   1.288   6.221   3.999
 6666SOL     OW20896   5.638   6.792   5.546
 6666SOL    HW120897   5.575   6.744   5.608
 6666SOL    HW220898   5.627   6.890   5.557
 6667SOL     OW20899   6.633   5.985   6.398
 6667SOL    HW120900   6.608   6.049   6.325
 6667SOL    HW220901   6.702   5.922   6.364
 6668SOL     OW20902   6.875   5.844   1.326
 6668SOL    HW120903   6.921   5.779   1.388
 6668SOL    HW220904   6.868   5.933   1.371
 6669SOL     OW20905   1.732   2.653   3.634
 6669SOL    HW120906   1.792   2.703   3.570
 6669SOL    HW220907   1.749   2.685   3.727
 6670SOL     OW20908   3.889   2.266   5.252
 6670SOL    HW120909   3.796   2.229   5.244
 6670SOL    HW220910   3.886   2.352   5.304
 6671SOL     OW20911   6.074   5.797   0.986
 6671SOL    HW120912   6.027   5.853   0.917
 6671SOL    HW220913   6.082   5.849   1.071
 6672SOL     OW20914   6.471   1.663   6.321
 6672SOL    HW120915   6.444   1.752   6.286
 6672SOL    HW220916   6.543   1.625   6.264
 6673SOL     OW20917   5.544   5.716   3.932
 6673SOL    HW120918   5.565   5.619   3.929
 6673SOL    HW220919   5.588   5.762   3.855
 6674SOL     OW20920   0.814   4.989   6.003
 6674SOL    HW120921   0.792   4.898   5.966
 6674SOL    HW220922   0.826   5.053   5.927
 6675SOL     OW20923   4.755   3.479   1.750
 6675SOL    HW120924   4.698   3.404   1.715
 6675SOL    HW220925   4.821   3.442   1.816
 6676SOL     OW20926   6.970   4.002   5.891
 6676SOL    HW120927   6.927   3.913   5.880
 6676SOL    HW220928   6.923   4.054   5.963
 6677SOL     OW20929   1.190   1.593   6.642
 6677SOL    HW120930   1.176   1.595   6.543
 6677SOL    HW220931   1.266   1.532   6.664
 6678SOL     OW20932   3.229   3.246   6.725
 6678SOL    HW120933   3.328   3.239   6.739
 6678SOL    HW220934   3.212   3.283   6.634
 6679SOL     OW20935   2.186   1.650   3.928
 6679SOL    HW120936   2.108   1.713   3.932
 6679SOL    HW220937   2.227   1.654   3.837
 6680SOL     OW20938   4.498   0.067   6.572
 6680SOL    HW120939   4.445   0.102   6.649
 6680SOL    HW220940   4.526   6.996   6.590
 6681SOL     OW20941   4.226   5.827   1.097
 6681SOL    HW120942   4.316   5.865   1.080
 6681SOL    HW220943   4.219   5.737   1.052
 6682SOL     OW20944   1.167   4.293   3.194
 6682SOL    HW120945   1.176   4.195   3.177
 6682SOL    HW220946   1.216   4.317   3.278
 6683SOL     OW20947   5.951   2.903   5.370
 6683SOL    HW120948   6.017   2.865   5.435
 6683SOL    HW220949   5.935   2.838   5.296
 6684SOL     OW20950   2.430   6.888   1.828
 6684SOL    HW120951   2.381   6.912   1.744
 6684SOL    HW220952   2.516   6.843   1.804
 6685SOL     OW20953   6.255   3.425   5.847
 6685SOL    HW120954   6.204   3.433   5.761
 6685SOL    HW220955   6.255   3.513   5.894
 6686SOL     OW20956   5.292   6.177   4.376
 6686SOL    HW120957   5.229   6.144   4.447
 6686SOL    HW220958   5.386   6.162   4.407
 6687SOL     OW20959   0.976   3.190   0.089
 6687SOL    HW120960   0.977   3.148   7.022
 6687SOL    HW220961   1.070   3.213   0.116
 6688SOL     OW20962   0.061   4.672   1.755
 6688SOL    HW120963   0.083   4.619   1.837
 6688SOL    HW220964   7.004   4.634   1.711
 6689SOL     OW20965   4.670   2.803   0.012
 6689SOL    HW120966   4.650   2.901   0.008
 6689SOL    HW220967   4.602   2.753   6.982
 6690SOL     OW20968   2.460   0.891   0.965
 6690SOL    HW120969   2.491   0.797   0.982
 6690SOL    HW220970   2.539   0.948   0.942
 6691SOL     OW20971   2.854   6.154   1.371
 6691SOL    HW120972   2.803   6.174   1.287
 6691SOL    HW220973   2.844   6.057   1.394
 6692SOL     OW20974   3.994   4.181   5.261
 6692SOL    HW120975   3.944   4.095   5.264
 6692SOL    HW220976   3.929   4.257   5.272
 6693SOL     OW20977   4.317   4.050   5.603
 6693SOL    HW120978   4.284   3.979   5.666
 6693SOL    HW220979   4.271   4.040   5.515
 6694SOL     OW20980   4.641   5.378   0.770
 6694SOL    HW120981   4.701   5.449   0.806
 6694SOL    HW220982   4.647   5.377   0.670
 6695SOL     OW20983   3.028   1.336   6.947
 6695SOL    HW120984   2.945   1.320   7.000
 6695SOL    HW220985   3.008   1.402   6.874
 6696SOL     OW20986   1.620   3.101   5.749
 6696SOL    HW120987   1.545   3.090   5.684
 6696SOL    HW220988   1.686   3.026   5.737
 6697SOL     OW20989   4.784   2.071   2.338
 6697SOL    HW120990   4.832   2.158   2.323
 6697SOL    HW220991   4.738   2.044   2.254
 6698SOL     OW20992   3.116   2.843   1.059
 6698SOL    HW120993   3.023   2.854   1.094
 6698SOL    HW220994   3.119   2.767   0.995
 6699SOL     OW20995   2.858   5.191   5.884
 6699SOL    HW120996   2.952   5.226   5.891
 6699SOL    HW220997   2.831   5.150   5.971
 6700SOL     OW20998   6.895   7.000   0.388
 6700SOL    HW120999   6.975   6.939   0.390
 6700SOL    HW221000   6.923   0.067   0.355
 6701SOL     OW21001   5.410   2.461   1.598
 6701SOL    HW121002   5.405   2.436   1.694
 6701SOL    HW221003   5.388   2.558   1.588
 6702SOL     OW21004   2.978   2.045   1.669
 6702SOL    HW121005   2.969   2.023   1.572
 6702SOL    HW221006   2.942   2.137   1.687
 6703SOL     OW21007   6.618   2.149   6.675
 6703SOL    HW121008   6.640   2.213   6.601
 6703SOL    HW221009   6.645   2.190   6.763
 6704SOL     OW21010   3.601   2.014   3.455
 6704SOL    HW121011   3.683   1.986   3.506
 6704SOL    HW221012   3.537   2.059   3.517
 6705SOL     OW21013   6.614   2.186   1.058
 6705SOL    HW121014   6.536   2.151   1.112
 6705SOL    HW221015   6.622   2.284   1.071
 6706SOL     OW21016   1.009   4.011   1.700
 6706SOL    HW121017   1.100   3.983   1.669
 6706SOL    HW221018   0.964   3.933   1.745
 6707SOL     OW21019   6.685   5.865   3.416
 6707SOL    HW121020   6.761   5.923   3.385
 6707SOL    HW221021   6.711   5.819   3.501
 6708SOL     OW21022   0.068   5.417   2.160
 6708SOL    HW121023   7.004   5.394   2.203
 6708SOL    HW221024   0.069   5.383   2.067
 6709SOL     OW21025   3.101   6.969   2.262
 6709SOL    HW121026   3.174   0.000   2.221
 6709SOL    HW221027   3.013   7.014   2.246
 6710SOL     OW21028   3.402   1.196   5.830
 6710SOL    HW121029   3.490   1.243   5.832
 6710SOL    HW221030   3.330   1.260   5.803
 6711SOL     OW21031   5.045   5.409   6.748
 6711SOL    HW121032   4.958   5.375   6.784
 6711SOL    HW221033   5.121   5.367   6.798
 6712SOL     OW21034   4.861   4.782   0.249
 6712SOL    HW121035   4.834   4.739   0.163
 6712SOL    HW221036   4.938   4.843   0.233
 6713SOL     OW21037   2.144   0.831   2.643
 6713SOL    HW121038   2.228   0.833   2.698
 6713SOL    HW221039   2.149   0.901   2.572
 6714SOL     OW21040   6.311   1.145   6.109
 6714SOL    HW121041   6.338   1.211   6.180
 6714SOL    HW221042   6.336   1.179   6.019
 6715SOL     OW21043   6.644   6.776   6.237
 6715SOL    HW121044   6.699   6.810   6.313
 6715SOL    HW221045   6.564   6.728   6.272
 6716SOL     OW21046   0.360   6.414   1.669
 6716SOL    HW121047   0.340   6.417   1.767
 6716SOL    HW221048   0.456   6.439   1.654
 6717SOL     OW21049   4.278   2.633   6.660
 6717SOL    HW121050   4.342   2.587   6.721
 6717SOL    HW221051   4.190   2.585   6.663
 6718SOL     OW21052   4.897   0.254   6.315
 6718SOL    HW121053   4.837   0.322   6.356
 6718SOL    HW221054   4.916   0.278   6.220
 6719SOL     OW21055   1.823   0.109   6.815
 6719SOL    HW121056   1.798   0.153   6.728
 6719SOL    HW221057   1.898   0.044   6.799
 6720SOL     OW21058   0.879   6.060   3.466
 6720SOL    HW121059   0.783   6.086   3.451
 6720SOL    HW221060   0.938   6.134   3.433
 6721SOL     OW21061   6.717   0.236   6.183
 6721SOL    HW121062   6.735   0.328   6.149
 6721SOL    HW221063   6.622   0.211   6.166
 6722SOL     OW21064   6.877   3.548   1.362
 6722SOL    HW121065   6.802   3.593   1.314
 6722SOL    HW221066   6.934   3.617   1.407
 6723SOL     OW21067   2.242   6.912   3.227
 6723SOL    HW121068   2.340   6.931   3.220
 6723SOL    HW221069   2.193   6.996   3.249
 6724SOL     OW21070   1.164   3.700   5.873
 6724SOL    HW121071   1.149   3.602   5.885
 6724SOL    HW221072   1.246   3.728   5.923
 6725SOL     OW21073   1.151   3.952   1.208
 6725SOL    HW121074   1.106   3.880   1.261
 6725SOL    HW221075   1.164   3.919   1.114
 6726SOL     OW21076   0.677   1.645   5.338
 6726SOL    HW121077   0.772   1.671   5.320
 6726SOL    HW221078   0.652   1.671   5.431
 6727SOL     OW21079   6.202   3.850   5.828
 6727SOL    HW121080   6.231   3.939   5.861
 6727SOL    HW221081   6.273   3.782   5.849
 6728SOL     OW21082   4.362   1.675   3.429
 6728SOL    HW121083   4.354   1.628   3.517
 6728SOL    HW221084   4.401   1.613   3.361
 6729SOL     OW21085   0.263   1.736   2.538
 6729SOL    HW121086   0.227   1.647   2.510
 6729SOL    HW221087   0.315   1.725   2.623
 6730SOL     OW21088   2.843   6.399   6.501
 6730SOL    HW121089   2.898   6.457   6.561
 6730SOL    HW221090   2.752   6.388   6.541
 6731SOL     OW21091   1.001   5.892   1.118
 6731SOL    HW121092   0.959   5.982   1.126
 6731SOL    HW221093   1.058   5.873   1.198
 6732SOL     OW21094   5.150   4.870   6.003
 6732SOL    HW121095   5.092   4.788   6.008
 6732SOL    HW221096   5.237   4.847   5.961
 6733SOL     OW21097   3.983   4.303   0.376
 6733SOL    HW121098   4.033   4.313   0.290
 6733SOL    HW221099   4.023   4.363   0.445
 6734SOL     OW21100   6.419   2.150   4.861
 6734SOL    HW121101   6.428   2.053   4.843
 6734SOL    HW221102   6.490   2.180   4.925
 6735SOL     OW21103   6.878   4.823   4.732
 6735SOL    HW121104   6.954   4.773   4.772
 6735SOL    HW221105   6.792   4.778   4.756
 6736SOL     OW21106   3.251   3.952   6.602
 6736SOL    HW121107   3.322   4.004   6.650
 6736SOL    HW221108   3.201   3.895   6.668
 6737SOL     OW21109   2.148   2.665   0.582
 6737SOL    HW121110   2.083   2.595   0.551
 6737SOL    HW221111   2.135   2.749   0.529
 6738SOL     OW21112   1.735   4.414   2.596
 6738SOL    HW121113   1.784   4.449   2.676
 6738SOL    HW221114   1.640   4.395   2.622
 6739SOL     OW21115   3.740   4.850   5.835
 6739SOL    HW121116   3.738   4.771   5.773
 6739SOL    HW221117   3.826   4.899   5.823
 6740SOL     OW21118   1.610   1.411   4.097
 6740SOL    HW121119   1.545   1.487   4.103
 6740SOL    HW221120   1.697   1.439   4.137
 6741SOL     OW21121   4.353   1.135   5.661
 6741SOL    HW121122   4.369   1.057   5.600
 6741SOL    HW221123   4.306   1.103   5.743
 6742SOL     OW21124   6.459   5.978   3.051
 6742SOL    HW121125   6.514   6.047   3.098
 6742SOL    HW221126   6.382   6.022   3.005
 6743SOL     OW21127   4.417   4.383   0.290
 6743SOL    HW121128   4.405   4.399   0.388
 6743SOL    HW221129   4.486   4.446   0.254
 6744SOL     OW21130   5.065   5.907   6.112
 6744SOL    HW121131   5.116   5.851   6.046
 6744SOL    HW221132   5.044   5.996   6.071
 6745SOL     OW21133   0.505   0.095   2.640
 6745SOL    HW121134   0.439   0.038   2.687
 6745SOL    HW221135   0.566   0.038   2.585
 6746SOL     OW21136   1.082   1.161   2.991
 6746SOL    HW121137   1.041   1.169   2.900
 6746SOL    HW221138   1.011   1.173   3.060
 6747SOL     OW21139   5.545   0.779   5.097
 6747SOL    HW121140   5.557   0.838   5.178
 6747SOL    HW221141   5.504   0.832   5.023
 6748SOL     OW21142   1.175   0.428   3.344
 6748SOL    HW121143   1.246   0.460   3.281
 6748SOL    HW221144   1.119   0.359   3.299
 6749SOL     OW21145   2.890   5.896   0.325
 6749SOL    HW121146   2.854   5.809   0.291
 6749SOL    HW221147   2.895   5.962   0.250
 6750SOL     OW21148   4.277   1.698   5.203
 6750SOL    HW121149   4.199   1.753   5.172
 6750SOL    HW221150   4.360   1.754   5.199
 6751SOL     OW21151   4.258   1.138   3.699
 6751SOL    HW121152   4.203   1.183   3.770
 6751SOL    HW221153   4.343   1.105   3.739
 6752SOL     OW21154   0.542   3.097   2.694
 6752SOL    HW121155   0.536   2.998   2.708
 6752SOL    HW221156   0.506   3.121   2.604
 6753SOL     OW21157   4.428   0.913   6.292
 6753SOL    HW121158   4.436   0.988   6.226
 6753SOL    HW221159   4.377   0.946   6.372
 6754SOL     OW21160   6.666   1.627   0.211
 6754SOL    HW121161   6.623   1.713   0.241
 6754SOL    HW221162   6.712   1.641   0.123
 6755SOL     OW21163   4.624   1.125   3.238
 6755SOL    HW121164   4.716   1.157   3.214
 6755SOL    HW221165   4.585   1.185   3.307
 6756SOL     OW21166   4.105   4.861   4.889
 6756SOL    HW121167   4.036   4.874   4.959
 6756SOL    HW221168   4.064   4.818   4.809
 6757SOL     OW21169   4.363   0.241   1.326
 6757SOL    HW121170   4.308   0.209   1.404
 6757SOL    HW221171   4.389   0.336   1.340
 6758SOL     OW21172   6.895   2.884   0.854
 6758SOL    HW121173   6.935   2.794   0.836
 6758SOL    HW221174   6.916   2.911   0.948
 6759SOL     OW21175   1.026   4.344   4.650
 6759SOL    HW121176   0.962   4.286   4.599
 6759SOL    HW221177   0.975   4.398   4.717
 6760SOL     OW21178   6.725   4.907   3.902
 6760SOL    HW121179   6.631   4.894   3.934
 6760SOL    HW221180   6.787   4.849   3.954
 6761SOL     OW21181   5.896   2.419   6.372
 6761SOL    HW121182   5.805   2.451   6.348
 6761SOL    HW221183   5.926   2.462   6.457
 6762SOL     OW21184   6.958   5.644   3.364
 6762SOL    HW121185   6.887   5.579   3.334
 6762SOL    HW221186   6.936   5.735   3.331
 6763SOL     OW21187   0.142   5.021   3.657
 6763SOL    HW121188   0.054   5.066   3.674
 6763SOL    HW221189   0.206   5.088   3.620
 6764SOL     OW21190   2.750   4.919   6.580
 6764SOL    HW121191   2.850   4.914   6.578
 6764SOL    HW221192   2.722   5.004   6.624
 6765SOL     OW21193   4.974   5.098   4.155
 6765SOL    HW121194   4.964   5.003   4.184
 6765SOL    HW221195   4.886   5.144   4.160
 6766SOL     OW21196   4.204   6.364   6.535
 6766SOL    HW121197   4.179   6.418   6.616
 6766SOL    HW221198   4.233   6.425   6.462
 6767SOL     OW21199   0.812   2.239   0.445
 6767SOL    HW121200   0.879   2.166   0.460
 6767SOL    HW221201   0.829   2.314   0.508
 6768SOL     OW21202   6.878   6.499   3.523
 6768SOL    HW121203   6.809   6.530   3.588
 6768SOL    HW221204   6.891   6.401   3.532
 6769SOL     OW21205   2.935   0.481   5.467
 6769SOL    HW121206   2.845   0.461   5.428
 6769SOL    HW221207   2.934   0.462   5.565
 6770SOL     OW21208   6.602   1.790   3.098
 6770SOL    HW121209   6.522   1.845   3.121
 6770SOL    HW221210   6.677   1.851   3.070
 6771SOL     OW21211   3.443   0.975   2.865
 6771SOL    HW121212   3.436   0.875   2.867
 6771SOL    HW221213   3.536   1.001   2.839
 6772SOL     OW21214   5.176   2.383   2.524
 6772SOL    HW121215   5.264   2.413   2.560
 6772SOL    HW221216   5.106   2.393   2.594
 6773SOL     OW21217   6.803   6.688   1.589
 6773SOL    HW121218   6.894   6.649   1.573
 6773SOL    HW221219   6.753   6.692   1.502
 6774SOL     OW21220   2.175   2.445   4.582
 6774SOL    HW121221   2.262   2.468   4.539
 6774SOL    HW221222   2.191   2.416   4.676
 6775SOL     OW21223   0.514   2.039   3.700
 6775SOL    HW121224   0.592   2.082   3.746
 6775SOL    HW221225   0.436   2.101   3.702
 6776SOL     OW21226   3.964   3.385   1.360
 6776SOL    HW121227   3.903   3.333   1.300
 6776SOL    HW221228   4.023   3.323   1.411
 6777SOL     OW21229   4.360   5.812   0.749
 6777SOL    HW121230   4.373   5.911   0.758
 6777SOL    HW221231   4.292   5.793   0.679
 6778SOL     OW21232   6.441   3.718   2.528
 6778SOL    HW121233   6.387   3.786   2.480
 6778SOL    HW221234   6.538   3.740   2.520
 6779SOL     OW21235   5.551   4.861   6.801
 6779SOL    HW121236   5.523   4.930   6.734
 6779SOL    HW221237   5.568   4.906   6.889
 6780SOL     OW21238   1.409   3.579   2.567
 6780SOL    HW121239   1.444   3.634   2.643
 6780SOL    HW221240   1.387   3.487   2.600
 6781SOL     OW21241   6.665   2.078   3.857
 6781SOL    HW121242   6.694   2.163   3.902
 6781SOL    HW221243   6.566   2.075   3.851
 6782SOL     OW21244   0.625   1.167   3.285
 6782SOL    HW121245   0.596   1.071   3.289
 6782SOL    HW221246   0.557   1.220   3.235
 6783SOL     OW21247   0.786   3.752   5.399
 6783SOL    HW121248   0.772   3.734   5.496
 6783SOL    HW221249   0.780   3.667   5.347
 6784SOL     OW21250   2.081   4.163   1.507
 6784SOL    HW121251   2.072   4.146   1.605
 6784SOL    HW221252   2.116   4.081   1.462
 6785SOL     OW21253   5.670   5.070   5.899
 6785SOL    HW121254   5.612   5.151   5.896
 6785SOL    HW221255   5.731   5.070   5.820
 6786SOL     OW21256   0.124   3.221   6.349
 6786SOL    HW121257   0.060   3.147   6.328
 6786SOL    HW221258   0.106   3.256   6.440
 6787SOL     OW21259   3.331   2.047   1.448
 6787SOL    HW121260   3.254   2.110   1.455
 6787SOL    HW221261   3.325   1.978   1.520
 6788SOL     OW21262   0.459   4.020   2.422
 6788SOL    HW121263   0.424   3.984   2.508
 6788SOL    HW221264   0.493   4.113   2.436
 6789SOL     OW21265   0.151   4.782   4.144
 6789SOL    HW121266   0.137   4.831   4.231
 6789SOL    HW221267   0.236   4.813   4.102
 6790SOL     OW21268   0.357   4.233   6.627
 6790SOL    HW121269   0.347   4.315   6.682
 6790SOL    HW221270   0.275   4.220   6.571
 6791SOL     OW21271   4.316   2.096   2.873
 6791SOL    HW121272   4.341   2.042   2.793
 6791SOL    HW221273   4.251   2.043   2.929
 6792SOL     OW21274   4.573   0.189   4.981
 6792SOL    HW121275   4.589   0.286   4.964
 6792SOL    HW221276   4.518   0.179   5.064
 6793SOL     OW21277   2.986   1.557   6.807
 6793SOL    HW121278   3.049   1.572   6.731
 6793SOL    HW221279   2.908   1.619   6.799
 6794SOL     OW21280   4.505   1.099   5.366
 6794SOL    HW121281   4.483   1.017   5.419
 6794SOL    HW221282   4.604   1.113   5.366
 6795SOL     OW21283   0.914   0.104   0.343
 6795SOL    HW121284   0.827   0.149   0.325
 6795SOL    HW221285   0.986   0.146   0.287
 6796SOL     OW21286   5.819   0.262   2.697
 6796SOL    HW121287   5.839   0.301   2.786
 6796SOL    HW221288   5.798   0.165   2.707
 6797SOL     OW21289   6.341   1.502   0.293
 6797SOL    HW121290   6.402   1.473   0.366
 6797SOL    HW221291   6.248   1.511   0.329
 6798SOL     OW21292   6.310   0.651   0.930
 6798SOL    HW121293   6.360   0.585   0.873
 6798SOL    HW221294   6.375   0.713   0.974
 6799SOL     OW21295   5.391   0.123   2.405
 6799SOL    HW121296   5.397   0.024   2.417
 6799SOL    HW221297   5.480   0.165   2.424
 6800SOL     OW21298   2.339   2.142   1.762
 6800SOL    HW121299   2.340   2.177   1.855
 6800SOL    HW221300   2.375   2.211   1.699
 6801SOL     OW21301   0.559   6.475   3.748
 6801SOL    HW121302   0.555   6.516   3.839
 6801SOL    HW221303   0.479   6.504   3.694
 6802SOL     OW21304   3.624   5.452   0.835
 6802SOL    HW121305   3.662   5.544   0.826
 6802SOL    HW221306   3.639   5.401   0.750
 6803SOL     OW21307   4.333   3.644   6.965
 6803SOL    HW121308   4.257   3.708   6.976
 6803SOL    HW221309   4.420   3.694   6.969
 6804SOL     OW21310   3.255   5.116   2.475
 6804SOL    HW121311   3.320   5.106   2.550
 6804SOL    HW221312   3.289   5.067   2.395
 6805SOL     OW21313   0.860   5.152   6.950
 6805SOL    HW121314   0.882   5.113   6.861
 6805SOL    HW221315   0.936   5.208   6.982
 6806SOL     OW21316   0.096   0.445   3.970
 6806SOL    HW121317   0.138   0.525   3.928
 6806SOL    HW221318   0.077   0.464   4.066
 6807SOL     OW21319   3.673   4.118   3.443
 6807SOL    HW121320   3.687   4.105   3.541
 6807SOL    HW221321   3.591   4.172   3.427
 6808SOL     OW21322   5.778   0.987   4.906
 6808SOL    HW121323   5.845   0.927   4.950
 6808SOL    HW221324   5.825   1.065   4.866
 6809SOL     OW21325   5.910   3.809   0.403
 6809SOL    HW121326   5.893   3.896   0.449
 6809SOL    HW221327   5.823   3.771   0.372
 6810SOL     OW21328   3.254   0.746   3.037
 6810SOL    HW121329   3.293   0.744   2.945
 6810SOL    HW221330   3.186   0.819   3.043
 6811SOL     OW21331   6.886   3.246   2.254
 6811SOL    HW121332   6.840   3.276   2.337
 6811SOL    HW221333   6.849   3.158   2.225
 6812SOL     OW21334   3.478   4.039   4.874
 6812SOL    HW121335   3.438   4.073   4.960
 6812SOL    HW221336   3.570   4.005   4.891
 6813SOL     OW21337   5.629   3.394   2.279
 6813SOL    HW121338   5.692   3.425   2.349
 6813SOL    HW221339   5.678   3.339   2.212
 6814SOL     OW21340   4.782   1.866   6.696
 6814SOL    HW121341   4.722   1.813   6.636
 6814SOL    HW221342   4.835   1.804   6.753
 6815SOL     OW21343   1.994   5.773   6.754
 6815SOL    HW121344   2.001   5.812   6.846
 6815SOL    HW221345   1.902   5.736   6.740
 6816SOL     OW21346   6.972   1.769   5.010
 6816SOL    HW121347   6.983   1.791   4.913
 6816SOL    HW221348   0.016   1.699   5.036
 6817SOL     OW21349   2.113   2.799   3.811
 6817SOL    HW121350   2.133   2.893   3.784
 6817SOL    HW221351   2.125   2.739   3.732
 6818SOL     OW21352   2.231   6.417   0.265
 6818SOL    HW121353   2.255   6.343   0.202
 6818SOL    HW221354   2.176   6.485   0.217
 6819SOL     OW21355   4.419   1.024   2.672
 6819SOL    HW121356   4.442   0.958   2.744
 6819SOL    HW221357   4.331   0.998   2.631
 6820SOL     OW21358   1.281   5.742   1.798
 6820SOL    HW121359   1.363   5.734   1.854
 6820SOL    HW221360   1.200   5.727   1.854
 6821SOL     OW21361   4.828   2.901   5.361
 6821SOL    HW121362   4.925   2.901   5.382
 6821SOL    HW221363   4.782   2.827   5.411
 6822SOL     OW21364   6.542   2.815   6.476
 6822SOL    HW121365   6.533   2.910   6.504
 6822SOL    HW221366   6.604   2.809   6.397
 6823SOL     OW21367   5.586   4.328   0.084
 6823SOL    HW121368   5.568   4.233   0.058
 6823SOL    HW221369   5.646   4.329   0.165
 6824SOL     OW21370   1.686   1.522   0.431
 6824SOL    HW121371   1.740   1.467   0.367
 6824SOL    HW221372   1.707   1.495   0.525
 6825SOL     OW21373   6.133   0.039   0.300
 6825SOL    HW121374   6.162   0.110   0.365
 6825SOL    HW221375   6.035   0.047   0.283
 6826SOL     OW21376   0.854   3.718   3.985
 6826SOL    HW121377   0.786   3.646   3.981
 6826SOL    HW221378   0.841   3.781   3.909
 6827SOL     OW21379   5.219   5.705   5.950
 6827SOL    HW121380   5.166   5.640   5.897
 6827SOL    HW221381   5.271   5.656   6.021
 6828SOL     OW21382   4.102   1.336   2.501
 6828SOL    HW121383   4.068   1.267   2.437
 6828SOL    HW221384   4.038   1.344   2.578
 6829SOL     OW21385   5.157   6.559   5.620
 6829SOL    HW121386   5.173   6.595   5.712
 6829SOL    HW221387   5.237   6.577   5.563
 6830SOL     OW21388   5.970   1.165   3.466
 6830SOL    HW121389   5.985   1.220   3.384
 6830SOL    HW221390   5.910   1.088   3.443
 6831SOL     OW21391   1.522   0.803   5.603
 6831SOL    HW121392   1.602   0.825   5.660
 6831SOL    HW221393   1.443   0.853   5.637
 6832SOL     OW21394   2.273   3.901   0.614
 6832SOL    HW121395   2.183   3.862   0.637
 6832SOL    HW221396   2.265   3.954   0.530
 6833SOL     OW21397   2.790   5.148   6.141
 6833SOL    HW121398   2.717   5.093   6.181
 6833SOL    HW221399   2.873   5.138   6.196
 6834SOL     OW21400   5.066   0.279   1.127
 6834SOL    HW121401   5.115   0.360   1.160
 6834SOL    HW221402   4.968   0.296   1.127
 6835SOL     OW21403   3.717   1.477   4.865
 6835SOL    HW121404   3.767   1.454   4.781
 6835SOL    HW221405   3.698   1.393   4.916
 6836SOL     OW21406   2.315   4.318   6.059
 6836SOL    HW121407   2.267   4.304   6.146
 6836SOL    HW221408   2.381   4.392   6.069
 6837SOL     OW21409   0.750   1.301   2.912
 6837SOL    HW121410   0.820   1.328   2.845
 6837SOL    HW221411   0.794   1.256   2.990
 6838SOL     OW21412   2.191   4.156   5.686
 6838SOL    HW121413   2.259   4.195   5.624
 6838SOL    HW221414   2.146   4.078   5.643
 6839SOL     OW21415   5.564   1.843   3.884
 6839SOL    HW121416   5.511   1.805   3.807
 6839SOL    HW221417   5.540   1.939   3.896
 6840SOL     OW21418   2.922   6.156   5.480
 6840SOL    HW121419   2.955   6.096   5.553
 6840SOL    HW221420   2.841   6.114   5.438
 6841SOL     OW21421   4.064   4.680   0.987
 6841SOL    HW121422   4.020   4.762   1.023
 6841SOL    HW221423   4.059   4.607   1.056
 6842SOL     OW21424   2.229   2.588   6.789
 6842SOL    HW121425   2.146   2.541   6.761
 6842SOL    HW221426   2.206   2.657   6.859
 6843SOL     OW21427   5.416   1.134   2.025
 6843SOL    HW121428   5.412   1.232   2.041
 6843SOL    HW221429   5.431   1.087   2.112
 6844SOL     OW21430   5.884   6.130   4.301
 6844SOL    HW121431   5.788   6.103   4.286
 6844SOL    HW221432   5.887   6.206   4.365
 6845SOL     OW21433   5.285   4.603   2.481
 6845SOL    HW121434   5.314   4.613   2.576
 6845SOL    HW221435   5.223   4.677   2.457
 6846SOL     OW21436   4.360   3.361   1.402
 6846SOL    HW121437   4.392   3.392   1.312
 6846SOL    HW221438   4.402   3.272   1.423
 6847SOL     OW21439   6.559   3.674   1.710
 6847SOL    HW121440   6.476   3.658   1.658
 6847SOL    HW221441   6.542   3.745   1.779
 6848SOL     OW21442   2.714   6.478   3.272
 6848SOL    HW121443   2.795   6.526   3.240
 6848SOL    HW221444   2.718   6.382   3.243
 6849SOL     OW21445   2.700   5.564   4.685
 6849SOL    HW121446   2.754   5.538   4.605
 6849SOL    HW221447   2.661   5.654   4.672
 6850SOL     OW21448   5.397   3.208   2.402
 6850SOL    HW121449   5.327   3.278   2.395
 6850SOL    HW221450   5.488   3.251   2.400
 6851SOL     OW21451   1.375   3.027   4.308
 6851SOL    HW121452   1.414   2.949   4.358
 6851SOL    HW221453   1.363   3.103   4.371
 6852SOL     OW21454   0.985   4.434   1.042
 6852SOL    HW121455   1.018   4.342   1.063
 6852SOL    HW221456   0.947   4.434   0.949
 6853SOL     OW21457   6.655   3.367   6.704
 6853SOL    HW121458   6.721   3.442   6.701
 6853SOL    HW221459   6.614   3.361   6.795
 6854SOL     OW21460   5.615   1.452   5.789
 6854SOL    HW121461   5.639   1.370   5.738
 6854SOL    HW221462   5.520   1.478   5.769
 6855SOL     OW21463   3.721   5.839   2.472
 6855SOL    HW121464   3.815   5.810   2.457
 6855SOL    HW221465   3.719   5.936   2.496
 6856SOL     OW21466   4.794   4.518   5.411
 6856SOL    HW121467   4.819   4.531   5.507
 6856SOL    HW221468   4.842   4.438   5.375
 6857SOL     OW21469   3.775   1.740   6.846
 6857SOL    HW121470   3.799   1.652   6.804
 6857SOL    HW221471   3.701   1.726   6.911
 6858SOL     OW21472   4.065   3.838   4.642
 6858SOL    HW121473   4.089   3.753   4.594
 6858SOL    HW221474   4.133   3.858   4.712
 6859SOL     OW21475   1.595   6.643   1.369
 6859SOL    HW121476   1.510   6.680   1.406
 6859SOL    HW221477   1.660   6.717   1.352
 6860SOL     OW21478   5.404   5.568   1.860
 6860SOL    HW121479   5.352   5.612   1.934
 6860SOL    HW221480   5.440   5.638   1.799
 6861SOL     OW21481   5.805   4.420   1.432
 6861SOL    HW121482   5.771   4.327   1.419
 6861SOL    HW221483   5.860   4.447   1.353
 6862SOL     OW21484   2.273   4.436   4.195
 6862SOL    HW121485   2.276   4.349   4.244
 6862SOL    HW221486   2.296   4.510   4.258
 6863SOL     OW21487   5.492   1.601   4.359
 6863SOL    HW121488   5.464   1.544   4.436
 6863SOL    HW221489   5.591   1.616   4.363
 6864SOL     OW21490   3.498   6.039   3.825
 6864SOL    HW121491   3.561   5.966   3.800
 6864SOL    HW221492   3.408   6.001   3.842
 6865SOL     OW21493   6.215   5.631   2.576
 6865SOL    HW121494   6.299   5.622   2.628
 6865SOL    HW221495   6.219   5.572   2.495
 6866SOL     OW21496   6.403   4.501   2.249
 6866SOL    HW121497   6.427   4.440   2.323
 6866SOL    HW221498   6.340   4.455   2.186
 6867SOL     OW21499   1.548   4.683   1.197
 6867SOL    HW121500   1.554   4.646   1.290
 6867SOL    HW221501   1.455   4.673   1.163
 6868SOL     OW21502   2.062   5.334   5.287
 6868SOL    HW121503   2.061   5.237   5.262
 6868SOL    HW221504   2.157   5.365   5.295
 6869SOL     OW21505   5.843   2.137   5.306
 6869SOL    HW121506   5.909   2.188   5.252
 6869SOL    HW221507   5.793   2.073   5.246
 6870SOL     OW21508   6.854   4.270   2.444
 6870SOL    HW121509   6.945   4.312   2.446
 6870SOL    HW221510   6.787   4.332   2.486
 6871SOL     OW21511   6.091   5.218   2.392
 6871SOL    HW121512   6.158   5.150   2.363
 6871SOL    HW221513   6.061   5.198   2.485
 6872SOL     OW21514   1.306   3.525   0.666
 6872SOL    HW121515   1.367   3.497   0.592
 6872SOL    HW221516   1.353   3.592   0.724
 6873SOL     OW21517   6.039   3.567   5.183
 6873SOL    HW121518   5.964   3.536   5.242
 6873SOL    HW221519   6.001   3.610   5.101
 6874SOL     OW21520   0.790   4.814   2.765
 6874SOL    HW121521   0.812   4.717   2.762
 6874SOL    HW221522   0.691   4.826   2.772
 6875SOL     OW21523   1.492   3.018   3.719
 6875SOL    HW121524   1.576   3.071   3.734
 6875SOL    HW221525   1.481   3.000   3.622
 6876SOL     OW21526   3.882   5.404   5.357
 6876SOL    HW121527   3.912   5.418   5.262
 6876SOL    HW221528   3.841   5.314   5.366
 6877SOL     OW21529   2.517   4.020   5.977
 6877SOL    HW121530   2.579   4.054   6.048
 6877SOL    HW221531   2.429   4.067   5.984
 6878SOL     OW21532   2.691   2.381   5.214
 6878SOL    HW121533   2.644   2.353   5.298
 6878SOL    HW221534   2.731   2.301   5.170
 6879SOL     OW21535   1.054   2.024   6.925
 6879SOL    HW121536   1.140   2.056   6.886
 6879SOL    HW221537   1.065   1.929   6.954
 6880SOL     OW21538   2.156   3.395   4.908
 6880SOL    HW121539   2.158   3.453   4.826
 6880SOL    HW221540   2.219   3.432   4.976
 6881SOL     OW21541   0.175   3.621   1.967
 6881SOL    HW121542   0.205   3.590   2.058
 6881SOL    HW221543   0.238   3.689   1.932
 6882SOL     OW21544   3.245   0.373   5.860
 6882SOL    HW121545   3.212   0.292   5.812
 6882SOL    HW221546   3.176   0.445   5.855
 6883SOL     OW21547   3.668   1.473   0.733
 6883SOL    HW121548   3.737   1.481   0.661
 6883SOL    HW221549   3.577   1.488   0.693
 6884SOL     OW21550   1.842   3.731   4.402
 6884SOL    HW121551   1.758   3.689   4.370
 6884SOL    HW221552   1.833   3.831   4.398
 6885SOL     OW21553   3.948   5.509   5.106
 6885SOL    HW121554   3.928   5.600   5.141
 6885SOL    HW221555   4.045   5.504   5.082
 6886SOL     OW21556   0.055   0.712   3.352
 6886SOL    HW121557   0.036   0.712   3.450
 6886SOL    HW221558   7.006   0.761   3.305
 6887SOL     OW21559   5.168   0.107   5.714
 6887SOL    HW121560   5.132   0.029   5.664
 6887SOL    HW221561   5.120   0.190   5.686
 6888SOL     OW21562   5.099   6.612   6.737
 6888SOL    HW121563   5.180   6.553   6.739
 6888SOL    HW221564   5.044   6.589   6.657
 6889SOL     OW21565   1.422   2.252   5.658
 6889SOL    HW121566   1.380   2.184   5.597
 6889SOL    HW221567   1.496   2.208   5.710
 6890SOL     OW21568   3.601   6.288   1.728
 6890SOL    HW121569   3.521   6.301   1.670
 6890SOL    HW221570   3.624   6.191   1.732
 6891SOL     OW21571   2.204   3.965   4.239
 6891SOL    HW121572   2.275   3.897   4.219
 6891SOL    HW221573   2.160   3.942   4.326
 6892SOL     OW21574   3.331   0.818   3.563
 6892SOL    HW121575   3.384   0.891   3.606
 6892SOL    HW221576   3.234   0.830   3.585
 6893SOL     OW21577   5.480   5.598   0.912
 6893SOL    HW121578   5.445   5.685   0.948
 6893SOL    HW221579   5.473   5.598   0.812
 6894SOL     OW21580   6.364   5.599   6.814
 6894SOL    HW121581   6.310   5.576   6.894
 6894SOL    HW221582   6.407   5.688   6.826
 6895SOL     OW21583   3.020   5.246   6.490
 6895SOL    HW121584   2.930   5.230   6.450
 6895SOL    HW221585   3.073   5.307   6.430
 6896SOL     OW21586   2.071   6.837   4.214
 6896SOL    HW121587   1.989   6.893   4.204
 6896SOL    HW221588   2.141   6.888   4.264
 6897SOL     OW21589   2.041   3.621   0.136
 6897SOL    HW121590   1.962   3.619   0.075
 6897SOL    HW221591   2.102   3.545   0.115
 6898SOL     OW21592   3.853   1.589   2.337
 6898SOL    HW121593   3.776   1.653   2.334
 6898SOL    HW221594   3.875   1.559   2.244
 6899SOL     OW21595   5.004   0.006   1.095
 6899SOL    HW121596   5.041   0.095   1.121
 6899SOL    HW221597   4.927   0.019   1.033
 6900SOL     OW21598   6.330   0.952   5.860
 6900SOL    HW121599   6.248   0.954   5.917
 6900SOL    HW221600   6.393   0.883   5.896
 6901SOL     OW21601   1.075   0.134   5.984
 6901SOL    HW121602   1.027   0.176   5.907
 6901SOL    HW221603   1.016   0.135   6.064
 6902SOL     OW21604   6.757   6.605   0.625
 6902SOL    HW121605   6.695   6.596   0.547
 6902SOL    HW221606   6.850   6.580   0.598
 6903SOL     OW21607   4.450   5.021   5.261
 6903SOL    HW121608   4.534   5.067   5.290
 6903SOL    HW221609   4.379   5.090   5.244
 6904SOL     OW21610   5.893   1.964   4.139
 6904SOL    HW121611   5.893   2.063   4.150
 6904SOL    HW221612   5.988   1.931   4.140
 6905SOL     OW21613   5.870   0.081   0.223
 6905SOL    HW121614   5.850   0.148   0.151
 6905SOL    HW221615   5.872   0.126   0.312
 6906SOL     OW21616   4.200   0.716   3.698
 6906SOL    HW121617   4.217   0.656   3.621
 6906SOL    HW221618   4.173   0.807   3.664
 6907SOL     OW21619   4.705   1.310   1.334
 6907SOL    HW121620   4.761   1.320   1.251
 6907SOL    HW221621   4.675   1.215   1.343
 6908SOL     OW21622   1.125   6.925   5.678
 6908SOL    HW121623   1.034   6.944   5.714
 6908SOL    HW221624   1.121   6.923   5.578
 6909SOL     OW21625   5.602   4.588   1.548
 6909SOL    HW121626   5.612   4.490   1.529
 6909SOL    HW221627   5.678   4.619   1.605
 6910SOL     OW21628   6.732   2.630   3.393
 6910SOL    HW121629   6.813   2.618   3.336
 6910SOL    HW221630   6.696   2.541   3.420
 6911SOL     OW21631   3.966   6.930   3.442
 6911SOL    HW121632   3.924   7.009   3.486
 6911SOL    HW221633   4.058   6.917   3.479
 6912SOL     OW21634   4.602   5.091   0.550
 6912SOL    HW121635   4.565   5.067   0.640
 6912SOL    HW221636   4.612   5.009   0.495
 6913SOL     OW21637   5.433   4.825   5.978
 6913SOL    HW121638   5.490   4.901   6.007
 6913SOL    HW221639   5.445   4.748   6.040
 6914SOL     OW21640   6.098   5.113   0.125
 6914SOL    HW121641   6.170   5.147   0.065
 6914SOL    HW221642   6.066   5.024   0.092
 6915SOL     OW21643   6.403   4.772   1.873
 6915SOL    HW121644   6.409   4.758   1.774
 6915SOL    HW221645   6.490   4.747   1.915
 6916SOL     OW21646   6.114   3.643   0.398
 6916SOL    HW121647   6.098   3.590   0.314
 6916SOL    HW221648   6.048   3.717   0.404
 6917SOL     OW21649   3.557   5.823   0.283
 6917SOL    HW121650   3.548   5.806   0.381
 6917SOL    HW221651   3.471   5.862   0.248
 6918SOL     OW21652   1.099   3.042   4.515
 6918SOL    HW121653   1.065   3.029   4.422
 6918SOL    HW221654   1.181   3.099   4.512
 6919SOL     OW21655   0.707   6.270   3.144
 6919SOL    HW121656   0.768   6.297   3.218
 6919SOL    HW221657   0.724   6.329   3.064
 6920SOL     OW21658   4.322   5.856   6.038
 6920SOL    HW121659   4.243   5.877   6.095
 6920SOL    HW221660   4.323   5.758   6.017
 6921SOL     OW21661   4.709   5.558   3.102
 6921SOL    HW121662   4.663   5.483   3.150
 6921SOL    HW221663   4.804   5.565   3.133
 6922SOL     OW21664   2.526   5.309   6.615
 6922SOL    HW121665   2.461   5.237   6.591
 6922SOL    HW221666   2.485   5.398   6.593
 6923SOL     OW21667   5.089   5.872   4.129
 6923SOL    HW121668   5.168   5.817   4.104
 6923SOL    HW221669   5.052   5.840   4.216
 6924SOL     OW21670   1.201   4.268   0.010
 6924SOL    HW121671   1.204   4.351   0.066
 6924SOL    HW221672   1.130   4.207   0.045
 6925SOL     OW21673   3.883   5.912   4.765
 6925SOL    HW121674   3.983   5.907   4.770
 6925SOL    HW221675   3.856   6.000   4.727
 6926SOL     OW21676   3.008   3.093   2.521
 6926SOL    HW121677   2.937   3.112   2.589
 6926SOL    HW221678   2.977   3.123   2.431
 6927SOL     OW21679   5.106   3.665   5.922
 6927SOL    HW121680   5.041   3.732   5.885
 6927SOL    HW221681   5.178   3.712   5.972
 6928SOL     OW21682   6.678   6.569   0.891
 6928SOL    HW121683   6.688   6.574   0.792
 6928SOL    HW221684   6.716   6.483   0.925
 6929SOL     OW21685   4.937   5.362   1.384
 6929SOL    HW121686   4.878   5.433   1.423
 6929SOL    HW221687   5.019   5.353   1.440
 6930SOL     OW21688   0.068   0.202   1.687
 6930SOL    HW121689   7.016   0.220   1.750
 6930SOL    HW221690   0.151   0.247   1.721
 6931SOL     OW21691   1.645   0.672   2.330
 6931SOL    HW121692   1.582   0.744   2.303
 6931SOL    HW221693   1.723   0.711   2.378
 6932SOL     OW21694   4.056   0.519   1.196
 6932SOL    HW121695   4.060   0.441   1.133
 6932SOL    HW221696   4.128   0.585   1.173
 6933SOL     OW21697   3.544   5.988   5.049
 6933SOL    HW121698   3.453   6.000   5.010
 6933SOL    HW221699   3.558   5.892   5.071
 6934SOL     OW21700   5.018   4.383   6.088
 6934SOL    HW121701   4.927   4.340   6.080
 6934SOL    HW221702   5.077   4.325   6.144
 6935SOL     OW21703   4.385   6.456   3.713
 6935SOL    HW121704   4.424   6.464   3.804
 6935SOL    HW221705   4.289   6.485   3.715
 6936SOL     OW21706   6.830   3.135   2.623
 6936SOL    HW121707   6.860   3.040   2.629
 6936SOL    HW221708   6.902   3.195   2.659
 6937SOL     OW21709   6.484   6.152   6.913
 6937SOL    HW121710   6.570   6.195   6.888
 6937SOL    HW221711   6.410   6.219   6.910
 6938SOL     OW21712   4.815   3.784   5.313
 6938SOL    HW121713   4.772   3.703   5.274
 6938SOL    HW221714   4.896   3.808   5.259
 6939SOL     OW21715   0.252   4.591   0.899
 6939SOL    HW121716   0.297   4.554   0.981
 6939SOL    HW221717   0.214   4.516   0.845
 6940SOL     OW21718   5.149   1.233   0.264
 6940SOL    HW121719   5.099   1.265   0.184
 6940SOL    HW221720   5.226   1.176   0.236
 6941SOL     OW21721   3.697   2.993   3.110
 6941SOL    HW121722   3.598   2.977   3.116
 6941SOL    HW221723   3.729   2.966   3.019
 6942SOL     OW21724   6.316   2.626   0.558
 6942SOL    HW121725   6.314   2.536   0.516
 6942SOL    HW221726   6.299   2.618   0.657
 6943SOL     OW21727   5.401   6.372   0.364
 6943SOL    HW121728   5.340   6.444   0.331
 6943SOL    HW221729   5.423   6.388   0.460
 6944SOL     OW21730   1.751   4.367   6.104
 6944SOL    HW121731   1.779   4.358   6.199
 6944SOL    HW221732   1.779   4.457   6.069
 6945SOL     OW21733   5.491   3.165   6.109
 6945SOL    HW121734   5.502   3.219   6.192
 6945SOL    HW221735   5.441   3.081   6.130
 6946SOL     OW21736   6.374   6.442   1.809
 6946SOL    HW121737   6.406   6.508   1.741
 6946SOL    HW221738   6.423   6.457   1.895
 6947SOL     OW21739   3.273   0.009   5.654
 6947SOL    HW121740   3.187   0.051   5.684
 6947SOL    HW221741   3.301   6.964   5.721
 6948SOL     OW21742   6.634   0.898   6.403
 6948SOL    HW121743   6.681   0.810   6.408
 6948SOL    HW221744   6.641   0.945   6.491
 6949SOL     OW21745   5.662   6.856   4.117
 6949SOL    HW121746   5.580   6.812   4.082
 6949SOL    HW221747   5.657   6.863   4.217
 6950SOL     OW21748   1.947   0.453   3.772
 6950SOL    HW121749   2.030   0.509   3.777
 6950SOL    HW221750   1.934   0.421   3.678
 6951SOL     OW21751   6.395   6.449   6.055
 6951SOL    HW121752   6.373   6.514   5.982
 6951SOL    HW221753   6.486   6.411   6.038
 6952SOL     OW21754   0.145   5.713   3.835
 6952SOL    HW121755   0.076   5.781   3.859
 6952SOL    HW221756   0.103   5.622   3.833
 6953SOL     OW21757   4.612   0.213   6.957
 6953SOL    HW121758   4.663   0.127   6.963
 6953SOL    HW221759   4.522   0.196   6.917
 6954SOL     OW21760   0.620   4.021   4.122
 6954SOL    HW121761   0.591   3.926   4.132
 6954SOL    HW221762   0.556   4.081   4.171
 6955SOL     OW21763   6.641   0.847   2.705
 6955SOL    HW121764   6.722   0.789   2.709
 6955SOL    HW221765   6.633   0.887   2.613
 6956SOL     OW21766   4.516   6.362   2.748
 6956SOL    HW121767   4.529   6.338   2.652
 6956SOL    HW221768   4.468   6.287   2.794
 6957SOL     OW21769   5.786   4.885   1.606
 6957SOL    HW121770   5.757   4.876   1.511
 6957SOL    HW221771   5.859   4.819   1.625
 6958SOL     OW21772   2.905   3.871   4.826
 6958SOL    HW121773   2.953   3.861   4.739
 6958SOL    HW221774   2.806   3.869   4.810
 6959SOL     OW21775   2.674   1.082   4.747
 6959SOL    HW121776   2.674   1.175   4.784
 6959SOL    HW221777   2.758   1.067   4.695
 6960SOL     OW21778   1.477   5.721   1.126
 6960SOL    HW121779   1.394   5.688   1.171
 6960SOL    HW221780   1.548   5.738   1.195
 6961SOL     OW21781   6.138   3.091   4.264
 6961SOL    HW121782   6.214   3.103   4.201
 6961SOL    HW221783   6.055   3.071   4.212
 6962SOL     OW21784   5.015   5.898   2.642
 6962SOL    HW121785   4.933   5.841   2.640
 6962SOL    HW221786   5.074   5.874   2.565
 6963SOL     OW21787   6.885   5.448   1.011
 6963SOL    HW121788   6.979   5.416   0.999
 6963SOL    HW221789   6.863   5.449   1.109
 6964SOL     OW21790   3.905   5.353   4.666
 6964SOL    HW121791   3.957   5.414   4.606
 6964SOL    HW221792   3.814   5.391   4.683
 6965SOL     OW21793   0.728   3.612   6.425
 6965SOL    HW121794   0.737   3.513   6.414
 6965SOL    HW221795   0.649   3.632   6.483
 6966SOL     OW21796   6.650   2.374   3.475
 6966SOL    HW121797   6.698   2.291   3.503
 6966SOL    HW221798   6.567   2.385   3.530
 6967SOL     OW21799   1.742   0.375   5.590
 6967SOL    HW121800   1.679   0.304   5.620
 6967SOL    HW221801   1.693   0.442   5.535
 6968SOL     OW21802   3.893   6.785   2.409
 6968SOL    HW121803   3.986   6.811   2.437
 6968SOL    HW221804   3.899   6.722   2.331
 6969SOL     OW21805   3.023   2.233   1.054
 6969SOL    HW121806   3.050   2.144   1.091
 6969SOL    HW221807   3.095   2.300   1.071
 6970SOL     OW21808   4.435   3.734   6.566
 6970SOL    HW121809   4.530   3.745   6.536
 6970SOL    HW221810   4.412   3.807   6.630
 6971SOL     OW21811   6.665   4.844   1.146
 6971SOL    HW121812   6.738   4.899   1.185
 6971SOL    HW221813   6.702   4.788   1.072
 6972SOL     OW21814   5.274   4.510   4.109
 6972SOL    HW121815   5.182   4.489   4.141
 6972SOL    HW221816   5.315   4.579   4.168
 6973SOL     OW21817   1.112   3.822   5.640
 6973SOL    HW121818   1.135   3.766   5.720
 6973SOL    HW221819   1.112   3.764   5.559
 6974SOL     OW21820   3.955   3.263   2.958
 6974SOL    HW121821   3.961   3.186   3.022
 6974SOL    HW221822   3.993   3.235   2.870
 6975SOL     OW21823   2.742   6.102   5.819
 6975SOL    HW121824   2.816   6.040   5.846
 6975SOL    HW221825   2.680   6.056   5.756
 6976SOL     OW21826   4.194   5.093   5.616
 6976SOL    HW121827   4.210   5.191   5.610
 6976SOL    HW221828   4.282   5.044   5.613
 6977SOL     OW21829   4.500   2.279   1.921
 6977SOL    HW121830   4.423   2.331   1.885
 6977SOL    HW221831   4.550   2.236   1.846
 6978SOL     OW21832   5.243   2.173   1.698
 6978SOL    HW121833   5.235   2.273   1.700
 6978SOL    HW221834   5.183   2.137   1.627
 6979SOL     OW21835   1.244   4.762   0.630
 6979SOL    HW121836   1.306   4.830   0.667
 6979SOL    HW221837   1.166   4.807   0.586
 6980SOL     OW21838   1.421   1.301   3.652
 6980SOL    HW121839   1.338   1.312   3.706
 6980SOL    HW221840   1.398   1.279   3.557
 6981SOL     OW21841   3.049   3.270   6.192
 6981SOL    HW121842   3.033   3.367   6.210
 6981SOL    HW221843   3.061   3.256   6.094
 6982SOL     OW21844   1.569   1.158   4.283
 6982SOL    HW121845   1.599   1.062   4.282
 6982SOL    HW221846   1.606   1.205   4.203
 6983SOL     OW21847   5.222   2.226   3.470
 6983SOL    HW121848   5.125   2.250   3.473
 6983SOL    HW221849   5.254   2.204   3.562
 6984SOL     OW21850   2.302   2.371   4.043
 6984SOL    HW121851   2.365   2.425   3.986
 6984SOL    HW221852   2.275   2.425   4.122
 6985SOL     OW21853   3.969   5.588   1.217
 6985SOL    HW121854   3.939   5.661   1.156
 6985SOL    HW221855   4.062   5.608   1.249
 6986SOL     OW21856   2.344   5.956   6.453
 6986SOL    HW121857   2.284   5.877   6.438
 6986SOL    HW221858   2.324   5.996   6.542
 6987SOL     OW21859   0.476   1.787   6.141
 6987SOL    HW121860   0.389   1.819   6.177
 6987SOL    HW221861   0.539   1.864   6.132
 6988SOL     OW21862   6.622   1.020   5.775
 6988SOL    HW121863   6.698   0.984   5.830
 6988SOL    HW221864   6.547   1.046   5.836
 6989SOL     OW21865   0.454   3.520   3.765
 6989SOL    HW121866   0.531   3.477   3.718
 6989SOL    HW221867   0.370   3.503   3.714
 6990SOL     OW21868   5.012   2.202   1.502
 6990SOL    HW121869   5.023   2.280   1.563
 6990SOL    HW221870   4.967   2.127   1.551
 6991SOL     OW21871   3.149   5.015   3.513
 6991SOL    HW121872   3.239   5.008   3.557
 6991SOL    HW221873   3.082   5.046   3.580
 6992SOL     OW21874   4.797   6.798   5.259
 6992SOL    HW121875   4.881   6.765   5.215
 6992SOL    HW221876   4.749   6.720   5.300
 6993SOL     OW21877   6.860   0.915   3.266
 6993SOL    HW121878   6.918   0.985   3.223
 6993SOL    HW221879   6.811   0.956   3.343
 6994SOL     OW21880   0.320   3.127   4.868
 6994SOL    HW121881   0.305   3.100   4.963
 6994SOL    HW221882   0.398   3.077   4.832
 6995SOL     OW21883   6.476   4.898   6.396
 6995SOL    HW121884   6.524   4.874   6.311
 6995SOL    HW221885   6.377   4.892   6.382
 6996SOL     OW21886   2.688   0.217   6.478
 6996SOL    HW121887   2.637   0.164   6.411
 6996SOL    HW221888   2.698   0.164   6.562
 6997SOL     OW21889   5.738   6.400   5.400
 6997SOL    HW121890   5.794   6.433   5.476
 6997SOL    HW221891   5.657   6.458   5.390
 6998SOL     OW21892   1.967   2.421   0.987
 6998SOL    HW121893   2.052   2.463   0.956
 6998SOL    HW221894   1.892   2.448   0.926
 6999SOL     OW21895   2.418   2.913   6.287
 6999SOL    HW121896   2.378   2.825   6.312
 6999SOL    HW221897   2.410   2.927   6.188
 7000SOL     OW21898   6.423   6.165   1.720
 7000SOL    HW121899   6.342   6.121   1.682
 7000SOL    HW221900   6.410   6.264   1.720
 7001SOL     OW21901   2.523   3.178   5.524
 7001SOL    HW121902   2.586   3.110   5.488
 7001SOL    HW221903   2.455   3.201   5.455
 7002SOL     OW21904   1.857   5.425   2.705
 7002SOL    HW121905   1.795   5.364   2.753
 7002SOL    HW221906   1.861   5.514   2.752
 7003SOL     OW21907   4.333   5.758   6.721
 7003SOL    HW121908   4.411   5.819   6.736
 7003SOL    HW221909   4.361   5.663   6.732
 7004SOL     OW21910   1.999   4.727   1.811
 7004SOL    HW121911   2.043   4.720   1.900
 7004SOL    HW221912   2.025   4.814   1.768
 7005SOL     OW21913   1.579   6.590   0.123
 7005SOL    HW121914   1.614   6.627   0.036
 7005SOL    HW221915   1.654   6.547   0.173
 7006SOL     OW21916   5.258   4.871   4.546
 7006SOL    HW121917   5.225   4.917   4.463
 7006SOL    HW221918   5.197   4.893   4.622
 7007SOL     OW21919   4.498   6.594   3.918
 7007SOL    HW121920   4.530   6.627   3.829
 7007SOL    HW221921   4.409   6.635   3.938
 7008SOL     OW21922   1.800   4.571   5.392
 7008SOL    HW121923   1.821   4.482   5.432
 7008SOL    HW221924   1.813   4.567   5.293
 7009SOL     OW21925   6.431   5.790   2.390
 7009SOL    HW121926   6.359   5.819   2.454
 7009SOL    HW221927   6.389   5.751   2.308
 7010SOL     OW21928   4.480   4.301   5.972
 7010SOL    HW121929   4.393   4.269   6.007
 7010SOL    HW221930   4.482   4.293   5.872
 7011SOL     OW21931   3.260   6.957   6.005
 7011SOL    HW121932   3.183   6.994   5.954
 7011SOL    HW221933   3.231   6.932   6.097
 7012SOL     OW21934   1.785   1.406   2.448
 7012SOL    HW121935   1.685   1.412   2.449
 7012SOL    HW221936   1.823   1.483   2.500
 7013SOL     OW21937   0.900   0.439   0.588
 7013SOL    HW121938   0.845   0.402   0.514
 7013SOL    HW221939   0.877   0.391   0.673
 7014SOL     OW21940   4.584   2.821   1.317
 7014SOL    HW121941   4.531   2.798   1.398
 7014SOL    HW221942   4.529   2.803   1.235
 7015SOL     OW21943   6.221   4.569   2.701
 7015SOL    HW121944   6.308   4.612   2.726
 7015SOL    HW221945   6.185   4.611   2.618
 7016SOL     OW21946   3.646   4.833   1.628
 7016SOL    HW121947   3.586   4.837   1.548
 7016SOL    HW221948   3.649   4.740   1.663
 7017SOL     OW21949   2.254   6.793   2.788
 7017SOL    HW121950   2.304   6.771   2.704
 7017SOL    HW221951   2.290   6.878   2.826
 7018SOL     OW21952   5.976   4.021   4.778
 7018SOL    HW121953   6.051   4.046   4.838
 7018SOL    HW221954   6.012   3.993   4.689
 7019SOL     OW21955   2.228   3.671   6.484
 7019SOL    HW121956   2.130   3.658   6.474
 7019SOL    HW221957   2.247   3.766   6.509
 7020SOL     OW21958   6.040   6.814   6.438
 7020SOL    HW121959   5.947   6.778   6.445
 7020SOL    HW221960   6.039   6.912   6.457
 7021SOL     OW21961   1.682   1.362   5.515
 7021SOL    HW121962   1.657   1.329   5.607
 7021SOL    HW221963   1.743   1.441   5.523
 7022SOL     OW21964   4.569   5.804   0.574
 7022SOL    HW121965   4.650   5.840   0.621
 7022SOL    HW221966   4.511   5.756   0.639
 7023SOL     OW21967   0.350   1.797   3.792
 7023SOL    HW121968   0.392   1.888   3.795
 7023SOL    HW221969   0.416   1.731   3.757
 7024SOL     OW21970   1.771   4.287   5.775
 7024SOL    HW121971   1.737   4.359   5.836
 7024SOL    HW221972   1.693   4.236   5.738
 7025SOL     OW21973   2.360   1.247   6.929
 7025SOL    HW121974   2.413   1.232   7.012
 7025SOL    HW221975   2.263   1.236   6.948
 7026SOL     OW21976   3.236   1.512   2.511
 7026SOL    HW121977   3.231   1.462   2.597
 7026SOL    HW221978   3.239   1.610   2.530
 7027SOL     OW21979   2.773   4.733   3.751
 7027SOL    HW121980   2.831   4.741   3.671
 7027SOL    HW221981   2.709   4.658   3.739
 7028SOL     OW21982   4.561   6.994   4.243
 7028SOL    HW121983   4.471   7.018   4.208
 7028SOL    HW221984   4.624   0.046   4.228
 7029SOL     OW21985   4.728   5.478   6.139
 7029SOL    HW121986   4.629   5.487   6.150
 7029SOL    HW221987   4.766   5.431   6.219
 7030SOL     OW21988   0.098   2.166   5.206
 7030SOL    HW121989   0.087   2.248   5.262
 7030SOL    HW221990   0.124   2.192   5.113
 7031SOL     OW21991   1.862   6.501   4.677
 7031SOL    HW121992   1.838   6.561   4.753
 7031SOL    HW221993   1.789   6.435   4.661
 7032SOL     OW21994   3.692   0.081   3.483
 7032SOL    HW121995   3.689   0.064   3.385
 7032SOL    HW221996   3.608   0.127   3.512
 7033SOL     OW21997   1.134   2.306   3.462
 7033SOL    HW121998   1.181   2.325   3.548
 7033SOL    HW221999   1.183   2.349   3.386
 7034SOL     OW22000   6.209   6.716   3.313
 7034SOL    HW122001   6.269   6.644   3.280
 7034SOL    HW222002   6.236   6.803   3.271
 7035SOL     OW22003   1.802   6.380   1.596
 7035SOL    HW122004   1.810   6.304   1.531
 7035SOL    HW222005   1.707   6.412   1.599
 7036SOL     OW22006   0.214   0.755   2.801
 7036SOL    HW122007   0.256   0.809   2.728
 7036SOL    HW222008   0.272   0.677   2.823
 7037SOL     OW22009   1.647   0.198   6.589
 7037SOL    HW122010   1.670   0.294   6.575
 7037SOL    HW222011   1.574   0.191   6.658
 7038SOL     OW22012   1.865   3.104   4.546
 7038SOL    HW122013   1.770   3.133   4.552
 7038SOL    HW222014   1.925   3.182   4.560
 7039SOL     OW22015   2.882   5.110   1.696
 7039SOL    HW122016   2.884   5.065   1.607
 7039SOL    HW222017   2.788   5.135   1.719
 7040SOL     OW22018   6.062   1.854   4.587
 7040SOL    HW122019   6.108   1.879   4.672
 7040SOL    HW222020   6.029   1.760   4.593
 7041SOL     OW22021   0.919   2.524   1.589
 7041SOL    HW122022   0.870   2.590   1.531
 7041SOL    HW222023   0.910   2.551   1.685
 7042SOL     OW22024   5.436   5.823   6.349
 7042SOL    HW122025   5.429   5.894   6.279
 7042SOL    HW222026   5.344   5.799   6.381
 7043SOL     OW22027   2.254   2.997   2.552
 7043SOL    HW122028   2.248   3.091   2.588
 7043SOL    HW222029   2.263   2.933   2.628
 7044SOL     OW22030   4.570   5.243   3.028
 7044SOL    HW122031   4.665   5.269   3.011
 7044SOL    HW222032   4.537   5.288   3.111
 7045SOL     OW22033   5.036   6.109   2.823
 7045SOL    HW122034   5.071   6.038   2.762
 7045SOL    HW222035   4.937   6.099   2.833
 7046SOL     OW22036   3.413   1.580   2.818
 7046SOL    HW122037   3.379   1.673   2.805
 7046SOL    HW222038   3.479   1.579   2.893
 7047SOL     OW22039   0.857   2.835   1.971
 7047SOL    HW122040   0.950   2.823   2.004
 7047SOL    HW222041   0.796   2.773   2.020
 7048SOL     OW22042   6.825   6.126   2.550
 7048SOL    HW122043   6.736   6.171   2.564
 7048SOL    HW222044   6.859   6.148   2.458
 7049SOL     OW22045   3.195   1.875   0.900
 7049SOL    HW122046   3.152   1.814   0.967
 7049SOL    HW222047   3.292   1.852   0.891
 7050SOL     OW22048   4.053   3.724   2.429
 7050SOL    HW122049   4.101   3.686   2.349
 7050SOL    HW222050   3.982   3.660   2.458
 7051SOL     OW22051   0.675   0.430   0.994
 7051SOL    HW122052   0.728   0.495   1.048
 7051SOL    HW222053   0.596   0.399   1.047
 7052SOL     OW22054   5.616   2.837   3.819
 7052SOL    HW122055   5.597   2.833   3.721
 7052SOL    HW222056   5.714   2.834   3.834
 7053SOL     OW22057   1.223   3.890   5.214
 7053SOL    HW122058   1.185   3.815   5.268
 7053SOL    HW222059   1.304   3.927   5.260
 7054SOL     OW22060   0.670   6.683   0.540
 7054SOL    HW122061   0.663   6.671   0.639
 7054SOL    HW222062   0.758   6.726   0.518
 7055SOL     OW22063   3.410   5.833   5.555
 7055SOL    HW122064   3.405   5.902   5.483
 7055SOL    HW222065   3.502   5.793   5.557
 7056SOL     OW22066   5.982   5.482   2.675
 7056SOL    HW122067   5.989   5.401   2.617
 7056SOL    HW222068   6.038   5.556   2.637
 7057SOL     OW22069   0.826   5.805   3.496
 7057SOL    HW122070   0.850   5.901   3.482
 7057SOL    HW222071   0.751   5.780   3.436
 7058SOL     OW22072   6.556   5.879   5.938
 7058SOL    HW122073   6.515   5.967   5.912
 7058SOL    HW222074   6.606   5.841   5.860
 7059SOL     OW22075   6.973   0.712   3.600
 7059SOL    HW122076   6.972   0.620   3.641
 7059SOL    HW222077   6.890   0.761   3.627
 7060SOL     OW22078   3.904   0.124   1.603
 7060SOL    HW122079   3.823   0.181   1.594
 7060SOL    HW222080   3.926   0.113   1.700
 7061SOL     OW22081   0.305   3.411   3.982
 7061SOL    HW122082   0.210   3.400   3.951
 7061SOL    HW222083   0.366   3.415   3.903
 7062SOL     OW22084   5.265   1.243   5.259
 7062SOL    HW122085   5.199   1.294   5.313
 7062SOL    HW222086   5.313   1.177   5.317
 7063SOL     OW22087   0.825   0.545   1.486
 7063SOL    HW122088   0.920   0.569   1.462
 7063SOL    HW222089   0.811   0.561   1.584
 7064SOL     OW22090   4.229   2.086   2.401
 7064SOL    HW122091   4.164   2.089   2.325
 7064SOL    HW222092   4.246   2.178   2.435
 7065SOL     OW22093   4.170   3.349   6.479
 7065SOL    HW122094   4.141   3.376   6.571
 7065SOL    HW222095   4.103   3.382   6.413
 7066SOL     OW22096   4.289   6.779   0.499
 7066SOL    HW122097   4.221   6.847   0.472
 7066SOL    HW222098   4.380   6.819   0.492
 7067SOL     OW22099   1.733   1.955   5.348
 7067SOL    HW122100   1.722   2.041   5.297
 7067SOL    HW222101   1.678   1.884   5.304
 7068SOL     OW22102   0.465   4.182   4.268
 7068SOL    HW122103   0.437   4.268   4.224
 7068SOL    HW222104   0.468   4.194   4.367
 7069SOL     OW22105   5.736   1.506   3.841
 7069SOL    HW122106   5.736   1.450   3.758
 7069SOL    HW222107   5.756   1.601   3.817
 7070SOL     OW22108   6.323   6.315   4.856
 7070SOL    HW122109   6.327   6.227   4.902
 7070SOL    HW222110   6.307   6.388   4.923
 7071SOL     OW22111   1.890   6.148   6.396
 7071SOL    HW122112   1.948   6.214   6.443
 7071SOL    HW222113   1.848   6.086   6.462
 7072SOL     OW22114   0.762   6.280   6.633
 7072SOL    HW122115   0.789   6.269   6.729
 7072SOL    HW222116   0.664   6.298   6.628
 7073SOL     OW22117   5.138   0.281   4.470
 7073SOL    HW122118   5.051   0.260   4.513
 7073SOL    HW222119   5.128   0.361   4.410
 7074SOL     OW22120   4.606   1.993   2.132
 7074SOL    HW122121   4.541   2.067   2.151
 7074SOL    HW222122   4.660   2.015   2.051
 7075SOL     OW22123   1.937   5.091   5.142
 7075SOL    HW122124   1.847   5.133   5.138
 7075SOL    HW222125   1.955   5.058   5.235
 7076SOL     OW22126   5.958   2.285   6.720
 7076SOL    HW122127   6.055   2.293   6.698
 7076SOL    HW222128   5.944   2.206   6.779
 7077SOL     OW22129   2.347   4.472   3.922
 7077SOL    HW122130   2.268   4.533   3.921
 7077SOL    HW222131   2.355   4.431   4.013
 7078SOL     OW22132   6.974   0.056   1.098
 7078SOL    HW122133   6.899   0.013   1.148
 7078SOL    HW222134   6.969   0.031   1.002
 7079SOL     OW22135   6.620   6.280   4.787
 7079SOL    HW122136   6.530   6.323   4.793
 7079SOL    HW222137   6.667   6.289   4.875
 7080SOL     OW22138   2.542   2.510   4.043
 7080SOL    HW122139   2.593   2.552   4.118
 7080SOL    HW222140   2.601   2.447   3.994
 7081SOL     OW22141   2.610   1.387   6.836
 7081SOL    HW122142   2.619   1.447   6.756
 7081SOL    HW222143   2.535   1.323   6.821
 7082SOL     OW22144   6.122   4.533   0.025
 7082SOL    HW122145   6.167   4.476   0.093
 7082SOL    HW222146   6.181   4.542   6.968
 7083SOL     OW22147   2.774   0.637   0.545
 7083SOL    HW122148   2.786   0.540   0.526
 7083SOL    HW222149   2.782   0.690   0.461
 7084SOL     OW22150   0.373   6.761   5.481
 7084SOL    HW122151   0.454   6.711   5.510
 7084SOL    HW222152   0.371   6.767   5.381
 7085SOL     OW22153   1.130   2.033   1.862
 7085SOL    HW122154   1.188   2.018   1.782
 7085SOL    HW222155   1.188   2.047   1.943
 7086SOL     OW22156   5.193   1.123   4.998
 7086SOL    HW122157   5.209   1.188   4.923
 7086SOL    HW222158   5.233   1.158   5.082
 7087SOL     OW22159   6.500   3.827   3.636
 7087SOL    HW122160   6.437   3.839   3.559
 7087SOL    HW222161   6.549   3.741   3.626
 7088SOL     OW22162   5.617   2.784   3.550
 7088SOL    HW122163   5.538   2.821   3.501
 7088SOL    HW222164   5.614   2.684   3.548
 7089SOL     OW22165   3.220   2.153   4.685
 7089SOL    HW122166   3.206   2.223   4.755
 7089SOL    HW222167   3.196   2.190   4.595
 7090SOL     OW22168   2.519   0.811   6.674
 7090SOL    HW122169   2.486   0.827   6.582
 7090SOL    HW222170   2.515   0.896   6.727
 7091SOL     OW22171   0.264   1.363   6.730
 7091SOL    HW122172   0.343   1.345   6.671
 7091SOL    HW222173   0.230   1.456   6.715
 7092SOL     OW22174   4.566   2.629   6.188
 7092SOL    HW122175   4.591   2.621   6.285
 7092SOL    HW222176   4.478   2.584   6.173
 7093SOL     OW22177   2.979   3.906   3.457
 7093SOL    HW122178   2.981   3.908   3.557
 7093SOL    HW222179   2.953   3.997   3.423
 7094SOL     OW22180   1.121   5.916   6.245
 7094SOL    HW122181   1.109   5.981   6.170
 7094SOL    HW222182   1.051   5.932   6.314
 7095SOL     OW22183   2.689   3.800   5.976
 7095SOL    HW122184   2.617   3.864   6.003
 7095SOL    HW222185   2.671   3.768   5.883
 7096SOL     OW22186   6.416   0.813   3.568
 7096SOL    HW122187   6.327   0.831   3.609
 7096SOL    HW222188   6.451   0.896   3.525
 7097SOL     OW22189   5.633   1.265   1.226
 7097SOL    HW122190   5.685   1.311   1.298
 7097SOL    HW222191   5.665   1.171   1.216
 7098SOL     OW22192   1.204   0.349   4.716
 7098SOL    HW122193   1.273   0.279   4.734
 7098SOL    HW222194   1.202   0.370   4.618
 7099SOL     OW22195   2.393   0.865   5.136
 7099SOL    HW122196   2.405   0.782   5.192
 7099SOL    HW222197   2.468   0.870   5.070
 7100SOL     OW22198   5.483   2.415   1.246
 7100SOL    HW122199   5.396   2.369   1.265
 7100SOL    HW222200   5.470   2.514   1.248
 7101SOL     OW22201   2.380   1.365   4.651
 7101SOL    HW122202   2.340   1.452   4.681
 7101SOL    HW222203   2.368   1.355   4.553
 7102SOL     OW22204   4.286   0.805   0.896
 7102SOL    HW122205   4.281   0.867   0.975
 7102SOL    HW222206   4.295   0.711   0.929
 7103SOL     OW22207   4.586   5.320   1.949
 7103SOL    HW122208   4.487   5.331   1.938
 7103SOL    HW222209   4.615   5.361   2.035
 7104SOL     OW22210   0.297   2.976   4.488
 7104SOL    HW122211   0.310   2.899   4.549
 7104SOL    HW222212   0.368   3.045   4.505
 7105SOL     OW22213   2.778   2.730   5.386
 7105SOL    HW122214   2.693   2.680   5.398
 7105SOL    HW222215   2.823   2.699   5.302
 7106SOL     OW22216   2.971   3.274   3.086
 7106SOL    HW122217   2.964   3.274   3.186
 7106SOL    HW222218   2.943   3.363   3.051
 7107SOL     OW22219   2.883   1.533   0.146
 7107SOL    HW122220   2.972   1.557   0.105
 7107SOL    HW222221   2.870   1.586   0.229
 7108SOL     OW22222   4.044   6.115   2.598
 7108SOL    HW122223   4.055   6.173   2.679
 7108SOL    HW222224   4.049   6.019   2.625
 7109SOL     OW22225   3.029   0.545   5.889
 7109SOL    HW122226   2.949   0.571   5.836
 7109SOL    HW222227   3.050   0.616   5.956
 7110SOL     OW22228   3.841   5.437   4.248
 7110SOL    HW122229   3.756   5.404   4.289
 7110SOL    HW222230   3.839   5.536   4.242
 7111SOL     OW22231   1.534   1.838   4.061
 7111SOL    HW122232   1.541   1.908   3.990
 7111SOL    HW222233   1.479   1.873   4.137
 7112SOL     OW22234   1.118   5.320   4.362
 7112SOL    HW122235   1.037   5.339   4.307
 7112SOL    HW222236   1.102   5.349   4.456
 7113SOL     OW22237   3.742   3.891   4.917
 7113SOL    HW122238   3.726   3.820   4.984
 7113SOL    HW222239   3.813   3.954   4.949
 7114SOL     OW22240   3.915   0.025   1.897
 7114SOL    HW122241   3.815   0.023   1.902
 7114SOL    HW222242   3.953   6.996   1.972
 7115SOL     OW22243   5.520   3.386   1.965
 7115SOL    HW122244   5.444   3.396   2.030
 7115SOL    HW222245   5.486   3.342   1.882
 7116SOL     OW22246   6.272   4.311   3.315
 7116SOL    HW122247   6.331   4.245   3.269
 7116SOL    HW222248   6.267   4.395   3.260
 7117SOL     OW22249   6.627   5.801   5.219
 7117SOL    HW122250   6.703   5.837   5.165
 7117SOL    HW222251   6.603   5.710   5.185
 7118SOL     OW22252   2.535   3.757   1.087
 7118SOL    HW122253   2.510   3.851   1.109
 7118SOL    HW222254   2.581   3.716   1.166
 7119SOL     OW22255   5.630   1.815   2.754
 7119SOL    HW122256   5.615   1.860   2.666
 7119SOL    HW222257   5.690   1.872   2.811
 7120SOL     OW22258   3.739   2.136   3.144
 7120SOL    HW122259   3.691   2.063   3.094
 7120SOL    HW222260   3.704   2.141   3.237
 7121SOL     OW22261   1.834   6.879   3.163
 7121SOL    HW122262   1.912   6.839   3.115
 7121SOL    HW222263   1.749   6.853   3.117
 7122SOL     OW22264   1.382   0.257   5.872
 7122SOL    HW122265   1.351   0.168   5.904
 7122SOL    HW222266   1.350   0.328   5.934
 7123SOL     OW22267   2.087   4.529   3.192
 7123SOL    HW122268   1.994   4.500   3.171
 7123SOL    HW222269   2.138   4.542   3.106
 7124SOL     OW22270   6.897   2.268   0.787
 7124SOL    HW122271   6.943   2.264   0.876
 7124SOL    HW222272   6.804   2.233   0.796
 7125SOL     OW22273   6.432   0.025   0.459
 7125SOL    HW122274   6.354   0.087   0.464
 7125SOL    HW222275   6.462   0.002   0.552
 7126SOL     OW22276   3.422   4.936   6.991
 7126SOL    HW122277   3.509   4.986   6.989
 7126SOL    HW222278   3.348   4.996   6.961
 7127SOL     OW22279   1.807   5.325   5.514
 7127SOL    HW122280   1.724   5.274   5.494
 7127SOL    HW222281   1.886   5.275   5.480
 7128SOL     OW22282   2.998   4.949   0.494
 7128SOL    HW122283   2.990   4.857   0.456
 7128SOL    HW222284   2.977   4.946   0.592
 7129SOL     OW22285   2.096   1.221   6.994
 7129SOL    HW122286   2.019   1.277   0.000
 7129SOL    HW222287   2.073   1.124   7.003
 7130SOL     OW22288   4.019   5.416   5.598
 7130SOL    HW122289   3.972   5.419   5.509
 7130SOL    HW222290   4.104   5.364   5.588
 7131SOL     OW22291   2.429   0.591   1.133
 7131SOL    HW122292   2.469   0.592   1.042
 7131SOL    HW222293   2.375   0.508   1.145
 7132SOL     OW22294   3.683   3.849   6.944
 7132SOL    HW122295   3.663   3.785   6.870
 7132SOL    HW222296   3.686   3.942   6.908
 7133SOL     OW22297   5.390   5.719   5.647
 7133SOL    HW122298   5.486   5.692   5.651
 7133SOL    HW222299   5.382   5.811   5.609
 7134SOL     OW22300   5.991   6.980   1.819
 7134SOL    HW122301   5.945   6.952   1.904
 7134SOL    HW222302   5.951   6.930   1.742
 7135SOL     OW22303   0.707   3.308   3.427
 7135SOL    HW122304   0.739   3.367   3.501
 7135SOL    HW222305   0.703   3.213   3.460
 7136SOL     OW22306   2.060   2.637   0.840
 7136SOL    HW122307   1.979   2.610   0.789
 7136SOL    HW222308   2.128   2.674   0.777
 7137SOL     OW22309   3.662   6.930   6.819
 7137SOL    HW122310   3.633   6.984   6.898
 7137SOL    HW222311   3.723   6.984   6.762
 7138SOL     OW22312   1.571   2.118   6.792
 7138SOL    HW122313   1.622   2.204   6.784
 7138SOL    HW222314   1.623   2.046   6.746
 7139SOL     OW22315   5.730   4.047   2.012
 7139SOL    HW122316   5.650   4.035   2.071
 7139SOL    HW222317   5.788   3.965   2.017
 7140SOL     OW22318   5.477   4.294   4.276
 7140SOL    HW122319   5.410   4.357   4.316
 7140SOL    HW222320   5.431   4.209   4.252
 7141SOL     OW22321   3.932   6.119   1.673
 7141SOL    HW122322   3.886   6.194   1.626
 7141SOL    HW222323   3.991   6.156   1.745
 7142SOL     OW22324   4.496   0.508   3.700
 7142SOL    HW122325   4.572   0.461   3.745
 7142SOL    HW222326   4.526   0.596   3.665
 7143SOL     OW22327   1.146   2.418   6.327
 7143SOL    HW122328   1.207   2.366   6.268
 7143SOL    HW222329   1.060   2.368   6.339
 7144SOL     OW22330   1.757   2.237   2.275
 7144SOL    HW122331   1.797   2.153   2.238
 7144SOL    HW222332   1.721   2.292   2.199
 7145SOL     OW22333   4.160   6.619   0.271
 7145SOL    HW122334   4.205   6.683   0.334
 7145SOL    HW222335   4.069   6.653   0.249
 7146SOL     OW22336   2.094   0.195   1.331
 7146SOL    HW122337   2.059   0.105   1.304
 7146SOL    HW222338   2.120   0.193   1.428
 7147SOL     OW22339   0.645   6.798   3.448
 7147SOL    HW122340   0.636   6.810   3.547
 7147SOL    HW222341   0.578   6.855   3.402
 7148SOL     OW22342   0.752   6.351   0.458
 7148SOL    HW122343   0.659   6.386   0.452
 7148SOL    HW222344   0.769   6.316   0.550
 7149SOL     OW22345   5.796   6.680   2.976
 7149SOL    HW122346   5.777   6.595   2.925
 7149SOL    HW222347   5.745   6.755   2.935
 7150SOL     OW22348   3.423   2.050   2.420
 7150SOL    HW122349   3.444   2.037   2.323
 7150SOL    HW222350   3.507   2.076   2.468
 7151SOL     OW22351   2.055   6.330   0.960
 7151SOL    HW122352   2.119   6.354   0.887
 7151SOL    HW222353   1.977   6.280   0.921
 7152SOL     OW22354   1.333   0.955   4.905
 7152SOL    HW122355   1.279   1.038   4.920
 7152SOL    HW222356   1.411   0.976   4.847
 7153SOL     OW22357   3.434   5.166   1.979
 7153SOL    HW122358   3.375   5.245   1.960
 7153SOL    HW222359   3.497   5.189   2.053
 7154SOL     OW22360   3.601   0.631   3.848
 7154SOL    HW122361   3.615   0.566   3.923
 7154SOL    HW222362   3.580   0.581   3.764
 7155SOL     OW22363   2.228   3.237   1.680
 7155SOL    HW122364   2.160   3.167   1.702
 7155SOL    HW222365   2.256   3.284   1.764
 7156SOL     OW22366   0.219   4.046   4.641
 7156SOL    HW122367   0.278   4.126   4.645
 7156SOL    HW222368   0.263   3.974   4.587
 7157SOL     OW22369   6.248   3.842   1.958
 7157SOL    HW122370   6.233   3.915   2.025
 7157SOL    HW222371   6.267   3.756   2.005
 7158SOL     OW22372   1.254   6.971   2.913
 7158SOL    HW122373   1.166   6.923   2.923
 7158SOL    HW222374   1.275   7.020   2.998
 7159SOL     OW22375   0.528   4.593   2.626
 7159SOL    HW122376   0.565   4.504   2.651
 7159SOL    HW222377   0.572   4.625   2.541
 7160SOL     OW22378   5.016   0.075   3.119
 7160SOL    HW122379   4.988   0.162   3.080
 7160SOL    HW222380   4.998   0.075   3.217
 7161SOL     OW22381   2.975   3.453   4.482
 7161SOL    HW122382   2.918   3.531   4.456
 7161SOL    HW222383   2.996   3.458   4.580
 7162SOL     OW22384   1.741   5.399   6.309
 7162SOL    HW122385   1.693   5.393   6.221
 7162SOL    HW222386   1.746   5.307   6.350
 7163SOL     OW22387   2.586   6.531   2.837
 7163SOL    HW122388   2.571   6.498   2.743
 7163SOL    HW222389   2.673   6.495   2.871
 7164SOL     OW22390   1.940   1.128   3.781
 7164SOL    HW122391   1.870   1.196   3.762
 7164SOL    HW222392   1.955   1.071   3.700
 7165SOL     OW22393   0.015   1.041   2.102
 7165SOL    HW122394   0.023   0.964   2.038
 7165SOL    HW222395   6.943   1.050   2.130
 7166SOL     OW22396   5.981   2.892   0.232
 7166SOL    HW122397   6.063   2.841   0.257
 7166SOL    HW222398   5.928   2.913   0.314
 7167SOL     OW22399   5.355   3.493   3.799
 7167SOL    HW122400   5.346   3.406   3.849
 7167SOL    HW222401   5.451   3.521   3.800
 7168SOL     OW22402   1.772   2.371   3.115
 7168SOL    HW122403   1.863   2.403   3.140
 7168SOL    HW222404   1.705   2.406   3.180
 7169SOL     OW22405   6.424   2.510   4.900
 7169SOL    HW122406   6.390   2.467   4.984
 7169SOL    HW222407   6.524   2.503   4.898
 7170SOL     OW22408   5.134   6.066   3.717
 7170SOL    HW122409   5.039   6.090   3.738
 7170SOL    HW222410   5.155   6.093   3.623
 7171SOL     OW22411   5.252   3.637   0.157
 7171SOL    HW122412   5.335   3.586   0.136
 7171SOL    HW222413   5.249   3.720   0.102
 7172SOL     OW22414   1.600   0.539   4.864
 7172SOL    HW122415   1.662   0.608   4.827
 7172SOL    HW222416   1.614   0.532   4.963
 7173SOL     OW22417   6.927   4.159   6.143
 7173SOL    HW122418   6.898   4.171   6.238
 7173SOL    HW222419   7.023   4.187   6.134
 7174SOL     OW22420   0.374   4.691   0.250
 7174SOL    HW122421   0.305   4.721   0.184
 7174SOL    HW222422   0.451   4.754   0.248
 7175SOL     OW22423   5.186   2.567   6.546
 7175SOL    HW122424   5.212   2.655   6.587
 7175SOL    HW222425   5.091   2.547   6.569
 7176SOL     OW22426   0.613   6.780   2.714
 7176SOL    HW122427   0.532   6.777   2.657
 7176SOL    HW222428   0.590   6.754   2.808
 7177SOL     OW22429   1.723   5.773   4.547
 7177SOL    HW122430   1.727   5.769   4.447
 7177SOL    HW222431   1.714   5.680   4.583
 7178SOL     OW22432   1.923   2.132   5.875
 7178SOL    HW122433   2.013   2.169   5.852
 7178SOL    HW222434   1.874   2.108   5.792
 7179SOL     OW22435   2.151   3.685   4.128
 7179SOL    HW122436   2.068   3.739   4.112
 7179SOL    HW222437   2.181   3.645   4.042
 7180SOL     OW22438   2.517   5.213   0.381
 7180SOL    HW122439   2.459   5.133   0.365
 7180SOL    HW222440   2.604   5.184   0.419
 7181SOL     OW22441   2.554   6.098   0.560
 7181SOL    HW122442   2.538   6.148   0.645
 7181SOL    HW222443   2.473   6.042   0.540
 7182SOL     OW22444   1.387   2.539   5.034
 7182SOL    HW122445   1.475   2.527   4.986
 7182SOL    HW222446   1.312   2.516   4.972
 7183SOL     OW22447   2.787   5.955   0.567
 7183SOL    HW122448   2.812   5.945   0.471
 7183SOL    HW222449   2.709   6.017   0.576
 7184SOL     OW22450   6.733   1.148   3.451
 7184SOL    HW122451   6.681   1.229   3.423
 7184SOL    HW222452   6.753   1.154   3.549
 7185SOL     OW22453   5.301   0.783   5.280
 7185SOL    HW122454   5.219   0.808   5.228
 7185SOL    HW222455   5.369   0.746   5.217
 7186SOL     OW22456   6.711   0.914   0.056
 7186SOL    HW122457   6.622   0.958   0.047
 7186SOL    HW222458   6.766   0.964   0.124
 7187SOL     OW22459   3.501   4.429   6.441
 7187SOL    HW122460   3.403   4.409   6.449
 7187SOL    HW222461   3.550   4.384   6.516
 7188SOL     OW22462   7.015   0.231   0.353
 7188SOL    HW122463   6.965   0.312   0.325
 7188SOL    HW222464   0.003   0.231   0.452
 7189SOL     OW22465   0.610   0.705   5.710
 7189SOL    HW122466   0.524   0.698   5.659
 7189SOL    HW222467   0.591   0.699   5.808
 7190SOL     OW22468   0.259   3.968   2.644
 7190SOL    HW122469   0.212   4.057   2.642
 7190SOL    HW222470   0.196   3.897   2.611
 7191SOL     OW22471   0.609   4.355   2.764
 7191SOL    HW122472   0.588   4.362   2.862
 7191SOL    HW222473   0.692   4.301   2.752
 7192SOL     OW22474   3.492   4.501   5.482
 7192SOL    HW122475   3.444   4.431   5.428
 7192SOL    HW222476   3.525   4.459   5.567
 7193SOL     OW22477   1.825   2.601   1.998
 7193SOL    HW122478   1.817   2.620   2.096
 7193SOL    HW222479   1.754   2.535   1.972
 7194SOL     OW22480   2.364   2.039   0.879
 7194SOL    HW122481   2.408   1.995   0.801
 7194SOL    HW222482   2.326   2.127   0.852
 7195SOL     OW22483   0.071   4.229   0.009
 7195SOL    HW122484   0.058   4.144   0.061
 7195SOL    HW222485   0.167   4.238   7.007
 7196SOL     OW22486   3.570   4.418   1.035
 7196SOL    HW122487   3.622   4.335   1.013
 7196SOL    HW222488   3.472   4.400   1.023
 7197SOL     OW22489   0.282   2.733   5.643
 7197SOL    HW122490   0.287   2.826   5.606
 7197SOL    HW222491   0.226   2.733   5.726
 7198SOL     OW22492   0.471   0.526   6.679
 7198SOL    HW122493   0.419   0.529   6.593
 7198SOL    HW222494   0.409   0.535   6.756
 7199SOL     OW22495   2.231   1.184   2.888
 7199SOL    HW122496   2.330   1.188   2.879
 7199SOL    HW222497   2.188   1.230   2.811
 7200SOL     OW22498   2.623   1.963   0.449
 7200SOL    HW122499   2.677   2.026   0.504
 7200SOL    HW222500   2.680   1.929   0.373
 7201SOL     OW22501   0.806   5.885   4.268
 7201SOL    HW122502   0.721   5.899   4.318
 7201SOL    HW222503   0.861   5.815   4.313
 7202SOL     OW22504   4.289   0.406   6.010
 7202SOL    HW122505   4.375   0.389   6.057
 7202SOL    HW222506   4.305   0.408   5.911
 7203SOL     OW22507   0.013   2.020   0.890
 7203SOL    HW122508   0.007   1.926   0.923
 7203SOL    HW222509   6.953   2.069   0.914
 7204SOL     OW22510   0.532   6.997   5.739
 7204SOL    HW122511   0.462   7.022   5.806
 7204SOL    HW222512   0.621   0.006   5.771
 7205SOL     OW22513   0.903   5.516   3.446
 7205SOL    HW122514   0.942   5.495   3.357
 7205SOL    HW222515   0.879   5.613   3.450
 7206SOL     OW22516   1.962   0.510   1.247
 7206SOL    HW122517   1.950   0.417   1.211
 7206SOL    HW222518   1.873   0.545   1.280
 7207SOL     OW22519   3.554   0.256   2.922
 7207SOL    HW122520   3.641   0.207   2.928
 7207SOL    HW222521   3.488   0.202   2.870
 7208SOL     OW22522   3.871   6.486   3.495
 7208SOL    HW122523   3.916   6.451   3.413
 7208SOL    HW222524   3.869   6.414   3.564
 7209SOL     OW22525   2.898   3.204   2.282
 7209SOL    HW122526   2.959   3.235   2.209
 7209SOL    HW222527   2.803   3.206   2.249
 7210SOL     OW22528   4.457   0.499   4.055
 7210SOL    HW122529   4.436   0.585   4.008
 7210SOL    HW222530   4.509   0.440   3.994
 7211SOL     OW22531   2.486   6.036   3.951
 7211SOL    HW122532   2.391   6.005   3.956
 7211SOL    HW222533   2.537   5.998   4.028
 7212SOL     OW22534   0.263   6.181   4.847
 7212SOL    HW122535   0.321   6.258   4.819
 7212SOL    HW222536   0.319   6.099   4.855
 7213SOL     OW22537   5.051   0.251   0.243
 7213SOL    HW122538   5.120   0.229   0.311
 7213SOL    HW222539   5.035   0.171   0.184
 7214SOL     OW22540   0.167   5.089   5.613
 7214SOL    HW122541   0.129   5.001   5.640
 7214SOL    HW222542   0.095   5.159   5.613
 7215SOL     OW22543   6.964   3.936   5.106
 7215SOL    HW122544   0.034   3.970   5.117
 7215SOL    HW222545   6.901   4.001   5.147
 7216SOL     OW22546   3.233   6.351   6.701
 7216SOL    HW122547   3.181   6.285   6.648
 7216SOL    HW222548   3.325   6.360   6.661
 7217SOL     OW22549   2.120   4.298   2.829
 7217SOL    HW122550   2.095   4.258   2.741
 7217SOL    HW222551   2.200   4.357   2.817
 7218SOL     OW22552   4.739   2.347   5.378
 7218SOL    HW122553   4.664   2.406   5.408
 7218SOL    HW222554   4.779   2.385   5.295
 7219SOL     OW22555   4.565   6.503   4.861
 7219SOL    HW122556   4.572   6.563   4.941
 7219SOL    HW222557   4.636   6.432   4.866
 7220SOL     OW22558   0.806   5.584   5.295
 7220SOL    HW122559   0.849   5.652   5.354
 7220SOL    HW222560   0.782   5.503   5.350
 7221SOL     OW22561   4.157   5.795   4.630
 7221SOL    HW122562   4.129   5.703   4.658
 7221SOL    HW222563   4.187   5.847   4.711
 7222SOL     OW22564   5.877   0.346   2.959
 7222SOL    HW122565   5.824   0.296   3.027
 7222SOL    HW222566   5.924   0.423   3.002
 7223SOL     OW22567   3.108   2.206   1.438
 7223SOL    HW122568   3.027   2.148   1.431
 7223SOL    HW222569   3.110   2.251   1.527
 7224SOL     OW22570   5.632   2.129   3.570
 7224SOL    HW122571   5.576   2.122   3.652
 7224SOL    HW222572   5.667   2.039   3.545
 7225SOL     OW22573   0.836   6.065   0.288
 7225SOL    HW122574   0.906   6.027   0.348
 7225SOL    HW222575   0.764   6.107   0.342
 7226SOL     OW22576   6.901   1.112   1.051
 7226SOL    HW122577   6.936   1.126   1.144
 7226SOL    HW222578   6.934   1.185   0.991
 7227SOL     OW22579   0.919   2.538   1.109
 7227SOL    HW122580   0.826   2.530   1.073
 7227SOL    HW222581   0.941   2.456   1.163
 7228SOL     OW22582   0.843   1.549   2.358
 7228SOL    HW122583   0.772   1.496   2.312
 7228SOL    HW222584   0.828   1.647   2.342
 7229SOL     OW22585   1.655   6.449   5.264
 7229SOL    HW122586   1.602   6.437   5.347
 7229SOL    HW222587   1.736   6.505   5.283
 7230SOL     OW22588   4.635   5.096   4.495
 7230SOL    HW122589   4.636   4.996   4.494
 7230SOL    HW222590   4.550   5.129   4.453
 7231SOL     OW22591   4.743   0.066   0.283
 7231SOL    HW122592   4.685   0.148   0.275
 7231SOL    HW222593   4.696   7.011   0.243
 7232SOL     OW22594   5.286   5.525   2.907
 7232SOL    HW122595   5.250   5.563   2.822
 7232SOL    HW222596   5.306   5.599   2.971
 7233SOL     OW22597   0.353   2.718   4.597
 7233SOL    HW122598   0.449   2.701   4.578
 7233SOL    HW222599   0.297   2.643   4.560
 7234SOL     OW22600   5.426   3.802   3.363
 7234SOL    HW122601   5.378   3.793   3.276
 7234SOL    HW222602   5.476   3.718   3.383
 7235SOL     OW22603   6.769   4.289   1.654
 7235SOL    HW122604   6.720   4.202   1.647
 7235SOL    HW222605   6.794   4.321   1.563
 7236SOL     OW22606   2.416   1.839   2.188
 7236SOL    HW122607   2.421   1.936   2.168
 7236SOL    HW222608   2.324   1.806   2.168
 7237SOL     OW22609   5.381   0.414   5.022
 7237SOL    HW122610   5.462   0.448   5.068
 7237SOL    HW222611   5.401   0.401   4.925
 7238SOL     OW22612   3.095   1.990   1.199
 7238SOL    HW122613   3.195   1.996   1.204
 7238SOL    HW222614   3.068   1.894   1.192
 7239SOL     OW22615   2.019   2.020   2.501
 7239SOL    HW122616   2.116   1.996   2.510
 7239SOL    HW222617   2.011   2.116   2.473
 7240SOL     OW22618   2.648   4.793   5.982
 7240SOL    HW122619   2.632   4.810   5.885
 7240SOL    HW222620   2.577   4.838   6.036
 7241SOL     OW22621   2.532   0.660   0.671
 7241SOL    HW122622   2.460   0.706   0.620
 7241SOL    HW222623   2.615   0.656   0.615
 7242SOL     OW22624   6.151   5.928   0.419
 7242SOL    HW122625   6.133   6.013   0.369
 7242SOL    HW222626   6.212   5.869   0.366
 7243SOL     OW22627   6.743   4.535   6.228
 7243SOL    HW122628   6.792   4.605   6.281
 7243SOL    HW222629   6.804   4.459   6.210
 7244SOL     OW22630   5.900   0.513   0.943
 7244SOL    HW122631   5.968   0.574   0.900
 7244SOL    HW222632   5.906   0.522   1.042
 7245SOL     OW22633   0.330   1.945   5.258
 7245SOL    HW122634   0.243   1.994   5.249
 7245SOL    HW222635   0.402   1.997   5.211
 7246SOL     OW22636   6.473   0.437   4.111
 7246SOL    HW122637   6.385   0.389   4.106
 7246SOL    HW222638   6.523   0.407   4.192
 7247SOL     OW22639   2.996   6.733   4.123
 7247SOL    HW122640   2.900   6.725   4.097
 7247SOL    HW222641   3.023   6.829   4.122
 7248SOL     OW22642   3.610   0.888   3.797
 7248SOL    HW122643   3.594   0.789   3.791
 7248SOL    HW222644   3.700   0.905   3.835
 7249SOL     OW22645   5.376   4.806   2.219
 7249SOL    HW122646   5.306   4.864   2.177
 7249SOL    HW222647   5.445   4.783   2.150
 7250SOL     OW22648   4.082   5.888   6.180
 7250SOL    HW122649   4.005   5.951   6.167
 7250SOL    HW222650   4.074   5.844   6.269
 7251SOL     OW22651   0.669   6.681   5.243
 7251SOL    HW122652   0.733   6.609   5.217
 7251SOL    HW222653   0.597   6.687   5.174
 7252SOL     OW22654   3.833   3.216   3.426
 7252SOL    HW122655   3.923   3.244   3.392
 7252SOL    HW222656   3.845   3.161   3.509
 7253SOL     OW22657   2.742   5.868   6.519
 7253SOL    HW122658   2.820   5.853   6.459
 7253SOL    HW222659   2.658   5.837   6.473
 7254SOL     OW22660   4.569   5.559   4.747
 7254SOL    HW122661   4.629   5.588   4.672
 7254SOL    HW222662   4.474   5.563   4.717
 7255SOL     OW22663   3.717   3.583   1.163
 7255SOL    HW122664   3.645   3.642   1.200
 7255SOL    HW222665   3.693   3.487   1.180
 7256SOL     OW22666   4.472   4.516   4.391
 7256SOL    HW122667   4.399   4.560   4.443
 7256SOL    HW222668   4.441   4.502   4.296
 7257SOL     OW22669   4.952   3.298   3.748
 7257SOL    HW122670   4.936   3.396   3.734
 7257SOL    HW222671   5.000   3.261   3.669
 7258SOL     OW22672   3.998   0.897   2.771
 7258SOL    HW122673   4.086   0.876   2.813
 7258SOL    HW222674   3.954   0.971   2.822
 7259SOL     OW22675   3.291   3.330   1.411
 7259SOL    HW122676   3.262   3.425   1.396
 7259SOL    HW222677   3.231   3.287   1.478
 7260SOL     OW22678   2.754   2.354   2.608
 7260SOL    HW122679   2.674   2.397   2.566
 7260SOL    HW222680   2.797   2.292   2.542
 7261SOL     OW22681   2.183   2.757   1.251
 7261SOL    HW122682   2.108   2.772   1.187
 7261SOL    HW222683   2.192   2.660   1.271
 7262SOL     OW22684   5.608   1.827   4.675
 7262SOL    HW122685   5.623   1.814   4.577
 7262SOL    HW222686   5.696   1.830   4.721
 7263SOL     OW22687   0.126   6.622   2.258
 7263SOL    HW122688   0.179   6.698   2.220
 7263SOL    HW222689   0.172   6.535   2.238
 7264SOL     OW22690   6.005   1.362   6.330
 7264SOL    HW122691   6.099   1.392   6.312
 7264SOL    HW222692   5.979   1.292   6.263
 7265SOL     OW22693   5.497   5.858   6.041
 7265SOL    HW122694   5.463   5.765   6.027
 7265SOL    HW222695   5.475   5.914   5.962
 7266SOL     OW22696   4.685   0.275   1.308
 7266SOL    HW122697   4.734   0.192   1.332
 7266SOL    HW222698   4.589   0.253   1.289
 7267SOL     OW22699   6.595   5.384   5.424
 7267SOL    HW122700   6.594   5.484   5.412
 7267SOL    HW222701   6.504   5.347   5.408
 7268SOL     OW22702   4.339   4.593   2.766
 7268SOL    HW122703   4.259   4.535   2.759
 7268SOL    HW222704   4.413   4.555   2.710
 7269SOL     OW22705   0.002   6.303   1.053
 7269SOL    HW122706   0.085   6.327   1.104
 7269SOL    HW222707   0.016   6.323   0.956
 7270SOL     OW22708   0.862   2.909   4.913
 7270SOL    HW122709   0.854   2.984   4.980
 7270SOL    HW222710   0.840   2.944   4.822
 7271SOL     OW22711   0.539   5.260   4.046
 7271SOL    HW122712   0.551   5.315   3.964
 7271SOL    HW222713   0.586   5.173   4.035
 7272SOL     OW22714   5.521   4.846   1.711
 7272SOL    HW122715   5.477   4.933   1.689
 7272SOL    HW222716   5.611   4.843   1.667
 7273SOL     OW22717   5.287   5.043   2.490
 7273SOL    HW122718   5.304   5.036   2.588
 7273SOL    HW222719   5.370   5.073   2.443
 7274SOL     OW22720   0.896   6.264   0.106
 7274SOL    HW122721   0.950   6.247   0.023
 7274SOL    HW222722   0.873   6.177   0.149
 7275SOL     OW22723   6.909   1.182   2.506
 7275SOL    HW122724   6.935   1.096   2.550
 7275SOL    HW222725   6.909   1.255   2.574
 7276SOL     OW22726   3.612   1.317   3.112
 7276SOL    HW122727   3.535   1.253   3.108
 7276SOL    HW222728   3.697   1.266   3.122
 7277SOL     OW22729   5.156   1.275   4.382
 7277SOL    HW122730   5.208   1.344   4.333
 7277SOL    HW222731   5.060   1.278   4.352
 7278SOL     OW22732   3.475   1.794   2.034
 7278SOL    HW122733   3.469   1.887   2.071
 7278SOL    HW222734   3.451   1.728   2.105
 7279SOL     OW22735   3.901   2.738   6.656
 7279SOL    HW122736   3.815   2.770   6.616
 7279SOL    HW222737   3.967   2.813   6.658
 7280SOL     OW22738   7.018   2.329   4.123
 7280SOL    HW122739   0.049   2.259   4.169
 7280SOL    HW222740   0.050   2.412   4.112
 7281SOL     OW22741   2.133   0.572   0.594
 7281SOL    HW122742   2.100   0.560   0.501
 7281SOL    HW222743   2.193   0.496   0.618
 7282SOL     OW22744   6.602   6.628   0.395
 7282SOL    HW122745   6.622   6.725   0.382
 7282SOL    HW222746   6.523   6.603   0.339
 7283SOL     OW22747   3.360   6.902   1.946
 7283SOL    HW122748   3.335   6.921   1.851
 7283SOL    HW222749   3.381   6.987   1.994
 7284SOL     OW22750   0.003   3.441   4.806
 7284SOL    HW122751   6.966   3.397   4.873
 7284SOL    HW222752   0.076   3.378   4.780
 7285SOL     OW22753   5.795   3.764   2.067
 7285SOL    HW122754   5.875   3.705   2.079
 7285SOL    HW222755   5.714   3.718   2.104
 7286SOL     OW22756   1.109   0.481   1.125
 7286SOL    HW122757   1.201   0.506   1.157
 7286SOL    HW222758   1.044   0.552   1.153
 7287SOL     OW22759   6.478   3.321   4.604
 7287SOL    HW122760   6.454   3.340   4.699
 7287SOL    HW222761   6.494   3.407   4.556
 7288SOL     OW22762   1.105   2.555   1.874
 7288SOL    HW122763   1.128   2.541   1.970
 7288SOL    HW222764   1.016   2.514   1.854
 7289SOL     OW22765   6.793   2.007   3.042
 7289SOL    HW122766   6.808   2.053   3.130
 7289SOL    HW222767   6.768   2.074   2.973
 7290SOL     OW22768   3.297   1.042   5.608
 7290SOL    HW122769   3.382   0.998   5.579
 7290SOL    HW222770   3.314   1.099   5.688
 7291SOL     OW22771   2.948   0.098   1.002
 7291SOL    HW122772   2.855   0.067   1.021
 7291SOL    HW222773   3.013   0.044   1.055
 7292SOL     OW22774   2.878   0.141   3.174
 7292SOL    HW122775   2.972   0.168   3.192
 7292SOL    HW222776   2.816   0.204   3.221
 7293SOL     OW22777   1.830   0.924   6.119
 7293SOL    HW122778   1.917   0.941   6.073
 7293SOL    HW222779   1.795   1.010   6.156
 7294SOL     OW22780   3.076   4.129   0.698
 7294SOL    HW122781   3.034   4.105   0.611
 7294SOL    HW222782   3.047   4.062   0.768
 7295SOL     OW22783   0.107   4.348   1.397
 7295SOL    HW122784   0.147   4.335   1.488
 7295SOL    HW222785   0.014   4.310   1.396
 7296SOL     OW22786   4.536   4.852   2.686
 7296SOL    HW122787   4.438   4.834   2.696
 7296SOL    HW222788   4.575   4.787   2.620
 7297SOL     OW22789   2.852   0.038   2.788
 7297SOL    HW122790   2.845   0.118   2.728
 7297SOL    HW222791   2.774   0.036   2.850
 7298SOL     OW22792   5.249   5.709   0.130
 7298SOL    HW122793   5.331   5.753   0.167
 7298SOL    HW222794   5.246   5.720   0.031
 7299SOL     OW22795   0.471   1.562   0.665
 7299SOL    HW122796   0.541   1.634   0.665
 7299SOL    HW222797   0.442   1.542   0.759
 7300SOL     OW22798   0.710   5.711   2.166
 7300SOL    HW122799   0.694   5.659   2.250
 7300SOL    HW222800   0.682   5.656   2.088
 7301SOL     OW22801   6.285   1.938   6.079
 7301SOL    HW122802   6.235   2.024   6.076
 7301SOL    HW222803   6.346   1.931   5.999
 7302SOL     OW22804   0.343   2.127   5.705
 7302SOL    HW122805   0.328   2.034   5.738
 7302SOL    HW222806   0.269   2.152   5.643
 7303SOL     OW22807   3.425   0.675   6.860
 7303SOL    HW122808   3.340   0.726   6.853
 7303SOL    HW222809   3.407   0.578   6.849
 7304SOL     OW22810   1.804   5.482   1.724
 7304SOL    HW122811   1.840   5.567   1.761
 7304SOL    HW222812   1.879   5.419   1.705
 7305SOL     OW22813   5.584   2.095   1.468
 7305SOL    HW122814   5.643   2.122   1.391
 7305SOL    HW222815   5.584   2.168   1.536
 7306SOL     OW22816   3.819   1.813   1.898
 7306SOL    HW122817   3.856   1.895   1.852
 7306SOL    HW222818   3.731   1.836   1.940
 7307SOL     OW22819   4.267   0.208   2.173
 7307SOL    HW122820   4.199   0.267   2.130
 7307SOL    HW222821   4.296   0.249   2.260
 7308SOL     OW22822   6.262   1.160   3.297
 7308SOL    HW122823   6.251   1.221   3.375
 7308SOL    HW222824   6.309   1.077   3.325
 7309SOL     OW22825   2.665   6.729   1.778
 7309SOL    HW122826   2.690   6.738   1.682
 7309SOL    HW222827   2.743   6.697   1.831
 7310SOL     OW22828   1.591   2.986   6.498
 7310SOL    HW122829   1.678   2.939   6.488
 7310SOL    HW222830   1.601   3.062   6.562
 7311SOL     OW22831   1.079   0.145   0.583
 7311SOL    HW122832   1.032   0.139   0.671
 7311SOL    HW222833   1.019   0.112   0.510
 7312SOL     OW22834   0.903   1.718   5.051
 7312SOL    HW122835   0.897   1.634   4.998
 7312SOL    HW222836   0.823   1.775   5.034
 7313SOL     OW22837   2.010   1.680   0.616
 7313SOL    HW122838   1.979   1.633   0.699
 7313SOL    HW222839   1.933   1.690   0.553
 7314SOL     OW22840   0.154   4.189   5.889
 7314SOL    HW122841   0.085   4.116   5.899
 7314SOL    HW222842   0.240   4.158   5.930
 7315SOL     OW22843   5.453   5.675   2.208
 7315SOL    HW122844   5.358   5.696   2.186
 7315SOL    HW222845   5.507   5.759   2.210
 7316SOL     OW22846   3.675   2.147   6.448
 7316SOL    HW122847   3.622   2.066   6.425
 7316SOL    HW222848   3.772   2.126   6.444
 7317SOL     OW22849   3.468   1.293   2.076
 7317SOL    HW122850   3.542   1.348   2.038
 7317SOL    HW222851   3.446   1.326   2.168
 7318SOL     OW22852   3.562   6.355   3.082
 7318SOL    HW122853   3.508   6.430   3.043
 7318SOL    HW222854   3.521   6.326   3.168
 7319SOL     OW22855   6.060   3.667   6.344
 7319SOL    HW122856   6.097   3.696   6.433
 7319SOL    HW222857   6.135   3.655   6.279
 7320SOL     OW22858   0.729   3.378   6.998
 7320SOL    HW122859   0.670   3.459   7.004
 7320SOL    HW222860   0.710   3.317   0.051
 7321SOL     OW22861   2.277   6.605   6.219
 7321SOL    HW122862   2.275   6.672   6.294
 7321SOL    HW222863   2.327   6.524   6.249
 7322SOL     OW22864   0.119   3.055   2.644
 7322SOL    HW122865   0.161   2.972   2.680
 7322SOL    HW222866   0.093   3.040   2.548
 7323SOL     OW22867   2.851   2.595   1.185
 7323SOL    HW122868   2.781   2.665   1.169
 7323SOL    HW222869   2.927   2.609   1.123
 7324SOL     OW22870   6.123   4.780   2.872
 7324SOL    HW122871   6.198   4.846   2.861
 7324SOL    HW222872   6.139   4.701   2.813
 7325SOL     OW22873   2.570   6.798   5.120
 7325SOL    HW122874   2.602   6.798   5.215
 7325SOL    HW222875   2.492   6.736   5.111
 7326SOL     OW22876   3.824   0.251   6.409
 7326SOL    HW122877   3.765   0.263   6.489
 7326SOL    HW222878   3.875   0.335   6.392
 7327SOL     OW22879   5.750   3.312   3.644
 7327SOL    HW122880   5.736   3.409   3.623
 7327SOL    HW222881   5.833   3.279   3.598
 7328SOL     OW22882   4.626   6.442   5.783
 7328SOL    HW122883   4.532   6.446   5.816
 7328SOL    HW222884   4.635   6.497   5.699
 7329SOL     OW22885   1.376   2.845   0.568
 7329SOL    HW122886   1.467   2.851   0.528
 7329SOL    HW222887   1.382   2.851   0.667
 7330SOL     OW22888   2.177   2.926   0.872
 7330SOL    HW122889   2.100   2.980   0.839
 7330SOL    HW222890   2.154   2.886   0.961
 7331SOL     OW22891   5.380   6.522   2.162
 7331SOL    HW122892   5.472   6.500   2.193
 7331SOL    HW222893   5.322   6.546   2.240
 7332SOL     OW22894   3.950   4.276   6.829
 7332SOL    HW122895   4.045   4.305   6.839
 7332SOL    HW222896   3.891   4.334   6.886
 7333SOL     OW22897   5.854   3.448   2.504
 7333SOL    HW122898   5.795   3.524   2.475
 7333SOL    HW222899   5.887   3.465   2.597
 7334SOL     OW22900   2.844   5.603   5.483
 7334SOL    HW122901   2.828   5.582   5.387
 7334SOL    HW222902   2.841   5.701   5.497
 7335SOL     OW22903   0.034   2.329   3.441
 7335SOL    HW122904   0.101   2.294   3.376
 7335SOL    HW222905   7.013   2.253   3.489
 7336SOL     OW22906   2.523   6.417   1.404
 7336SOL    HW122907   2.448   6.392   1.465
 7336SOL    HW222908   2.492   6.410   1.309
 7337SOL     OW22909   2.038   3.097   1.045
 7337SOL    HW122910   1.957   3.071   1.098
 7337SOL    HW222911   2.062   3.192   1.065
 7338SOL     OW22912   5.696   1.785   1.886
 7338SOL    HW122913   5.653   1.780   1.795
 7338SOL    HW222914   5.625   1.800   1.955
 7339SOL     OW22915   6.938   0.370   5.237
 7339SOL    HW122916   6.948   0.338   5.142
 7339SOL    HW222917   0.004   0.386   5.277
 7340SOL     OW22918   3.982   1.959   6.780
 7340SOL    HW122919   3.939   1.980   6.692
 7340SOL    HW222920   3.916   1.912   6.838
 7341SOL     OW22921   1.617   5.153   5.433
 7341SOL    HW122922   1.650   5.067   5.394
 7341SOL    HW222923   1.529   5.177   5.391
 7342SOL     OW22924   5.966   0.072   6.756
 7342SOL    HW122925   5.997   0.111   6.843
 7342SOL    HW222926   5.941   7.000   6.770
 7343SOL     OW22927   5.674   3.124   1.843
 7343SOL    HW122928   5.583   3.166   1.843
 7343SOL    HW222929   5.675   3.047   1.907
 7344SOL     OW22930   2.087   0.099   6.541
 7344SOL    HW122931   2.186   0.108   6.532
 7344SOL    HW222932   2.067   0.031   6.612
 7345SOL     OW22933   5.066   6.038   5.357
 7345SOL    HW122934   5.092   6.057   5.452
 7345SOL    HW222935   4.968   6.049   5.346
 7346SOL     OW22936   3.600   3.922   1.368
 7346SOL    HW122937   3.599   3.877   1.458
 7346SOL    HW222938   3.621   4.019   1.380
 7347SOL     OW22939   6.218   2.585   1.262
 7347SOL    HW122940   6.265   2.670   1.283
 7347SOL    HW222941   6.240   2.516   1.331
 7348SOL     OW22942   1.677   3.545   3.524
 7348SOL    HW122943   1.733   3.482   3.578
 7348SOL    HW222944   1.657   3.627   3.579
 7349SOL     OW22945   3.740   1.676   1.433
 7349SOL    HW122946   3.695   1.642   1.351
 7349SOL    HW222947   3.674   1.725   1.490
 7350SOL     OW22948   1.506   3.533   4.159
 7350SOL    HW122949   1.550   3.621   4.139
 7350SOL    HW222950   1.519   3.511   4.255
 7351SOL     OW22951   4.024   4.789   6.485
 7351SOL    HW122952   4.033   4.805   6.584
 7351SOL    HW222953   4.028   4.877   6.437
 7352SOL     OW22954   1.992   2.790   2.978
 7352SOL    HW122955   2.012   2.850   2.901
 7352SOL    HW222956   1.898   2.805   3.009
 7353SOL     OW22957   0.710   0.453   5.824
 7353SOL    HW122958   0.694   0.532   5.766
 7353SOL    HW222959   0.783   0.397   5.785
 7354SOL     OW22960   0.467   1.632   5.926
 7354SOL    HW122961   0.463   1.684   6.011
 7354SOL    HW222962   0.386   1.653   5.871
 7355SOL     OW22963   1.431   6.924   6.982
 7355SOL    HW122964   1.504   6.937   0.025
 7355SOL    HW222965   1.355   6.874   0.001
 7356SOL     OW22966   5.470   2.649   6.015
 7356SOL    HW122967   5.507   2.569   5.968
 7356SOL    HW222968   5.494   2.645   6.112
 7357SOL     OW22969   4.351   1.125   1.332
 7357SOL    HW122970   4.449   1.106   1.337
 7357SOL    HW222971   4.337   1.221   1.308
 7358SOL     OW22972   1.654   2.275   1.994
 7358SOL    HW122973   1.744   2.253   1.957
 7358SOL    HW222974   1.617   2.357   1.949
 7359SOL     OW22975   2.920   2.753   0.666
 7359SOL    HW122976   2.964   2.840   0.689
 7359SOL    HW222977   2.825   2.755   0.697
 7360SOL     OW22978   3.432   2.540   6.005
 7360SOL    HW122979   3.487   2.491   5.937
 7360SOL    HW222980   3.464   2.516   6.096
 7361SOL     OW22981   4.080   0.259   1.902
 7361SOL    HW122982   4.014   0.184   1.909
 7361SOL    HW222983   4.035   0.346   1.925
 7362SOL     OW22984   0.774   6.803   4.916
 7362SOL    HW122985   0.680   6.834   4.902
 7362SOL    HW222986   0.800   6.740   4.843
 7363SOL     OW22987   4.014   1.622   1.217
 7363SOL    HW122988   3.973   1.554   1.278
 7363SOL    HW222989   4.015   1.712   1.262
 7364SOL     OW22990   4.110   0.165   1.447
 7364SOL    HW122991   4.048   0.135   1.520
 7364SOL    HW222992   4.063   0.158   1.359
 7365SOL     OW22993   1.515   5.904   1.882
 7365SOL    HW122994   1.565   5.968   1.940
 7365SOL    HW222995   1.524   5.932   1.786
 7366SOL     OW22996   1.748   5.534   0.653
 7366SOL    HW122997   1.792   5.493   0.573
 7366SOL    HW222998   1.699   5.616   0.624
 7367SOL     OW22999   4.701   3.994   1.466
 7367SOL    HW123000   4.774   4.063   1.464
 7367SOL    HW223001   4.646   4.007   1.550
 7368SOL     OW23002   3.655   2.918   4.129
 7368SOL    HW123003   3.733   2.922   4.192
 7368SOL    HW223004   3.575   2.882   4.177
 7369SOL     OW23005   4.635   3.171   0.738
 7369SOL    HW123006   4.717   3.197   0.789
 7369SOL    HW223007   4.640   3.209   0.645
 7370SOL     OW23008   2.365   0.126   5.406
 7370SOL    HW123009   2.313   0.200   5.450
 7370SOL    HW223010   2.455   0.161   5.381
 7371SOL     OW23011   2.226   5.955   3.887
 7371SOL    HW123012   2.138   6.001   3.880
 7371SOL    HW223013   2.226   5.872   3.831
 7372SOL     OW23014   2.831   1.038   5.780
 7372SOL    HW123015   2.825   1.042   5.680
 7372SOL    HW223016   2.924   1.014   5.807
 7373SOL     OW23017   5.477   1.850   3.472
 7373SOL    HW123018   5.423   1.797   3.537
 7373SOL    HW223019   5.419   1.877   3.395
 7374SOL     OW23020   2.896   2.150   5.134
 7374SOL    HW123021   2.976   2.207   5.151
 7374SOL    HW223022   2.924   2.063   5.093
 7375SOL     OW23023   1.693   2.662   2.856
 7375SOL    HW123024   1.614   2.620   2.811
 7375SOL    HW223025   1.774   2.606   2.838
 7376SOL     OW23026   4.163   1.520   0.211
 7376SOL    HW123027   4.235   1.586   0.195
 7376SOL    HW223028   4.087   1.563   0.259
 7377SOL     OW23029   5.330   6.077   2.143
 7377SOL    HW123030   5.287   6.167   2.145
 7377SOL    HW223031   5.269   6.011   2.099
 7378SOL     OW23032   6.921   1.958   5.211
 7378SOL    HW123033   6.989   2.031   5.211
 7378SOL    HW223034   6.950   1.885   5.149
 7379SOL     OW23035   4.026   2.171   3.136
 7379SOL    HW123036   4.070   2.137   3.054
 7379SOL    HW223037   3.927   2.172   3.123
 7380SOL     OW23038   6.989   3.136   5.063
 7380SOL    HW123039   6.960   3.055   5.012
 7380SOL    HW223040   6.971   3.218   5.009
 7381SOL     OW23041   5.077   4.141   2.305
 7381SOL    HW123042   4.988   4.123   2.348
 7381SOL    HW223043   5.064   4.198   2.224
 7382SOL     OW23044   0.104   5.648   6.099
 7382SOL    HW123045   0.011   5.684   6.091
 7382SOL    HW223046   0.170   5.720   6.077
 7383SOL     OW23047   0.541   6.707   1.559
 7383SOL    HW123048   0.620   6.697   1.499
 7383SOL    HW223049   0.566   6.684   1.653
 7384SOL     OW23050   5.654   0.704   2.153
 7384SOL    HW123051   5.556   0.697   2.137
 7384SOL    HW223052   5.704   0.662   2.077
 7385SOL     OW23053   4.323   6.519   2.079
 7385SOL    HW123054   4.259   6.557   2.146
 7385SOL    HW223055   4.294   6.546   1.987
 7386SOL     OW23056   6.763   2.140   5.445
 7386SOL    HW123057   6.812   2.183   5.521
 7386SOL    HW223058   6.698   2.073   5.482
 7387SOL     OW23059   4.362   6.445   4.676
 7387SOL    HW123060   4.432   6.462   4.745
 7387SOL    HW223061   4.406   6.432   4.587
 7388SOL     OW23062   0.104   5.331   3.567
 7388SOL    HW123063   0.112   5.381   3.480
 7388SOL    HW223064   0.194   5.294   3.591
 7389SOL     OW23065   1.070   4.602   0.072
 7389SOL    HW123066   1.147   4.610   0.135
 7389SOL    HW223067   0.986   4.585   0.124
 7390SOL     OW23068   1.545   1.317   6.971
 7390SOL    HW123069   1.562   1.250   0.019
 7390SOL    HW223070   1.597   1.400   6.990
 7391SOL     OW23071   5.264   4.213   4.538
 7391SOL    HW123072   5.338   4.158   4.576
 7391SOL    HW223073   5.302   4.294   4.493
 7392SOL     OW23074   2.858   5.533   6.792
 7392SOL    HW123075   2.870   5.562   6.697
 7392SOL    HW223076   2.946   5.527   6.838
 7393SOL     OW23077   5.571   5.393   1.535
 7393SOL    HW123078   5.620   5.466   1.489
 7393SOL    HW223079   5.594   5.305   1.493
 7394SOL     OW23080   3.040   2.288   6.105
 7394SOL    HW123081   3.136   2.306   6.130
 7394SOL    HW223082   3.022   2.326   6.014
 7395SOL     OW23083   2.330   1.694   0.275
 7395SOL    HW123084   2.412   1.638   0.263
 7395SOL    HW223085   2.348   1.765   0.343
 7396SOL     OW23086   1.336   6.801   0.537
 7396SOL    HW123087   1.376   6.782   0.447
 7396SOL    HW223088   1.322   6.899   0.548
 7397SOL     OW23089   5.179   5.381   5.111
 7397SOL    HW123090   5.099   5.344   5.158
 7397SOL    HW223091   5.208   5.317   5.039
 7398SOL     OW23092   3.074   5.190   4.155
 7398SOL    HW123093   3.036   5.105   4.191
 7398SOL    HW223094   3.016   5.267   4.182
 7399SOL     OW23095   0.847   3.477   5.425
 7399SOL    HW123096   0.944   3.462   5.442
 7399SOL    HW223097   0.800   3.496   5.512
 7400SOL     OW23098   2.644   3.634   6.506
 7400SOL    HW123099   2.728   3.667   6.462
 7400SOL    HW223100   2.567   3.648   6.445
 7401SOL     OW23101   0.947   1.104   4.095
 7401SOL    HW123102   0.868   1.087   4.154
 7401SOL    HW223103   0.974   1.019   4.050
 7402SOL     OW23104   2.358   5.335   5.196
 7402SOL    HW123105   2.385   5.375   5.283
 7402SOL    HW223106   2.366   5.404   5.124
 7403SOL     OW23107   1.369   3.866   3.654
 7403SOL    HW123108   1.383   3.803   3.730
 7403SOL    HW223109   1.271   3.877   3.636
 7404SOL     OW23110   2.883   5.891   1.431
 7404SOL    HW123111   2.957   5.886   1.498
 7404SOL    HW223112   2.804   5.840   1.465
 7405SOL     OW23113   2.601   5.020   4.259
 7405SOL    HW123114   2.550   4.954   4.203
 7405SOL    HW223115   2.568   5.017   4.353
 7406SOL     OW23116   1.371   3.523   3.540
 7406SOL    HW123117   1.469   3.500   3.539
 7406SOL    HW223118   1.359   3.620   3.523
 7407SOL     OW23119   6.975   5.894   5.264
 7407SOL    HW123120   7.009   5.800   5.262
 7407SOL    HW223121   6.932   5.916   5.176
 7408SOL     OW23122   1.062   3.439   5.825
 7408SOL    HW123123   1.114   3.355   5.841
 7408SOL    HW223124   0.989   3.447   5.892
 7409SOL     OW23125   0.717   1.359   4.795
 7409SOL    HW123126   0.744   1.278   4.743
 7409SOL    HW223127   0.625   1.346   4.832
 7410SOL     OW23128   0.114   5.299   1.015
 7410SOL    HW123129   0.205   5.282   0.975
 7410SOL    HW223130   0.117   5.279   1.113
 7411SOL     OW23131   2.895   6.281   4.426
 7411SOL    HW123132   2.858   6.251   4.338
 7411SOL    HW223133   2.911   6.380   4.423
 7412SOL     OW23134   4.235   0.578   2.779
 7412SOL    HW123135   4.244   0.604   2.875
 7412SOL    HW223136   4.139   0.553   2.760
 7413SOL     OW23137   5.632   5.207   4.849
 7413SOL    HW123138   5.668   5.128   4.898
 7413SOL    HW223139   5.577   5.176   4.771
 7414SOL     OW23140   6.936   6.871   3.952
 7414SOL    HW123141   6.932   6.774   3.929
 7414SOL    HW223142   7.017   6.889   4.007
 7415SOL     OW23143   1.166   3.998   2.882
 7415SOL    HW123144   1.122   4.049   2.955
 7415SOL    HW223145   1.199   3.910   2.917
 7416SOL     OW23146   3.057   0.912   3.605
 7416SOL    HW123147   3.059   0.952   3.514
 7416SOL    HW223148   2.981   0.951   3.657
 7417SOL     OW23149   2.157   7.003   5.721
 7417SOL    HW123150   2.089   6.937   5.754
 7417SOL    HW223151   2.247   6.977   5.754
 7418SOL     OW23152   3.885   4.884   0.388
 7418SOL    HW123153   3.879   4.811   0.456
 7418SOL    HW223154   3.797   4.892   0.341
 7419SOL     OW23155   6.076   2.333   4.759
 7419SOL    HW123156   6.097   2.431   4.754
 7419SOL    HW223157   6.129   2.285   4.688
 7420SOL     OW23158   6.567   6.619   1.917
 7420SOL    HW123159   6.641   6.571   1.871
 7420SOL    HW223160   6.604   6.673   1.993
 7421SOL     OW23161   3.118   3.700   1.654
 7421SOL    HW123162   3.135   3.659   1.565
 7421SOL    HW223163   3.192   3.676   1.717
 7422SOL     OW23164   0.297   3.567   2.269
 7422SOL    HW123165   0.324   3.510   2.191
 7422SOL    HW223166   0.320   3.520   2.354
 7423SOL     OW23167   6.677   4.097   6.020
 7423SOL    HW123168   6.741   4.156   6.070
 7423SOL    HW223169   6.681   4.005   6.058
 7424SOL     OW23170   6.449   0.675   4.535
 7424SOL    HW123171   6.438   0.580   4.508
 7424SOL    HW223172   6.524   0.716   4.484
 7425SOL     OW23173   4.747   5.897   6.419
 7425SOL    HW123174   4.789   5.831   6.357
 7425SOL    HW223175   4.672   5.853   6.468
 7426SOL     OW23176   1.487   1.928   6.199
 7426SOL    HW123177   1.572   1.954   6.154
 7426SOL    HW223178   1.487   1.962   6.293
 7427SOL     OW23179   3.267   5.923   3.836
 7427SOL    HW123180   3.240   5.921   3.739
 7427SOL    HW223181   3.193   5.962   3.890
 7428SOL     OW23182   3.833   1.814   5.527
 7428SOL    HW123183   3.891   1.772   5.597
 7428SOL    HW223184   3.862   1.908   5.512
 7429SOL     OW23185   5.287   0.105   3.432
 7429SOL    HW123186   5.232   0.188   3.423
 7429SOL    HW223187   5.310   0.071   3.341
 7430SOL     OW23188   0.250   3.997   6.139
 7430SOL    HW123189   0.346   3.998   6.169
 7430SOL    HW223190   0.246   3.991   6.040
 7431SOL     OW23191   0.286   3.435   2.526
 7431SOL    HW123192   0.189   3.428   2.552
 7431SOL    HW223193   0.326   3.516   2.568
 7432SOL     OW23194   0.517   0.107   3.503
 7432SOL    HW123195   0.497   0.054   3.420
 7432SOL    HW223196   0.616   0.111   3.517
 7433SOL     OW23197   5.799   4.951   0.591
 7433SOL    HW123198   5.846   5.040   0.593
 7433SOL    HW223199   5.720   4.955   0.652
 7434SOL     OW23200   4.455   0.658   6.160
 7434SOL    HW123201   4.444   0.656   6.061
 7434SOL    HW223202   4.431   0.749   6.194
 7435SOL     OW23203   3.953   5.470   0.151
 7435SOL    HW123204   3.875   5.479   0.213
 7435SOL    HW223205   3.957   5.550   0.091
 7436SOL     OW23206   5.608   3.327   6.322
 7436SOL    HW123207   5.704   3.310   6.301
 7436SOL    HW223208   5.596   3.332   6.421
 7437SOL     OW23209   0.231   6.007   0.437
 7437SOL    HW123210   0.296   6.068   0.483
 7437SOL    HW223211   0.142   6.051   0.433
 7438SOL     OW23212   0.784   5.757   1.265
 7438SOL    HW123213   0.840   5.825   1.216
 7438SOL    HW223214   0.801   5.666   1.227
 7439SOL     OW23215   1.618   6.242   4.907
 7439SOL    HW123216   1.674   6.159   4.904
 7439SOL    HW223217   1.538   6.226   4.965
 7440SOL     OW23218   0.862   3.348   4.219
 7440SOL    HW123219   0.873   3.254   4.251
 7440SOL    HW223220   0.844   3.348   4.121
 7441SOL     OW23221   4.458   5.813   4.996
 7441SOL    HW123222   4.420   5.721   4.983
 7441SOL    HW223223   4.543   5.806   5.048
 7442SOL     OW23224   0.926   0.950   6.387
 7442SOL    HW123225   0.865   1.015   6.343
 7442SOL    HW223226   0.938   0.870   6.327
 7443SOL     OW23227   0.397   0.908   1.588
 7443SOL    HW123228   0.411   0.812   1.567
 7443SOL    HW223229   0.316   0.941   1.538
 7444SOL     OW23230   6.849   3.366   4.973
 7444SOL    HW123231   6.769   3.334   4.923
 7444SOL    HW223232   6.822   3.432   5.043
 7445SOL     OW23233   3.346   1.068   1.335
 7445SOL    HW123234   3.434   1.106   1.307
 7445SOL    HW223235   3.304   1.127   1.404
 7446SOL     OW23236   5.493   4.297   1.133
 7446SOL    HW123237   5.468   4.260   1.043
 7446SOL    HW223238   5.438   4.251   1.203
 7447SOL     OW23239   1.315   3.180   5.304
 7447SOL    HW123240   1.396   3.221   5.262
 7447SOL    HW223241   1.249   3.157   5.233
 7448SOL     OW23242   5.615   6.802   5.161
 7448SOL    HW123243   5.633   6.759   5.073
 7448SOL    HW223244   5.575   6.892   5.146
 7449SOL     OW23245   6.529   2.398   1.814
 7449SOL    HW123246   6.524   2.462   1.890
 7449SOL    HW223247   6.497   2.308   1.844
 7450SOL     OW23248   5.187   2.381   4.504
 7450SOL    HW123249   5.183   2.346   4.598
 7450SOL    HW223250   5.097   2.416   4.478
 7451SOL     OW23251   1.265   6.750   2.581
 7451SOL    HW123252   1.270   6.768   2.483
 7451SOL    HW223253   1.298   6.830   2.631
 7452SOL     OW23254   0.616   6.437   4.962
 7452SOL    HW123255   0.610   6.338   4.973
 7452SOL    HW223256   0.711   6.463   4.949
 7453SOL     OW23257   4.780   6.067   6.183
 7453SOL    HW123258   4.798   5.971   6.201
 7453SOL    HW223259   4.783   6.119   6.268
 7454SOL     OW23260   1.219   2.642   1.390
 7454SOL    HW123261   1.209   2.681   1.482
 7454SOL    HW223262   1.219   2.542   1.396
 7455SOL     OW23263   0.377   2.331   2.013
 7455SOL    HW123264   0.358   2.234   2.002
 7455SOL    HW223265   0.341   2.381   1.934
 7456SOL     OW23266   0.840   2.457   4.494
 7456SOL    HW123267   0.926   2.502   4.517
 7456SOL    HW223268   0.840   2.365   4.532
 7457SOL     OW23269   3.504   0.834   5.487
 7457SOL    HW123270   3.544   0.914   5.443
 7457SOL    HW223271   3.556   0.753   5.461
 7458SOL     OW23272   2.870   6.930   6.254
 7458SOL    HW123273   2.859   0.003   6.230
 7458SOL    HW223274   2.847   6.917   6.351
 7459SOL     OW23275   4.517   0.562   0.555
 7459SOL    HW123276   4.614   0.577   0.536
 7459SOL    HW223277   4.489   0.621   0.631
 7460SOL     OW23278   1.739   4.596   1.029
 7460SOL    HW123279   1.670   4.637   1.088
 7460SOL    HW223280   1.808   4.664   1.005
 7461SOL     OW23281   5.701   1.396   6.305
 7461SOL    HW123282   5.800   1.405   6.316
 7461SOL    HW223283   5.672   1.306   6.336
 7462SOL     OW23284   1.767   3.871   2.944
 7462SOL    HW123285   1.807   3.836   3.028
 7462SOL    HW223286   1.839   3.914   2.889
 7463SOL     OW23287   3.355   4.679   1.174
 7463SOL    HW123288   3.261   4.705   1.157
 7463SOL    HW223289   3.375   4.592   1.127
 7464SOL     OW23290   3.694   6.835   6.524
 7464SOL    HW123291   3.670   6.821   6.428
 7464SOL    HW223292   3.785   6.798   6.541
 7465SOL     OW23293   1.760   6.865   0.118
 7465SOL    HW123294   1.740   6.782   0.169
 7465SOL    HW223295   1.686   6.931   0.130
 7466SOL     OW23296   0.492   6.482   6.362
 7466SOL    HW123297   0.511   6.543   6.285
 7466SOL    HW223298   0.394   6.469   6.372
 7467SOL     OW23299   6.627   1.350   0.120
 7467SOL    HW123300   6.687   1.326   0.196
 7467SOL    HW223301   6.618   1.449   0.115
 7468SOL     OW23302   6.403   3.265   2.344
 7468SOL    HW123303   6.350   3.195   2.295
 7468SOL    HW223304   6.366   3.275   2.436
 7469SOL     OW23305   6.425   0.009   6.936
 7469SOL    HW123306   6.432   0.053   0.002
 7469SOL    HW223307   6.356   0.056   6.881
 7470SOL     OW23308   0.034   3.222   4.167
 7470SOL    HW123309   0.064   3.202   4.260
 7470SOL    HW223310   0.106   3.197   4.102
 7471SOL     OW23311   5.983   6.149   5.557
 7471SOL    HW123312   5.979   6.050   5.560
 7471SOL    HW223313   5.910   6.184   5.498
 7472SOL     OW23314   6.219   6.703   4.336
 7472SOL    HW123315   6.229   6.774   4.405
 7472SOL    HW223316   6.294   6.638   4.343
 7473SOL     OW23317   0.053   4.724   2.668
 7473SOL    HW123318   0.082   4.730   2.572
 7473SOL    HW223319   6.990   4.674   2.673
 7474SOL     OW23320   2.727   1.404   5.348
 7474SOL    HW123321   2.634   1.369   5.339
 7474SOL    HW223322   2.766   1.374   5.435
 7475SOL     OW23323   3.718   1.123   2.533
 7475SOL    HW123324   3.703   1.144   2.436
 7475SOL    HW223325   3.748   1.028   2.542
 7476SOL     OW23326   3.844   5.130   4.317
 7476SOL    HW123327   3.804   5.203   4.373
 7476SOL    HW223328   3.865   5.166   4.226
 7477SOL     OW23329   6.468   1.439   4.458
 7477SOL    HW123330   6.461   1.397   4.368
 7477SOL    HW223331   6.392   1.503   4.471
 7478SOL     OW23332   4.499   4.725   6.962
 7478SOL    HW123333   4.434   4.651   6.946
 7478SOL    HW223334   4.452   4.813   6.958
 7479SOL     OW23335   4.075   2.330   1.427
 7479SOL    HW123336   4.066   2.290   1.335
 7479SOL    HW223337   4.169   2.362   1.440
 7480SOL     OW23338   6.635   4.058   1.656
 7480SOL    HW123339   6.690   4.025   1.579
 7480SOL    HW223340   6.539   4.034   1.641
 7481SOL     OW23341   6.214   5.653   2.124
 7481SOL    HW123342   6.119   5.681   2.134
 7481SOL    HW223343   6.237   5.589   2.197
 7482SOL     OW23344   5.336   2.164   3.084
 7482SOL    HW123345   5.291   2.166   2.994
 7482SOL    HW223346   5.433   2.144   3.072
 7483SOL     OW23347   4.494   2.311   5.183
 7483SOL    HW123348   4.519   2.395   5.133
 7483SOL    HW223349   4.561   2.295   5.255
 7484SOL     OW23350   0.321   0.760   3.367
 7484SOL    HW123351   0.225   0.749   3.343
 7484SOL    HW223352   0.339   0.712   3.453
 7485SOL     OW23353   3.133   0.118   4.335
 7485SOL    HW123354   3.124   0.063   4.252
 7485SOL    HW223355   3.225   0.156   4.339
 7486SOL     OW23356   2.872   0.705   5.736
 7486SOL    HW123357   2.956   0.758   5.729
 7486SOL    HW223358   2.821   0.711   5.651
 7487SOL     OW23359   2.742   6.261   2.401
 7487SOL    HW123360   2.712   6.313   2.321
 7487SOL    HW223361   2.817   6.310   2.446
 7488SOL     OW23362   1.777   6.972   4.401
 7488SOL    HW123363   1.682   6.999   4.418
 7488SOL    HW223364   1.804   6.902   4.467
 7489SOL     OW23365   5.178   2.291   4.770
 7489SOL    HW123366   5.102   2.253   4.823
 7489SOL    HW223367   5.207   2.377   4.811
 7490SOL     OW23368   0.658   1.622   0.990
 7490SOL    HW123369   0.561   1.625   0.966
 7490SOL    HW223370   0.687   1.527   1.002
 7491SOL     OW23371   6.344   3.202   6.342
 7491SOL    HW123372   6.287   3.246   6.411
 7491SOL    HW223373   6.373   3.271   6.275
 7492SOL     OW23374   2.545   0.581   4.082
 7492SOL    HW123375   2.573   0.487   4.063
 7492SOL    HW223376   2.546   0.597   4.180
 7493SOL     OW23377   6.930   3.945   6.456
 7493SOL    HW123378   6.833   3.924   6.470
 7493SOL    HW223379   6.962   3.900   6.373
 7494SOL     OW23380   5.604   0.724   3.076
 7494SOL    HW123381   5.638   0.649   3.018
 7494SOL    HW223382   5.571   0.687   3.162
 7495SOL     OW23383   2.164   0.650   0.176
 7495SOL    HW123384   2.257   0.657   0.140
 7495SOL    HW223385   2.114   0.734   0.155
 7496SOL     OW23386   6.929   3.039   6.347
 7496SOL    HW123387   6.915   3.012   6.442
 7496SOL    HW223388   6.988   2.973   6.301
 7497SOL     OW23389   2.591   4.456   0.500
 7497SOL    HW123390   2.566   4.364   0.470
 7497SOL    HW223391   2.624   4.508   0.421
 7498SOL     OW23392   2.448   1.359   5.350
 7498SOL    HW123393   2.427   1.271   5.308
 7498SOL    HW223394   2.434   1.432   5.283
 7499SOL     OW23395   4.650   1.461   3.677
 7499SOL    HW123396   4.659   1.532   3.747
 7499SOL    HW223397   4.728   1.467   3.614
 7500SOL     OW23398   4.042   5.670   4.153
 7500SOL    HW123399   4.062   5.725   4.233
 7500SOL    HW223400   4.073   5.576   4.168
 7501SOL     OW23401   6.241   4.535   4.250
 7501SOL    HW123402   6.216   4.521   4.154
 7501SOL    HW223403   6.309   4.607   4.256
 7502SOL     OW23404   1.594   0.311   4.305
 7502SOL    HW123405   1.552   0.398   4.331
 7502SOL    HW223406   1.693   0.317   4.315
 7503SOL     OW23407   2.739   2.029   0.894
 7503SOL    HW123408   2.671   1.977   0.843
 7503SOL    HW223409   2.728   2.010   0.992
 7504SOL     OW23410   1.816   0.171   3.126
 7504SOL    HW123411   1.824   0.081   3.168
 7504SOL    HW223412   1.902   0.193   3.080
 7505SOL     OW23413   2.421   2.114   5.820
 7505SOL    HW123414   2.499   2.153   5.868
 7505SOL    HW223415   2.449   2.029   5.774
 7506SOL     OW23416   5.026   6.875   2.702
 7506SOL    HW123417   5.086   6.930   2.762
 7506SOL    HW223418   4.932   6.906   2.713
 7507SOL     OW23419   0.586   0.529   1.986
 7507SOL    HW123420   0.495   0.568   2.003
 7507SOL    HW223421   0.643   0.542   2.067
 7508SOL     OW23422   6.839   6.911   1.755
 7508SOL    HW123423   6.823   6.832   1.696
 7508SOL    HW223424   6.751   6.946   1.788
 7509SOL     OW23425   5.461   4.541   0.869
 7509SOL    HW123426   5.414   4.459   0.903
 7509SOL    HW223427   5.559   4.525   0.869
 7510SOL     OW23428   2.959   4.267   5.274
 7510SOL    HW123429   2.961   4.361   5.238
 7510SOL    HW223430   2.866   4.231   5.267
 7511SOL     OW23431   1.888   6.769   3.409
 7511SOL    HW123432   1.854   6.792   3.317
 7511SOL    HW223433   1.852   6.836   3.475
 7512SOL     OW23434   3.015   4.870   6.801
 7512SOL    HW123435   3.068   4.791   6.771
 7512SOL    HW223436   2.995   4.929   6.723
 7513SOL     OW23437   2.293   1.252   1.682
 7513SOL    HW123438   2.338   1.178   1.732
 7513SOL    HW223439   2.228   1.297   1.742
 7514SOL     OW23440   2.227   5.619   1.680
 7514SOL    HW123441   2.282   5.545   1.640
 7514SOL    HW223442   2.219   5.605   1.778
 7515SOL     OW23443   0.197   5.413   2.471
 7515SOL    HW123444   0.105   5.447   2.490
 7515SOL    HW223445   0.261   5.490   2.471
 7516SOL     OW23446   6.125   5.674   4.308
 7516SOL    HW123447   6.172   5.592   4.342
 7516SOL    HW223448   6.033   5.649   4.278
 7517SOL     OW23449   0.046   3.147   0.831
 7517SOL    HW123450   0.125   3.120   0.886
 7517SOL    HW223451   6.986   3.110   0.872
 7518SOL     OW23452   4.749   5.025   3.214
 7518SOL    HW123453   4.762   4.935   3.172
 7518SOL    HW223454   4.676   5.073   3.167
 7519SOL     OW23455   6.897   6.925   4.594
 7519SOL    HW123456   6.978   6.931   4.535
 7519SOL    HW223457   6.926   6.914   4.689
 7520SOL     OW23458   3.337   6.664   2.093
 7520SOL    HW123459   3.266   6.595   2.083
 7520SOL    HW223460   3.302   6.753   2.064
 7521SOL     OW23461   4.845   4.605   6.396
 7521SOL    HW123462   4.804   4.679   6.344
 7521SOL    HW223463   4.776   4.535   6.415
 7522SOL     OW23464   3.148   6.888   6.247
 7522SOL    HW123465   3.185   6.966   6.297
 7522SOL    HW223466   3.049   6.899   6.235
 7523SOL     OW23467   5.607   0.840   6.252
 7523SOL    HW123468   5.602   0.761   6.313
 7523SOL    HW223469   5.614   0.810   6.157
 7524SOL     OW23470   1.835   2.632   6.324
 7524SOL    HW123471   1.894   2.577   6.383
 7524SOL    HW223472   1.852   2.607   6.229
 7525SOL     OW23473   2.966   0.476   6.235
 7525SOL    HW123474   3.051   0.517   6.204
 7525SOL    HW223475   2.898   0.548   6.251
 7526SOL     OW23476   3.142   3.288   1.649
 7526SOL    HW123477   3.139   3.206   1.706
 7526SOL    HW223478   3.213   3.349   1.682
 7527SOL     OW23479   4.265   5.940   3.332
 7527SOL    HW123480   4.353   5.983   3.310
 7527SOL    HW223481   4.264   5.914   3.428
 7528SOL     OW23482   4.711   1.564   6.825
 7528SOL    HW123483   4.716   1.602   6.732
 7528SOL    HW223484   4.676   1.471   6.821
 7529SOL     OW23485   6.158   0.376   4.398
 7529SOL    HW123486   6.130   0.450   4.459
 7529SOL    HW223487   6.136   0.401   4.304
 7530SOL     OW23488   7.005   4.063   2.003
 7530SOL    HW123489   6.973   3.969   2.011
 7530SOL    HW223490   0.021   4.092   2.091
 7531SOL     OW23491   4.328   2.326   3.817
 7531SOL    HW123492   4.392   2.250   3.802
 7531SOL    HW223493   4.349   2.401   3.755
 7532SOL     OW23494   5.605   4.795   1.374
 7532SOL    HW123495   5.571   4.718   1.429
 7532SOL    HW223496   5.680   4.764   1.316
 7533SOL     OW23497   2.922   1.482   2.600
 7533SOL    HW123498   2.878   1.460   2.687
 7533SOL    HW223499   2.954   1.398   2.556
 7534SOL     OW23500   4.346   6.436   5.838
 7534SOL    HW123501   4.274   6.506   5.842
 7534SOL    HW223502   4.329   6.376   5.760
 7535SOL     OW23503   3.031   0.152   5.770
 7535SOL    HW123504   2.982   0.065   5.765
 7535SOL    HW223505   2.966   0.228   5.765
 7536SOL     OW23506   4.995   5.077   4.987
 7536SOL    HW123507   5.032   5.016   5.058
 7536SOL    HW223508   4.912   5.037   4.949
 7537SOL     OW23509   2.583   5.380   3.472
 7537SOL    HW123510   2.653   5.311   3.489
 7537SOL    HW223511   2.502   5.359   3.526
 7538SOL     OW23512   3.418   3.470   2.026
 7538SOL    HW123513   3.459   3.533   2.092
 7538SOL    HW223514   3.319   3.482   2.026
 7539SOL     OW23515   0.926   3.061   4.264
 7539SOL    HW123516   0.960   3.055   4.170
 7539SOL    HW223517   0.921   2.969   4.303
 7540SOL     OW23518   3.617   6.448   5.589
 7540SOL    HW123519   3.523   6.460   5.619
 7540SOL    HW223520   3.677   6.442   5.670
 7541SOL     OW23521   0.234   4.424   4.464
 7541SOL    HW123522   0.150   4.472   4.487
 7541SOL    HW223523   0.214   4.353   4.396
 7542SOL     OW23524   0.739   5.836   0.202
 7542SOL    HW123525   0.651   5.818   0.246
 7542SOL    HW223526   0.770   5.928   0.227
 7543SOL     OW23527   3.595   2.007   0.999
 7543SOL    HW123528   3.502   2.014   1.034
 7543SOL    HW223529   3.611   1.914   0.966
 7544SOL     OW23530   0.544   2.711   3.340
 7544SOL    HW123531   0.461   2.698   3.394
 7544SOL    HW223532   0.583   2.622   3.317
 7545SOL     OW23533   5.742   6.383   1.939
 7545SOL    HW123534   5.719   6.408   2.033
 7545SOL    HW223535   5.836   6.348   1.936
 7546SOL     OW23536   3.434   1.003   2.426
 7546SOL    HW123537   3.357   1.033   2.371
 7546SOL    HW223538   3.412   1.014   2.523
 7547SOL     OW23539   4.171   0.153   0.259
 7547SOL    HW123540   4.261   0.145   0.216
 7547SOL    HW223541   4.144   0.250   0.262
 7548SOL     OW23542   3.647   2.281   0.302
 7548SOL    HW123543   3.609   2.363   0.346
 7548SOL    HW223544   3.659   2.299   0.204
 7549SOL     OW23545   5.713   1.924   0.798
 7549SOL    HW123546   5.628   1.977   0.792
 7549SOL    HW223547   5.748   1.909   0.705
 7550SOL     OW23548   2.310   4.266   2.132
 7550SOL    HW123549   2.398   4.312   2.117
 7550SOL    HW223550   2.309   4.222   2.221
 7551SOL     OW23551   5.108   3.984   6.815
 7551SOL    HW123552   5.077   4.025   6.729
 7551SOL    HW223553   5.202   3.954   6.805
 7552SOL     OW23554   1.262   5.838   3.480
 7552SOL    HW123555   1.181   5.885   3.516
 7552SOL    HW223556   1.339   5.901   3.480
 7553SOL     OW23557   4.733   5.132   5.827
 7553SOL    HW123558   4.824   5.096   5.804
 7553SOL    HW223559   4.702   5.092   5.913
 7554SOL     OW23560   4.219   1.681   1.606
 7554SOL    HW123561   4.268   1.644   1.685
 7554SOL    HW223562   4.174   1.766   1.632
 7555SOL     OW23563   1.844   4.839   5.544
 7555SOL    HW123564   1.894   4.873   5.623
 7555SOL    HW223565   1.858   4.740   5.536
 7556SOL     OW23566   0.918   3.204   5.477
 7556SOL    HW123567   0.908   3.228   5.574
 7556SOL    HW223568   0.863   3.266   5.422
 7557SOL     OW23569   5.189   2.447   6.004
 7557SOL    HW123570   5.280   2.408   6.014
 7557SOL    HW223571   5.178   2.523   6.068
 7558SOL     OW23572   1.551   2.409   4.222
 7558SOL    HW123573   1.532   2.501   4.256
 7558SOL    HW223574   1.491   2.388   4.145
 7559SOL     OW23575   6.426   5.085   0.185
 7559SOL    HW123576   6.337   5.106   0.144
 7559SOL    HW223577   6.482   5.034   0.119
 7560SOL     OW23578   5.173   6.547   0.998
 7560SOL    HW123579   5.094   6.588   1.043
 7560SOL    HW223580   5.160   6.448   0.992
 7561SOL     OW23581   1.068   3.147   6.711
 7561SOL    HW123582   1.130   3.191   6.776
 7561SOL    HW223583   1.077   3.191   6.621
 7562SOL     OW23584   5.964   5.847   4.973
 7562SOL    HW123585   5.938   5.751   4.958
 7562SOL    HW223586   6.017   5.853   5.058
 7563SOL     OW23587   2.580   6.207   0.818
 7563SOL    HW123588   2.666   6.157   0.828
 7563SOL    HW223589   2.515   6.177   0.888
 7564SOL     OW23590   5.059   1.878   3.034
 7564SOL    HW123591   5.027   1.880   2.940
 7564SOL    HW223592   5.037   1.965   3.079
 7565SOL     OW23593   5.720   3.554   0.537
 7565SOL    HW123594   5.716   3.624   0.466
 7565SOL    HW223595   5.690   3.466   0.499
 7566SOL     OW23596   0.065   4.745   3.421
 7566SOL    HW123597   0.088   4.731   3.517
 7566SOL    HW223598   6.991   4.730   3.408
 7567SOL     OW23599   1.729   1.764   4.854
 7567SOL    HW123600   1.788   1.707   4.911
 7567SOL    HW223601   1.634   1.752   4.880
 7568SOL     OW23602   5.170   6.441   3.465
 7568SOL    HW123603   5.187   6.530   3.424
 7568SOL    HW223604   5.258   6.396   3.484
 7569SOL     OW23605   3.802   5.287   6.150
 7569SOL    HW123606   3.809   5.259   6.246
 7569SOL    HW223607   3.848   5.375   6.138
 7570SOL     OW23608   5.567   4.516   5.370
 7570SOL    HW123609   5.570   4.453   5.293
 7570SOL    HW223610   5.652   4.509   5.423
 7571SOL     OW23611   4.919   5.920   3.378
 7571SOL    HW123612   4.982   5.848   3.346
 7571SOL    HW223613   4.858   5.882   3.447
 7572SOL     OW23614   4.184   0.703   2.521
 7572SOL    HW123615   4.224   0.687   2.611
 7572SOL    HW223616   4.086   0.720   2.530
 7573SOL     OW23617   6.919   6.432   4.780
 7573SOL    HW123618   6.987   6.358   4.778
 7573SOL    HW223619   6.900   6.463   4.687
 7574SOL     OW23620   6.175   1.062   4.526
 7574SOL    HW123621   6.093   1.053   4.582
 7574SOL    HW223622   6.185   0.980   4.469
 7575SOL     OW23623   4.034   0.578   5.806
 7575SOL    HW123624   4.038   0.533   5.895
 7575SOL    HW223625   4.021   0.510   5.734
 7576SOL     OW23626   5.617   4.946   0.058
 7576SOL    HW123627   5.663   4.932   0.146
 7576SOL    HW223628   5.588   5.042   0.052
 7577SOL     OW23629   6.852   6.496   5.443
 7577SOL    HW123630   6.947   6.516   5.421
 7577SOL    HW223631   6.845   6.404   5.482
 7578SOL     OW23632   2.447   5.672   2.363
 7578SOL    HW123633   2.360   5.629   2.341
 7578SOL    HW223634   2.475   5.645   2.455
 7579SOL     OW23635   6.171   1.910   1.943
 7579SOL    HW123636   6.193   1.835   1.880
 7579SOL    HW223637   6.101   1.968   1.902
 7580SOL     OW23638   1.357   3.863   4.054
 7580SOL    HW123639   1.335   3.871   4.152
 7580SOL    HW223640   1.356   3.766   4.028
 7581SOL     OW23641   0.052   0.280   1.282
 7581SOL    HW123642   0.027   0.204   1.221
 7581SOL    HW223643   0.094   0.353   1.228
 7582SOL     OW23644   2.533   1.102   0.415
 7582SOL    HW123645   2.486   1.027   0.461
 7582SOL    HW223646   2.631   1.097   0.432
 7583SOL     OW23647   6.501   3.078   0.770
 7583SOL    HW123648   6.532   3.087   0.865
 7583SOL    HW223649   6.580   3.072   0.709
 7584SOL     OW23650   2.718   6.784   1.528
 7584SOL    HW123651   2.755   6.841   1.455
 7584SOL    HW223652   2.621   6.766   1.509
 7585SOL     OW23653   1.968   2.543   6.074
 7585SOL    HW123654   2.051   2.573   6.027
 7585SOL    HW223655   1.907   2.498   6.009
 7586SOL     OW23656   3.966   1.224   3.702
 7586SOL    HW123657   3.937   1.135   3.736
 7586SOL    HW223658   4.035   1.263   3.763
 7587SOL     OW23659   2.328   1.709   6.485
 7587SOL    HW123660   2.388   1.744   6.412
 7587SOL    HW223661   2.380   1.701   6.570
 7588SOL     OW23662   1.141   3.252   2.720
 7588SOL    HW123663   1.234   3.284   2.704
 7588SOL    HW223664   1.091   3.249   2.633
 7589SOL     OW23665   0.039   6.912   1.929
 7589SOL    HW123666   0.123   6.935   1.880
 7589SOL    HW223667   6.985   6.916   1.866
 7590SOL     OW23668   4.588   1.739   6.543
 7590SOL    HW123669   4.572   1.640   6.546
 7590SOL    HW223670   4.540   1.778   6.465
 7591SOL     OW23671   0.002   4.482   0.389
 7591SOL    HW123672   0.049   4.398   0.414
 7591SOL    HW223673   6.996   4.478   0.293
 7592SOL     OW23674   6.336   4.239   6.509
 7592SOL    HW123675   6.413   4.303   6.508
 7592SOL    HW223676   6.342   4.177   6.431
 7593SOL     OW23677   5.707   2.249   1.252
 7593SOL    HW123678   5.777   2.305   1.208
 7593SOL    HW223679   5.620   2.299   1.253
 7594SOL     OW23680   0.895   5.312   1.796
 7594SOL    HW123681   0.929   5.269   1.879
 7594SOL    HW223682   0.801   5.343   1.811
 7595SOL     OW23683   6.945   2.739   5.852
 7595SOL    HW123684   7.021   2.803   5.839
 7595SOL    HW223685   6.975   2.663   5.908
 7596SOL     OW23686   4.720   5.874   3.797
 7596SOL    HW123687   4.807   5.915   3.824
 7596SOL    HW223688   4.687   5.814   3.870
 7597SOL     OW23689   3.537   6.108   2.938
 7597SOL    HW123690   3.612   6.042   2.925
 7597SOL    HW223691   3.575   6.195   2.968
 7598SOL     OW23692   6.872   1.774   3.542
 7598SOL    HW123693   6.954   1.731   3.505
 7598SOL    HW223694   6.818   1.812   3.467
 7599SOL     OW23695   6.220   1.879   2.352
 7599SOL    HW123696   6.303   1.831   2.382
 7599SOL    HW223697   6.237   1.977   2.354
 7600SOL     OW23698   1.942   1.186   2.762
 7600SOL    HW123699   1.876   1.160   2.692
 7600SOL    HW223700   2.022   1.228   2.720
 7601SOL     OW23701   1.947   5.284   2.986
 7601SOL    HW123702   1.910   5.366   3.028
 7601SOL    HW223703   2.043   5.299   2.962
 7602SOL     OW23704   0.342   4.257   6.996
 7602SOL    HW123705   0.385   4.326   6.938
 7602SOL    HW223706   0.406   4.182   7.012
 7603SOL     OW23707   2.281   4.743   6.266
 7603SOL    HW123708   2.298   4.664   6.324
 7603SOL    HW223709   2.184   4.747   6.241
 7604SOL     OW23710   1.286   4.639   4.188
 7604SOL    HW123711   1.320   4.694   4.265
 7604SOL    HW223712   1.359   4.579   4.156
 7605SOL     OW23713   0.210   0.223   0.935
 7605SOL    HW123714   0.243   0.225   0.840
 7605SOL    HW223715   0.114   0.250   0.937
 7606SOL     OW23716   6.490   3.513   3.939
 7606SOL    HW123717   6.476   3.609   3.917
 7606SOL    HW223718   6.476   3.498   4.037
 7607SOL     OW23719   4.344   4.945   0.305
 7607SOL    HW123720   4.306   4.881   0.372
 7607SOL    HW223721   4.444   4.942   0.309
 7608SOL     OW23722   3.440   3.731   3.055
 7608SOL    HW123723   3.512   3.769   2.998
 7608SOL    HW223724   3.457   3.754   3.151
 7609SOL     OW23725   0.651   3.543   3.989
 7609SOL    HW123726   0.642   3.503   4.080
 7609SOL    HW223727   0.582   3.503   3.928
 7610SOL     OW23728   5.854   6.281   0.815
 7610SOL    HW123729   5.883   6.323   0.729
 7610SOL    HW223730   5.770   6.326   0.847
 7611SOL     OW23731   0.301   1.757   0.383
 7611SOL    HW123732   0.344   1.787   0.297
 7611SOL    HW223733   0.301   1.658   0.387
 7612SOL     OW23734   5.140   3.252   5.052
 7612SOL    HW123735   5.074   3.321   5.079
 7612SOL    HW223736   5.192   3.222   5.133
 7613SOL     OW23737   6.228   3.425   1.101
 7613SOL    HW123738   6.278   3.396   1.020
 7613SOL    HW223739   6.141   3.376   1.106
 7614SOL     OW23740   4.765   3.479   1.053
 7614SOL    HW123741   4.834   3.500   1.123
 7614SOL    HW223742   4.794   3.399   1.000
 7615SOL     OW23743   3.630   3.950   6.569
 7615SOL    HW123744   3.560   3.971   6.637
 7615SOL    HW223745   3.623   4.015   6.492
 7616SOL     OW23746   6.299   5.366   5.550
 7616SOL    HW123747   6.236   5.301   5.593
 7616SOL    HW223748   6.293   5.357   5.450
 7617SOL     OW23749   4.069   5.571   3.063
 7617SOL    HW123750   4.052   5.665   3.093
 7617SOL    HW223751   4.052   5.508   3.139
 7618SOL     OW23752   0.622   1.537   5.729
 7618SOL    HW123753   0.616   1.560   5.826
 7618SOL    HW223754   0.575   1.450   5.713
 7619SOL     OW23755   5.638   2.992   5.302
 7619SOL    HW123756   5.626   3.011   5.205
 7619SOL    HW223757   5.735   2.993   5.324
 7620SOL     OW23758   4.174   5.706   0.572
 7620SOL    HW123759   4.111   5.649   0.624
 7620SOL    HW223760   4.234   5.647   0.516
 7621SOL     OW23761   0.260   1.801   0.637
 7621SOL    HW123762   0.216   1.719   0.676
 7621SOL    HW223763   0.265   1.791   0.538
 7622SOL     OW23764   5.319   5.443   1.632
 7622SOL    HW123765   5.408   5.427   1.589
 7622SOL    HW223766   5.332   5.478   1.725
 7623SOL     OW23767   4.742   3.910   6.769
 7623SOL    HW123768   4.792   3.989   6.804
 7623SOL    HW223769   4.699   3.934   6.681
 7624SOL     OW23770   6.850   2.745   4.830
 7624SOL    HW123771   6.905   2.705   4.757
 7624SOL    HW223772   6.910   2.779   4.903
 7625SOL     OW23773   4.602   1.032   1.321
 7625SOL    HW123774   4.605   0.955   1.385
 7625SOL    HW223775   4.587   0.997   1.228
 7626SOL     OW23776   6.028   6.593   4.176
 7626SOL    HW123777   6.064   6.613   4.085
 7626SOL    HW223778   6.093   6.625   4.245
 7627SOL     OW23779   5.128   2.551   0.132
 7627SOL    HW123780   5.155   2.557   0.036
 7627SOL    HW223781   5.110   2.456   0.156
 7628SOL     OW23782   3.722   0.882   3.079
 7628SOL    HW123783   3.695   0.802   3.132
 7628SOL    HW223784   3.729   0.858   2.983
 7629SOL     OW23785   6.540   6.747   2.986
 7629SOL    HW123786   6.541   6.844   3.009
 7629SOL    HW223787   6.505   6.735   2.893
 7630SOL     OW23788   6.582   0.170   1.569
 7630SOL    HW123789   6.630   0.179   1.482
 7630SOL    HW223790   6.488   0.206   1.560
 7631SOL     OW23791   0.920   0.485   6.005
 7631SOL    HW123792   0.848   0.444   5.949
 7631SOL    HW223793   0.941   0.576   5.971
 7632SOL     OW23794   3.561   2.957   2.126
 7632SOL    HW123795   3.472   2.912   2.119
 7632SOL    HW223796   3.554   3.050   2.090
 7633SOL     OW23797   5.043   1.518   1.619
 7633SOL    HW123798   4.955   1.513   1.665
 7633SOL    HW223799   5.045   1.454   1.542
 7634SOL     OW23800   0.880   1.912   2.905
 7634SOL    HW123801   0.874   1.944   2.999
 7634SOL    HW223802   0.790   1.916   2.862
 7635SOL     OW23803   3.650   5.551   4.902
 7635SOL    HW123804   3.592   5.632   4.903
 7635SOL    HW223805   3.744   5.578   4.923
 7636SOL     OW23806   1.222   2.381   4.380
 7636SOL    HW123807   1.309   2.428   4.370
 7636SOL    HW223808   1.154   2.423   4.320
 7637SOL     OW23809   2.466   5.011   2.227
 7637SOL    HW123810   2.418   4.945   2.170
 7637SOL    HW223811   2.563   5.013   2.202
 7638SOL     OW23812   3.433   6.159   0.705
 7638SOL    HW123813   3.349   6.160   0.759
 7638SOL    HW223814   3.489   6.239   0.727
 7639SOL     OW23815   1.212   1.988   0.282
 7639SOL    HW123816   1.127   1.943   0.256
 7639SOL    HW223817   1.198   2.087   0.280
 7640SOL     OW23818   3.420   1.753   6.506
 7640SOL    HW123819   3.515   1.722   6.497
 7640SOL    HW223820   3.362   1.676   6.531
 7641SOL     OW23821   1.316   4.359   1.780
 7641SOL    HW123822   1.283   4.453   1.772
 7641SOL    HW223823   1.243   4.301   1.818
 7642SOL     OW23824   3.997   0.738   3.226
 7642SOL    HW123825   3.997   0.778   3.135
 7642SOL    HW223826   3.907   0.698   3.246
 7643SOL     OW23827   4.878   3.434   4.026
 7643SOL    HW123828   4.930   3.396   3.950
 7643SOL    HW223829   4.882   3.372   4.105
 7644SOL     OW23830   5.927   2.795   2.548
 7644SOL    HW123831   5.856   2.779   2.616
 7644SOL    HW223832   5.932   2.718   2.485
 7645SOL     OW23833   4.078   4.475   5.667
 7645SOL    HW123834   4.178   4.477   5.671
 7645SOL    HW223835   4.049   4.398   5.610
 7646SOL     OW23836   1.390   3.324   2.684
 7646SOL    HW123837   1.463   3.261   2.656
 7646SOL    HW223838   1.416   3.368   2.770
 7647SOL     OW23839   6.908   4.038   2.561
 7647SOL    HW123840   6.976   3.986   2.508
 7647SOL    HW223841   6.884   4.121   2.510
 7648SOL     OW23842   2.843   1.636   3.424
 7648SOL    HW123843   2.831   1.609   3.328
 7648SOL    HW223844   2.872   1.732   3.428
 7649SOL     OW23845   1.055   0.671   3.061
 7649SOL    HW123846   1.020   0.630   2.977
 7649SOL    HW223847   1.103   0.756   3.038
 7650SOL     OW23848   4.359   2.573   1.271
 7650SOL    HW123849   4.336   2.640   1.201
 7650SOL    HW223850   4.458   2.574   1.287
 7651SOL     OW23851   2.577   0.626   4.357
 7651SOL    HW123852   2.519   0.645   4.436
 7651SOL    HW223853   2.623   0.710   4.328
 7652SOL     OW23854   6.523   3.721   4.725
 7652SOL    HW123855   6.595   3.717   4.795
 7652SOL    HW223856   6.551   3.783   4.652
 7653SOL     OW23857   2.206   2.011   6.940
 7653SOL    HW123858   2.289   1.998   6.994
 7653SOL    HW223859   2.178   1.923   6.901
 7654SOL     OW23860   5.075   3.165   3.187
 7654SOL    HW123861   5.010   3.162   3.264
 7654SOL    HW223862   5.143   3.093   3.199
 7655SOL     OW23863   4.559   0.388   3.160
 7655SOL    HW123864   4.558   0.466   3.222
 7655SOL    HW223865   4.473   0.338   3.168
 7656SOL     OW23866   2.199   5.151   5.979
 7656SOL    HW123867   2.221   5.162   5.882
 7656SOL    HW223868   2.100   5.139   5.989
 7657SOL     OW23869   1.987   3.020   4.287
 7657SOL    HW123870   1.970   3.050   4.380
 7657SOL    HW223871   1.901   3.007   4.239
 7658SOL     OW23872   3.648   0.110   5.640
 7658SOL    HW123873   3.640   0.194   5.693
 7658SOL    HW223874   3.559   0.088   5.600
 7659SOL     OW23875   5.810   4.988   0.295
 7659SOL    HW123876   5.819   4.979   0.394
 7659SOL    HW223877   5.743   5.059   0.275
 7660SOL     OW23878   0.539   5.951   3.843
 7660SOL    HW123879   0.498   6.008   3.914
 7660SOL    HW223880   0.467   5.915   3.784
 7661SOL     OW23881   6.165   2.833   4.394
 7661SOL    HW123882   6.196   2.858   4.302
 7661SOL    HW223883   6.069   2.859   4.406
 7662SOL     OW23884   1.099   2.582   2.679
 7662SOL    HW123885   1.031   2.515   2.708
 7662SOL    HW223886   1.136   2.628   2.760
 7663SOL     OW23887   1.336   6.046   6.344
 7663SOL    HW123888   1.310   6.057   6.439
 7663SOL    HW223889   1.284   5.971   6.303
 7664SOL     OW23890   3.387   0.284   1.551
 7664SOL    HW123891   3.363   0.300   1.455
 7664SOL    HW223892   3.303   0.265   1.603
 7665SOL     OW23893   4.589   7.023   4.785
 7665SOL    HW123894   4.586   0.067   4.858
 7665SOL    HW223895   4.546   0.037   4.702
 7666SOL     OW23896   0.310   6.562   1.282
 7666SOL    HW123897   0.324   6.633   1.351
 7666SOL    HW223898   0.323   6.601   1.191
 7667SOL     OW23899   4.972   5.686   2.239
 7667SOL    HW123900   4.882   5.723   2.259
 7667SOL    HW223901   5.014   5.650   2.322
 7668SOL     OW23902   2.872   4.574   0.648
 7668SOL    HW123903   2.926   4.491   0.650
 7668SOL    HW223904   2.783   4.558   0.690
 7669SOL     OW23905   5.483   2.046   5.382
 7669SOL    HW123906   5.530   2.124   5.423
 7669SOL    HW223907   5.439   2.075   5.297
 7670SOL     OW23908   0.972   5.017   6.711
 7670SOL    HW123909   1.029   4.955   6.764
 7670SOL    HW223910   0.931   4.968   6.635
 7671SOL     OW23911   4.349   1.053   3.194
 7671SOL    HW123912   4.433   1.094   3.158
 7671SOL    HW223913   4.312   1.112   3.265
 7672SOL     OW23914   0.429   6.474   3.011
 7672SOL    HW123915   0.333   6.499   3.020
 7672SOL    HW223916   0.441   6.410   2.935
 7673SOL     OW23917   2.063   5.663   0.408
 7673SOL    HW123918   2.119   5.670   0.325
 7673SOL    HW223919   1.967   5.651   0.382
 7674SOL     OW23920   5.808   1.482   3.330
 7674SOL    HW123921   5.726   1.426   3.343
 7674SOL    HW223922   5.868   1.439   3.263
 7675SOL     OW23923   5.931   6.924   2.383
 7675SOL    HW123924   5.942   7.015   2.425
 7675SOL    HW223925   5.977   6.856   2.440
 7676SOL     OW23926   1.643   2.187   0.602
 7676SOL    HW123927   1.717   2.173   0.536
 7676SOL    HW223928   1.659   2.271   0.653
 7677SOL     OW23929   0.617   5.347   1.840
 7677SOL    HW123930   0.601   5.359   1.938
 7677SOL    HW223931   0.617   5.250   1.818
 7678SOL     OW23932   2.041   1.773   4.562
 7678SOL    HW123933   2.097   1.718   4.625
 7678SOL    HW223934   1.946   1.744   4.568
 7679SOL     OW23935   2.862   5.554   6.492
 7679SOL    HW123936   2.806   5.590   6.418
 7679SOL    HW223937   2.847   5.456   6.500
 7680SOL     OW23938   1.807   1.881   0.817
 7680SOL    HW123939   1.833   1.972   0.851
 7680SOL    HW223940   1.790   1.886   0.718
 7681SOL     OW23941   2.420   0.030   0.942
 7681SOL    HW123942   2.435   0.026   1.040
 7681SOL    HW223943   2.374   0.115   0.918
 7682SOL     OW23944   3.236   0.133   2.561
 7682SOL    HW123945   3.297   0.163   2.488
 7682SOL    HW223946   3.194   0.046   2.536
 7683SOL     OW23947   6.166   1.321   3.548
 7683SOL    HW123948   6.223   1.264   3.607
 7683SOL    HW223949   6.077   1.277   3.535
 7684SOL     OW23950   3.651   2.131   2.566
 7684SOL    HW123951   3.695   2.192   2.501
 7684SOL    HW223952   3.707   2.049   2.578
 7685SOL     OW23953   3.458   2.480   0.008
 7685SOL    HW123954   3.516   2.400   0.000
 7685SOL    HW223955   3.420   2.503   6.942
 7686SOL     OW23956   6.371   0.016   2.709
 7686SOL    HW123957   6.449   0.043   2.652
 7686SOL    HW223958   6.293   0.075   2.688
 7687SOL     OW23959   5.756   4.798   3.921
 7687SOL    HW123960   5.766   4.778   4.018
 7687SOL    HW223961   5.711   4.886   3.910
 7688SOL     OW23962   0.950   6.063   5.730
 7688SOL    HW123963   0.982   6.137   5.789
 7688SOL    HW223964   0.951   6.092   5.635
 7689SOL     OW23965   5.240   6.785   3.290
 7689SOL    HW123966   5.146   6.771   3.257
 7689SOL    HW223967   5.237   6.831   3.379
 7690SOL     OW23968   5.649   5.177   0.967
 7690SOL    HW123969   5.649   5.274   0.943
 7690SOL    HW223970   5.707   5.127   0.904
 7691SOL     OW23971   5.436   2.625   5.057
 7691SOL    HW123972   5.448   2.596   4.962
 7691SOL    HW223973   5.487   2.564   5.117
 7692SOL     OW23974   0.472   6.715   1.898
 7692SOL    HW123975   0.509   6.626   1.922
 7692SOL    HW223976   0.546   6.782   1.890
 7693SOL     OW23977   3.848   0.357   1.307
 7693SOL    HW123978   3.934   0.402   1.284
 7693SOL    HW223979   3.810   0.313   1.226
 7694SOL     OW23980   0.443   4.715   5.362
 7694SOL    HW123981   0.409   4.653   5.292
 7694SOL    HW223982   0.371   4.734   5.428
 7695SOL     OW23983   4.265   6.645   0.796
 7695SOL    HW123984   4.250   6.653   0.697
 7695SOL    HW223985   4.358   6.610   0.813
 7696SOL     OW23986   6.919   1.168   5.284
 7696SOL    HW123987   6.861   1.246   5.308
 7696SOL    HW223988   6.907   1.146   5.187
 7697SOL     OW23989   3.096   6.258   2.110
 7697SOL    HW123990   3.108   6.175   2.056
 7697SOL    HW223991   3.127   6.242   2.204
 7698SOL     OW23992   6.888   2.131   3.597
 7698SOL    HW123993   6.926   2.154   3.687
 7698SOL    HW223994   6.879   2.032   3.588
 7699SOL     OW23995   3.714   5.763   6.729
 7699SOL    HW123996   3.690   5.781   6.634
 7699SOL    HW223997   3.657   5.689   6.765
 7700SOL     OW23998   4.890   6.240   4.276
 7700SOL    HW123999   4.877   6.158   4.332
 7700SOL    HW224000   4.857   6.320   4.326
 7701SOL     OW24001   6.435   1.725   6.983
 7701SOL    HW124002   6.347   1.678   6.983
 7701SOL    HW224003   6.499   1.679   6.922
 7702SOL     OW24004   3.635   5.988   5.964
 7702SOL    HW124005   3.586   6.020   5.884
 7702SOL    HW224006   3.733   6.004   5.952
 7703SOL     OW24007   6.124   0.572   5.664
 7703SOL    HW124008   6.188   0.547   5.737
 7703SOL    HW224009   6.031   0.549   5.693
 7704SOL     OW24010   5.204   5.498   5.605
 7704SOL    HW124011   5.262   5.579   5.596
 7704SOL    HW224012   5.261   5.416   5.607
 7705SOL     OW24013   3.890   5.282   6.416
 7705SOL    HW124014   3.794   5.304   6.430
 7705SOL    HW224015   3.947   5.353   6.458
 7706SOL     OW24016   4.401   3.091   5.346
 7706SOL    HW124017   4.487   3.090   5.295
 7706SOL    HW224018   4.398   3.173   5.404
 7707SOL     OW24019   0.458   5.517   6.211
 7707SOL    HW124020   0.540   5.518   6.153
 7707SOL    HW224021   0.379   5.490   6.157
 7708SOL     OW24022   6.365   0.266   5.864
 7708SOL    HW124023   6.399   0.360   5.859
 7708SOL    HW224024   6.298   0.251   5.791
 7709SOL     OW24025   5.839   4.482   1.910
 7709SOL    HW124026   5.849   4.503   1.813
 7709SOL    HW224027   5.742   4.475   1.934
 7710SOL     OW24028   2.827   0.677   0.821
 7710SOL    HW124029   2.805   0.708   0.729
 7710SOL    HW224030   2.841   0.578   0.821
 7711SOL     OW24031   6.711   6.236   5.482
 7711SOL    HW124032   6.663   6.282   5.407
 7711SOL    HW224033   6.652   6.232   5.562
 7712SOL     OW24034   5.296   6.100   2.578
 7712SOL    HW124035   5.352   6.044   2.517
 7712SOL    HW224036   5.224   6.145   2.525
 7713SOL     OW24037   1.411   4.565   0.458
 7713SOL    HW124038   1.415   4.473   0.496
 7713SOL    HW224039   1.350   4.621   0.515
 7714SOL     OW24040   6.429   4.328   5.595
 7714SOL    HW124041   6.337   4.288   5.600
 7714SOL    HW224042   6.492   4.273   5.649
 7715SOL     OW24043   4.394   2.082   6.730
 7715SOL    HW124044   4.311   2.135   6.748
 7715SOL    HW224045   4.464   2.105   6.798
 7716SOL     OW24046   6.093   4.533   3.721
 7716SOL    HW124047   6.134   4.540   3.630
 7716SOL    HW224048   5.995   4.553   3.715
 7717SOL     OW24049   1.924   1.004   4.927
 7717SOL    HW124050   1.850   0.994   4.994
 7717SOL    HW224051   2.005   0.955   4.958
 7718SOL     OW24052   1.542   2.275   2.976
 7718SOL    HW124053   1.624   2.306   3.024
 7718SOL    HW224054   1.568   2.214   2.901
 7719SOL     OW24055   6.772   4.577   5.064
 7719SOL    HW124056   6.789   4.659   5.008
 7719SOL    HW224057   6.705   4.519   5.018
 7720SOL     OW24058   0.325   1.152   6.929
 7720SOL    HW124059   0.289   1.223   6.869
 7720SOL    HW224060   0.253   1.086   6.952
 7721SOL     OW24061   0.573   5.307   2.350
 7721SOL    HW124062   0.489   5.286   2.300
 7721SOL    HW224063   0.557   5.293   2.448
 7722SOL     OW24064   1.227   5.806   3.074
 7722SOL    HW124065   1.155   5.875   3.075
 7722SOL    HW224066   1.219   5.750   2.992
 7723SOL     OW24067   5.123   2.955   0.145
 7723SOL    HW124068   5.179   2.901   0.208
 7723SOL    HW224069   5.036   2.908   0.129
 7724SOL     OW24070   2.975   4.392   1.047
 7724SOL    HW124071   2.893   4.391   1.104
 7724SOL    HW224072   3.052   4.429   1.100
 7725SOL     OW24073   6.298   2.228   3.757
 7725SOL    HW124074   6.308   2.144   3.705
 7725SOL    HW224075   6.219   2.279   3.722
 7726SOL     OW24076   2.212   6.033   5.475
 7726SOL    HW124077   2.160   6.118   5.489
 7726SOL    HW224078   2.151   5.955   5.480
 7727SOL     OW24079   0.003   1.008   2.694
 7727SOL    HW124080   0.081   1.066   2.718
 7727SOL    HW224081   0.035   0.927   2.646
 7728SOL     OW24082   1.093   4.695   3.026
 7728SOL    HW124083   1.103   4.598   3.007
 7728SOL    HW224084   1.184   4.737   3.033
 7729SOL     OW24085   5.783   2.582   1.262
 7729SOL    HW124086   5.738   2.510   1.210
 7729SOL    HW224087   5.750   2.581   1.357
 7730SOL     OW24088   6.109   5.964   1.194
 7730SOL    HW124089   6.206   5.981   1.210
 7730SOL    HW224090   6.059   5.970   1.281
 7731SOL     OW24091   6.790   0.668   6.485
 7731SOL    HW124092   6.730   0.687   6.563
 7731SOL    HW224093   6.885   0.669   6.515
 7732SOL     OW24094   4.403   6.072   0.762
 7732SOL    HW124095   4.436   6.121   0.843
 7732SOL    HW224096   4.383   6.138   0.690
 7733SOL     OW24097   4.585   6.752   2.592
 7733SOL    HW124098   4.650   6.817   2.631
 7733SOL    HW224099   4.511   6.736   2.658
 7734SOL     OW24100   2.621   5.248   3.001
 7734SOL    HW124101   2.546   5.186   3.023
 7734SOL    HW224102   2.633   5.314   3.076
 7735SOL     OW24103   5.036   6.222   6.617
 7735SOL    HW124104   4.973   6.241   6.693
 7735SOL    HW224105   5.044   6.304   6.560
 7736SOL     OW24106   3.191   3.888   0.091
 7736SOL    HW124107   3.289   3.904   0.081
 7736SOL    HW224108   3.157   3.841   0.009
 7737SOL     OW24109   3.218   0.611   2.521
 7737SOL    HW124110   3.285   0.674   2.481
 7737SOL    HW224111   3.265   0.547   2.582
 7738SOL     OW24112   3.228   6.201   0.277
 7738SOL    HW124113   3.154   6.173   0.337
 7738SOL    HW224114   3.278   6.277   0.320
 7739SOL     OW24115   0.713   2.335   0.871
 7739SOL    HW124116   0.620   2.370   0.864
 7739SOL    HW224117   0.755   2.336   0.780
 7740SOL     OW24118   2.147   0.991   3.336
 7740SOL    HW124119   2.199   1.004   3.252
 7740SOL    HW224120   2.077   0.921   3.321
 7741SOL     OW24121   0.862   4.635   6.063
 7741SOL    HW124122   0.769   4.673   6.069
 7741SOL    HW224123   0.911   4.653   6.148
 7742SOL     OW24124   5.357   1.778   3.729
 7742SOL    HW124125   5.264   1.816   3.723
 7742SOL    HW224126   5.353   1.683   3.760
 7743SOL     OW24127   5.775   1.161   0.283
 7743SOL    HW124128   5.697   1.155   0.345
 7743SOL    HW224129   5.856   1.190   0.334
 7744SOL     OW24130   0.876   6.350   3.343
 7744SOL    HW124131   0.808   6.417   3.374
 7744SOL    HW224132   0.951   6.398   3.298
 7745SOL     OW24133   3.675   1.086   6.036
 7745SOL    HW124134   3.736   1.166   6.043
 7745SOL    HW224135   3.678   1.050   5.943
 7746SOL     OW24136   2.650   6.361   6.939
 7746SOL    HW124137   2.563   6.384   6.896
 7746SOL    HW224138   2.633   6.319   0.005
 7747SOL     OW24139   5.011   5.696   1.423
 7747SOL    HW124140   4.934   5.671   1.481
 7747SOL    HW224141   4.992   5.784   1.380
 7748SOL     OW24142   3.037   3.476   4.768
 7748SOL    HW124143   3.115   3.444   4.822
 7748SOL    HW224144   2.982   3.538   4.824
 7749SOL     OW24145   2.207   2.490   5.893
 7749SOL    HW124146   2.226   2.582   5.859
 7749SOL    HW224147   2.272   2.466   5.965
 7750SOL     OW24148   0.046   6.625   1.544
 7750SOL    HW124149   0.066   6.687   1.468
 7750SOL    HW224150   0.102   6.650   1.623
 7751SOL     OW24151   1.065   2.529   2.151
 7751SOL    HW124152   0.973   2.537   2.115
 7751SOL    HW224153   1.061   2.512   2.250
 7752SOL     OW24154   5.436   0.530   5.759
 7752SOL    HW124155   5.337   0.528   5.749
 7752SOL    HW224156   5.462   0.484   5.843
 7753SOL     OW24157   2.698   1.636   3.989
 7753SOL    HW124158   2.688   1.592   4.078
 7753SOL    HW224159   2.793   1.629   3.959
 7754SOL     OW24160   3.377   5.950   1.034
 7754SOL    HW124161   3.469   5.983   1.056
 7754SOL    HW224162   3.384   5.869   0.975
 7755SOL     OW24163   2.172   2.233   5.787
 7755SOL    HW124164   2.166   2.325   5.826
 7755SOL    HW224165   2.264   2.196   5.801
 7756SOL     OW24166   2.620   6.830   2.615
 7756SOL    HW124167   2.550   6.759   2.610
 7756SOL    HW224168   2.651   6.841   2.709
 7757SOL     OW24169   5.837   4.830   0.943
 7757SOL    HW124170   5.887   4.761   0.891
 7757SOL    HW224171   5.752   4.853   0.894
 7758SOL     OW24172   2.403   6.957   6.093
 7758SOL    HW124173   2.407   6.956   5.993
 7758SOL    HW224174   2.308   6.947   6.123
 7759SOL     OW24175   1.833   1.576   5.537
 7759SOL    HW124176   1.872   1.578   5.629
 7759SOL    HW224177   1.884   1.637   5.477
 7760SOL     OW24178   6.026   3.951   2.295
 7760SOL    HW124179   5.976   3.867   2.317
 7760SOL    HW224180   5.969   4.031   2.314
 7761SOL     OW24181   6.532   6.600   4.865
 7761SOL    HW124182   6.461   6.588   4.795
 7761SOL    HW224183   6.588   6.679   4.842
 7762SOL     OW24184   2.204   0.464   4.068
 7762SOL    HW124185   2.200   0.530   4.143
 7762SOL    HW224186   2.184   0.373   4.103
 7763SOL     OW24187   2.521   0.109   6.273
 7763SOL    HW124188   2.510   0.052   6.191
 7763SOL    HW224189   2.442   0.095   6.333
 7764SOL     OW24190   3.724   3.718   5.306
 7764SOL    HW124191   3.720   3.772   5.390
 7764SOL    HW224192   3.739   3.622   5.329
 7765SOL     OW24193   5.947   3.102   5.076
 7765SOL    HW124194   5.889   3.183   5.068
 7765SOL    HW224195   5.895   3.021   5.048
 7766SOL     OW24196   6.602   4.203   0.620
 7766SOL    HW124197   6.548   4.123   0.594
 7766SOL    HW224198   6.556   4.286   0.588
 7767SOL     OW24199   4.325   5.804   2.310
 7767SOL    HW124200   4.375   5.786   2.225
 7767SOL    HW224201   4.241   5.854   2.289
 7768SOL     OW24202   4.811   4.050   3.024
 7768SOL    HW124203   4.782   4.029   3.117
 7768SOL    HW224204   4.900   4.008   3.007
 7769SOL     OW24205   4.615   1.534   4.360
 7769SOL    HW124206   4.685   1.463   4.346
 7769SOL    HW224207   4.564   1.514   4.443
 7770SOL     OW24208   0.975   3.376   4.961
 7770SOL    HW124209   1.027   3.323   4.893
 7770SOL    HW224210   1.039   3.421   5.024
 7771SOL     OW24211   3.467   1.932   5.325
 7771SOL    HW124212   3.376   1.949   5.286
 7771SOL    HW224213   3.528   1.898   5.254
 7772SOL     OW24214   4.788   6.637   1.850
 7772SOL    HW124215   4.772   6.610   1.755
 7772SOL    HW224216   4.709   6.612   1.906
 7773SOL     OW24217   1.699   4.906   5.291
 7773SOL    HW124218   1.644   4.861   5.221
 7773SOL    HW224219   1.732   4.838   5.357
 7774SOL     OW24220   4.798   2.405   4.055
 7774SOL    HW124221   4.743   2.349   4.117
 7774SOL    HW224222   4.788   2.501   4.079
 7775SOL     OW24223   4.365   6.869   0.116
 7775SOL    HW124224   4.275   6.833   0.140
 7775SOL    HW224225   4.355   6.938   0.044
 7776SOL     OW24226   0.959   5.891   0.053
 7776SOL    HW124227   0.929   5.962   7.012
 7776SOL    HW224228   0.880   5.856   0.103
 7777SOL     OW24229   6.100   5.362   4.096
 7777SOL    HW124230   6.138   5.295   4.160
 7777SOL    HW224231   6.000   5.361   4.103
 7778SOL     OW24232   5.792   3.809   1.807
 7778SOL    HW124233   5.811   3.792   1.904
 7778SOL    HW224234   5.700   3.776   1.785
 7779SOL     OW24235   2.582   1.295   1.929
 7779SOL    HW124236   2.620   1.381   1.895
 7779SOL    HW224237   2.524   1.254   1.860
 7780SOL     OW24238   0.817   5.125   5.766
 7780SOL    HW124239   0.732   5.172   5.743
 7780SOL    HW224240   0.827   5.043   5.710
 7781SOL     OW24241   2.003   4.123   1.803
 7781SOL    HW124242   2.063   4.073   1.864
 7781SOL    HW224243   1.997   4.218   1.832
 7782SOL     OW24244   5.274   5.192   4.231
 7782SOL    HW124245   5.325   5.259   4.177
 7782SOL    HW224246   5.184   5.228   4.252
 7783SOL     OW24247   0.833   6.979   5.734
 7783SOL    HW124248   0.817   6.967   5.636
 7783SOL    HW224249   0.833   6.890   5.780
 7784SOL     OW24250   3.608   2.759   1.633
 7784SOL    HW124251   3.635   2.671   1.673
 7784SOL    HW224252   3.675   2.788   1.565
 7785SOL     OW24253   1.941   6.023   4.437
 7785SOL    HW124254   1.901   6.094   4.379
 7785SOL    HW224255   1.879   6.005   4.514
 7786SOL     OW24256   3.495   0.030   0.757
 7786SOL    HW124257   3.436   6.974   0.747
 7786SOL    HW224258   3.452   0.110   0.717
 7787SOL     OW24259   2.364   3.202   7.009
 7787SOL    HW124260   2.304   3.162   0.055
 7787SOL    HW224261   2.429   3.264   0.030
 7788SOL     OW24262   1.907   4.995   1.713
 7788SOL    HW124263   2.004   4.997   1.688
 7788SOL    HW224264   1.863   4.917   1.668
 7789SOL     OW24265   2.981   0.269   6.440
 7789SOL    HW124266   2.980   0.355   6.389
 7789SOL    HW224267   2.889   0.230   6.440
 7790SOL     OW24268   5.184   5.872   2.986
 7790SOL    HW124269   5.202   5.868   3.084
 7790SOL    HW224270   5.085   5.879   2.970
 7791SOL     OW24271   2.007   5.056   2.667
 7791SOL    HW124272   2.028   5.148   2.699
 7791SOL    HW224273   2.088   4.998   2.675
 7792SOL     OW24274   1.307   6.094   4.201
 7792SOL    HW124275   1.221   6.126   4.162
 7792SOL    HW224276   1.331   6.153   4.278
 7793SOL     OW24277   3.780   0.639   0.147
 7793SOL    HW124278   3.741   0.663   0.058
 7793SOL    HW224279   3.756   0.709   0.214
 7794SOL     OW24280   0.091   4.352   1.840
 7794SOL    HW124281   0.117   4.322   1.748
 7794SOL    HW224282   0.059   4.274   1.892
 7795SOL     OW24283   2.383   4.830   5.234
 7795SOL    HW124284   2.467   4.816   5.180
 7795SOL    HW224285   2.340   4.916   5.207
 7796SOL     OW24286   3.508   3.112   5.203
 7796SOL    HW124287   3.550   3.187   5.152
 7796SOL    HW224288   3.577   3.067   5.259
 7797SOL     OW24289   0.716   6.462   1.476
 7797SOL    HW124290   0.807   6.479   1.438
 7797SOL    HW224291   0.658   6.420   1.407
 7798SOL     OW24292   0.794   2.903   3.376
 7798SOL    HW124293   0.695   2.906   3.364
 7798SOL    HW224294   0.816   2.849   3.457
 7799SOL     OW24295   2.013   5.321   2.335
 7799SOL    HW124296   1.914   5.334   2.343
 7799SOL    HW224297   2.059   5.369   2.409
 7800SOL     OW24298   1.055   5.170   3.043
 7800SOL    HW124299   1.081   5.238   2.975
 7800SOL    HW224300   0.986   5.110   3.005
 7801SOL     OW24301   1.918   1.616   2.580
 7801SOL    HW124302   2.012   1.591   2.557
 7801SOL    HW224303   1.888   1.563   2.659
 7802SOL     OW24304   6.392   3.168   0.538
 7802SOL    HW124305   6.435   3.257   0.519
 7802SOL    HW224306   6.412   3.141   0.632
 7803SOL     OW24307   4.394   2.016   0.077
 7803SOL    HW124308   4.294   2.010   0.076
 7803SOL    HW224309   4.425   2.039   0.170
 7804SOL     OW24310   4.423   2.123   4.966
 7804SOL    HW124311   4.449   2.167   5.052
 7804SOL    HW224312   4.391   2.191   4.901
 7805SOL     OW24313   5.246   3.230   2.063
 7805SOL    HW124314   5.309   3.173   2.116
 7805SOL    HW224315   5.222   3.311   2.116
 7806SOL     OW24316   5.544   1.417   6.080
 7806SOL    HW124317   5.562   1.461   5.992
 7806SOL    HW224318   5.619   1.437   6.143
 7807SOL     OW24319   0.862   4.889   5.641
 7807SOL    HW124320   0.773   4.845   5.632
 7807SOL    HW224321   0.900   4.907   5.550
 7808SOL     OW24322   5.974   3.240   3.512
 7808SOL    HW124323   6.066   3.202   3.512
 7808SOL    HW224324   5.937   3.239   3.419
 7809SOL     OW24325   5.235   5.074   5.363
 7809SOL    HW124326   5.179   5.142   5.315
 7809SOL    HW224327   5.183   5.036   5.439
 7810SOL     OW24328   2.923   6.598   5.199
 7810SOL    HW124329   2.932   6.646   5.286
 7810SOL    HW224330   2.947   6.502   5.211
 7811SOL     OW24331   1.594   4.843   1.777
 7811SOL    HW124332   1.630   4.873   1.865
 7811SOL    HW224333   1.666   4.797   1.725
 7812SOL     OW24334   1.438   2.636   4.311
 7812SOL    HW124335   1.444   2.704   4.384
 7812SOL    HW224336   1.372   2.666   4.242
 7813SOL     OW24337   4.029   2.247   1.165
 7813SOL    HW124338   3.930   2.248   1.152
 7813SOL    HW224339   4.062   2.153   1.164
 7814SOL     OW24340   6.852   3.182   3.501
 7814SOL    HW124341   6.860   3.198   3.600
 7814SOL    HW224342   6.921   3.236   3.453
 7815SOL     OW24343   5.827   2.312   3.919
 7815SOL    HW124344   5.738   2.355   3.933
 7815SOL    HW224345   5.814   2.221   3.879
 7816SOL     OW24346   0.794   2.366   6.828
 7816SOL    HW124347   0.824   2.337   6.919
 7816SOL    HW224348   0.849   2.319   6.759
 7817SOL     OW24349   4.969   4.504   4.579
 7817SOL    HW124350   5.004   4.468   4.665
 7817SOL    HW224351   4.873   4.477   4.568
 7818SOL     OW24352   4.972   1.037   2.744
 7818SOL    HW124353   4.934   0.963   2.688
 7818SOL    HW224354   5.039   1.089   2.690
 7819SOL     OW24355   0.071   3.655   3.841
 7819SOL    HW124356   0.086   3.650   3.940
 7819SOL    HW224357   0.035   3.746   3.818
 7820SOL     OW24358   1.714   1.175   5.327
 7820SOL    HW124359   1.769   1.095   5.353
 7820SOL    HW224360   1.685   1.224   5.410
 7821SOL     OW24361   5.767   5.799   0.703
 7821SOL    HW124362   5.739   5.704   0.717
 7821SOL    HW224363   5.773   5.845   0.792
 7822SOL     OW24364   0.993   1.585   6.802
 7822SOL    HW124365   0.945   1.498   6.790
 7822SOL    HW224366   1.072   1.588   6.741
 7823SOL     OW24367   2.356   3.623   6.060
 7823SOL    HW124368   2.367   3.557   5.986
 7823SOL    HW224369   2.263   3.615   6.097
 7824SOL     OW24370   6.021   0.500   4.198
 7824SOL    HW124371   5.939   0.541   4.239
 7824SOL    HW224372   5.994   0.438   4.125
 7825SOL     OW24373   1.096   3.424   0.801
 7825SOL    HW124374   1.164   3.466   0.741
 7825SOL    HW224375   1.043   3.356   0.750
 7826SOL     OW24376   5.633   1.915   6.666
 7826SOL    HW124377   5.536   1.892   6.675
 7826SOL    HW224378   5.643   2.015   6.666
 7827SOL     OW24379   2.629   4.503   0.772
 7827SOL    HW124380   2.679   4.435   0.826
 7827SOL    HW224381   2.625   4.475   0.677
 7828SOL     OW24382   0.649   5.289   1.113
 7828SOL    HW124383   0.724   5.227   1.135
 7828SOL    HW224384   0.680   5.384   1.122
 7829SOL     OW24385   2.053   2.907   0.473
 7829SOL    HW124386   2.050   2.937   0.568
 7829SOL    HW224387   2.107   2.972   0.419
 7830SOL     OW24388   4.291   3.787   6.272
 7830SOL    HW124389   4.386   3.759   6.255
 7830SOL    HW224390   4.274   3.875   6.228
 7831SOL     OW24391   1.495   5.489   0.821
 7831SOL    HW124392   1.559   5.546   0.872
 7831SOL    HW224393   1.532   5.397   0.811
 7832SOL     OW24394   3.220   1.273   4.205
 7832SOL    HW124395   3.315   1.251   4.227
 7832SOL    HW224396   3.214   1.302   4.110
 7833SOL     OW24397   0.718   0.680   6.941
 7833SOL    HW124398   0.670   0.593   6.940
 7833SOL    HW224399   0.761   0.693   0.007
 7834SOL     OW24400   0.064   1.614   3.431
 7834SOL    HW124401   0.093   1.522   3.406
 7834SOL    HW224402   0.077   1.628   3.529
 7835SOL     OW24403   2.615   2.478   4.687
 7835SOL    HW124404   2.625   2.421   4.768
 7835SOL    HW224405   2.570   2.563   4.712
 7836SOL     OW24406   3.411   2.841   5.238
 7836SOL    HW124407   3.402   2.938   5.261
 7836SOL    HW224408   3.398   2.787   5.321
 7837SOL     OW24409   6.861   5.990   1.706
 7837SOL    HW124410   6.804   6.071   1.689
 7837SOL    HW224411   6.939   5.991   1.643
 7838SOL     OW24412   4.304   6.239   0.555
 7838SOL    HW124413   4.318   6.338   0.553
 7838SOL    HW224414   4.287   6.205   0.463
 7839SOL     OW24415   6.052   4.792   5.315
 7839SOL    HW124416   6.128   4.731   5.337
 7839SOL    HW224417   6.078   4.887   5.335
 7840SOL     OW24418   4.869   3.311   4.280
 7840SOL    HW124419   4.855   3.373   4.357
 7840SOL    HW224420   4.789   3.251   4.270
 7841SOL     OW24421   5.333   1.375   6.670
 7841SOL    HW124422   5.254   1.354   6.612
 7841SOL    HW224423   5.403   1.420   6.615
 7842SOL     OW24424   2.349   1.491   2.995
 7842SOL    HW124425   2.279   1.453   3.055
 7842SOL    HW224426   2.308   1.517   2.908
 7843SOL     OW24427   5.015   4.634   2.179
 7843SOL    HW124428   5.088   4.604   2.240
 7843SOL    HW224429   4.958   4.555   2.155
 7844SOL     OW24430   4.386   0.733   3.917
 7844SOL    HW124431   4.318   0.722   3.844
 7844SOL    HW224432   4.461   0.789   3.883
 7845SOL     OW24433   6.076   1.475   4.048
 7845SOL    HW124434   5.982   1.479   4.013
 7845SOL    HW224435   6.076   1.441   4.141
 7846SOL     OW24436   1.734   0.837   1.659
 7846SOL    HW124437   1.688   0.823   1.746
 7846SOL    HW224438   1.829   0.862   1.675
 7847SOL     OW24439   6.469   1.702   2.082
 7847SOL    HW124440   6.471   1.725   1.985
 7847SOL    HW224441   6.386   1.651   2.103
 7848SOL     OW24442   3.023   3.567   1.246
 7848SOL    HW124443   3.005   3.536   1.339
 7848SOL    HW224444   3.055   3.491   1.190
 7849SOL     OW24445   5.571   4.182   3.469
 7849SOL    HW124446   5.666   4.190   3.498
 7849SOL    HW224447   5.567   4.146   3.376
 7850SOL     OW24448   0.327   1.705   4.041
 7850SOL    HW124449   0.346   1.607   4.043
 7850SOL    HW224450   0.353   1.742   3.952
 7851SOL     OW24451   6.813   6.869   0.662
 7851SOL    HW124452   6.800   6.770   0.661
 7851SOL    HW224453   6.835   6.900   0.570
 7852SOL     OW24454   2.807   6.996   5.209
 7852SOL    HW124455   2.761   6.909   5.189
 7852SOL    HW224456   2.877   6.981   5.279
 7853SOL     OW24457   3.865   1.520   2.024
 7853SOL    HW124458   3.893   1.616   2.029
 7853SOL    HW224459   3.925   1.471   1.960
 7854SOL     OW24460   2.932   3.319   0.678
 7854SOL    HW124461   2.987   3.368   0.745
 7854SOL    HW224462   2.873   3.383   0.630
 7855SOL     OW24463   3.030   5.994   5.670
 7855SOL    HW124464   3.017   5.952   5.760
 7855SOL    HW224465   3.059   5.924   5.605
 7856SOL     OW24466   5.534   5.111   4.314
 7856SOL    HW124467   5.583   5.026   4.291
 7856SOL    HW224468   5.440   5.105   4.280
 7857SOL     OW24469   6.134   2.525   5.209
 7857SOL    HW124470   6.066   2.483   5.148
 7857SOL    HW224471   6.149   2.620   5.182
 7858SOL     OW24472   4.607   5.440   3.711
 7858SOL    HW124473   4.624   5.360   3.653
 7858SOL    HW224474   4.683   5.450   3.776
 7859SOL     OW24475   6.212   4.117   5.602
 7859SOL    HW124476   6.235   4.027   5.639
 7859SOL    HW224477   6.238   4.120   5.506
 7860SOL     OW24478   4.497   0.475   2.797
 7860SOL    HW124479   4.514   0.410   2.723
 7860SOL    HW224480   4.415   0.528   2.777
 7861SOL     OW24481   3.868   5.269   1.743
 7861SOL    HW124482   3.782   5.313   1.767
 7861SOL    HW224483   3.898   5.302   1.653
 7862SOL     OW24484   3.028   4.699   1.737
 7862SOL    HW124485   2.966   4.626   1.765
 7862SOL    HW224486   3.012   4.723   1.641
 7863SOL     OW24487   6.647   6.246   3.710
 7863SOL    HW124488   6.647   6.266   3.807
 7863SOL    HW224489   6.557   6.212   3.682
 7864SOL     OW24490   0.131   6.554   5.425
 7864SOL    HW124491   0.215   6.576   5.473
 7864SOL    HW224492   0.146   6.562   5.326
 7865SOL     OW24493   4.575   6.754   4.653
 7865SOL    HW124494   4.556   6.844   4.693
 7865SOL    HW224495   4.625   6.698   4.719
 7866SOL     OW24496   2.573   2.075   6.754
 7866SOL    HW124497   2.542   2.156   6.705
 7866SOL    HW224498   2.629   2.102   6.832
 7867SOL     OW24499   5.168   6.621   2.758
 7867SOL    HW124500   5.105   6.546   2.776
 7867SOL    HW224501   5.120   6.695   2.710
 7868SOL     OW24502   5.700   6.719   2.239
 7868SOL    HW124503   5.648   6.640   2.271
 7868SOL    HW224504   5.637   6.786   2.200
 7869SOL     OW24505   5.508   3.332   0.462
 7869SOL    HW124506   5.440   3.307   0.393
 7869SOL    HW224507   5.569   3.255   0.479
 7870SOL     OW24508   4.786   5.210   4.694
 7870SOL    HW124509   4.698   5.209   4.645
 7870SOL    HW224510   4.795   5.127   4.748
 7871SOL     OW24511   5.429   3.923   2.516
 7871SOL    HW124512   5.526   3.939   2.499
 7871SOL    HW224513   5.419   3.860   2.593
 7872SOL     OW24514   2.000   4.251   2.588
 7872SOL    HW124515   2.058   4.270   2.508
 7872SOL    HW224516   1.908   4.228   2.557
 7873SOL     OW24517   5.205   0.710   5.622
 7873SOL    HW124518   5.191   0.653   5.702
 7873SOL    HW224519   5.132   0.693   5.556
 7874SOL     OW24520   5.085   1.635   0.459
 7874SOL    HW124521   5.160   1.685   0.416
 7874SOL    HW224522   5.002   1.690   0.456
 7875SOL     OW24523   4.559   2.369   6.576
 7875SOL    HW124524   4.652   2.357   6.611
 7875SOL    HW224525   4.494   2.358   6.650
 7876SOL     OW24526   6.768   6.963   4.964
 7876SOL    HW124527   6.853   6.940   5.013
 7876SOL    HW224528   6.771   0.035   4.936
 7877SOL     OW24529   7.007   2.924   2.386
 7877SOL    HW124530   6.938   2.909   2.456
 7877SOL    HW224531   0.043   2.843   2.379
 7878SOL     OW24532   4.628   4.810   4.132
 7878SOL    HW124533   4.639   4.793   4.230
 7878SOL    HW224534   4.696   4.758   4.082
 7879SOL     OW24535   4.904   5.721   3.582
 7879SOL    HW124536   4.872   5.743   3.675
 7879SOL    HW224537   4.871   5.631   3.556
 7880SOL     OW24538   1.235   5.358   0.744
 7880SOL    HW124539   1.324   5.361   0.790
 7880SOL    HW224540   1.243   5.305   0.660
 7881SOL     OW24541   5.634   3.638   4.644
 7881SOL    HW124542   5.566   3.646   4.571
 7881SOL    HW224543   5.696   3.716   4.641
 7882SOL     OW24544   1.838   3.096   2.861
 7882SOL    HW124545   1.792   3.020   2.814
 7882SOL    HW224546   1.932   3.069   2.883
 7883SOL     OW24547   1.578   7.015   1.324
 7883SOL    HW124548   1.638   0.070   1.339
 7883SOL    HW224549   1.490   0.008   1.368
 7884SOL     OW24550   1.962   3.979   3.562
 7884SOL    HW124551   2.033   4.018   3.621
 7884SOL    HW224552   2.005   3.929   3.487
 7885SOL     OW24553   6.124   6.470   1.727
 7885SOL    HW124554   6.218   6.441   1.746
 7885SOL    HW224555   6.082   6.505   1.810
 7886SOL     OW24556   4.203   4.875   0.781
 7886SOL    HW124557   4.122   4.934   0.779
 7886SOL    HW224558   4.173   4.780   0.792
 7887SOL     OW24559   3.143   2.666   5.374
 7887SOL    HW124560   3.227   2.650   5.322
 7887SOL    HW224561   3.076   2.595   5.351
 7888SOL     OW24562   0.193   0.611   5.136
 7888SOL    HW124563   0.116   0.578   5.081
 7888SOL    HW224564   0.224   0.538   5.197
 7889SOL     OW24565   0.884   4.629   6.874
 7889SOL    HW124566   0.802   4.591   6.918
 7889SOL    HW224567   0.965   4.600   6.926
 7890SOL     OW24568   0.525   3.157   3.997
 7890SOL    HW124569   0.448   3.127   4.053
 7890SOL    HW224570   0.560   3.080   3.944
 7891SOL     OW24571   1.831   4.094   4.875
 7891SOL    HW124572   1.842   4.192   4.892
 7891SOL    HW224573   1.922   4.051   4.870
 7892SOL     OW24574   1.628   2.214   3.987
 7892SOL    HW124575   1.693   2.279   3.947
 7892SOL    HW224576   1.602   2.244   4.078
 7893SOL     OW24577   6.371   0.180   1.983
 7893SOL    HW124578   6.414   0.190   1.893
 7893SOL    HW224579   6.321   0.264   2.005
 7894SOL     OW24580   3.026   0.992   1.684
 7894SOL    HW124581   2.958   1.052   1.726
 7894SOL    HW224582   2.981   0.931   1.619
 7895SOL     OW24583   4.852   0.102   5.029
 7895SOL    HW124584   4.765   0.116   4.982
 7895SOL    HW224585   4.916   0.174   5.002
 7896SOL     OW24586   5.173   3.027   1.276
 7896SOL    HW124587   5.127   3.043   1.188
 7896SOL    HW224588   5.105   3.032   1.350
 7897SOL     OW24589   3.457   2.790   1.285
 7897SOL    HW124590   3.551   2.781   1.319
 7897SOL    HW224591   3.421   2.700   1.261
 7898SOL     OW24592   3.840   0.393   3.720
 7898SOL    HW124593   3.887   0.465   3.771
 7898SOL    HW224594   3.741   0.404   3.730
 7899SOL     OW24595   5.773   6.612   1.526
 7899SOL    HW124596   5.838   6.586   1.597
 7899SOL    HW224597   5.692   6.554   1.532
 7900SOL     OW24598   1.109   5.182   1.389
 7900SOL    HW124599   1.194   5.133   1.411
 7900SOL    HW224600   1.031   5.132   1.428
 7901SOL     OW24601   4.933   0.838   6.670
 7901SOL    HW124602   5.000   0.796   6.609
 7901SOL    HW224603   4.896   0.769   6.731
 7902SOL     OW24604   5.854   5.806   2.688
 7902SOL    HW124605   5.807   5.717   2.693
 7902SOL    HW224606   5.911   5.817   2.770
 7903SOL     OW24607   4.753   1.599   2.888
 7903SOL    HW124608   4.842   1.552   2.886
 7903SOL    HW224609   4.730   1.632   2.797
 7904SOL     OW24610   5.617   0.112   2.901
 7904SOL    HW124611   5.641   0.179   2.971
 7904SOL    HW224612   5.520   0.120   2.878
 7905SOL     OW24613   5.438   2.396   0.569
 7905SOL    HW124614   5.502   2.381   0.644
 7905SOL    HW224615   5.445   2.491   0.537
 7906SOL     OW24616   0.483   5.561   0.783
 7906SOL    HW124617   0.445   5.549   0.874
 7906SOL    HW224618   0.453   5.486   0.724
 7907SOL     OW24619   6.338   2.006   3.625
 7907SOL    HW124620   6.255   1.957   3.652
 7907SOL    HW224621   6.416   1.944   3.630
 7908SOL     OW24622   0.984   1.300   6.087
 7908SOL    HW124623   1.042   1.363   6.036
 7908SOL    HW224624   0.964   1.338   6.177
 7909SOL     OW24625   4.794   4.119   3.942
 7909SOL    HW124626   4.722   4.188   3.937
 7909SOL    HW224627   4.805   4.089   4.036
 7910SOL     OW24628   2.029   3.393   0.486
 7910SOL    HW124629   1.952   3.425   0.431
 7910SOL    HW224630   2.099   3.464   0.488
 7911SOL     OW24631   0.808   4.747   0.717
 7911SOL    HW124632   0.849   4.830   0.755
 7911SOL    HW224633   0.769   4.767   0.627
 7912SOL     OW24634   6.003   4.716   1.417
 7912SOL    HW124635   5.921   4.693   1.365
 7912SOL    HW224636   6.084   4.702   1.361
 7913SOL     OW24637   1.481   3.785   2.068
 7913SOL    HW124638   1.520   3.816   2.155
 7913SOL    HW224639   1.507   3.690   2.051
 7914SOL     OW24640   0.093   4.755   0.766
 7914SOL    HW124641   0.115   4.852   0.771
 7914SOL    HW224642   0.128   4.709   0.848
 7915SOL     OW24643   5.200   2.160   2.354
 7915SOL    HW124644   5.206   2.235   2.421
 7915SOL    HW224645   5.169   2.077   2.401
 7916SOL     OW24646   0.046   5.899   5.747
 7916SOL    HW124647   0.106   5.968   5.787
 7916SOL    HW224648   7.006   5.943   5.683
 7917SOL     OW24649   4.122   3.117   5.650
 7917SOL    HW124650   4.077   3.201   5.680
 7917SOL    HW224651   4.204   3.102   5.705
 7918SOL     OW24652   6.426   1.026   4.283
 7918SOL    HW124653   6.379   0.954   4.334
 7918SOL    HW224654   6.500   0.986   4.228
 7919SOL     OW24655   1.579   4.827   3.021
 7919SOL    HW124656   1.670   4.810   3.057
 7919SOL    HW224657   1.529   4.886   3.084
 7920SOL     OW24658   6.536   6.945   0.712
 7920SOL    HW124659   6.478   6.961   0.792
 7920SOL    HW224660   6.631   6.937   0.741
 7921SOL     OW24661   5.876   6.018   2.441
 7921SOL    HW124662   5.915   5.940   2.490
 7921SOL    HW224663   5.782   6.032   2.470
 7922SOL     OW24664   0.480   6.192   0.242
 7922SOL    HW124665   0.399   6.247   0.220
 7922SOL    HW224666   0.557   6.252   0.259
 7923SOL     OW24667   3.902   0.942   6.372
 7923SOL    HW124668   3.855   0.929   6.459
 7923SOL    HW224669   3.901   0.856   6.321
 7924SOL     OW24670   4.818   0.399   1.501
 7924SOL    HW124671   4.750   0.405   1.574
 7924SOL    HW224672   4.782   0.343   1.427
 7925SOL     OW24673   0.704   0.361   0.303
 7925SOL    HW124674   0.787   0.403   0.266
 7925SOL    HW224675   0.672   0.290   0.240
 7926SOL     OW24676   4.940   1.811   5.836
 7926SOL    HW124677   4.878   1.803   5.758
 7926SOL    HW224678   5.007   1.882   5.818
 7927SOL     OW24679   4.568   6.283   2.471
 7927SOL    HW124680   4.593   6.307   2.377
 7927SOL    HW224681   4.519   6.195   2.471
 7928SOL     OW24682   1.111   1.997   3.996
 7928SOL    HW124683   1.182   1.951   3.943
 7928SOL    HW224684   1.081   1.938   4.071
 7929SOL     OW24685   4.151   3.649   5.887
 7929SOL    HW124686   4.217   3.724   5.897
 7929SOL    HW224687   4.182   3.586   5.816
 7930SOL     OW24688   4.404   5.377   5.835
 7930SOL    HW124689   4.503   5.367   5.829
 7930SOL    HW224690   4.362   5.286   5.838
 7931SOL     OW24691   3.195   3.370   0.375
 7931SOL    HW124692   3.124   3.441   0.373
 7931SOL    HW224693   3.200   3.330   0.466
 7932SOL     OW24694   1.581   5.933   6.636
 7932SOL    HW124695   1.606   5.853   6.581
 7932SOL    HW224696   1.594   6.016   6.582
 7933SOL     OW24697   6.370   0.500   6.365
 7933SOL    HW124698   6.303   0.574   6.359
 7933SOL    HW224699   6.398   0.486   6.460
 7934SOL     OW24700   1.541   5.401   6.890
 7934SOL    HW124701   1.485   5.453   6.955
 7934SOL    HW224702   1.489   5.387   6.805
 7935SOL     OW24703   6.248   6.330   1.127
 7935SOL    HW124704   6.345   6.354   1.136
 7935SOL    HW224705   6.220   6.339   1.032
 7936SOL     OW24706   3.038   5.898   2.386
 7936SOL    HW124707   2.951   5.946   2.397
 7936SOL    HW224708   3.084   5.930   2.303
 7937SOL     OW24709   6.865   5.579   4.097
 7937SOL    HW124710   6.800   5.503   4.090
 7937SOL    HW224711   6.951   5.545   4.135
 7938SOL     OW24712   6.513   6.648   4.500
 7938SOL    HW124713   6.564   6.574   4.456
 7938SOL    HW224714   6.575   6.725   4.518
 7939SOL     OW24715   1.705   2.216   5.698
 7939SOL    HW124716   1.757   2.290   5.655
 7939SOL    HW224717   1.745   2.128   5.672
 7940SOL     OW24718   2.370   2.671   1.987
 7940SOL    HW124719   2.311   2.744   2.019
 7940SOL    HW224720   2.411   2.698   1.899
 7941SOL     OW24721   5.988   6.098   1.962
 7941SOL    HW124722   5.964   6.130   1.870
 7941SOL    HW224723   6.026   6.174   2.014
 7942SOL     OW24724   0.311   4.512   2.836
 7942SOL    HW124725   0.386   4.562   2.792
 7942SOL    HW224726   0.243   4.577   2.870
 7943SOL     OW24727   0.627   4.217   6.218
 7943SOL    HW124728   0.611   4.260   6.307
 7943SOL    HW224729   0.690   4.274   6.165
 7944SOL     OW24730   0.848   2.414   0.648
 7944SOL    HW124731   0.946   2.433   0.663
 7944SOL    HW224732   0.796   2.498   0.665
 7945SOL     OW24733   6.214   5.702   1.506
 7945SOL    HW124734   6.259   5.750   1.581
 7945SOL    HW224735   6.226   5.753   1.421
 7946SOL     OW24736   3.252   0.527   5.192
 7946SOL    HW124737   3.172   0.516   5.133
 7946SOL    HW224738   3.240   0.471   5.274
 7947SOL     OW24739   3.005   1.802   5.493
 7947SOL    HW124740   2.936   1.798   5.421
 7947SOL    HW224741   3.049   1.712   5.501
 7948SOL     OW24742   1.431   5.951   0.771
 7948SOL    HW124743   1.398   6.043   0.750
 7948SOL    HW224744   1.368   5.884   0.732
 7949SOL     OW24745   5.035   4.108   5.589
 7949SOL    HW124746   5.087   4.042   5.642
 7949SOL    HW224747   5.074   4.115   5.497
 7950SOL     OW24748   4.608   5.528   4.373
 7950SOL    HW124749   4.563   5.490   4.292
 7950SOL    HW224750   4.540   5.572   4.432
 7951SOL     OW24751   1.932   4.730   2.277
 7951SOL    HW124752   1.856   4.670   2.302
 7951SOL    HW224753   1.920   4.819   2.321
 7952SOL     OW24754   6.916   3.185   6.877
 7952SOL    HW124755   6.993   3.124   6.894
 7952SOL    HW224756   6.847   3.172   6.949
 7953SOL     OW24757   3.794   2.152   2.796
 7953SOL    HW124758   3.733   2.160   2.718
 7953SOL    HW224759   3.753   2.198   2.875
 7954SOL     OW24760   2.934   4.468   5.859
 7954SOL    HW124761   2.848   4.439   5.902
 7954SOL    HW224762   2.977   4.390   5.814
 7955SOL     OW24763   2.404   0.891   6.414
 7955SOL    HW124764   2.470   0.947   6.364
 7955SOL    HW224765   2.353   0.833   6.350
 7956SOL     OW24766   4.995   0.116   2.006
 7956SOL    HW124767   5.068   0.174   2.043
 7956SOL    HW224768   4.927   0.099   2.076
 7957SOL     OW24769   1.811   0.432   0.615
 7957SOL    HW124770   1.878   0.477   0.674
 7957SOL    HW224771   1.726   0.416   0.666
 7958SOL     OW24772   4.458   4.964   6.205
 7958SOL    HW124773   4.407   5.003   6.282
 7958SOL    HW224774   4.403   4.894   6.160
 7959SOL     OW24775   5.420   6.426   1.221
 7959SOL    HW124776   5.325   6.456   1.230
 7959SOL    HW224777   5.481   6.503   1.241
 7960SOL     OW24778   1.832   0.590   5.898
 7960SOL    HW124779   1.808   0.678   5.856
 7960SOL    HW224780   1.838   0.602   5.997
 7961SOL     OW24781   6.953   0.996   0.644
 7961SOL    HW124782   6.961   0.938   0.563
 7961SOL    HW224783   6.877   0.963   0.700
 7962SOL     OW24784   0.977   1.069   5.426
 7962SOL    HW124785   0.967   1.027   5.335
 7962SOL    HW224786   0.974   1.168   5.417
 7963SOL     OW24787   5.885   6.310   4.505
 7963SOL    HW124788   5.907   6.289   4.601
 7963SOL    HW224789   5.786   6.312   4.493
 7964SOL     OW24790   0.049   4.161   2.960
 7964SOL    HW124791   0.067   4.256   2.984
 7964SOL    HW224792   0.110   4.134   2.884
 7965SOL     OW24793   4.317   2.271   6.061
 7965SOL    HW124794   4.278   2.179   6.057
 7965SOL    HW224795   4.396   2.276   6.000
 7966SOL     OW24796   2.789   2.695   5.908
 7966SOL    HW124797   2.866   2.712   5.969
 7966SOL    HW224798   2.819   2.706   5.813
 7967SOL     OW24799   3.452   6.263   1.992
 7967SOL    HW124800   3.455   6.351   2.041
 7967SOL    HW224801   3.520   6.264   1.919
 7968SOL     OW24802   0.151   2.102   4.196
 7968SOL    HW124803   0.234   2.071   4.151
 7968SOL    HW224804   0.086   2.026   4.203
 7969SOL     OW24805   5.264   5.908   0.673
 7969SOL    HW124806   5.356   5.881   0.645
 7969SOL    HW224807   5.209   5.826   0.690
 7970SOL     OW24808   6.595   2.578   2.053
 7970SOL    HW124809   6.507   2.547   2.090
 7970SOL    HW224810   6.619   2.666   2.094
 7971SOL     OW24811   3.440   1.791   1.211
 7971SOL    HW124812   3.477   1.867   1.265
 7971SOL    HW224813   3.495   1.709   1.227
 7972SOL     OW24814   2.469   3.188   0.479
 7972SOL    HW124815   2.507   3.156   0.565
 7972SOL    HW224816   2.525   3.154   0.403
 7973SOL     OW24817   4.367   4.688   4.564
 7973SOL    HW124818   4.392   4.709   4.659
 7973SOL    HW224819   4.274   4.720   4.546
 7974SOL     OW24820   5.984   0.952   5.370
 7974SOL    HW124821   6.021   0.861   5.350
 7974SOL    HW224822   5.907   0.944   5.434
 7975SOL     OW24823   6.633   1.037   1.638
 7975SOL    HW124824   6.539   1.028   1.607
 7975SOL    HW224825   6.691   1.062   1.560
 7976SOL     OW24826   1.175   0.393   6.061
 7976SOL    HW124827   1.098   0.449   6.032
 7976SOL    HW224828   1.160   0.299   6.033
 7977SOL     OW24829   4.335   5.679   3.214
 7977SOL    HW124830   4.375   5.697   3.124
 7977SOL    HW224831   4.306   5.765   3.255
 7978SOL     OW24832   6.263   2.372   6.121
 7978SOL    HW124833   6.352   2.403   6.087
 7978SOL    HW224834   6.246   2.412   6.211
 7979SOL     OW24835   3.566   5.078   5.537
 7979SOL    HW124836   3.474   5.113   5.516
 7979SOL    HW224837   3.568   5.045   5.631
 7980SOL     OW24838   3.412   5.703   6.488
 7980SOL    HW124839   3.385   5.646   6.410
 7980SOL    HW224840   3.496   5.752   6.465
 7981SOL     OW24841   0.877   5.038   1.469
 7981SOL    HW124842   0.938   4.962   1.491
 7981SOL    HW224843   0.838   5.026   1.378
 7982SOL     OW24844   1.519   0.912   0.282
 7982SOL    HW124845   1.583   0.885   0.355
 7982SOL    HW224846   1.528   0.848   0.206
 7983SOL     OW24847   5.859   2.346   0.590
 7983SOL    HW124848   5.932   2.404   0.627
 7983SOL    HW224849   5.851   2.361   0.492
 7984SOL     OW24850   1.388   1.274   0.817
 7984SOL    HW124851   1.393   1.367   0.780
 7984SOL    HW224852   1.335   1.274   0.901
 7985SOL     OW24853   2.726   1.106   4.175
 7985SOL    HW124854   2.651   1.153   4.128
 7985SOL    HW224855   2.798   1.172   4.196
 7986SOL     OW24856   2.450   0.665   6.008
 7986SOL    HW124857   2.392   0.703   6.081
 7986SOL    HW224858   2.392   0.629   5.935
 7987SOL     OW24859   1.734   2.580   6.848
 7987SOL    HW124860   1.649   2.632   6.857
 7987SOL    HW224861   1.788   2.589   6.932
 7988SOL     OW24862   0.821   1.663   2.988
 7988SOL    HW124863   0.857   1.751   2.959
 7988SOL    HW224864   0.894   1.595   2.988
 7989SOL     OW24865   2.581   3.332   0.082
 7989SOL    HW124866   2.649   3.276   0.129
 7989SOL    HW224867   2.627   3.403   0.029
 7990SOL     OW24868   1.455   5.159   4.946
 7990SOL    HW124869   1.496   5.079   4.904
 7990SOL    HW224870   1.398   5.130   5.023
 7991SOL     OW24871   6.091   0.413   3.355
 7991SOL    HW124872   6.022   0.395   3.426
 7991SOL    HW224873   6.181   0.419   3.397
 7992SOL     OW24874   1.251   0.369   0.604
 7992SOL    HW124875   1.187   0.292   0.599
 7992SOL    HW224876   1.275   0.398   0.512
 7993SOL     OW24877   0.503   6.949   0.579
 7993SOL    HW124878   0.543   6.862   0.550
 7993SOL    HW224879   0.573   7.007   0.620
 7994SOL     OW24880   3.875   0.124   3.680
 7994SOL    HW124881   3.863   0.222   3.691
 7994SOL    HW224882   3.815   0.090   3.607
 7995SOL     OW24883   6.090   5.441   3.487
 7995SOL    HW124884   6.146   5.475   3.562
 7995SOL    HW224885   6.013   5.389   3.523
 7996SOL     OW24886   2.936   6.579   4.350
 7996SOL    HW124887   2.841   6.569   4.321
 7996SOL    HW224888   2.985   6.638   4.286
 7997SOL     OW24889   0.193   1.142   1.097
 7997SOL    HW124890   0.245   1.195   1.029
 7997SOL    HW224891   0.210   1.180   1.188
 7998SOL     OW24892   2.405   0.180   0.199
 7998SOL    HW124893   2.325   0.198   0.257
 7998SOL    HW224894   2.438   0.088   0.216
 7999SOL     OW24895   0.982   0.736   5.907
 7999SOL    HW124896   1.074   0.767   5.883
 7999SOL    HW224897   0.915   0.788   5.854
 8000SOL     OW24898   5.055   0.140   6.513
 8000SOL    HW124899   5.022   0.168   6.603
 8000SOL    HW224900   5.002   0.187   6.443
 8001SOL     OW24901   4.133   6.609   1.555
 8001SOL    HW124902   4.093   6.538   1.498
 8001SOL    HW224903   4.134   6.696   1.505
 8002SOL     OW24904   2.335   0.601   6.688
 8002SOL    HW124905   2.393   0.682   6.685
 8002SOL    HW224906   2.391   0.519   6.691
 8003SOL     OW24907   2.635   5.435   2.179
 8003SOL    HW124908   2.555   5.387   2.213
 8003SOL    HW224909   2.610   5.528   2.151
 8004SOL     OW24910   2.278   2.819   2.751
 8004SOL    HW124911   2.283   2.839   2.849
 8004SOL    HW224912   2.328   2.736   2.731
 8005SOL     OW24913   3.241   1.221   3.455
 8005SOL    HW124914   3.224   1.156   3.381
 8005SOL    HW224915   3.321   1.277   3.432
 8006SOL     OW24916   2.183   6.497   5.820
 8006SOL    HW124917   2.189   6.586   5.864
 8006SOL    HW224918   2.250   6.435   5.861
 8007SOL     OW24919   5.832   1.601   5.916
 8007SOL    HW124920   5.771   1.588   5.839
 8007SOL    HW224921   5.906   1.664   5.890
 8008SOL     OW24922   4.514   5.979   6.607
 8008SOL    HW124923   4.439   6.020   6.660
 8008SOL    HW224924   4.601   6.006   6.647
 8009SOL     OW24925   5.476   0.475   1.287
 8009SOL    HW124926   5.458   0.385   1.248
 8009SOL    HW224927   5.569   0.477   1.325
 8010SOL     OW24928   2.377   1.145   5.172
 8010SOL    HW124929   2.382   1.047   5.188
 8010SOL    HW224930   2.289   1.167   5.129
 8011SOL     OW24931   3.247   2.381   1.089
 8011SOL    HW124932   3.283   2.407   1.178
 8011SOL    HW224933   3.258   2.457   1.025
 8012SOL     OW24934   2.103   3.711   0.374
 8012SOL    HW124935   2.083   3.685   0.279
 8012SOL    HW224936   2.018   3.741   0.418
 8013SOL     OW24937   1.537   5.204   3.010
 8013SOL    HW124938   1.491   5.287   3.043
 8013SOL    HW224939   1.471   5.129   3.006
 8014SOL     OW24940   0.742   6.630   4.685
 8014SOL    HW124941   0.659   6.684   4.668
 8014SOL    HW224942   0.795   6.623   4.601
 8015SOL     OW24943   2.756   0.434   6.033
 8015SOL    HW124944   2.714   0.432   6.124
 8015SOL    HW224945   2.837   0.493   6.035
 8016SOL     OW24946   3.834   0.439   5.485
 8016SOL    HW124947   3.735   0.435   5.479
 8016SOL    HW224948   3.874   0.352   5.455
 8017SOL     OW24949   5.511   0.019   0.523
 8017SOL    HW124950   5.552   6.956   0.492
 8017SOL    HW224951   5.510   0.023   0.622
 8018SOL     OW24952   3.146   1.765   7.000
 8018SOL    HW124953   3.216   1.801   6.938
 8018SOL    HW224954   3.066   1.825   6.999
 8019SOL     OW24955   2.775   4.799   1.166
 8019SOL    HW124956   2.716   4.860   1.218
 8019SOL    HW224957   2.719   4.742   1.105
 8020SOL     OW24958   6.331   0.258   6.819
 8020SOL    HW124959   6.375   0.247   6.729
 8020SOL    HW224960   6.236   0.287   6.806
 8021SOL     OW24961   1.346   2.825   0.845
 8021SOL    HW124962   1.250   2.808   0.867
 8021SOL    HW224963   1.393   2.738   0.832
 8022SOL     OW24964   5.826   0.405   2.135
 8022SOL    HW124965   5.841   0.387   2.232
 8022SOL    HW224966   5.866   0.331   2.081
 8023SOL     OW24967   6.367   5.265   3.117
 8023SOL    HW124968   6.271   5.295   3.115
 8023SOL    HW224969   6.383   5.211   3.199
 8024SOL     OW24970   1.303   4.926   5.665
 8024SOL    HW124971   1.260   4.999   5.717
 8024SOL    HW224972   1.393   4.904   5.704
 8025SOL     OW24973   2.145   5.685   0.661
 8025SOL    HW124974   2.109   5.685   0.567
 8025SOL    HW224975   2.069   5.671   0.725
 8026SOL     OW24976   6.913   4.215   0.289
 8026SOL    HW124977   6.827   4.166   0.302
 8026SOL    HW224978   6.917   4.251   0.195
 8027SOL     OW24979   4.182   0.226   5.157
 8027SOL    HW124980   4.216   0.132   5.163
 8027SOL    HW224981   4.180   0.254   5.061
 8028SOL     OW24982   4.013   5.586   5.837
 8028SOL    HW124983   3.995   5.521   5.763
 8028SOL    HW224984   3.982   5.547   5.924
 8029SOL     OW24985   5.726   3.041   1.053
 8029SOL    HW124986   5.804   3.099   1.029
 8029SOL    HW224987   5.671   3.087   1.123
 8030SOL     OW24988   5.054   4.902   0.614
 8030SOL    HW124989   4.996   4.829   0.651
 8030SOL    HW224990   4.997   4.966   0.562
 8031SOL     OW24991   6.387   6.685   2.308
 8031SOL    HW124992   6.335   6.751   2.254
 8031SOL    HW224993   6.330   6.604   2.326
 8032SOL     OW24994   6.658   4.432   1.324
 8032SOL    HW124995   6.733   4.496   1.336
 8032SOL    HW224996   6.671   4.380   1.239
 8033SOL     OW24997   4.561   2.269   6.294
 8033SOL    HW124998   4.557   2.324   6.378
 8033SOL    HW224999   4.479   2.212   6.289
 8034SOL     OW25000   4.519   0.750   4.889
 8034SOL    HW125001   4.511   0.654   4.864
 8034SOL    HW225002   4.428   0.786   4.912
 8035SOL     OW25003   5.562   1.263   2.712
 8035SOL    HW125004   5.650   1.262   2.663
 8035SOL    HW225005   5.542   1.356   2.741
 8036SOL     OW25006   6.464   4.260   3.931
 8036SOL    HW125007   6.394   4.189   3.932
 8036SOL    HW225008   6.485   4.285   3.837
 8037SOL     OW25009   1.948   3.186   6.956
 8037SOL    HW125010   1.963   3.093   6.989
 8037SOL    HW225011   2.033   3.238   6.965
 8038SOL     OW25012   4.678   0.749   2.754
 8038SOL    HW125013   4.653   0.762   2.850
 8038SOL    HW225014   4.604   0.700   2.707
 8039SOL     OW25015   0.429   1.400   5.507
 8039SOL    HW125016   0.478   1.327   5.554
 8039SOL    HW225017   0.337   1.368   5.483
 8040SOL     OW25018   1.485   5.541   0.295
 8040SOL    HW125019   1.526   5.450   0.290
 8040SOL    HW225020   1.440   5.563   0.209
 8041SOL     OW25021   3.081   0.940   3.080
 8041SOL    HW125022   3.123   1.029   3.092
 8041SOL    HW225023   3.031   0.937   2.993
 8042SOL     OW25024   3.759   2.916   4.731
 8042SOL    HW125025   3.851   2.951   4.749
 8042SOL    HW225026   3.728   2.861   4.809
 8043SOL     OW25027   3.477   6.428   1.087
 8043SOL    HW125028   3.455   6.516   1.044
 8043SOL    HW225029   3.393   6.376   1.102
 8044SOL     OW25030   4.650   2.882   0.785
 8044SOL    HW125031   4.615   2.976   0.784
 8044SOL    HW225032   4.684   2.861   0.876
 8045SOL     OW25033   6.233   2.253   2.850
 8045SOL    HW125034   6.316   2.254   2.906
 8045SOL    HW225035   6.204   2.347   2.832
 8046SOL     OW25036   0.733   4.469   1.676
 8046SOL    HW125037   0.673   4.402   1.634
 8046SOL    HW225038   0.687   4.558   1.677
 8047SOL     OW25039   4.438   5.506   6.198
 8047SOL    HW125040   4.459   5.597   6.234
 8047SOL    HW225041   4.342   5.502   6.171
 8048SOL     OW25042   4.287   1.667   0.013
 8048SOL    HW125043   4.305   1.720   6.954
 8048SOL    HW225044   4.189   1.652   0.023
 8049SOL     OW25045   0.846   0.265   6.762
 8049SOL    HW125046   0.891   0.353   6.750
 8049SOL    HW225047   0.793   0.243   6.681
 8050SOL     OW25048   1.849   3.727   3.178
 8050SOL    HW125049   1.806   3.637   3.172
 8050SOL    HW225050   1.830   3.767   3.268
 8051SOL     OW25051   4.623   5.972   4.080
 8051SOL    HW125052   4.575   5.980   4.167
 8051SOL    HW225053   4.639   6.063   4.042
 8052SOL     OW25054   3.153   1.712   1.202
 8052SOL    HW125055   3.140   1.643   1.131
 8052SOL    HW225056   3.248   1.741   1.204
 8053SOL     OW25057   3.478   2.881   4.388
 8053SOL    HW125058   3.446   2.872   4.482
 8053SOL    HW225059   3.400   2.890   4.326
 8054SOL     OW25060   6.769   4.734   5.291
 8054SOL    HW125061   6.699   4.799   5.261
 8054SOL    HW225062   6.775   4.659   5.226
 8055SOL     OW25063   0.149   0.425   5.349
 8055SOL    HW125064   0.121   0.435   5.445
 8055SOL    HW225065   0.209   0.346   5.341
 8056SOL     OW25066   2.459   0.816   3.978
 8056SOL    HW125067   2.489   0.722   3.995
 8056SOL    HW225068   2.392   0.843   4.047
 8057SOL     OW25069   2.868   2.223   3.112
 8057SOL    HW125070   2.815   2.289   3.059
 8057SOL    HW225071   2.821   2.135   3.112
 8058SOL     OW25072   3.335   0.063   3.603
 8058SOL    HW125073   3.388   7.017   3.652
 8058SOL    HW225074   3.246   0.026   3.578
 8059SOL     OW25075   2.607   2.124   4.098
 8059SOL    HW125076   2.561   2.068   4.030
 8059SOL    HW225077   2.538   2.167   4.157
 8060SOL     OW25078   6.463   2.285   6.305
 8060SOL    HW125079   6.391   2.322   6.364
 8060SOL    HW225080   6.428   2.275   6.211
 8061SOL     OW25081   6.954   0.176   2.831
 8061SOL    HW125082   6.972   0.111   2.758
 8061SOL    HW225083   6.855   0.179   2.849
 8062SOL     OW25084   3.257   4.877   4.382
 8062SOL    HW125085   3.160   4.853   4.375
 8062SOL    HW225086   3.278   4.898   4.477
 8063SOL     OW25087   2.255   2.005   2.776
 8063SOL    HW125088   2.281   1.984   2.870
 8063SOL    HW225089   2.268   2.103   2.760
 8064SOL     OW25090   6.716   2.514   0.849
 8064SOL    HW125091   6.709   2.477   0.756
 8064SOL    HW225092   6.650   2.588   0.860
 8065SOL     OW25093   2.585   5.701   3.898
 8065SOL    HW125094   2.575   5.782   3.840
 8065SOL    HW225095   2.552   5.721   3.990
 8066SOL     OW25096   0.561   1.218   5.707
 8066SOL    HW125097   0.504   1.147   5.666
 8066SOL    HW225098   0.563   1.205   5.806
 8067SOL     OW25099   5.220   2.867   2.910
 8067SOL    HW125100   5.137   2.922   2.913
 8067SOL    HW225101   5.238   2.839   2.815
 8068SOL     OW25102   6.915   4.565   1.346
 8068SOL    HW125103   6.985   4.494   1.347
 8068SOL    HW225104   6.955   4.652   1.374
 8069SOL     OW25105   2.389   5.331   0.865
 8069SOL    HW125106   2.373   5.242   0.823
 8069SOL    HW225107   2.372   5.403   0.798
 8070SOL     OW25108   4.211   3.235   0.609
 8070SOL    HW125109   4.181   3.328   0.586
 8070SOL    HW225110   4.153   3.169   0.561
 8071SOL     OW25111   3.327   6.428   4.950
 8071SOL    HW125112   3.351   6.520   4.919
 8071SOL    HW225113   3.346   6.362   4.877
 8072SOL     OW25114   3.933   1.310   0.785
 8072SOL    HW125115   3.998   1.304   0.860
 8072SOL    HW225116   3.845   1.341   0.820
 8073SOL     OW25117   3.120   5.105   4.864
 8073SOL    HW125118   3.144   5.011   4.889
 8073SOL    HW225119   3.203   5.156   4.845
 8074SOL     OW25120   2.861   3.097   0.864
 8074SOL    HW125121   2.764   3.088   0.839
 8074SOL    HW225122   2.898   3.179   0.822
 8075SOL     OW25123   6.288   6.848   0.317
 8075SOL    HW125124   6.381   6.845   0.281
 8075SOL    HW225125   6.245   6.935   0.293
 8076SOL     OW25126   6.072   0.707   5.337
 8076SOL    HW125127   6.097   0.707   5.433
 8076SOL    HW225128   6.076   0.614   5.301
 8077SOL     OW25129   3.492   6.053   2.645
 8077SOL    HW125130   3.434   6.135   2.636
 8077SOL    HW225131   3.504   6.032   2.742
 8078SOL     OW25132   6.881   1.827   0.605
 8078SOL    HW125133   6.908   1.767   0.530
 8078SOL    HW225134   6.927   1.915   0.596
 8079SOL     OW25135   6.123   1.582   3.671
 8079SOL    HW125136   6.166   1.565   3.760
 8079SOL    HW225137   6.143   1.506   3.609
 8080SOL     OW25138   0.720   2.806   2.290
 8080SOL    HW125139   0.677   2.760   2.212
 8080SOL    HW225140   0.686   2.766   2.375
 8081SOL     OW25141   6.209   5.429   6.070
 8081SOL    HW125142   6.233   5.470   6.158
 8081SOL    HW225143   6.269   5.467   5.999
 8082SOL     OW25144   4.199   0.696   1.999
 8082SOL    HW125145   4.286   0.679   2.046
 8082SOL    HW225146   4.185   0.795   1.990
 8083SOL     OW25147   5.007   3.080   2.936
 8083SOL    HW125148   4.982   3.158   2.878
 8083SOL    HW225149   5.021   3.112   3.030
 8084SOL     OW25150   3.902   6.341   0.133
 8084SOL    HW125151   3.886   6.348   0.035
 8084SOL    HW225152   3.838   6.275   0.173
 8085SOL     OW25153   6.037   6.571   1.980
 8085SOL    HW125154   6.002   6.571   2.074
 8085SOL    HW225155   6.126   6.617   1.978
 8086SOL     OW25156   6.695   0.499   2.365
 8086SOL    HW125157   6.638   0.440   2.308
 8086SOL    HW225158   6.646   0.585   2.383
 8087SOL     OW25159   2.289   0.210   6.972
 8087SOL    HW125160   2.286   0.123   6.923
 8087SOL    HW225161   2.356   0.204   0.022
 8088SOL     OW25162   6.202   1.132   1.293
 8088SOL    HW125163   6.142   1.070   1.345
 8088SOL    HW225164   6.145   1.196   1.240
 8089SOL     OW25165   5.741   2.508   0.964
 8089SOL    HW125166   5.763   2.487   0.869
 8089SOL    HW225167   5.704   2.601   0.970
 8090SOL     OW25168   4.148   1.274   6.669
 8090SOL    HW125169   4.081   1.260   6.742
 8090SOL    HW225170   4.238   1.291   6.708
 8091SOL     OW25171   2.109   4.030   4.749
 8091SOL    HW125172   2.158   4.012   4.663
 8091SOL    HW225173   2.171   4.013   4.825
 8092SOL     OW25174   6.047   1.930   5.406
 8092SOL    HW125175   5.991   2.008   5.377
 8092SOL    HW225176   5.988   1.863   5.451
 8093SOL     OW25177   3.402   4.892   2.875
 8093SOL    HW125178   3.402   4.968   2.810
 8093SOL    HW225179   3.466   4.911   2.949
 8094SOL     OW25180   0.591   3.077   4.888
 8094SOL    HW125181   0.656   3.093   4.814
 8094SOL    HW225182   0.640   3.044   4.969
 8095SOL     OW25183   0.170   4.873   4.413
 8095SOL    HW125184   0.247   4.815   4.435
 8095SOL    HW225185   0.086   4.819   4.412
 8096SOL     OW25186   2.014   6.514   3.000
 8096SOL    HW125187   2.104   6.480   2.975
 8096SOL    HW225188   2.017   6.614   3.011
 8097SOL     OW25189   3.788   6.477   4.215
 8097SOL    HW125190   3.703   6.530   4.221
 8097SOL    HW225191   3.865   6.541   4.208
 8098SOL     OW25192   1.914   6.418   3.242
 8098SOL    HW125193   1.944   6.471   3.321
 8098SOL    HW225194   1.959   6.453   3.160
 8099SOL     OW25195   3.983   5.771   5.181
 8099SOL    HW125196   3.923   5.831   5.128
 8099SOL    HW225197   4.073   5.813   5.191
 8100SOL     OW25198   0.381   0.261   6.912
 8100SOL    HW125199   0.376   0.216   6.823
 8100SOL    HW225200   0.369   0.360   6.900
 8101SOL     OW25201   1.943   5.997   2.356
 8101SOL    HW125202   2.019   6.063   2.357
 8101SOL    HW225203   1.946   5.941   2.438
 8102SOL     OW25204   0.744   3.902   3.673
 8102SOL    HW125205   0.744   3.967   3.749
 8102SOL    HW225206   0.761   3.952   3.587
 8103SOL     OW25207   3.028   7.007   1.412
 8103SOL    HW125208   2.977   0.036   1.480
 8103SOL    HW225209   3.068   6.926   1.456
 8104SOL     OW25210   2.195   0.241   5.633
 8104SOL    HW125211   2.104   0.270   5.663
 8104SOL    HW225212   2.202   0.141   5.639
 8105SOL     OW25213   0.539   3.174   3.205
 8105SOL    HW125214   0.566   3.156   3.299
 8105SOL    HW225215   0.466   3.111   3.179
 8106SOL     OW25216   3.128   6.434   2.789
 8106SOL    HW125217   3.166   6.360   2.844
 8106SOL    HW225218   3.150   6.522   2.831
 8107SOL     OW25219   1.003   5.033   4.352
 8107SOL    HW125220   0.952   5.089   4.417
 8107SOL    HW225221   1.098   5.025   4.383
 8108SOL     OW25222   6.132   2.765   5.517
 8108SOL    HW125223   6.115   2.776   5.615
 8108SOL    HW225224   6.148   2.668   5.496
 8109SOL     OW25225   0.480   4.252   5.291
 8109SOL    HW125226   0.397   4.303   5.313
 8109SOL    HW225227   0.501   4.261   5.194
 8110SOL     OW25228   4.256   6.105   1.958
 8110SOL    HW125229   4.181   6.146   1.906
 8110SOL    HW225230   4.326   6.175   1.976
 8111SOL     OW25231   5.157   1.390   4.086
 8111SOL    HW125232   5.105   1.475   4.083
 8111SOL    HW225233   5.248   1.405   4.046
 8112SOL     OW25234   2.739   2.363   3.929
 8112SOL    HW125235   2.711   2.279   3.976
 8112SOL    HW225236   2.718   2.355   3.832
 8113SOL     OW25237   1.666   3.994   0.135
 8113SOL    HW125238   1.600   3.925   0.164
 8113SOL    HW225239   1.741   3.950   0.087
 8114SOL     OW25240   1.508   4.284   3.002
 8114SOL    HW125241   1.583   4.265   2.939
 8114SOL    HW225242   1.491   4.382   3.006
 8115SOL     OW25243   3.529   0.077   6.999
 8115SOL    HW125244   3.473   0.079   6.915
 8115SOL    HW225245   3.570   0.167   7.014
 8116SOL     OW25246   4.382   4.499   6.755
 8116SOL    HW125247   4.481   4.488   6.762
 8116SOL    HW225248   4.351   4.464   6.667
 8117SOL     OW25249   1.982   0.089   3.521
 8117SOL    HW125250   2.031   0.098   3.434
 8117SOL    HW225251   1.893   0.047   3.505
 8118SOL     OW25252   5.112   4.662   0.032
 8118SOL    HW125253   5.179   4.619   0.092
 8118SOL    HW225254   5.075   4.594   6.992
 8119SOL     OW25255   5.281   5.502   6.465
 8119SOL    HW125256   5.217   5.467   6.534
 8119SOL    HW225257   5.246   5.588   6.428
 8120SOL     OW25258   3.087   4.695   0.821
 8120SOL    HW125259   3.087   4.603   0.781
 8120SOL    HW225260   3.002   4.741   0.798
 8121SOL     OW25261   6.903   5.105   2.255
 8121SOL    HW125262   6.867   5.198   2.270
 8121SOL    HW225263   6.945   5.073   2.340
 8122SOL     OW25264   0.627   5.254   3.390
 8122SOL    HW125265   0.693   5.186   3.357
 8122SOL    HW225266   0.661   5.294   3.475
 8123SOL     OW25267   6.960   1.967   6.639
 8123SOL    HW125268   6.876   1.914   6.646
 8123SOL    HW225269   7.010   1.962   6.726
 8124SOL     OW25270   5.761   6.133   1.541
 8124SOL    HW125271   5.692   6.126   1.613
 8124SOL    HW225272   5.715   6.149   1.453
 8125SOL     OW25273   1.224   1.445   3.173
 8125SOL    HW125274   1.304   1.503   3.189
 8125SOL    HW225275   1.186   1.415   3.260
 8126SOL     OW25276   4.710   4.279   2.598
 8126SOL    HW125277   4.763   4.353   2.639
 8126SOL    HW225278   4.716   4.198   2.656
 8127SOL     OW25279   2.538   4.553   6.679
 8127SOL    HW125280   2.590   4.601   6.609
 8127SOL    HW225281   2.544   4.454   6.663
 8128SOL     OW25282   2.833   2.003   2.213
 8128SOL    HW125283   2.846   2.090   2.165
 8128SOL    HW225284   2.780   2.019   2.297
 8129SOL     OW25285   4.031   0.451   6.388
 8129SOL    HW125286   4.083   0.376   6.430
 8129SOL    HW225287   4.094   0.520   6.354
 8130SOL     OW25288   0.516   3.568   6.579
 8130SOL    HW125289   0.483   3.476   6.558
 8130SOL    HW225290   0.487   3.592   6.672
 8131SOL     OW25291   2.643   2.108   1.396
 8131SOL    HW125292   2.630   2.047   1.474
 8131SOL    HW225293   2.588   2.191   1.408
 8132SOL     OW25294   5.993   7.002   6.193
 8132SOL    HW125295   6.084   6.966   6.211
 8132SOL    HW225296   5.953   0.013   6.278
 8133SOL     OW25297   3.376   5.536   1.450
 8133SOL    HW125298   3.350   5.474   1.375
 8133SOL    HW225299   3.347   5.629   1.428
 8134SOL     OW25300   6.611   2.793   5.685
 8134SOL    HW125301   6.528   2.771   5.736
 8134SOL    HW225302   6.605   2.753   5.593
 8135SOL     OW25303   2.915   6.609   1.578
 8135SOL    HW125304   2.891   6.520   1.538
 8135SOL    HW225305   2.849   6.678   1.549
 8136SOL     OW25306   4.377   5.402   3.230
 8136SOL    HW125307   4.364   5.399   3.329
 8136SOL    HW225308   4.385   5.497   3.200
 8137SOL     OW25309   3.548   2.065   4.941
 8137SOL    HW125310   3.487   2.115   5.002
 8137SOL    HW225311   3.643   2.080   4.970
 8138SOL     OW25312   4.900   1.036   0.778
 8138SOL    HW125313   4.958   0.967   0.821
 8138SOL    HW225314   4.958   1.103   0.731
 8139SOL     OW25315   0.052   1.299   2.178
 8139SOL    HW125316   0.108   1.335   2.104
 8139SOL    HW225317   0.016   1.209   2.153
 8140SOL     OW25318   5.339   0.623   0.415
 8140SOL    HW125319   5.358   0.674   0.499
 8140SOL    HW225320   5.240   0.610   0.405
 8141SOL     OW25321   4.185   6.291   4.825
 8141SOL    HW125322   4.229   6.357   4.764
 8141SOL    HW225323   4.127   6.340   4.891
 8142SOL     OW25324   0.848   5.295   0.309
 8142SOL    HW125325   0.834   5.341   0.221
 8142SOL    HW225326   0.928   5.334   0.355
 8143SOL     OW25327   5.985   4.407   1.235
 8143SOL    HW125328   6.023   4.330   1.284
 8143SOL    HW225329   6.030   4.417   1.146
 8144SOL     OW25330   6.105   6.136   6.555
 8144SOL    HW125331   6.145   6.182   6.634
 8144SOL    HW225332   6.174   6.129   6.483
 8145SOL     OW25333   5.690   5.785   1.865
 8145SOL    HW125334   5.734   5.717   1.807
 8145SOL    HW225335   5.606   5.816   1.821
 8146SOL     OW25336   4.273   0.891   4.506
 8146SOL    HW125337   4.356   0.945   4.487
 8146SOL    HW225338   4.251   0.835   4.425
 8147SOL     OW25339   5.968   1.782   1.703
 8147SOL    HW125340   5.967   1.714   1.776
 8147SOL    HW225341   5.915   1.749   1.625
 8148SOL     OW25342   5.205   4.413   1.318
 8148SOL    HW125343   5.217   4.471   1.237
 8148SOL    HW225344   5.113   4.424   1.354
 8149SOL     OW25345   3.019   5.963   2.003
 8149SOL    HW125346   3.009   5.930   1.909
 8149SOL    HW225347   3.089   5.910   2.050
 8150SOL     OW25348   1.530   3.973   0.727
 8150SOL    HW125349   1.529   3.985   0.628
 8150SOL    HW225350   1.544   4.062   0.772
 8151SOL     OW25351   5.893   2.402   1.506
 8151SOL    HW125352   5.934   2.454   1.432
 8151SOL    HW225353   5.949   2.322   1.526
 8152SOL     OW25354   0.032   1.696   2.771
 8152SOL    HW125355   6.991   1.730   2.839
 8152SOL    HW225356   0.126   1.719   2.798
 8153SOL     OW25357   1.994   0.151   3.830
 8153SOL    HW125358   2.051   0.231   3.849
 8153SOL    HW225359   1.998   0.130   3.732
 8154SOL     OW25360   3.067   4.841   2.321
 8154SOL    HW125361   3.082   4.842   2.420
 8154SOL    HW225362   2.973   4.813   2.302
 8155SOL     OW25363   1.633   3.682   1.702
 8155SOL    HW125364   1.681   3.634   1.776
 8155SOL    HW225365   1.690   3.757   1.669
 8156SOL     OW25366   4.834   0.075   0.863
 8156SOL    HW125367   4.735   0.076   0.873
 8156SOL    HW225368   4.859   0.021   0.783
 8157SOL     OW25369   0.051   5.576   6.689
 8157SOL    HW125370   0.070   5.501   6.625
 8157SOL    HW225371   0.136   5.621   6.715
 8158SOL     OW25372   4.902   5.149   0.537
 8158SOL    HW125373   4.917   5.214   0.462
 8158SOL    HW225374   4.808   5.115   0.533
 8159SOL     OW25375   3.216   5.786   2.163
 8159SOL    HW125376   3.213   5.699   2.114
 8159SOL    HW225377   3.249   5.771   2.256
 8160SOL     OW25378   5.163   1.049   3.353
 8160SOL    HW125379   5.248   1.029   3.402
 8160SOL    HW225380   5.182   1.067   3.257
 8161SOL     OW25381   5.409   2.139   6.673
 8161SOL    HW125382   5.370   2.076   6.606
 8161SOL    HW225383   5.410   2.232   6.635
 8162SOL     OW25384   6.013   6.218   5.993
 8162SOL    HW125385   5.935   6.173   6.036
 8162SOL    HW225386   6.068   6.262   6.064
 8163SOL     OW25387   2.687   4.167   5.314
 8163SOL    HW125388   2.661   4.088   5.368
 8163SOL    HW225389   2.650   4.250   5.355
 8164SOL     OW25390   5.653   3.326   0.917
 8164SOL    HW125391   5.564   3.297   0.951
 8164SOL    HW225392   5.717   3.248   0.921
 8165SOL     OW25393   1.198   4.693   6.605
 8165SOL    HW125394   1.273   4.645   6.560
 8165SOL    HW225395   1.208   4.684   6.704
 8166SOL     OW25396   1.386   0.064   2.150
 8166SOL    HW125397   1.391   0.164   2.154
 8166SOL    HW225398   1.304   0.037   2.100
 8167SOL     OW25399   6.113   6.943   5.079
 8167SOL    HW125400   6.113   0.002   5.136
 8167SOL    HW225401   6.049   6.955   5.003
 8168SOL     OW25402   2.555   1.799   3.836
 8168SOL    HW125403   2.603   1.739   3.901
 8168SOL    HW225404   2.493   1.859   3.887
 8169SOL     OW25405   4.611   2.274   1.644
 8169SOL    HW125406   4.690   2.333   1.628
 8169SOL    HW225407   4.571   2.248   1.556
 8170SOL     OW25408   1.595   5.834   2.285
 8170SOL    HW125409   1.671   5.852   2.223
 8170SOL    HW225410   1.511   5.822   2.232
 8171SOL     OW25411   1.555   1.161   0.179
 8171SOL    HW125412   1.584   1.223   0.253
 8171SOL    HW225413   1.532   1.072   0.217
 8172SOL     OW25414   0.782   1.785   1.799
 8172SOL    HW125415   0.705   1.830   1.754
 8172SOL    HW225416   0.815   1.710   1.741
 8173SOL     OW25417   4.619   0.849   1.758
 8173SOL    HW125418   4.545   0.911   1.785
 8173SOL    HW225419   4.706   0.899   1.761
 8174SOL     OW25420   6.343   2.391   0.834
 8174SOL    HW125421   6.368   2.488   0.842
 8174SOL    HW225422   6.289   2.363   0.913
 8175SOL     OW25423   6.986   3.299   5.970
 8175SOL    HW125424   6.910   3.237   5.993
 8175SOL    HW225425   6.988   3.374   6.036
 8176SOL     OW25426   2.888   5.454   2.343
 8176SOL    HW125427   2.923   5.361   2.346
 8176SOL    HW225428   2.798   5.455   2.299
 8177SOL     OW25429   2.584   6.388   3.515
 8177SOL    HW125430   2.510   6.450   3.489
 8177SOL    HW225431   2.611   6.333   3.436
 8178SOL     OW25432   3.055   6.184   6.590
 8178SOL    HW125433   2.971   6.237   6.591
 8178SOL    HW225434   3.072   6.149   6.498
 8179SOL     OW25435   4.477   2.607   5.752
 8179SOL    HW125436   4.392   2.656   5.732
 8179SOL    HW225437   4.523   2.651   5.829
 8180SOL     OW25438   6.433   6.883   4.808
 8180SOL    HW125439   6.344   6.907   4.771
 8180SOL    HW225440   6.427   6.873   4.908
 8181SOL     OW25441   2.098   1.420   1.821
 8181SOL    HW125442   2.146   1.506   1.840
 8181SOL    HW225443   2.006   1.441   1.789
 8182SOL     OW25444   3.354   2.589   6.314
 8182SOL    HW125445   3.444   2.550   6.295
 8182SOL    HW225446   3.345   2.677   6.268
 8183SOL     OW25447   0.305   2.841   4.220
 8183SOL    HW125448   0.259   2.906   4.281
 8183SOL    HW225449   0.401   2.833   4.246
 8184SOL     OW25450   5.437   2.356   6.096
 8184SOL    HW125451   5.412   2.412   6.174
 8184SOL    HW225452   5.406   2.262   6.111
 8185SOL     OW25453   2.610   6.185   0.141
 8185SOL    HW125454   2.681   6.144   0.083
 8185SOL    HW225455   2.561   6.113   0.190
 8186SOL     OW25456   3.423   5.430   6.333
 8186SOL    HW125457   3.379   5.365   6.271
 8186SOL    HW225458   3.374   5.432   6.420
 8187SOL     OW25459   1.470   1.876   5.640
 8187SOL    HW125460   1.529   1.879   5.721
 8187SOL    HW225461   1.510   1.814   5.572
 8188SOL     OW25462   5.517   2.316   2.077
 8188SOL    HW125463   5.577   2.345   2.003
 8188SOL    HW225464   5.497   2.218   2.067
 8189SOL     OW25465   4.781   5.043   2.698
 8189SOL    HW125466   4.688   5.008   2.709
 8189SOL    HW225467   4.779   5.126   2.641
 8190SOL     OW25468   4.391   5.188   4.476
 8190SOL    HW125469   4.293   5.192   4.453
 8190SOL    HW225470   4.405   5.229   4.566
 8191SOL     OW25471   3.303   5.693   3.050
 8191SOL    HW125472   3.362   5.615   3.070
 8191SOL    HW225473   3.207   5.667   3.059
 8192SOL     OW25474   3.709   5.482   0.274
 8192SOL    HW125475   3.632   5.524   0.226
 8192SOL    HW225476   3.722   5.528   0.362
 8193SOL     OW25477   6.756   6.913   4.171
 8193SOL    HW125478   6.725   7.008   4.182
 8193SOL    HW225479   6.803   6.904   4.083
 8194SOL     OW25480   6.260   2.436   0.392
 8194SOL    HW125481   6.278   2.427   0.295
 8194SOL    HW225482   6.191   2.369   0.420
 8195SOL     OW25483   0.876   0.260   0.803
 8195SOL    HW125484   0.801   0.314   0.840
 8195SOL    HW225485   0.949   0.253   0.871
 8196SOL     OW25486   3.411   0.474   5.520
 8196SOL    HW125487   3.476   0.423   5.464
 8196SOL    HW225488   3.319   0.438   5.506
 8197SOL     OW25489   4.165   1.078   5.859
 8197SOL    HW125490   4.146   1.154   5.922
 8197SOL    HW225491   4.089   1.070   5.794
 8198SOL     OW25492   3.114   5.890   3.195
 8198SOL    HW125493   3.199   5.929   3.158
 8198SOL    HW225494   3.086   5.943   3.275
 8199SOL     OW25495   6.733   3.221   6.242
 8199SOL    HW125496   6.808   3.163   6.273
 8199SOL    HW225497   6.716   3.204   6.145
 8200SOL     OW25498   4.380   3.428   1.670
 8200SOL    HW125499   4.361   3.411   1.573
 8200SOL    HW225500   4.416   3.521   1.681
 8201SOL     OW25501   5.809   0.612   4.298
 8201SOL    HW125502   5.817   0.702   4.341
 8201SOL    HW225503   5.728   0.565   4.334
 8202SOL     OW25504   0.435   5.708   4.174
 8202SOL    HW125505   0.431   5.608   4.173
 8202SOL    HW225506   0.448   5.740   4.268
 8203SOL     OW25507   4.792   2.377   0.469
 8203SOL    HW125508   4.803   2.358   0.372
 8203SOL    HW225509   4.850   2.314   0.522
 8204SOL     OW25510   3.049   5.514   0.820
 8204SOL    HW125511   3.061   5.609   0.790
 8204SOL    HW225512   3.118   5.456   0.776
 8205SOL     OW25513   7.020   4.867   1.048
 8205SOL    HW125514   0.079   4.829   1.090
 8205SOL    HW225515   0.020   4.947   0.994
 8206SOL     OW25516   4.131   2.663   5.987
 8206SOL    HW125517   4.125   2.727   5.910
 8206SOL    HW225518   4.100   2.572   5.957
 8207SOL     OW25519   3.778   4.380   5.267
 8207SOL    HW125520   3.741   4.339   5.183
 8207SOL    HW225521   3.703   4.421   5.319
 8208SOL     OW25522   2.370   6.320   1.661
 8208SOL    HW125523   2.386   6.225   1.636
 8208SOL    HW225524   2.283   6.351   1.621
 8209SOL     OW25525   0.598   1.774   5.603
 8209SOL    HW125526   0.634   1.695   5.651
 8209SOL    HW225527   0.500   1.762   5.586
 8210SOL     OW25528   2.743   0.907   1.728
 8210SOL    HW125529   2.755   0.819   1.774
 8210SOL    HW225530   2.770   0.899   1.632
 8211SOL     OW25531   3.416   3.808   3.353
 8211SOL    HW125532   3.352   3.855   3.415
 8211SOL    HW225533   3.510   3.826   3.382
 8212SOL     OW25534   3.425   1.405   1.439
 8212SOL    HW125535   3.352   1.345   1.471
 8212SOL    HW225536   3.398   1.501   1.451
 8213SOL     OW25537   5.155   4.831   2.723
 8213SOL    HW125538   5.078   4.852   2.662
 8213SOL    HW225539   5.218   4.908   2.724
 8214SOL     OW25540   1.738   5.604   4.047
 8214SOL    HW125541   1.716   5.650   4.133
 8214SOL    HW225542   1.655   5.599   3.990
 8215SOL     OW25543   3.916   4.929   6.717
 8215SOL    HW125544   3.826   4.886   6.711
 8215SOL    HW225545   3.938   4.948   6.812
 8216SOL     OW25546   4.549   6.987   3.067
 8216SOL    HW125547   4.561   6.909   3.128
 8216SOL    HW225548   4.627   0.025   3.076
 8217SOL     OW25549   2.092   3.839   2.153
 8217SOL    HW125550   2.095   3.752   2.103
 8217SOL    HW225551   2.127   3.912   2.096
 8218SOL     OW25552   1.613   0.049   3.858
 8218SOL    HW125553   1.696   0.083   3.903
 8218SOL    HW225554   1.555   0.127   3.833
 8219SOL     OW25555   3.531   3.621   1.591
 8219SOL    HW125556   3.552   3.715   1.619
 8219SOL    HW225557   3.485   3.623   1.501
 8220SOL     OW25558   3.454   3.980   5.544
 8220SOL    HW125559   3.391   3.926   5.599
 8220SOL    HW225560   3.548   3.949   5.560
 8221SOL     OW25561   6.455   4.920   3.413
 8221SOL    HW125562   6.408   4.999   3.454
 8221SOL    HW225563   6.515   4.879   3.481
 8222SOL     OW25564   4.971   2.376   1.309
 8222SOL    HW125565   4.966   2.302   1.376
 8222SOL    HW225566   5.043   2.440   1.335
 8223SOL     OW25567   0.329   4.916   6.193
 8223SOL    HW125568   0.317   4.941   6.097
 8223SOL    HW225569   0.423   4.935   6.221
 8224SOL     OW25570   4.928   1.974   1.618
 8224SOL    HW125571   4.987   1.893   1.614
 8224SOL    HW225572   4.833   1.946   1.626
 8225SOL     OW25573   3.618   1.082   1.264
 8225SOL    HW125574   3.653   1.132   1.185
 8225SOL    HW225575   3.689   1.078   1.335
 8226SOL     OW25576   3.160   0.427   0.658
 8226SOL    HW125577   3.130   0.508   0.708
 8226SOL    HW225578   3.129   0.345   0.706
 8227SOL     OW25579   0.273   1.872   2.302
 8227SOL    HW125580   0.358   1.925   2.306
 8227SOL    HW225581   0.271   1.806   2.376
 8228SOL     OW25582   1.114   1.863   6.048
 8228SOL    HW125583   1.043   1.854   5.979
 8228SOL    HW225584   1.163   1.949   6.034
 8229SOL     OW25585   3.671   4.169   1.413
 8229SOL    HW125586   3.617   4.245   1.449
 8229SOL    HW225587   3.741   4.204   1.352
 8230SOL     OW25588   3.762   6.672   5.359
 8230SOL    HW125589   3.827   6.725   5.413
 8230SOL    HW225590   3.685   6.731   5.333
 8231SOL     OW25591   3.655   2.052   1.772
 8231SOL    HW125592   3.686   2.097   1.687
 8231SOL    HW225593   3.658   2.118   1.847
 8232SOL     OW25594   5.783   2.304   2.573
 8232SOL    HW125595   5.807   2.281   2.479
 8232SOL    HW225596   5.852   2.265   2.635
 8233SOL     OW25597   1.594   6.633   6.314
 8233SOL    HW125598   1.584   6.597   6.222
 8233SOL    HW225599   1.686   6.612   6.348
 8234SOL     OW25600   2.756   3.649   0.188
 8234SOL    HW125601   2.730   3.569   0.243
 8234SOL    HW225602   2.776   3.619   0.095
 8235SOL     OW25603   0.572   3.595   7.022
 8235SOL    HW125604   0.487   3.590   0.052
 8235SOL    HW225605   0.599   3.690   7.010
 8236SOL     OW25606   0.661   5.302   6.242
 8236SOL    HW125607   0.624   5.343   6.326
 8236SOL    HW225608   0.590   5.302   6.172
 8237SOL     OW25609   4.534   6.354   6.554
 8237SOL    HW125610   4.529   6.386   6.648
 8237SOL    HW225611   4.445   6.368   6.509
 8238SOL     OW25612   0.379   6.046   6.731
 8238SOL    HW125613   0.412   6.115   6.795
 8238SOL    HW225614   0.351   6.090   6.646
 8239SOL     OW25615   0.606   0.763   4.988
 8239SOL    HW125616   0.509   0.746   4.968
 8239SOL    HW225617   0.622   0.756   5.086
 8240SOL     OW25618   3.011   3.743   3.214
 8240SOL    HW125619   3.013   3.799   3.132
 8240SOL    HW225620   2.992   3.801   3.294
 8241SOL     OW25621   2.386   4.926   6.061
 8241SOL    HW125622   2.324   5.000   6.034
 8241SOL    HW225623   2.345   4.874   6.136
 8242SOL     OW25624   0.608   4.044   4.677
 8242SOL    HW125625   0.653   3.962   4.713
 8242SOL    HW225626   0.547   4.018   4.603
 8243SOL     OW25627   0.224   4.330   0.467
 8243SOL    HW125628   0.237   4.235   0.496
 8243SOL    HW225629   0.297   4.356   0.405
 8244SOL     OW25630   0.381   0.028   4.090
 8244SOL    HW125631   0.428   0.074   4.166
 8244SOL    HW225632   0.410   0.069   4.003
 8245SOL     OW25633   3.905   1.100   2.925
 8245SOL    HW125634   3.851   1.055   2.996
 8245SOL    HW225635   3.999   1.110   2.957
 8246SOL     OW25636   0.349   4.467   6.751
 8246SOL    HW125637   0.313   4.511   6.668
 8246SOL    HW225638   0.434   4.511   6.778
 8247SOL     OW25639   2.267   6.474   3.822
 8247SOL    HW125640   2.331   6.400   3.844
 8247SOL    HW225641   2.296   6.558   3.867
 8248SOL     OW25642   0.813   5.043   5.184
 8248SOL    HW125643   0.779   5.050   5.090
 8248SOL    HW225644   0.738   5.014   5.244
 8249SOL     OW25645   2.574   0.936   5.716
 8249SOL    HW125646   2.582   0.988   5.631
 8249SOL    HW225647   2.655   0.951   5.772
 8250SOL     OW25648   3.541   2.243   1.390
 8250SOL    HW125649   3.487   2.186   1.451
 8250SOL    HW225650   3.619   2.281   1.440
 8251SOL     OW25651   6.174   0.727   4.152
 8251SOL    HW125652   6.232   0.719   4.071
 8251SOL    HW225653   6.139   0.636   4.176
 8252SOL     OW25654   3.609   1.717   0.250
 8252SOL    HW125655   3.553   1.634   0.243
 8252SOL    HW225656   3.596   1.773   0.169
 8253SOL     OW25657   3.927   5.730   0.003
 8253SOL    HW125658   3.960   5.808   0.056
 8253SOL    HW225659   3.993   5.709   6.955
 8254SOL     OW25660   5.547   4.477   5.922
 8254SOL    HW125661   5.490   4.492   5.841
 8254SOL    HW225662   5.620   4.413   5.900
 8255SOL     OW25663   1.129   0.293   6.426
 8255SOL    HW125664   1.088   0.250   6.507
 8255SOL    HW225665   1.200   0.233   6.389
 8256SOL     OW25666   6.497   0.009   2.964
 8256SOL    HW125667   6.578   0.065   2.944
 8256SOL    HW225668   6.446   7.018   2.879
 8257SOL     OW25669   5.781   4.668   4.156
 8257SOL    HW125670   5.701   4.611   4.135
 8257SOL    HW225671   5.844   4.617   4.215
 8258SOL     OW25672   5.001   3.280   1.576
 8258SOL    HW125673   5.047   3.287   1.664
 8258SOL    HW225674   5.010   3.187   1.541
 8259SOL     OW25675   3.867   2.068   5.481
 8259SOL    HW125676   3.779   2.090   5.523
 8259SOL    HW225677   3.896   2.144   5.423
 8260SOL     OW25678   2.077   6.082   1.490
 8260SOL    HW125679   2.064   5.986   1.466
 8260SOL    HW225680   2.066   6.093   1.589
 8261SOL     OW25681   4.828   6.546   3.308
 8261SOL    HW125682   4.848   6.449   3.316
 8261SOL    HW225683   4.867   6.595   3.386
 8262SOL     OW25684   0.500   4.549   0.590
 8262SOL    HW125685   0.460   4.568   0.501
 8262SOL    HW225686   0.476   4.622   0.654
 8263SOL     OW25687   6.888   2.800   6.912
 8263SOL    HW125688   6.957   2.872   6.902
 8263SOL    HW225689   6.917   2.737   6.984
 8264SOL     OW25690   1.237   0.057   1.787
 8264SOL    HW125691   1.195   6.996   1.754
 8264SOL    HW225692   1.187   0.091   1.866
 8265SOL     OW25693   4.922   0.631   1.765
 8265SOL    HW125694   4.924   0.550   1.706
 8265SOL    HW225695   4.927   0.713   1.709
 8266SOL     OW25696   3.004   0.230   5.116
 8266SOL    HW125697   3.034   0.305   5.056
 8266SOL    HW225698   2.983   0.149   5.060
 8267SOL     OW25699   1.813   4.747   1.613
 8267SOL    HW125700   1.817   4.678   1.540
 8267SOL    HW225701   1.869   4.716   1.691
 8268SOL     OW25702   3.091   4.542   5.609
 8268SOL    HW125703   3.162   4.563   5.676
 8268SOL    HW225704   3.037   4.464   5.640
 8269SOL     OW25705   4.642   2.287   2.985
 8269SOL    HW125706   4.619   2.348   2.909
 8269SOL    HW225707   4.559   2.261   3.034
 8270SOL     OW25708   3.243   5.381   5.643
 8270SOL    HW125709   3.145   5.364   5.650
 8270SOL    HW225710   3.265   5.470   5.685
 8271SOL     OW25711   6.545   6.520   3.911
 8271SOL    HW125712   6.535   6.423   3.928
 8271SOL    HW225713   6.506   6.572   3.987
 8272SOL     OW25714   0.087   1.537   2.341
 8272SOL    HW125715   0.163   1.494   2.389
 8272SOL    HW225716   0.098   1.526   2.243
 8273SOL     OW25717   2.776   1.308   0.053
 8273SOL    HW125718   2.819   1.385   0.098
 8273SOL    HW225719   2.726   1.340   6.996
 8274SOL     OW25720   4.210   4.561   6.109
 8274SOL    HW125721   4.279   4.628   6.082
 8274SOL    HW225722   4.135   4.563   6.043
 8275SOL     OW25723   5.687   0.173   4.693
 8275SOL    HW125724   5.736   0.152   4.777
 8275SOL    HW225725   5.742   0.234   4.636
 8276SOL     OW25726   6.503   2.041   5.893
 8276SOL    HW125727   6.560   2.027   5.974
 8276SOL    HW225728   6.488   2.139   5.879
 8277SOL     OW25729   2.716   6.045   5.311
 8277SOL    HW125730   2.623   6.080   5.308
 8277SOL    HW225731   2.747   6.025   5.218
 8278SOL     OW25732   2.799   1.483   6.419
 8278SOL    HW125733   2.890   1.524   6.430
 8278SOL    HW225734   2.761   1.510   6.330
 8279SOL     OW25735   6.049   5.798   6.200
 8279SOL    HW125736   6.007   5.847   6.277
 8279SOL    HW225737   6.106   5.861   6.148
 8280SOL     OW25738   4.331   2.343   0.371
 8280SOL    HW125739   4.233   2.360   0.366
 8280SOL    HW225740   4.358   2.331   0.467
 8281SOL     OW25741   2.074   4.454   1.822
 8281SOL    HW125742   2.118   4.473   1.909
 8281SOL    HW225743   2.052   4.540   1.775
 8282SOL     OW25744   2.520   3.455   0.511
 8282SOL    HW125745   2.513   3.355   0.512
 8282SOL    HW225746   2.429   3.495   0.506
 8283SOL     OW25747   1.010   4.624   4.122
 8283SOL    HW125748   0.960   4.541   4.144
 8283SOL    HW225749   1.101   4.620   4.163
 8284SOL     OW25750   1.237   3.706   2.206
 8284SOL    HW125751   1.310   3.745   2.151
 8284SOL    HW225752   1.254   3.726   2.303
 8285SOL     OW25753   3.727   3.446   5.379
 8285SOL    HW125754   3.670   3.392   5.442
 8285SOL    HW225755   3.774   3.384   5.315
 8286SOL     OW25756   5.161   1.672   4.970
 8286SOL    HW125757   5.195   1.748   5.025
 8286SOL    HW225758   5.209   1.671   4.882
 8287SOL     OW25759   1.383   6.172   3.716
 8287SOL    HW125760   1.393   6.235   3.793
 8287SOL    HW225761   1.309   6.108   3.735
 8288SOL     OW25762   0.775   2.504   2.432
 8288SOL    HW125763   0.802   2.575   2.497
 8288SOL    HW225764   0.697   2.453   2.468
 8289SOL     OW25765   6.200   0.646   6.043
 8289SOL    HW125766   6.288   0.656   6.089
 8289SOL    HW225767   6.162   0.737   6.024
 8290SOL     OW25768   4.505   1.875   1.870
 8290SOL    HW125769   4.433   1.940   1.842
 8290SOL    HW225770   4.578   1.877   1.802
 8291SOL     OW25771   5.905   5.363   6.779
 8291SOL    HW125772   5.885   5.335   6.685
 8291SOL    HW225773   5.843   5.436   6.806
 8292SOL     OW25774   2.386   5.891   6.091
 8292SOL    HW125775   2.346   5.967   6.142
 8292SOL    HW225776   2.314   5.828   6.062
 8293SOL     OW25777   1.350   3.975   1.850
 8293SOL    HW125778   1.412   4.006   1.778
 8293SOL    HW225779   1.389   3.896   1.897
 8294SOL     OW25780   6.373   3.088   4.732
 8294SOL    HW125781   6.324   3.124   4.811
 8294SOL    HW225782   6.454   3.144   4.715
 8295SOL     OW25783   5.295   3.469   2.400
 8295SOL    HW125784   5.380   3.487   2.451
 8295SOL    HW225785   5.237   3.550   2.402
 8296SOL     OW25786   3.730   4.833   7.002
 8296SOL    HW125787   3.796   4.908   7.004
 8296SOL    HW225788   3.704   4.810   0.073
 8297SOL     OW25789   6.902   3.497   2.193
 8297SOL    HW125790   6.815   3.516   2.148
 8297SOL    HW225791   6.908   3.400   2.216
 8298SOL     OW25792   0.270   0.542   6.884
 8298SOL    HW125793   0.257   0.628   6.834
 8298SOL    HW225794   0.323   0.559   6.966
 8299SOL     OW25795   0.741   2.658   0.718
 8299SOL    HW125796   0.727   2.728   0.648
 8299SOL    HW225797   0.721   2.696   0.808
 8300SOL     OW25798   6.053   6.656   5.138
 8300SOL    HW125799   6.036   6.751   5.115
 8300SOL    HW225800   6.033   6.641   5.235
 8301SOL     OW25801   4.386   0.186   6.766
 8301SOL    HW125802   4.371   0.282   6.741
 8301SOL    HW225803   4.298   0.141   6.777
 8302SOL     OW25804   4.054   6.803   5.196
 8302SOL    HW125805   4.011   6.832   5.281
 8302SOL    HW225806   4.046   6.875   5.128
 8303SOL     OW25807   6.825   0.086   3.539
 8303SOL    HW125808   6.784   0.005   3.582
 8303SOL    HW225809   6.788   0.097   3.447
 8304SOL     OW25810   5.533   5.097   2.020
 8304SOL    HW125811   5.590   5.059   2.093
 8304SOL    HW225812   5.444   5.051   2.019
 8305SOL     OW25813   4.116   5.153   4.397
 8305SOL    HW125814   4.092   5.164   4.493
 8305SOL    HW225815   4.034   5.139   4.342
 8306SOL     OW25816   6.362   1.235   2.830
 8306SOL    HW125817   6.318   1.309   2.882
 8306SOL    HW225818   6.330   1.147   2.864
 8307SOL     OW25819   3.186   4.962   1.597
 8307SOL    HW125820   3.162   4.985   1.502
 8307SOL    HW225821   3.205   5.046   1.647
 8308SOL     OW25822   1.910   4.109   0.415
 8308SOL    HW125823   1.894   4.011   0.426
 8308SOL    HW225824   2.007   4.128   0.428
 8309SOL     OW25825   6.142   5.037   3.373
 8309SOL    HW125826   6.206   4.967   3.343
 8309SOL    HW225827   6.080   4.998   3.442
 8310SOL     OW25828   0.863   5.655   0.781
 8310SOL    HW125829   0.808   5.573   0.769
 8310SOL    HW225830   0.874   5.701   0.693
 8311SOL     OW25831   5.591   0.552   4.416
 8311SOL    HW125832   5.513   0.494   4.395
 8311SOL    HW225833   5.634   0.522   4.501
 8312SOL     OW25834   5.611   1.266   0.519
 8312SOL    HW125835   5.639   1.358   0.548
 8312SOL    HW225836   5.590   1.211   0.600
 8313SOL     OW25837   4.133   0.028   5.462
 8313SOL    HW125838   4.188   0.038   5.545
 8313SOL    HW225839   4.087   0.114   5.441
 8314SOL     OW25840   5.808   6.686   6.394
 8314SOL    HW125841   5.866   6.622   6.344
 8314SOL    HW225842   5.737   6.635   6.442
 8315SOL     OW25843   3.864   4.016   2.696
 8315SOL    HW125844   3.931   3.941   2.697
 8315SOL    HW225845   3.910   4.102   2.674
 8316SOL     OW25846   1.756   3.436   0.363
 8316SOL    HW125847   1.719   3.469   0.276
 8316SOL    HW225848   1.704   3.476   0.439
 8317SOL     OW25849   2.995   2.217   3.860
 8317SOL    HW125850   2.915   2.277   3.867
 8317SOL    HW225851   3.028   2.217   3.766
 8318SOL     OW25852   4.402   0.895   5.546
 8318SOL    HW125853   4.306   0.884   5.519
 8318SOL    HW225854   4.427   0.821   5.609
 8319SOL     OW25855   2.108   7.002   0.212
 8319SOL    HW125856   2.130   0.042   0.286
 8319SOL    HW225857   2.040   0.021   0.152
 8320SOL     OW25858   3.669   3.835   3.427
 8320SOL    HW125859   3.683   3.813   3.523
 8320SOL    HW225860   3.691   3.931   3.411
 8321SOL     OW25861   0.357   6.852   6.150
 8321SOL    HW125862   0.432   6.786   6.136
 8321SOL    HW225863   0.270   6.803   6.152
 8322SOL     OW25864   0.348   1.133   0.327
 8322SOL    HW125865   0.408   1.053   0.319
 8322SOL    HW225866   0.404   1.216   0.321
 8323SOL     OW25867   3.426   4.771   1.423
 8323SOL    HW125868   3.420   4.870   1.407
 8323SOL    HW225869   3.401   4.723   1.339
 8324SOL     OW25870   5.422   0.877   0.383
 8324SOL    HW125871   5.454   0.913   0.296
 8324SOL    HW225872   5.386   0.785   0.370
 8325SOL     OW25873   1.023   4.190   5.282
 8325SOL    HW125874   0.972   4.107   5.304
 8325SOL    HW225875   1.067   4.226   5.364
 8326SOL     OW25876   4.328   3.515   6.716
 8326SOL    HW125877   4.310   3.565   6.801
 8326SOL    HW225878   4.364   3.577   6.647
 8327SOL     OW25879   0.857   6.899   5.466
 8327SOL    HW125880   0.884   6.968   5.398
 8327SOL    HW225881   0.894   6.811   5.440
 8328SOL     OW25882   2.022   6.470   6.117
 8328SOL    HW125883   2.031   6.373   6.093
 8328SOL    HW225884   2.113   6.510   6.132
 8329SOL     OW25885   0.091   2.403   5.364
 8329SOL    HW125886   7.015   2.404   5.356
 8329SOL    HW225887   0.131   2.456   5.288
 8330SOL     OW25888   3.490   1.170   6.484
 8330SOL    HW125889   3.567   1.196   6.543
 8330SOL    HW225890   3.484   1.234   6.407
 8331SOL     OW25891   2.724   0.986   0.963
 8331SOL    HW125892   2.816   1.020   0.945
 8331SOL    HW225893   2.729   0.910   1.027
 8332SOL     OW25894   5.129   5.320   2.086
 8332SOL    HW125895   5.052   5.382   2.069
 8332SOL    HW225896   5.205   5.371   2.125
 8333SOL     OW25897   2.282   4.479   0.138
 8333SOL    HW125898   2.283   4.453   0.042
 8333SOL    HW225899   2.344   4.556   0.153
 8334SOL     OW25900   2.834   2.383   6.437
 8334SOL    HW125901   2.929   2.363   6.413
 8334SOL    HW225902   2.827   2.392   6.537
 8335SOL     OW25903   4.030   2.631   6.943
 8335SOL    HW125904   4.013   2.700   6.873
 8335SOL    HW225905   3.970   2.553   6.928
 8336SOL     OW25906   1.014   3.984   3.454
 8336SOL    HW125907   1.033   4.004   3.549
 8336SOL    HW225908   1.096   3.950   3.409
 8337SOL     OW25909   0.519   6.725   4.277
 8337SOL    HW125910   0.426   6.737   4.310
 8337SOL    HW225911   0.554   6.636   4.306
 8338SOL     OW25912   3.608   5.660   2.133
 8338SOL    HW125913   3.579   5.744   2.179
 8338SOL    HW225914   3.642   5.682   2.042
 8339SOL     OW25915   0.109   1.125   1.785
 8339SOL    HW125916   0.091   1.032   1.753
 8339SOL    HW225917   0.022   1.174   1.796
 8340SOL     OW25918   5.074   4.029   0.235
 8340SOL    HW125919   5.030   4.001   0.320
 8340SOL    HW225920   5.154   3.971   0.218
 8341SOL     OW25921   3.570   0.343   7.002
 8341SOL    HW125922   3.500   0.402   0.020
 8341SOL    HW225923   3.660   0.382   7.018
 8342SOL     OW25924   3.766   0.051   0.336
 8342SOL    HW125925   3.840   0.067   0.270
 8342SOL    HW225926   3.757   6.977   0.354
 8343SOL     OW25927   6.260   5.530   3.960
 8343SOL    HW125928   6.190   5.481   4.013
 8343SOL    HW225929   6.246   5.629   3.971
 8344SOL     OW25930   6.646   4.697   4.780
 8344SOL    HW125931   6.597   4.658   4.701
 8344SOL    HW225932   6.588   4.763   4.826
 8345SOL     OW25933   4.732   2.068   3.580
 8345SOL    HW125934   4.671   1.997   3.546
 8345SOL    HW225935   4.684   2.155   3.584
 8346SOL     OW25936   3.745   3.351   6.083
 8346SOL    HW125937   3.730   3.426   6.019
 8346SOL    HW225938   3.657   3.315   6.114
 8347SOL     OW25939   3.435   6.502   6.591
 8347SOL    HW125940   3.481   6.562   6.656
 8347SOL    HW225941   3.429   6.547   6.502
 8348SOL     OW25942   2.484   0.162   1.699
 8348SOL    HW125943   2.490   0.260   1.717
 8348SOL    HW225944   2.393   0.129   1.726
 8349SOL     OW25945   1.449   6.530   1.767
 8349SOL    HW125946   1.461   6.514   1.669
 8349SOL    HW225947   1.359   6.496   1.795
 8350SOL     OW25948   3.156   6.574   6.119
 8350SOL    HW125949   3.205   6.502   6.168
 8350SOL    HW225950   3.061   6.577   6.150
 8351SOL     OW25951   5.784   5.351   4.089
 8351SOL    HW125952   5.718   5.413   4.132
 8351SOL    HW225953   5.787   5.368   3.991
 8352SOL     OW25954   1.559   0.182   3.003
 8352SOL    HW125955   1.622   0.196   3.080
 8352SOL    HW225956   1.611   0.181   2.917
 8353SOL     OW25957   0.806   4.147   0.829
 8353SOL    HW125958   0.868   4.194   0.766
 8353SOL    HW225959   0.853   4.129   0.915
 8354SOL     OW25960   3.242   6.842   3.866
 8354SOL    HW125961   3.242   6.836   3.966
 8354SOL    HW225962   3.332   6.873   3.835
 8355SOL     OW25963   1.867   0.945   5.391
 8355SOL    HW125964   1.876   0.889   5.309
 8355SOL    HW225965   1.904   0.895   5.469
 8356SOL     OW25966   0.796   5.351   1.369
 8356SOL    HW125967   0.828   5.371   1.461
 8356SOL    HW225968   0.807   5.253   1.350
 8357SOL     OW25969   3.517   6.052   5.731
 8357SOL    HW125970   3.471   6.141   5.723
 8357SOL    HW225971   3.453   5.979   5.706
 8358SOL     OW25972   0.850   3.124   5.073
 8358SOL    HW125973   0.932   3.181   5.062
 8358SOL    HW225974   0.839   3.101   5.170
 8359SOL     OW25975   2.203   1.675   4.366
 8359SOL    HW125976   2.132   1.724   4.417
 8359SOL    HW225977   2.281   1.735   4.352
 8360SOL     OW25978   4.740   0.049   1.488
 8360SOL    HW125979   4.731   0.019   1.583
 8360SOL    HW225980   4.809   7.017   1.442
 8361SOL     OW25981   3.424   0.552   0.132
 8361SOL    HW125982   3.427   0.620   0.059
 8361SOL    HW225983   3.359   0.581   0.202
 8362SOL     OW25984   5.817   2.071   1.009
 8362SOL    HW125985   5.726   2.081   1.049
 8362SOL    HW225986   5.810   2.025   0.921
 8363SOL     OW25987   5.005   1.529   0.704
 8363SOL    HW125988   5.015   1.597   0.631
 8363SOL    HW225989   4.963   1.447   0.667
 8364SOL     OW25990   0.412   3.394   4.238
 8364SOL    HW125991   0.343   3.435   4.298
 8364SOL    HW225992   0.374   3.383   4.146
 8365SOL     OW25993   1.475   2.581   2.697
 8365SOL    HW125994   1.425   2.533   2.624
 8365SOL    HW225995   1.458   2.680   2.689
 8366SOL     OW25996   3.943   5.035   0.784
 8366SOL    HW125997   3.851   4.996   0.778
 8366SOL    HW225998   3.944   5.123   0.736
 8367SOL     OW25999   3.318   5.047   5.214
 8367SOL    HW126000   3.347   5.089   5.300
 8367SOL    HW226001   3.289   4.953   5.232
 8368SOL     OW26002   1.067   5.997   0.451
 8368SOL    HW126003   1.092   5.905   0.420
 8368SOL    HW226004   1.015   5.991   0.535
 8369SOL     OW26005   0.584   0.954   6.545
 8369SOL    HW126006   0.606   0.917   6.455
 8369SOL    HW226007   0.650   0.919   6.612
 8370SOL     OW26008   2.232   0.659   5.850
 8370SOL    HW126009   2.213   0.658   5.752
 8370SOL    HW226010   2.262   0.751   5.877
 8371SOL     OW26011   1.636   3.215   6.625
 8371SOL    HW126012   1.722   3.257   6.598
 8371SOL    HW226013   1.616   3.238   6.720
 8372SOL     OW26014   1.675   6.206   1.400
 8372SOL    HW126015   1.703   6.119   1.361
 8372SOL    HW226016   1.696   6.280   1.336
 8373SOL     OW26017   1.667   0.877   4.832
 8373SOL    HW126018   1.716   0.897   4.917
 8373SOL    HW226019   1.610   0.955   4.808
 8374SOL     OW26020   0.213   0.420   4.859
 8374SOL    HW126021   0.237   0.437   4.763
 8374SOL    HW226022   0.113   0.414   4.867
 8375SOL     OW26023   3.941   6.773   6.385
 8375SOL    HW126024   4.021   6.760   6.326
 8375SOL    HW226025   3.915   6.870   6.383
 8376SOL     OW26026   1.434   1.591   3.688
 8376SOL    HW126027   1.439   1.495   3.717
 8376SOL    HW226028   1.517   1.617   3.640
 8377SOL     OW26029   5.953   6.131   0.534
 8377SOL    HW126030   5.875   6.190   0.519
 8377SOL    HW226031   6.031   6.163   0.480
 8378SOL     OW26032   3.927   5.248   4.056
 8378SOL    HW126033   3.891   5.320   4.116
 8378SOL    HW226034   4.023   5.269   4.035
 8379SOL     OW26035   4.844   2.754   2.126
 8379SOL    HW126036   4.806   2.754   2.219
 8379SOL    HW226037   4.867   2.847   2.099
 8380SOL     OW26038   0.133   6.877   6.727
 8380SOL    HW126039   0.214   6.892   6.784
 8380SOL    HW226040   0.095   6.966   6.699
 8381SOL     OW26041   0.343   2.760   3.502
 8381SOL    HW126042   0.334   2.719   3.593
 8381SOL    HW226043   0.297   2.848   3.500
 8382SOL     OW26044   2.482   6.759   1.159
 8382SOL    HW126045   2.408   6.744   1.094
 8382SOL    HW226046   2.491   6.857   1.178
 8383SOL     OW26047   2.956   7.010   5.433
 8383SOL    HW126048   2.923   0.012   5.524
 8383SOL    HW226049   3.021   0.055   5.401
 8384SOL     OW26050   6.941   1.686   0.884
 8384SOL    HW126051   7.021   1.685   0.943
 8384SOL    HW226052   6.860   1.707   0.938
 8385SOL     OW26053   4.141   1.979   0.614
 8385SOL    HW126054   4.090   2.043   0.557
 8385SOL    HW226055   4.107   1.886   0.599
 8386SOL     OW26056   2.286   5.392   1.113
 8386SOL    HW126057   2.337   5.353   1.037
 8386SOL    HW226058   2.274   5.490   1.099
 8387SOL     OW26059   1.645   2.070   1.349
 8387SOL    HW126060   1.697   2.042   1.268
 8387SOL    HW226061   1.552   2.034   1.343
 8388SOL     OW26062   1.488   6.580   0.981
 8388SOL    HW126063   1.437   6.598   1.065
 8388SOL    HW226064   1.440   6.621   0.903
 8389SOL     OW26065   0.248   3.508   4.410
 8389SOL    HW126066   0.186   3.441   4.452
 8389SOL    HW226067   0.283   3.569   4.480
 8390SOL     OW26068   4.032   6.694   6.894
 8390SOL    HW126069   4.107   6.725   6.836
 8390SOL    HW226070   3.958   6.659   6.837
 8391SOL     OW26071   4.888   5.063   1.480
 8391SOL    HW126072   4.923   4.974   1.509
 8391SOL    HW226073   4.891   5.127   1.556
 8392SOL     OW26074   6.575   5.365   5.857
 8392SOL    HW126075   6.479   5.351   5.881
 8392SOL    HW226076   6.595   5.463   5.856
 8393SOL     OW26077   6.747   6.593   3.739
 8393SOL    HW126078   6.676   6.528   3.766
 8393SOL    HW226079   6.819   6.594   3.808
 8394SOL     OW26080   6.685   2.636   1.713
 8394SOL    HW126081   6.664   2.731   1.689
 8394SOL    HW226082   6.782   2.628   1.735
 8395SOL     OW26083   1.390   6.110   4.571
 8395SOL    HW126084   1.481   6.147   4.587
 8395SOL    HW226085   1.398   6.024   4.519
 8396SOL     OW26086   4.346   4.728   2.327
 8396SOL    HW126087   4.313   4.782   2.405
 8396SOL    HW226088   4.270   4.706   2.267
 8397SOL     OW26089   2.265   0.810   3.763
 8397SOL    HW126090   2.312   0.817   3.675
 8397SOL    HW226091   2.333   0.790   3.835
 8398SOL     OW26092   4.331   1.938   6.503
 8398SOL    HW126093   4.354   1.977   6.592
 8398SOL    HW226094   4.413   1.931   6.447
 8399SOL     OW26095   6.702   0.635   0.149
 8399SOL    HW126096   6.706   0.729   0.116
 8399SOL    HW226097   6.645   0.630   0.231
 8400SOL     OW26098   1.001   0.145   3.914
 8400SOL    HW126099   1.003   0.219   3.847
 8400SOL    HW226100   1.094   0.127   3.946
 8401SOL     OW26101   3.307   2.191   6.165
 8401SOL    HW126102   3.397   2.150   6.179
 8401SOL    HW226103   3.293   2.210   6.068
 8402SOL     OW26104   4.250   1.800   5.553
 8402SOL    HW126105   4.213   1.860   5.482
 8402SOL    HW226106   4.282   1.715   5.512
 8403SOL     OW26107   0.537   1.752   3.031
 8403SOL    HW126108   0.493   1.713   3.112
 8403SOL    HW226109   0.613   1.694   3.004
 8404SOL     OW26110   5.294   5.863   6.811
 8404SOL    HW126111   5.366   5.809   6.854
 8404SOL    HW226112   5.205   5.828   6.841
 8405SOL     OW26113   1.982   0.803   6.436
 8405SOL    HW126114   2.054   0.865   6.403
 8405SOL    HW226115   1.960   0.737   6.364
 8406SOL     OW26116   4.372   0.481   0.879
 8406SOL    HW126117   4.341   0.409   0.941
 8406SOL    HW226118   4.335   0.466   0.788
 8407SOL     OW26119   4.623   6.728   3.721
 8407SOL    HW126120   4.708   6.697   3.763
 8407SOL    HW226121   4.635   6.737   3.622
 8408SOL     OW26122   5.048   2.648   2.760
 8408SOL    HW126123   4.958   2.689   2.748
 8408SOL    HW226124   5.116   2.701   2.709
 8409SOL     OW26125   6.066   3.144   3.092
 8409SOL    HW126126   6.118   3.130   3.008
 8409SOL    HW226127   6.096   3.078   3.161
 8410SOL     OW26128   4.726   0.696   1.397
 8410SOL    HW126129   4.718   0.643   1.481
 8410SOL    HW226130   4.813   0.746   1.396
 8411SOL     OW26131   1.438   5.460   5.546
 8411SOL    HW126132   1.488   5.547   5.550
 8411SOL    HW226133   1.428   5.423   5.638
 8412SOL     OW26134   4.313   1.955   2.107
 8412SOL    HW126135   4.396   1.919   2.065
 8412SOL    HW226136   4.333   2.043   2.150
 8413SOL     OW26137   4.900   4.709   0.723
 8413SOL    HW126138   4.822   4.749   0.772
 8413SOL    HW226139   4.877   4.615   0.696
 8414SOL     OW26140   4.309   5.901   2.688
 8414SOL    HW126141   4.224   5.874   2.734
 8414SOL    HW226142   4.348   5.821   2.642
 8415SOL     OW26143   6.699   5.778   4.278
 8415SOL    HW126144   6.737   5.723   4.203
 8415SOL    HW226145   6.599   5.770   4.277
 8416SOL     OW26146   5.857   4.350   3.459
 8416SOL    HW126147   5.838   4.351   3.558
 8416SOL    HW226148   5.922   4.278   3.438
 8417SOL     OW26149   0.914   5.262   6.231
 8417SOL    HW126150   0.938   5.191   6.297
 8417SOL    HW226151   0.815   5.270   6.225
 8418SOL     OW26152   6.223   5.429   1.706
 8418SOL    HW126153   6.254   5.335   1.692
 8418SOL    HW226154   6.214   5.475   1.618
 8419SOL     OW26155   5.416   1.536   2.794
 8419SOL    HW126156   5.514   1.553   2.807
 8419SOL    HW226157   5.365   1.581   2.867
 8420SOL     OW26158   4.219   0.149   0.843
 8420SOL    HW126159   4.241   0.204   0.763
 8420SOL    HW226160   4.251   0.055   0.829
 8421SOL     OW26161   2.689   6.251   1.151
 8421SOL    HW126162   2.672   6.153   1.150
 8421SOL    HW226163   2.722   6.281   1.061
 8422SOL     OW26164   4.453   0.506   1.409
 8422SOL    HW126165   4.483   0.541   1.319
 8422SOL    HW226166   4.521   0.532   1.478
 8423SOL     OW26167   3.886   4.158   6.336
 8423SOL    HW126168   3.853   4.200   6.251
 8423SOL    HW226169   3.967   4.208   6.368
 8424SOL     OW26170   2.529   2.565   2.831
 8424SOL    HW126171   2.473   2.545   2.751
 8424SOL    HW226172   2.620   2.524   2.818
 8425SOL     OW26173   5.707   5.813   1.155
 8425SOL    HW126174   5.766   5.732   1.147
 8425SOL    HW226175   5.762   5.896   1.151
 8426SOL     OW26176   3.297   2.936   4.178
 8426SOL    HW126177   3.257   2.899   4.094
 8426SOL    HW226178   3.258   3.026   4.197
 8427SOL     OW26179   2.908   3.581   5.590
 8427SOL    HW126180   2.935   3.536   5.674
 8427SOL    HW226181   2.924   3.520   5.512
 8428SOL     OW26182   6.865   4.219   1.384
 8428SOL    HW126183   6.828   4.127   1.392
 8428SOL    HW226184   6.829   4.262   1.301
 8429SOL     OW26185   1.891   4.233   3.441
 8429SOL    HW126186   1.919   4.142   3.470
 8429SOL    HW226187   1.972   4.292   3.432
 8430SOL     OW26188   3.863   5.842   3.603
 8430SOL    HW126189   3.780   5.815   3.553
 8430SOL    HW226190   3.910   5.760   3.636
 8431SOL     OW26191   3.076   5.769   0.676
 8431SOL    HW126192   3.140   5.806   0.608
 8431SOL    HW226193   3.031   5.845   0.723
 8432SOL     OW26194   5.543   7.006   5.877
 8432SOL    HW126195   5.546   0.081   5.892
 8432SOL    HW226196   5.449   6.973   5.888
 8433SOL     OW26197   6.604   2.405   0.350
 8433SOL    HW126198   6.557   2.318   0.365
 8433SOL    HW226199   6.675   2.417   0.419
 8434SOL     OW26200   2.814   6.398   5.538
 8434SOL    HW126201   2.716   6.416   5.541
 8434SOL    HW226202   2.829   6.299   5.536
 8435SOL     OW26203   5.093   0.579   0.705
 8435SOL    HW126204   5.002   0.560   0.669
 8435SOL    HW226205   5.086   0.604   0.802
 8436SOL     OW26206   3.319   6.844   4.584
 8436SOL    HW126207   3.375   6.873   4.506
 8436SOL    HW226208   3.225   6.828   4.553
 8437SOL     OW26209   1.370   0.053   3.145
 8437SOL    HW126210   1.449   0.075   3.087
 8437SOL    HW226211   1.387   0.086   3.237
 8438SOL     OW26212   2.721   4.985   2.171
 8438SOL    HW126213   2.753   4.995   2.077
 8438SOL    HW226214   2.760   4.901   2.210
 8439SOL     OW26215   6.439   5.165   1.376
 8439SOL    HW126216   6.502   5.232   1.335
 8439SOL    HW226217   6.354   5.164   1.324
 8440SOL     OW26218   0.434   2.014   4.126
 8440SOL    HW126219   0.396   1.958   4.200
 8440SOL    HW226220   0.508   1.963   4.081
 8441SOL     OW26221   5.778   6.719   0.024
 8441SOL    HW126222   5.819   6.773   6.974
 8441SOL    HW226223   5.719   6.649   7.008
 8442SOL     OW26224   3.525   2.873   5.812
 8442SOL    HW126225   3.464   2.854   5.889
 8442SOL    HW226226   3.537   2.789   5.758
 8443SOL     OW26227   1.095   6.606   3.484
 8443SOL    HW126228   1.128   6.528   3.538
 8443SOL    HW226229   1.039   6.665   3.542
 8444SOL     OW26230   3.257   5.664   3.448
 8444SOL    HW126231   3.250   5.626   3.356
 8444SOL    HW226232   3.351   5.654   3.481
 8445SOL     OW26233   3.481   5.158   1.546
 8445SOL    HW126234   3.399   5.175   1.601
 8445SOL    HW226235   3.554   5.123   1.605
 8446SOL     OW26236   4.475   5.005   0.778
 8446SOL    HW126237   4.377   4.991   0.791
 8446SOL    HW226238   4.521   4.916   0.776
 8447SOL     OW26239   5.752   2.433   2.231
 8447SOL    HW126240   5.662   2.456   2.269
 8447SOL    HW226241   5.757   2.464   2.136
 8448SOL     OW26242   5.653   4.878   4.599
 8448SOL    HW126243   5.711   4.922   4.530
 8448SOL    HW226244   5.707   4.863   4.682
 8449SOL     OW26245   5.999   3.305   4.106
 8449SOL    HW126246   6.077   3.302   4.042
 8449SOL    HW226247   6.018   3.247   4.184
 8450SOL     OW26248   1.749   5.601   2.098
 8450SOL    HW126249   1.813   5.540   2.145
 8450SOL    HW226250   1.783   5.695   2.103
 8451SOL     OW26251   4.910   3.008   0.640
 8451SOL    HW126252   4.888   3.041   0.548
 8451SOL    HW226253   4.827   3.001   0.694
 8452SOL     OW26254   0.281   1.076   2.138
 8452SOL    HW126255   0.322   1.118   2.057
 8452SOL    HW226256   0.184   1.060   2.121
 8453SOL     OW26257   6.676   4.206   6.701
 8453SOL    HW126258   6.696   4.294   6.658
 8453SOL    HW226259   6.668   4.218   6.800
 8454SOL     OW26260   0.491   6.451   0.474
 8454SOL    HW126261   0.468   6.403   0.559
 8454SOL    HW226262   0.551   6.528   0.495
 8455SOL     OW26263   5.454   1.975   1.234
 8455SOL    HW126264   5.448   2.045   1.305
 8455SOL    HW226265   5.451   2.019   1.144
 8456SOL     OW26266   4.528   4.385   3.116
 8456SOL    HW126267   4.610   4.387   3.058
 8456SOL    HW226268   4.478   4.471   3.105
 8457SOL     OW26269   0.125   6.275   5.048
 8457SOL    HW126270   0.187   6.312   5.118
 8457SOL    HW226271   0.178   6.250   4.967
 8458SOL     OW26272   2.329   1.460   6.765
 8458SOL    HW126273   2.361   1.388   6.827
 8458SOL    HW226274   2.283   1.531   6.819
 8459SOL     OW26275   3.177   6.497   1.948
 8459SOL    HW126276   3.164   6.415   2.003
 8459SOL    HW226277   3.141   6.482   1.856
 8460SOL     OW26278   4.524   2.463   5.486
 8460SOL    HW126279   4.487   2.505   5.569
 8460SOL    HW226280   4.504   2.521   5.407
 8461SOL     OW26281   0.827   3.851   2.800
 8461SOL    HW126282   0.762   3.777   2.784
 8461SOL    HW226283   0.856   3.849   2.895
 8462SOL     OW26284   3.528   2.512   0.434
 8462SOL    HW126285   3.553   2.581   0.503
 8462SOL    HW226286   3.433   2.484   0.449
 8463SOL     OW26287   6.506   0.352   0.014
 8463SOL    HW126288   6.593   0.324   6.998
 8463SOL    HW226289   6.449   0.395   6.966
 8464SOL     OW26290   5.940   3.846   5.875
 8464SOL    HW126291   5.904   3.760   5.838
 8464SOL    HW226292   6.040   3.845   5.869
 8465SOL     OW26293   2.436   2.471   0.727
 8465SOL    HW126294   2.416   2.466   0.629
 8465SOL    HW226295   2.528   2.435   0.744
 8466SOL     OW26296   6.736   0.225   5.730
 8466SOL    HW126297   6.644   0.260   5.751
 8466SOL    HW226298   6.771   0.176   5.810
 8467SOL     OW26299   3.624   0.657   1.373
 8467SOL    HW126300   3.617   0.557   1.373
 8467SOL    HW226301   3.717   0.684   1.350
 8468SOL     OW26302   4.781   2.650   0.439
 8468SOL    HW126303   4.685   2.678   0.433
 8468SOL    HW226304   4.785   2.554   0.467
 8469SOL     OW26305   2.700   2.074   5.561
 8469SOL    HW126306   2.635   2.071   5.485
 8469SOL    HW226307   2.780   2.128   5.534
 8470SOL     OW26308   0.831   4.601   0.227
 8470SOL    HW126309   0.815   4.520   0.283
 8470SOL    HW226310   0.774   4.676   0.259
 8471SOL     OW26311   4.219   0.307   4.892
 8471SOL    HW126312   4.174   0.391   4.861
 8471SOL    HW226313   4.253   0.256   4.812
 8472SOL     OW26314   6.372   0.563   5.809
 8472SOL    HW126315   6.452   0.570   5.750
 8472SOL    HW226316   6.390   0.611   5.895
 8473SOL     OW26317   6.921   5.777   0.945
 8473SOL    HW126318   6.990   5.707   0.928
 8473SOL    HW226319   6.832   5.734   0.957
 8474SOL     OW26320   3.438   3.611   2.313
 8474SOL    HW126321   3.409   3.707   2.309
 8474SOL    HW226322   3.524   3.604   2.363
 8475SOL     OW26323   0.382   2.820   3.122
 8475SOL    HW126324   0.441   2.755   3.171
 8475SOL    HW226325   0.289   2.784   3.118
 8476SOL     OW26326   6.031   1.278   1.137
 8476SOL    HW126327   5.966   1.353   1.128
 8476SOL    HW226328   6.105   1.290   1.070
 8477SOL     OW26329   4.802   6.530   2.820
 8477SOL    HW126330   4.822   6.528   2.722
 8477SOL    HW226331   4.826   6.442   2.860
 8478SOL     OW26332   1.632   6.706   5.796
 8478SOL    HW126333   1.594   6.742   5.711
 8478SOL    HW226334   1.678   6.779   5.846
 8479SOL     OW26335   1.118   2.283   0.942
 8479SOL    HW126336   1.083   2.196   0.906
 8479SOL    HW226337   1.045   2.333   0.988
 8480SOL     OW26338   5.379   2.914   0.437
 8480SOL    HW126339   5.303   2.854   0.415
 8480SOL    HW226340   5.377   2.936   0.535
 8481SOL     OW26341   4.444   2.538   4.995
 8481SOL    HW126342   4.451   2.555   4.897
 8481SOL    HW226343   4.357   2.494   5.016
 8482SOL     OW26344   4.766   6.971   2.762
 8482SOL    HW126345   4.754   0.009   2.840
 8482SOL    HW226346   4.722   7.009   2.681
 8483SOL     OW26347   3.594   5.917   2.224
 8483SOL    HW126348   3.678   5.946   2.179
 8483SOL    HW226349   3.604   5.929   2.323
 8484SOL     OW26350   6.984   5.995   3.660
 8484SOL    HW126351   6.968   6.062   3.733
 8484SOL    HW226352   6.916   5.922   3.667
 8485SOL     OW26353   3.466   2.695   0.221
 8485SOL    HW126354   3.489   2.616   0.277
 8485SOL    HW226355   3.402   2.667   0.149
 8486SOL     OW26356   2.187   1.671   2.487
 8486SOL    HW126357   2.218   1.615   2.410
 8486SOL    HW226358   2.226   1.763   2.479
 8487SOL     OW26359   5.906   1.753   5.580
 8487SOL    HW126360   5.812   1.764   5.610
 8487SOL    HW226361   5.961   1.712   5.653
 8488SOL     OW26362   5.332   6.268   1.574
 8488SOL    HW126363   5.234   6.248   1.571
 8488SOL    HW226364   5.380   6.191   1.616
 8489SOL     OW26365   6.542   1.540   1.553
 8489SOL    HW126366   6.443   1.544   1.562
 8489SOL    HW226367   6.576   1.458   1.600
 8490SOL     OW26368   3.645   6.362   5.111
 8490SOL    HW126369   3.575   6.291   5.105
 8490SOL    HW226370   3.688   6.375   5.022
 8491SOL     OW26371   2.354   5.986   1.920
 8491SOL    HW126372   2.353   5.990   1.820
 8491SOL    HW226373   2.260   5.988   1.954
 8492SOL     OW26374   5.437   4.344   5.664
 8492SOL    HW126375   5.474   4.251   5.667
 8492SOL    HW226376   5.483   4.396   5.592
 8493SOL     OW26377   2.060   2.123   5.547
 8493SOL    HW126378   2.085   2.145   5.642
 8493SOL    HW226379   2.116   2.177   5.485
 8494SOL     OW26380   4.166   4.949   1.113
 8494SOL    HW126381   4.098   4.964   1.184
 8494SOL    HW226382   4.164   5.025   1.047
 8495SOL     OW26383   6.571   4.858   2.179
 8495SOL    HW126384   6.632   4.916   2.125
 8495SOL    HW226385   6.543   4.779   2.125
 8496SOL     OW26386   1.560   1.652   2.637
 8496SOL    HW126387   1.519   1.614   2.555
 8496SOL    HW226388   1.644   1.602   2.659
 8497SOL     OW26389   6.643   0.641   3.833
 8497SOL    HW126390   6.610   0.559   3.787
 8497SOL    HW226391   6.702   0.693   3.770
 8498SOL     OW26392   5.968   6.177   3.149
 8498SOL    HW126393   5.919   6.230   3.219
 8498SOL    HW226394   5.976   6.082   3.179
 8499SOL     OW26395   2.305   4.025   6.353
 8499SOL    HW126396   2.291   3.996   6.448
 8499SOL    HW226397   2.399   4.007   6.326
 8500SOL     OW26398   1.623   5.979   5.728
 8500SOL    HW126399   1.699   5.975   5.664
 8500SOL    HW226400   1.657   6.006   5.818
 8501SOL     OW26401   7.007   2.769   6.243
 8501SOL    HW126402   6.984   2.711   6.164
 8501SOL    HW226403   6.937   2.757   6.313
 8502SOL     OW26404   0.011   3.334   1.408
 8502SOL    HW126405   6.967   3.408   1.401
 8502SOL    HW226406   0.092   3.368   1.457
 8503SOL     OW26407   0.855   5.199   4.790
 8503SOL    HW126408   0.831   5.294   4.806
 8503SOL    HW226409   0.828   5.172   4.697
 8504SOL     OW26410   2.253   4.963   2.782
 8504SOL    HW126411   2.319   4.895   2.750
 8504SOL    HW226412   2.276   5.053   2.744
 8505SOL     OW26413   6.630   3.551   2.982
 8505SOL    HW126414   6.729   3.554   2.970
 8505SOL    HW226415   6.593   3.472   2.933
 8506SOL     OW26416   1.000   1.292   0.097
 8506SOL    HW126417   1.060   1.355   0.049
 8506SOL    HW226418   1.052   1.212   0.126
 8507SOL     OW26419   3.532   0.034   4.723
 8507SOL    HW126420   3.583   6.973   4.704
 8507SOL    HW226421   3.447   0.012   4.771
 8508SOL     OW26422   4.933   1.804   4.420
 8508SOL    HW126423   4.851   1.792   4.364
 8508SOL    HW226424   5.001   1.857   4.369
 8509SOL     OW26425   4.543   1.302   3.439
 8509SOL    HW126426   4.445   1.289   3.427
 8509SOL    HW226427   4.560   1.373   3.507
 8510SOL     OW26428   5.856   4.928   2.656
 8510SOL    HW126429   5.865   4.943   2.755
 8510SOL    HW226430   5.906   4.845   2.630
 8511SOL     OW26431   6.390   4.359   2.711
 8511SOL    HW126432   6.444   4.391   2.789
 8511SOL    HW226433   6.344   4.437   2.668
 8512SOL     OW26434   2.549   1.136   2.563
 8512SOL    HW126435   2.535   1.202   2.490
 8512SOL    HW226436   2.629   1.079   2.542
 8513SOL     OW26437   6.869   5.661   0.608
 8513SOL    HW126438   6.834   5.614   0.689
 8513SOL    HW226439   6.900   5.753   0.633
 8514SOL     OW26440   1.775   1.942   3.640
 8514SOL    HW126441   1.863   1.945   3.685
 8514SOL    HW226442   1.778   1.999   3.557
 8515SOL     OW26443   4.685   2.412   1.274
 8515SOL    HW126444   4.683   2.482   1.202
 8515SOL    HW226445   4.779   2.394   1.301
 8516SOL     OW26446   0.382   1.627   2.203
 8516SOL    HW126447   0.316   1.644   2.130
 8516SOL    HW226448   0.374   1.698   2.272
 8517SOL     OW26449   0.687   2.973   5.680
 8517SOL    HW126450   0.659   2.945   5.588
 8517SOL    HW226451   0.691   3.073   5.684
 8518SOL     OW26452   4.755   3.753   0.357
 8518SOL    HW126453   4.728   3.739   0.452
 8518SOL    HW226454   4.844   3.798   0.354
 8519SOL     OW26455   1.971   5.091   2.186
 8519SOL    HW126456   2.018   5.165   2.234
 8519SOL    HW226457   1.935   5.124   2.100
 8520SOL     OW26458   3.605   1.596   1.216
 8520SOL    HW126459   3.664   1.606   1.135
 8520SOL    HW226460   3.530   1.534   1.195
 8521SOL     OW26461   1.975   4.977   6.126
 8521SOL    HW126462   1.919   5.041   6.074
 8521SOL    HW226463   2.007   4.904   6.065
 8522SOL     OW26464   1.523   6.025   1.605
 8522SOL    HW126465   1.434   6.069   1.599
 8522SOL    HW226466   1.591   6.077   1.553
 8523SOL     OW26467   3.401   6.971   6.574
 8523SOL    HW126468   3.484   6.926   6.542
 8523SOL    HW226469   3.334   6.974   6.500
 8524SOL     OW26470   1.092   1.900   4.926
 8524SOL    HW126471   1.023   1.829   4.944
 8524SOL    HW226472   1.154   1.906   5.004
 8525SOL     OW26473   6.270   4.098   2.987
 8525SOL    HW126474   6.251   4.195   2.972
 8525SOL    HW226475   6.332   4.065   2.915
 8526SOL     OW26476   3.416   4.461   0.721
 8526SOL    HW126477   3.515   4.450   0.710
 8526SOL    HW226478   3.385   4.410   0.801
 8527SOL     OW26479   3.041   0.023   4.902
 8527SOL    HW126480   2.974   6.974   4.920
 8527SOL    HW226481   3.029   0.058   4.809
 8528SOL     OW26482   5.114   3.040   5.858
 8528SOL    HW126483   5.191   2.977   5.865
 8528SOL    HW226484   5.041   3.011   5.919
 8529SOL     OW26485   1.118   0.247   0.202
 8529SOL    HW126486   1.093   0.199   0.119
 8529SOL    HW226487   1.077   0.338   0.202
 8530SOL     OW26488   2.068   4.025   5.453
 8530SOL    HW126489   2.068   4.109   5.398
 8530SOL    HW226490   2.118   3.953   5.405
 8531SOL     OW26491   5.964   4.591   2.185
 8531SOL    HW126492   5.918   4.542   2.259
 8531SOL    HW226493   5.943   4.547   2.098
 8532SOL     OW26494   4.005   4.851   4.611
 8532SOL    HW126495   4.013   4.950   4.622
 8532SOL    HW226496   3.960   4.831   4.524
 8533SOL     OW26497   2.015   6.951   6.005
 8533SOL    HW126498   2.010   0.019   5.964
 8533SOL    HW226499   2.069   6.954   6.089
 8534SOL     OW26500   6.821   3.496   3.806
 8534SOL    HW126501   6.888   3.567   3.825
 8534SOL    HW226502   6.742   3.536   3.758
 8535SOL     OW26503   0.371   1.682   5.343
 8535SOL    HW126504   0.470   1.672   5.344
 8535SOL    HW226505   0.348   1.779   5.335
 8536SOL     OW26506   5.713   1.378   4.894
 8536SOL    HW126507   5.786   1.315   4.866
 8536SOL    HW226508   5.754   1.459   4.935
 8537SOL     OW26509   5.805   1.345   1.959
 8537SOL    HW126510   5.756   1.279   1.902
 8537SOL    HW226511   5.900   1.314   1.972
 8538SOL     OW26512   0.859   1.348   5.364
 8538SOL    HW126513   0.822   1.395   5.444
 8538SOL    HW226514   0.801   1.271   5.340
 8539SOL     OW26515   6.620   1.932   2.181
 8539SOL    HW126516   6.633   2.019   2.133
 8539SOL    HW226517   6.582   1.864   2.118
 8540SOL     OW26518   3.381   1.539   0.186
 8540SOL    HW126519   3.379   1.475   0.263
 8540SOL    HW226520   3.312   1.611   0.201
 8541SOL     OW26521   3.096   1.916   4.383
 8541SOL    HW126522   3.036   1.938   4.306
 8541SOL    HW226523   3.141   1.828   4.367
 8542SOL     OW26524   2.725   4.577   5.575
 8542SOL    HW126525   2.767   4.632   5.648
 8542SOL    HW226526   2.629   4.559   5.598
 8543SOL     OW26527   3.102   1.397   6.450
 8543SOL    HW126528   3.105   1.398   6.350
 8543SOL    HW226529   3.176   1.453   6.486
 8544SOL     OW26530   5.358   2.902   4.626
 8544SOL    HW126531   5.379   2.963   4.549
 8544SOL    HW226532   5.341   2.810   4.592
 8545SOL     OW26533   4.233   6.982   4.665
 8545SOL    HW126534   4.257   6.938   4.752
 8545SOL    HW226535   4.135   7.004   4.665
 8546SOL     OW26536   0.267   0.190   2.222
 8546SOL    HW126537   0.285   0.289   2.227
 8546SOL    HW226538   0.250   0.165   2.127
 8547SOL     OW26539   1.225   6.954   6.422
 8547SOL    HW126540   1.196   6.899   6.500
 8547SOL    HW226541   1.228   6.896   6.340
 8548SOL     OW26542   6.853   3.658   5.689
 8548SOL    HW126543   6.778   3.660   5.623
 8548SOL    HW226544   6.928   3.715   5.657
 8549SOL     OW26545   0.496   2.372   4.644
 8549SOL    HW126546   0.469   2.465   4.618
 8549SOL    HW226547   0.521   2.320   4.562
 8550SOL     OW26548   1.370   4.709   0.225
 8550SOL    HW126549   1.373   4.809   0.229
 8550SOL    HW226550   1.422   4.672   0.302
 8551SOL     OW26551   2.865   2.854   0.161
 8551SOL    HW126552   2.810   2.825   0.083
 8551SOL    HW226553   2.946   2.796   0.169
 8552SOL     OW26554   1.945   0.801   3.252
 8552SOL    HW126555   1.903   0.866   3.188
 8552SOL    HW226556   1.962   0.715   3.205
 8553SOL     OW26557   4.361   4.053   6.398
 8553SOL    HW126558   4.287   4.098   6.348
 8553SOL    HW226559   4.329   3.965   6.434
 8554SOL     OW26560   6.931   5.930   0.710
 8554SOL    HW126561   7.019   5.975   0.705
 8554SOL    HW226562   6.920   5.887   0.800
 8555SOL     OW26563   3.510   1.365   3.394
 8555SOL    HW126564   3.557   1.344   3.309
 8555SOL    HW226565   3.553   1.316   3.470
 8556SOL     OW26566   2.314   6.034   4.792
 8556SOL    HW126567   2.343   5.965   4.858
 8556SOL    HW226568   2.217   6.057   4.808
 8557SOL     OW26569   6.593   0.191   2.189
 8557SOL    HW126570   6.532   0.256   2.233
 8557SOL    HW226571   6.558   0.170   2.097
 8558SOL     OW26572   2.112   5.687   3.166
 8558SOL    HW126573   2.102   5.786   3.176
 8558SOL    HW226574   2.176   5.667   3.091
 8559SOL     OW26575   2.023   6.823   2.590
 8559SOL    HW126576   2.051   6.773   2.509
 8559SOL    HW226577   2.093   6.813   2.661
 8560SOL     OW26578   1.128   5.533   1.976
 8560SOL    HW126579   1.217   5.533   1.930
 8560SOL    HW226580   1.128   5.602   2.048
 8561SOL     OW26581   3.087   6.953   3.300
 8561SOL    HW126582   3.078   0.029   3.289
 8561SOL    HW226583   3.172   6.922   3.258
 8562SOL     OW26584   3.607   6.301   6.899
 8562SOL    HW126585   3.559   6.376   6.945
 8562SOL    HW226586   3.704   6.305   6.922
 8563SOL     OW26587   0.962   4.990   2.008
 8563SOL    HW126588   0.941   5.088   2.016
 8563SOL    HW226589   1.056   4.979   1.974
 8564SOL     OW26590   3.186   6.751   5.560
 8564SOL    HW126591   3.187   6.848   5.583
 8564SOL    HW226592   3.091   6.719   5.553
 8565SOL     OW26593   3.483   4.882   1.002
 8565SOL    HW126594   3.400   4.900   0.950
 8565SOL    HW226595   3.460   4.834   1.087
 8566SOL     OW26596   1.153   0.280   1.536
 8566SOL    HW126597   1.099   0.258   1.617
 8566SOL    HW226598   1.093   0.296   1.458
 8567SOL     OW26599   0.908   2.190   2.212
 8567SOL    HW126600   0.968   2.111   2.197
 8567SOL    HW226601   0.947   2.249   2.282
 8568SOL     OW26602   5.466   2.217   0.362
 8568SOL    HW126603   5.475   2.128   0.407
 8568SOL    HW226604   5.464   2.289   0.431
 8569SOL     OW26605   5.255   1.912   5.060
 8569SOL    HW126606   5.271   1.983   4.992
 8569SOL    HW226607   5.333   1.907   5.123
 8570SOL     OW26608   1.103   1.413   4.224
 8570SOL    HW126609   1.111   1.391   4.127
 8570SOL    HW226610   1.174   1.364   4.275
 8571SOL     OW26611   0.832   6.271   5.258
 8571SOL    HW126612   0.792   6.187   5.223
 8571SOL    HW226613   0.788   6.296   5.345
 8572SOL     OW26614   1.864   4.348   5.522
 8572SOL    HW126615   1.804   4.278   5.483
 8572SOL    HW226616   1.858   4.345   5.622
 8573SOL     OW26617   3.071   5.664   6.237
 8573SOL    HW126618   3.022   5.691   6.320
 8573SOL    HW226619   3.165   5.699   6.240
 8574SOL     OW26620   6.017   0.201   6.012
 8574SOL    HW126621   6.017   0.122   6.073
 8574SOL    HW226622   6.083   0.268   6.044
 8575SOL     OW26623   2.821   2.345   3.555
 8575SOL    HW126624   2.826   2.445   3.552
 8575SOL    HW226625   2.909   2.307   3.526
 8576SOL     OW26626   1.622   4.786   4.567
 8576SOL    HW126627   1.642   4.884   4.558
 8576SOL    HW226628   1.529   4.774   4.601
 8577SOL     OW26629   1.382   0.380   6.248
 8577SOL    HW126630   1.381   0.294   6.299
 8577SOL    HW226631   1.292   0.397   6.208
 8578SOL     OW26632   6.875   5.048   5.221
 8578SOL    HW126633   6.837   5.061   5.313
 8578SOL    HW226634   6.806   5.004   5.163
 8579SOL     OW26635   1.836   6.394   2.171
 8579SOL    HW126636   1.892   6.447   2.235
 8579SOL    HW226637   1.807   6.308   2.215
 8580SOL     OW26638   1.948   5.634   0.832
 8580SOL    HW126639   1.963   5.560   0.897
 8580SOL    HW226640   1.855   5.630   0.796
 8581SOL     OW26641   3.206   4.494   1.446
 8581SOL    HW126642   3.122   4.453   1.482
 8581SOL    HW226643   3.264   4.523   1.522
 8582SOL     OW26644   4.792   4.696   4.955
 8582SOL    HW126645   4.778   4.612   4.903
 8582SOL    HW226646   4.772   4.680   5.052
 8583SOL     OW26647   3.857   6.883   3.794
 8583SOL    HW126648   3.800   6.829   3.732
 8583SOL    HW226649   3.858   6.978   3.763
 8584SOL     OW26650   1.123   6.456   5.607
 8584SOL    HW126651   1.029   6.465   5.641
 8584SOL    HW226652   1.121   6.424   5.512
 8585SOL     OW26653   6.032   1.211   0.415
 8585SOL    HW126654   6.043   1.250   0.507
 8585SOL    HW226655   6.085   1.126   0.409
 8586SOL     OW26656   3.437   6.623   1.795
 8586SOL    HW126657   3.382   6.542   1.772
 8586SOL    HW226658   3.392   6.672   1.870
 8587SOL     OW26659   0.854   0.895   4.532
 8587SOL    HW126660   0.885   0.899   4.437
 8587SOL    HW226661   0.890   0.813   4.576
 8588SOL     OW26662   4.730   1.291   6.928
 8588SOL    HW126663   4.814   1.270   6.878
 8588SOL    HW226664   4.719   1.227   7.003
 8589SOL     OW26665   6.200   2.612   4.685
 8589SOL    HW126666   6.291   2.614   4.726
 8589SOL    HW226667   6.184   2.698   4.635
 8590SOL     OW26668   0.533   0.687   2.244
 8590SOL    HW126669   0.605   0.725   2.303
 8590SOL    HW226670   0.450   0.741   2.254
 8591SOL     OW26671   0.072   3.995   0.157
 8591SOL    HW126672   0.043   3.968   0.249
 8591SOL    HW226673   0.122   3.920   0.115
 8592SOL     OW26674   5.773   1.863   6.912
 8592SOL    HW126675   5.859   1.883   6.863
 8592SOL    HW226676   5.696   1.894   6.856
 8593SOL     OW26677   3.189   0.805   6.761
 8593SOL    HW126678   3.146   0.892   6.787
 8593SOL    HW226679   3.154   0.776   6.672
 8594SOL     OW26680   5.719   2.195   5.535
 8594SOL    HW126681   5.759   2.275   5.580
 8594SOL    HW226682   5.758   2.185   5.444
 8595SOL     OW26683   6.497   1.127   3.866
 8595SOL    HW126684   6.524   1.053   3.927
 8595SOL    HW226685   6.519   1.215   3.909
 8596SOL     OW26686   1.157   4.872   2.782
 8596SOL    HW126687   1.095   4.829   2.847
 8596SOL    HW226688   1.103   4.922   2.713
 8597SOL     OW26689   5.170   1.982   1.926
 8597SOL    HW126690   5.172   2.043   1.846
 8597SOL    HW226691   5.230   1.904   1.910
 8598SOL     OW26692   5.596   0.577   6.375
 8598SOL    HW126693   5.651   0.595   6.457
 8598SOL    HW226694   5.647   0.518   6.313
 8599SOL     OW26695   1.910   2.512   4.739
 8599SOL    HW126696   1.930   2.516   4.641
 8599SOL    HW226697   1.877   2.421   4.763
 8600SOL     OW26698   5.322   3.951   0.158
 8600SOL    HW126699   5.348   4.012   0.083
 8600SOL    HW226700   5.401   3.895   0.184
 8601SOL     OW26701   0.638   1.862   4.024
 8601SOL    HW126702   0.651   1.766   4.049
 8601SOL    HW226703   0.726   1.909   4.027
 8602SOL     OW26704   2.798   6.702   2.434
 8602SOL    HW126705   2.734   6.746   2.497
 8602SOL    HW226706   2.770   6.720   2.340
 8603SOL     OW26707   5.174   6.872   1.371
 8603SOL    HW126708   5.257   6.894   1.321
 8603SOL    HW226709   5.193   6.802   1.439
 8604SOL     OW26710   1.510   2.433   6.085
 8604SOL    HW126711   1.503   2.456   6.181
 8604SOL    HW226712   1.421   2.399   6.052
 8605SOL     OW26713   2.262   5.270   4.026
 8605SOL    HW126714   2.173   5.236   4.055
 8605SOL    HW226715   2.269   5.368   4.048
 8606SOL     OW26716   1.946   2.903   0.059
 8606SOL    HW126717   1.977   2.810   0.043
 8606SOL    HW226718   1.852   2.914   0.028
 8607SOL     OW26719   2.730   4.658   6.225
 8607SOL    HW126720   2.715   4.726   6.153
 8607SOL    HW226721   2.661   4.585   6.216
 8608SOL     OW26722   2.264   4.521   2.732
 8608SOL    HW126723   2.312   4.605   2.753
 8608SOL    HW226724   2.209   4.534   2.649
 8609SOL     OW26725   4.956   0.728   3.305
 8609SOL    HW126726   4.867   0.752   3.268
 8609SOL    HW226727   5.027   0.744   3.236
 8610SOL     OW26728   0.193   1.168   2.793
 8610SOL    HW126729   0.168   1.156   2.889
 8610SOL    HW226730   0.263   1.239   2.785
 8611SOL     OW26731   2.980   1.612   4.183
 8611SOL    HW126732   3.012   1.694   4.135
 8611SOL    HW226733   3.052   1.579   4.243
 8612SOL     OW26734   2.873   3.258   1.150
 8612SOL    HW126735   2.836   3.167   1.134
 8612SOL    HW226736   2.850   3.289   1.242
 8613SOL     OW26737   2.973   1.997   1.929
 8613SOL    HW126738   2.978   2.005   1.830
 8613SOL    HW226739   2.877   2.002   1.958
 8614SOL     OW26740   0.998   2.996   3.977
 8614SOL    HW126741   0.950   3.019   3.893
 8614SOL    HW226742   1.095   3.019   3.968
 8615SOL     OW26743   4.104   1.876   5.097
 8615SOL    HW126744   4.007   1.875   5.075
 8615SOL    HW226745   4.142   1.967   5.077
 8616SOL     OW26746   3.030   4.781   2.033
 8616SOL    HW126747   3.054   4.805   2.127
 8616SOL    HW226748   2.948   4.723   2.033
 8617SOL     OW26749   5.654   1.254   4.568
 8617SOL    HW126750   5.659   1.164   4.525
 8617SOL    HW226751   5.562   1.291   4.557
 8618SOL     OW26752   6.477   4.869   1.343
 8618SOL    HW126753   6.479   4.966   1.369
 8618SOL    HW226754   6.546   4.853   1.272
 8619SOL     OW26755   4.317   5.300   1.933
 8619SOL    HW126756   4.259   5.225   1.901
 8619SOL    HW226757   4.297   5.318   2.029
 8620SOL     OW26758   2.011   6.090   3.525
 8620SOL    HW126759   2.104   6.092   3.560
 8620SOL    HW226760   1.959   6.167   3.563
 8621SOL     OW26761   5.162   2.417   2.253
 8621SOL    HW126762   5.140   2.454   2.343
 8621SOL    HW226763   5.180   2.319   2.261
 8622SOL     OW26764   5.001   4.132   1.403
 8622SOL    HW126765   4.981   4.230   1.406
 8622SOL    HW226766   5.085   4.117   1.351
 8623SOL     OW26767   1.233   4.268   5.705
 8623SOL    HW126768   1.216   4.344   5.641
 8623SOL    HW226769   1.261   4.187   5.653
 8624SOL     OW26770   2.062   3.656   5.147
 8624SOL    HW126771   1.980   3.599   5.155
 8624SOL    HW226772   2.103   3.668   5.237
 8625SOL     OW26773   4.801   1.074   5.424
 8625SOL    HW126774   4.781   1.097   5.519
 8625SOL    HW226775   4.894   1.038   5.416
 8626SOL     OW26776   4.143   2.197   6.713
 8626SOL    HW126777   4.076   2.263   6.680
 8626SOL    HW226778   4.096   2.123   6.762
 8627SOL     OW26779   2.017   1.712   2.004
 8627SOL    HW126780   2.003   1.668   2.093
 8627SOL    HW226781   1.959   1.794   1.999
 8628SOL     OW26782   5.866   6.478   0.611
 8628SOL    HW126783   5.767   6.470   0.603
 8628SOL    HW226784   5.904   6.517   0.528
 8629SOL     OW26785   1.613   6.504   4.982
 8629SOL    HW126786   1.635   6.413   4.947
 8629SOL    HW226787   1.604   6.501   5.081
 8630SOL     OW26788   4.923   2.999   3.503
 8630SOL    HW126789   4.913   2.941   3.584
 8630SOL    HW226790   4.986   3.074   3.522
 8631SOL     OW26791   0.955   5.518   6.306
 8631SOL    HW126792   0.936   5.426   6.271
 8631SOL    HW226793   1.049   5.543   6.283
 8632SOL     OW26794   4.039   5.078   5.384
 8632SOL    HW126795   4.041   4.984   5.350
 8632SOL    HW226796   4.051   5.078   5.484
 8633SOL     OW26797   5.668   2.860   6.051
 8633SOL    HW126798   5.688   2.851   6.148
 8633SOL    HW226799   5.596   2.795   6.025
 8634SOL     OW26800   5.055   4.230   6.929
 8634SOL    HW126801   5.103   4.248   7.014
 8634SOL    HW226802   5.095   4.149   6.885
 8635SOL     OW26803   5.522   3.110   6.768
 8635SOL    HW126804   5.492   3.015   6.782
 8635SOL    HW226805   5.449   3.172   6.796
 8636SOL     OW26806   5.618   6.086   0.802
 8636SOL    HW126807   5.702   6.122   0.760
 8636SOL    HW226808   5.556   6.162   0.821
 8637SOL     OW26809   1.836   1.362   6.824
 8637SOL    HW126810   1.922   1.351   6.774
 8637SOL    HW226811   1.759   1.351   6.761
 8638SOL     OW26812   3.920   2.077   4.854
 8638SOL    HW126813   4.005   2.075   4.801
 8638SOL    HW226814   3.845   2.044   4.797
 8639SOL     OW26815   5.453   3.017   0.203
 8639SOL    HW126816   5.411   2.996   0.292
 8639SOL    HW226817   5.480   2.932   0.159
 8640SOL     OW26818   3.853   3.298   6.699
 8640SOL    HW126819   3.798   3.330   6.777
 8640SOL    HW226820   3.914   3.372   6.670
 8641SOL     OW26821   3.982   4.870   4.024
 8641SOL    HW126822   3.986   4.830   4.116
 8641SOL    HW226823   4.050   4.943   4.017
 8642SOL     OW26824   1.055   6.472   4.342
 8642SOL    HW126825   1.141   6.501   4.384
 8642SOL    HW226826   1.044   6.373   4.353
 8643SOL     OW26827   1.882   0.709   6.665
 8643SOL    HW126828   1.940   0.634   6.697
 8643SOL    HW226829   1.926   0.753   6.587
 8644SOL     OW26830   5.715   2.295   6.016
 8644SOL    HW126831   5.633   2.312   6.071
 8644SOL    HW226832   5.739   2.198   6.022
 8645SOL     OW26833   4.172   4.669   1.364
 8645SOL    HW126834   4.262   4.682   1.322
 8645SOL    HW226835   4.155   4.571   1.376
 8646SOL     OW26836   0.332   2.134   6.695
 8646SOL    HW126837   0.366   2.227   6.681
 8646SOL    HW226838   0.396   2.085   6.755
 8647SOL     OW26839   2.525   4.774   6.873
 8647SOL    HW126840   2.606   4.804   6.922
 8647SOL    HW226841   2.550   4.703   6.807
 8648SOL     OW26842   6.931   0.446   2.736
 8648SOL    HW126843   6.995   0.451   2.659
 8648SOL    HW226844   6.935   0.356   2.778
 8649SOL     OW26845   5.762   5.614   6.792
 8649SOL    HW126846   5.791   5.709   6.779
 8649SOL    HW226847   5.700   5.588   6.719
 8650SOL     OW26848   1.887   5.817   5.191
 8650SOL    HW126849   1.960   5.754   5.165
 8650SOL    HW226850   1.817   5.767   5.242
 8651SOL     OW26851   3.854   0.746   0.586
 8651SOL    HW126852   3.863   0.813   0.659
 8651SOL    HW226853   3.844   0.655   0.626
 8652SOL     OW26854   1.320   5.051   2.929
 8652SOL    HW126855   1.240   5.096   2.969
 8652SOL    HW226856   1.291   4.969   2.880
 8653SOL     OW26857   0.120   1.082   6.513
 8653SOL    HW126858   0.073   1.170   6.523
 8653SOL    HW226859   0.190   1.073   6.584
 8654SOL     OW26860   0.823   5.081   1.186
 8654SOL    HW126861   0.766   5.000   1.194
 8654SOL    HW226862   0.870   5.080   1.097
 8655SOL     OW26863   6.113   0.613   4.544
 8655SOL    HW126864   6.030   0.668   4.532
 8655SOL    HW226865   6.151   0.630   4.635
 8656SOL     OW26866   6.689   0.654   2.064
 8656SOL    HW126867   6.685   0.715   1.984
 8656SOL    HW226868   6.732   0.702   2.140
 8657SOL     OW26869   5.589   6.190   0.199
 8657SOL    HW126870   5.561   6.134   0.122
 8657SOL    HW226871   5.514   6.249   0.227
 8658SOL     OW26872   6.350   6.285   0.299
 8658SOL    HW126873   6.339   6.380   0.267
 8658SOL    HW226874   6.405   6.285   0.383
 8659SOL     OW26875   4.874   2.318   2.233
 8659SOL    HW126876   4.815   2.334   2.153
 8659SOL    HW226877   4.946   2.387   2.236
 8660SOL     OW26878   6.847   3.751   1.647
 8660SOL    HW126879   6.755   3.743   1.686
 8660SOL    HW226880   6.894   3.663   1.653
 8661SOL     OW26881   6.310   4.011   1.192
 8661SOL    HW126882   6.321   4.018   1.291
 8661SOL    HW226883   6.330   3.918   1.162
 8662SOL     OW26884   4.339   5.541   1.685
 8662SOL    HW126885   4.382   5.555   1.774
 8662SOL    HW226886   4.240   5.557   1.692
 8663SOL     OW26887   2.178   5.627   2.257
 8663SOL    HW126888   2.151   5.636   2.353
 8663SOL    HW226889   2.135   5.546   2.218
 8664SOL     OW26890   2.188   4.980   1.664
 8664SOL    HW126891   2.201   5.075   1.635
 8664SOL    HW226892   2.238   4.919   1.602
 8665SOL     OW26893   5.552   5.448   4.973
 8665SOL    HW126894   5.569   5.355   4.939
 8665SOL    HW226895   5.454   5.461   4.988
 8666SOL     OW26896   5.754   1.077   3.885
 8666SOL    HW126897   5.694   1.021   3.828
 8666SOL    HW226898   5.823   1.121   3.828
 8667SOL     OW26899   4.709   2.022   4.375
 8667SOL    HW126900   4.712   1.934   4.327
 8667SOL    HW226901   4.655   2.012   4.459
 8668SOL     OW26902   5.349   4.002   3.533
 8668SOL    HW126903   5.411   4.061   3.585
 8668SOL    HW226904   5.401   3.948   3.467
 8669SOL     OW26905   0.424   6.315   6.882
 8669SOL    HW126906   0.519   6.314   6.911
 8669SOL    HW226907   0.365   6.291   6.960
 8670SOL     OW26908   4.135   5.516   6.343
 8670SOL    HW126909   4.142   5.616   6.349
 8670SOL    HW226910   4.166   5.476   6.429
 8671SOL     OW26911   6.848   1.472   3.339
 8671SOL    HW126912   6.931   1.525   3.352
 8671SOL    HW226913   6.826   1.469   3.241
 8672SOL     OW26914   0.584   5.680   3.937
 8672SOL    HW126915   0.529   5.673   4.020
 8672SOL    HW226916   0.598   5.777   3.915
 8673SOL     OW26917   5.814   1.589   0.006
 8673SOL    HW126918   5.852   1.678   0.031
 8673SOL    HW226919   5.744   1.602   6.959
 8674SOL     OW26920   5.874   5.346   3.127
 8674SOL    HW126921   5.931   5.361   3.046
 8674SOL    HW226922   5.927   5.299   3.197
 8675SOL     OW26923   4.085   1.529   5.340
 8675SOL    HW126924   4.164   1.581   5.372
 8675SOL    HW226925   4.096   1.507   5.243
 8676SOL     OW26926   5.012   6.716   3.152
 8676SOL    HW126927   4.977   6.777   3.080
 8676SOL    HW226928   4.942   6.705   3.223
 8677SOL     OW26929   2.025   5.592   6.016
 8677SOL    HW126930   2.120   5.598   5.986
 8677SOL    HW226931   2.010   5.504   6.062
 8678SOL     OW26932   1.288   0.392   0.889
 8678SOL    HW126933   1.229   0.441   0.953
 8678SOL    HW226934   1.254   0.403   0.796
 8679SOL     OW26935   0.934   1.284   3.522
 8679SOL    HW126936   0.908   1.227   3.599
 8679SOL    HW226937   0.866   1.355   3.508
 8680SOL     OW26938   6.456   3.907   0.285
 8680SOL    HW126939   6.490   3.921   0.378
 8680SOL    HW226940   6.424   3.813   0.275
 8681SOL     OW26941   4.771   5.580   1.471
 8681SOL    HW126942   4.735   5.651   1.409
 8681SOL    HW226943   4.695   5.537   1.519
 8682SOL     OW26944   6.025   6.927   2.795
 8682SOL    HW126945   6.064   6.897   2.882
 8682SOL    HW226946   5.930   6.897   2.789
 8683SOL     OW26947   1.331   2.182   5.262
 8683SOL    HW126948   1.321   2.169   5.360
 8683SOL    HW226949   1.416   2.233   5.244
 8684SOL     OW26950   5.729   3.374   4.507
 8684SOL    HW126951   5.651   3.356   4.447
 8684SOL    HW226952   5.782   3.451   4.471
 8685SOL     OW26953   6.002   2.704   6.046
 8685SOL    HW126954   5.943   2.747   5.977
 8685SOL    HW226955   6.020   2.769   6.120
 8686SOL     OW26956   7.014   0.731   2.021
 8686SOL    HW126957   0.026   0.651   1.973
 8686SOL    HW226958   0.001   0.717   2.119
 8687SOL     OW26959   5.386   5.319   2.702
 8687SOL    HW126960   5.348   5.382   2.768
 8687SOL    HW226961   5.477   5.350   2.674
 8688SOL     OW26962   1.217   5.303   6.895
 8688SOL    HW126963   1.170   5.296   6.808
 8688SOL    HW226964   1.178   5.377   6.950
 8689SOL     OW26965   4.021   2.394   0.521
 8689SOL    HW126966   3.927   2.414   0.549
 8689SOL    HW226967   4.053   2.464   0.457
 8690SOL     OW26968   1.399   3.721   4.541
 8690SOL    HW126969   1.329   3.649   4.535
 8690SOL    HW226970   1.354   3.809   4.559
 8691SOL     OW26971   4.276   2.030   6.213
 8691SOL    HW126972   4.358   1.984   6.246
 8691SOL    HW226973   4.219   1.966   6.162
 8692SOL     OW26974   3.356   0.737   4.246
 8692SOL    HW126975   3.335   0.748   4.148
 8692SOL    HW226976   3.287   0.678   4.288
 8693SOL     OW26977   5.481   0.434   0.296
 8693SOL    HW126978   5.506   0.375   0.373
 8693SOL    HW226979   5.410   0.498   0.325
 8694SOL     OW26980   5.381   1.396   4.523
 8694SOL    HW126981   5.291   1.357   4.505
 8694SOL    HW226982   5.376   1.457   4.601
 8695SOL     OW26983   4.338   3.430   6.083
 8695SOL    HW126984   4.389   3.402   6.164
 8695SOL    HW226985   4.263   3.491   6.110
 8696SOL     OW26986   2.547   5.641   5.339
 8696SOL    HW126987   2.641   5.666   5.364
 8696SOL    HW226988   2.526   5.551   5.376
 8697SOL     OW26989   0.539   4.342   6.467
 8697SOL    HW126990   0.470   4.288   6.515
 8697SOL    HW226991   0.611   4.369   6.532
 8698SOL     OW26992   4.911   6.100   5.041
 8698SOL    HW126993   5.005   6.125   5.063
 8698SOL    HW226994   4.869   6.055   5.119
 8699SOL     OW26995   1.675   2.994   4.779
 8699SOL    HW126996   1.770   2.977   4.804
 8699SOL    HW226997   1.633   2.910   4.746
 8700SOL     OW26998   0.965   0.667   4.644
 8700SOL    HW126999   0.891   0.629   4.701
 8700SOL    HW227000   1.037   0.704   4.703
 8701SOL     OW27001   1.694   1.181   0.647
 8701SOL    HW127002   1.779   1.174   0.594
 8701SOL    HW227003   1.685   1.274   0.684
 8702SOL     OW27004   5.149   5.138   1.830
 8702SOL    HW127005   5.153   5.189   1.916
 8702SOL    HW227006   5.104   5.193   1.760
 8703SOL     OW27007   2.776   4.602   6.994
 8703SOL    HW127008   2.860   4.551   7.013
 8703SOL    HW227009   2.792   4.699   7.008
 8704SOL     OW27010   0.433   4.313   3.480
 8704SOL    HW127011   0.354   4.255   3.460
 8704SOL    HW227012   0.464   4.359   3.397
 8705SOL     OW27013   5.188   1.800   6.310
 8705SOL    HW127014   5.219   1.866   6.241
 8705SOL    HW227015   5.089   1.809   6.321
 8706SOL     OW27016   4.786   2.247   0.186
 8706SOL    HW127017   4.738   2.275   0.103
 8706SOL    HW227018   4.729   2.180   0.235
 8707SOL     OW27019   0.616   1.861   5.006
 8707SOL    HW127020   0.627   1.845   4.908
 8707SOL    HW227021   0.547   1.799   5.043
 8708SOL     OW27022   4.130   1.910   3.738
 8708SOL    HW127023   4.162   1.887   3.830
 8708SOL    HW227024   4.083   1.830   3.699
 8709SOL     OW27025   6.424   6.769   6.822
 8709SOL    HW127026   6.427   6.859   6.866
 8709SOL    HW227027   6.362   6.772   6.744
 8710SOL     OW27028   2.016   2.649   3.387
 8710SOL    HW127029   1.966   2.734   3.400
 8710SOL    HW227030   2.056   2.620   3.473
 8711SOL     OW27031   2.261   6.524   2.861
 8711SOL    HW127032   2.346   6.497   2.907
 8711SOL    HW227033   2.269   6.619   2.831
 8712SOL     OW27034   3.495   1.652   4.465
 8712SOL    HW127035   3.521   1.610   4.377
 8712SOL    HW227036   3.554   1.731   4.482
 8713SOL     OW27037   6.778   3.149   1.853
 8713SOL    HW127038   6.797   3.102   1.940
 8713SOL    HW227039   6.708   3.219   1.867
 8714SOL     OW27040   1.401   0.385   5.386
 8714SOL    HW127041   1.318   0.344   5.423
 8714SOL    HW227042   1.457   0.419   5.462
 8715SOL     OW27043   3.834   0.983   0.727
 8715SOL    HW127044   3.916   1.006   0.780
 8715SOL    HW227045   3.753   1.003   0.782
 8716SOL     OW27046   0.250   6.269   0.091
 8716SOL    HW127047   0.238   6.356   0.139
 8716SOL    HW227048   0.173   6.254   0.029
 8717SOL     OW27049   2.996   3.673   4.995
 8717SOL    HW127050   2.959   3.754   4.951
 8717SOL    HW227051   2.947   3.657   5.081
 8718SOL     OW27052   1.559   2.566   6.320
 8718SOL    HW127053   1.638   2.618   6.353
 8718SOL    HW227054   1.484   2.573   6.386
 8719SOL     OW27055   3.321   0.232   0.267
 8719SOL    HW127056   3.402   0.180   0.240
 8719SOL    HW227057   3.350   0.318   0.308
 8720SOL     OW27058   1.307   6.525   6.089
 8720SOL    HW127059   1.321   6.498   6.184
 8720SOL    HW227060   1.373   6.477   6.031
 8721SOL     OW27061   6.726   1.824   1.043
 8721SOL    HW127062   6.780   1.908   1.049
 8721SOL    HW227063   6.651   1.827   1.109
 8722SOL     OW27064   3.235   1.237   1.495
 8722SOL    HW127065   3.139   1.264   1.483
 8722SOL    HW227066   3.245   1.185   1.579
 8723SOL     OW27067   5.268   0.035   1.787
 8723SOL    HW127068   5.280   6.994   1.862
 8723SOL    HW227069   5.173   0.037   1.758
 8724SOL     OW27070   5.972   6.940   4.089
 8724SOL    HW127071   5.911   6.864   4.110
 8724SOL    HW227072   5.960   7.012   4.157
 8725SOL     OW27073   1.741   5.345   5.777
 8725SOL    HW127074   1.721   5.436   5.813
 8725SOL    HW227075   1.768   5.352   5.681
 8726SOL     OW27076   0.012   0.727   2.332
 8726SOL    HW127077   0.008   0.628   2.341
 8726SOL    HW227078   6.945   0.762   2.310
 8727SOL     OW27079   6.203   0.238   1.063
 8727SOL    HW127080   6.239   0.243   0.970
 8727SOL    HW227081   6.276   0.260   1.128
 8728SOL     OW27082   5.975   0.673   2.209
 8728SOL    HW127083   5.953   0.601   2.143
 8728SOL    HW227084   5.984   0.760   2.161
 8729SOL     OW27085   3.470   4.773   5.387
 8729SOL    HW127086   3.556   4.804   5.346
 8729SOL    HW227087   3.481   4.679   5.420
 8730SOL     OW27088   5.089   4.004   2.673
 8730SOL    HW127089   5.165   4.038   2.619
 8730SOL    HW227090   5.015   3.975   2.612
 8731SOL     OW27091   0.401   3.901   3.421
 8731SOL    HW127092   0.500   3.900   3.407
 8731SOL    HW227093   0.363   3.983   3.377
 8732SOL     OW27094   5.739   4.983   2.165
 8732SOL    HW127095   5.807   4.942   2.105
 8732SOL    HW227096   5.766   5.076   2.189
 8733SOL     OW27097   1.329   5.685   0.732
 8733SOL    HW127098   1.244   5.694   0.784
 8733SOL    HW227099   1.378   5.604   0.763
 8734SOL     OW27100   0.757   3.090   3.605
 8734SOL    HW127101   0.850   3.101   3.640
 8734SOL    HW227102   0.755   3.014   3.539
 8735SOL     OW27103   0.475   3.068   5.859
 8735SOL    HW127104   0.472   3.023   5.770
 8735SOL    HW227105   0.416   3.019   5.923
 8736SOL     OW27106   6.758   5.602   2.079
 8736SOL    HW127107   6.743   5.576   1.984
 8736SOL    HW227108   6.797   5.694   2.082
 8737SOL     OW27109   1.789   6.653   0.308
 8737SOL    HW127110   1.873   6.704   0.290
 8737SOL    HW227111   1.812   6.559   0.334
 8738SOL     OW27112   2.575   5.918   3.706
 8738SOL    HW127113   2.565   5.976   3.787
 8738SOL    HW227114   2.495   5.928   3.647
 8739SOL     OW27115   5.667   5.602   5.964
 8739SOL    HW127116   5.604   5.606   6.042
 8739SOL    HW227117   5.760   5.621   5.995
 8740SOL     OW27118   4.072   1.669   3.615
 8740SOL    HW127119   4.020   1.600   3.565
 8740SOL    HW227120   4.155   1.627   3.653
 8741SOL     OW27121   2.390   0.908   2.784
 8741SOL    HW127122   2.436   0.856   2.856
 8741SOL    HW227123   2.442   0.901   2.699
 8742SOL     OW27124   4.654   0.388   1.821
 8742SOL    HW127125   4.588   0.314   1.823
 8742SOL    HW227126   4.682   0.412   1.914
 8743SOL     OW27127   1.300   0.496   1.486
 8743SOL    HW127128   1.214   0.541   1.461
 8743SOL    HW227129   1.280   0.412   1.537
 8744SOL     OW27130   4.521   2.740   0.424
 8744SOL    HW127131   4.484   2.692   0.345
 8744SOL    HW227132   4.480   2.831   0.430
 8745SOL     OW27133   5.589   2.038   6.348
 8745SOL    HW127134   5.635   1.965   6.399
 8745SOL    HW227135   5.595   2.123   6.399
 8746SOL     OW27136   5.308   5.872   4.327
 8746SOL    HW127137   5.224   5.865   4.381
 8746SOL    HW227138   5.305   5.805   4.253
 8747SOL     OW27139   0.613   1.535   2.793
 8747SOL    HW127140   0.630   1.612   2.731
 8747SOL    HW227141   0.687   1.529   2.860
 8748SOL     OW27142   0.294   1.758   4.809
 8748SOL    HW127143   0.308   1.735   4.906
 8748SOL    HW227144   0.274   1.674   4.758
 8749SOL     OW27145   1.831   0.064   5.765
 8749SOL    HW127146   1.844   6.989   5.765
 8749SOL    HW227147   1.884   0.105   5.839
 8750SOL     OW27148   3.604   3.746   5.776
 8750SOL    HW127149   3.685   3.803   5.769
 8750SOL    HW227150   3.543   3.782   5.847
 8751SOL     OW27151   6.815   1.434   2.303
 8751SOL    HW127152   6.792   1.530   2.286
 8751SOL    HW227153   6.913   1.426   2.321
 8752SOL     OW27154   3.584   2.845   6.820
 8752SOL    HW127155   3.604   2.814   6.726
 8752SOL    HW227156   3.641   2.794   6.884
 8753SOL     OW27157   2.771   2.237   6.218
 8753SOL    HW127158   2.772   2.294   6.300
 8753SOL    HW227159   2.860   2.241   6.174
 8754SOL     OW27160   2.147   4.482   5.594
 8754SOL    HW127161   2.181   4.535   5.517
 8754SOL    HW227162   2.083   4.413   5.562
 8755SOL     OW27163   2.252   0.391   1.180
 8755SOL    HW127164   2.207   0.312   1.220
 8755SOL    HW227165   2.192   0.471   1.186
 8756SOL     OW27166   1.877   3.306   3.277
 8756SOL    HW127167   1.958   3.365   3.273
 8756SOL    HW227168   1.799   3.353   3.234
 8757SOL     OW27169   4.659   5.712   6.885
 8757SOL    HW127170   4.609   5.795   6.911
 8757SOL    HW227171   4.744   5.706   6.938
 8758SOL     OW27172   4.756   6.268   2.880
 8758SOL    HW127173   4.731   6.270   2.977
 8758SOL    HW227174   4.688   6.317   2.827
 8759SOL     OW27175   5.396   3.279   0.233
 8759SOL    HW127176   5.303   3.282   0.195
 8759SOL    HW227177   5.443   3.198   0.198
 8760SOL     OW27178   2.676   0.371   4.535
 8760SOL    HW127179   2.614   0.369   4.613
 8760SOL    HW227180   2.638   0.432   4.465
 8761SOL     OW27181   6.064   2.042   1.241
 8761SOL    HW127182   6.031   1.951   1.266
 8761SOL    HW227183   6.057   2.054   1.142
 8762SOL     OW27184   0.492   5.404   4.478
 8762SOL    HW127185   0.569   5.417   4.541
 8762SOL    HW227186   0.440   5.323   4.505
 8763SOL     OW27187   5.547   0.024   5.610
 8763SOL    HW127188   5.468   0.085   5.612
 8763SOL    HW227189   5.576   0.004   5.703
 8764SOL     OW27190   4.239   6.688   5.828
 8764SOL    HW127191   4.255   6.775   5.874
 8764SOL    HW227192   4.265   6.696   5.731
 8765SOL     OW27193   5.104   0.828   4.344
 8765SOL    HW127194   5.179   0.776   4.385
 8765SOL    HW227195   5.111   0.824   4.245
 8766SOL     OW27196   4.417   4.214   5.283
 8766SOL    HW127197   4.350   4.283   5.255
 8766SOL    HW227198   4.373   4.124   5.284
 8767SOL     OW27199   5.154   6.490   3.089
 8767SOL    HW127200   5.111   6.426   3.153
 8767SOL    HW227201   5.098   6.573   3.082
 8768SOL     OW27202   1.108   2.769   0.460
 8768SOL    HW127203   1.201   2.801   0.477
 8768SOL    HW227204   1.048   2.797   0.535
 8769SOL     OW27205   0.085   1.251   3.053
 8769SOL    HW127206   0.040   1.339   3.038
 8769SOL    HW227207   0.017   1.181   3.074
 8770SOL     OW27208   4.673   4.468   2.393
 8770SOL    HW127209   4.679   4.398   2.464
 8770SOL    HW227210   4.667   4.424   2.303
 8771SOL     OW27211   1.312   2.244   6.204
 8771SOL    HW127212   1.234   2.198   6.162
 8771SOL    HW227213   1.391   2.183   6.204
 8772SOL     OW27214   4.503   0.339   6.485
 8772SOL    HW127215   4.457   0.382   6.563
 8772SOL    HW227216   4.509   0.240   6.501
 8773SOL     OW27217   5.910   2.520   3.303
 8773SOL    HW127218   5.828   2.465   3.319
 8773SOL    HW227219   5.937   2.513   3.207
 8774SOL     OW27220   1.387   0.206   0.275
 8774SOL    HW127221   1.306   0.234   0.224
 8774SOL    HW227222   1.445   0.286   0.294
 8775SOL     OW27223   5.353   0.935   5.699
 8775SOL    HW127224   5.298   0.854   5.680
 8775SOL    HW227225   5.374   0.981   5.613
 8776SOL     OW27226   4.615   3.744   1.012
 8776SOL    HW127227   4.515   3.742   1.020
 8776SOL    HW227228   4.656   3.693   1.087
 8777SOL     OW27229   6.735   4.475   3.444
 8777SOL    HW127230   6.756   4.553   3.503
 8777SOL    HW227231   6.804   4.403   3.457
 8778SOL     OW27232   5.184   2.602   5.708
 8778SOL    HW127233   5.227   2.611   5.797
 8778SOL    HW227234   5.098   2.552   5.716
 8779SOL     OW27235   2.487   5.678   2.639
 8779SOL    HW127236   2.412   5.641   2.694
 8779SOL    HW227237   2.574   5.640   2.671
 8780SOL     OW27238   0.175   0.116   2.961
 8780SOL    HW127239   0.106   0.160   2.904
 8780SOL    HW227240   0.263   0.161   2.948
 8781SOL     OW27241   4.906   0.382   3.833
 8781SOL    HW127242   4.877   0.466   3.878
 8781SOL    HW227243   4.877   0.383   3.737
 8782SOL     OW27244   6.519   0.796   1.409
 8782SOL    HW127245   6.494   0.759   1.498
 8782SOL    HW227246   6.568   0.882   1.421
 8783SOL     OW27247   6.928   4.305   3.512
 8783SOL    HW127248   6.895   4.248   3.437
 8783SOL    HW227249   6.950   4.248   3.591
 8784SOL     OW27250   6.794   6.642   6.039
 8784SOL    HW127251   6.779   6.695   5.956
 8784SOL    HW227252   6.746   6.685   6.115
 8785SOL     OW27253   6.487   5.259   6.835
 8785SOL    HW127254   6.562   5.295   6.891
 8785SOL    HW227255   6.486   5.306   6.747
 8786SOL     OW27256   2.884   1.345   1.173
 8786SOL    HW127257   2.965   1.387   1.131
 8786SOL    HW227258   2.804   1.402   1.154
 8787SOL     OW27259   3.209   1.020   2.263
 8787SOL    HW127260   3.170   1.090   2.203
 8787SOL    HW227261   3.139   0.991   2.329
 8788SOL     OW27262   0.233   1.238   5.387
 8788SOL    HW127263   0.169   1.173   5.428
 8788SOL    HW227264   0.283   1.193   5.313
 8789SOL     OW27265   6.406   4.974   5.389
 8789SOL    HW127266   6.446   5.026   5.464
 8789SOL    HW227267   6.318   5.014   5.363
 8790SOL     OW27268   6.267   0.984   6.552
 8790SOL    HW127269   6.278   0.896   6.597
 8790SOL    HW227270   6.322   0.986   6.468
 8791SOL     OW27271   4.812   6.606   4.780
 8791SOL    HW127272   4.844   6.696   4.751
 8791SOL    HW227273   4.767   6.614   4.869
 8792SOL     OW27274   3.281   5.274   2.779
 8792SOL    HW127275   3.304   5.269   2.876
 8792SOL    HW227276   3.338   5.211   2.727
 8793SOL     OW27277   0.624   5.058   2.682
 8793SOL    HW127278   0.550   5.114   2.645
 8793SOL    HW227279   0.699   5.116   2.712
 8794SOL     OW27280   5.816   0.896   3.160
 8794SOL    HW127281   5.785   0.975   3.108
 8794SOL    HW227282   5.753   0.820   3.146
 8795SOL     OW27283   1.145   4.708   5.572
 8795SOL    HW127284   1.080   4.688   5.645
 8795SOL    HW227285   1.187   4.797   5.589
 8796SOL     OW27286   5.665   2.632   2.980
 8796SOL    HW127287   5.630   2.539   2.986
 8796SOL    HW227288   5.639   2.683   3.062
 8797SOL     OW27289   0.361   0.044   5.962
 8797SOL    HW127290   0.273   0.089   5.953
 8797SOL    HW227291   0.353   6.991   6.026
 8798SOL     OW27292   4.522   6.375   6.831
 8798SOL    HW127293   4.527   6.409   6.924
 8798SOL    HW227294   4.506   6.276   6.833
 8799SOL     OW27295   2.409   5.057   3.653
 8799SOL    HW127296   2.311   5.034   3.654
 8799SOL    HW227297   2.447   5.048   3.745
 8800SOL     OW27298   5.410   5.270   6.524
 8800SOL    HW127299   5.453   5.212   6.455
 8800SOL    HW227300   5.371   5.351   6.481
 8801SOL     OW27301   5.981   1.598   4.669
 8801SOL    HW127302   6.053   1.545   4.713
 8801SOL    HW227303   5.911   1.536   4.633
 8802SOL     OW27304   1.428   5.725   5.881
 8802SOL    HW127305   1.479   5.762   5.959
 8802SOL    HW227306   1.364   5.794   5.848
 8803SOL     OW27307   0.100   0.161   0.104
 8803SOL    HW127308   0.026   0.140   0.040
 8803SOL    HW227309   0.061   0.190   0.191
 8804SOL     OW27310   2.530   6.109   1.413
 8804SOL    HW127311   2.484   6.145   1.332
 8804SOL    HW227312   2.626   6.137   1.412
 8805SOL     OW27313   3.715   5.378   3.133
 8805SOL    HW127314   3.702   5.383   3.034
 8805SOL    HW227315   3.762   5.293   3.156
 8806SOL     OW27316   2.603   5.130   1.003
 8806SOL    HW127317   2.602   5.179   0.915
 8806SOL    HW227318   2.692   5.087   1.016
 8807SOL     OW27319   4.590   1.647   0.360
 8807SOL    HW127320   4.586   1.553   0.393
 8807SOL    HW227321   4.644   1.651   0.276
 8808SOL     OW27322   6.714   2.315   6.103
 8808SOL    HW127323   6.634   2.366   6.135
 8808SOL    HW227324   6.694   2.217   6.105
 8809SOL     OW27325   2.677   4.647   3.435
 8809SOL    HW127326   2.770   4.682   3.418
 8809SOL    HW227327   2.618   4.721   3.465
 8810SOL     OW27328   5.910   0.465   4.834
 8810SOL    HW127329   5.851   0.508   4.904
 8810SOL    HW227330   6.004   0.496   4.846
 8811SOL     OW27331   2.982   0.651   3.313
 8811SOL    HW127332   3.015   0.736   3.354
 8811SOL    HW227333   3.044   0.623   3.240
 8812SOL     OW27334   2.507   0.489   0.388
 8812SOL    HW127335   2.541   0.489   0.294
 8812SOL    HW227336   2.451   0.571   0.402
 8813SOL     OW27337   1.732   5.228   2.841
 8813SOL    HW127338   1.824   5.225   2.880
 8813SOL    HW227339   1.664   5.212   2.913
 8814SOL     OW27340   5.873   0.163   0.486
 8814SOL    HW127341   5.910   0.246   0.527
 8814SOL    HW227342   5.917   0.083   0.527
 8815SOL     OW27343   5.545   0.049   1.350
 8815SOL    HW127344   5.508   0.039   1.442
 8815SOL    HW227345   5.501   7.007   1.289
 8816SOL     OW27346   0.958   6.458   6.583
 8816SOL    HW127347   1.009   6.451   6.497
 8816SOL    HW227348   0.869   6.413   6.573
 8817SOL     OW27349   0.124   4.213   3.780
 8817SOL    HW127350   0.222   4.195   3.772
 8817SOL    HW227351   0.109   4.301   3.824
 8818SOL     OW27352   1.178   5.970   3.876
 8818SOL    HW127353   1.145   6.036   3.943
 8818SOL    HW227354   1.150   5.878   3.903
 8819SOL     OW27355   6.325   4.829   5.588
 8819SOL    HW127356   6.391   4.764   5.552
 8819SOL    HW227357   6.331   4.915   5.536
 8820SOL     OW27358   2.600   1.053   5.358
 8820SOL    HW127359   2.599   0.960   5.322
 8820SOL    HW227360   2.506   1.082   5.380
 8821SOL     OW27361   1.649   5.801   0.702
 8821SOL    HW127362   1.661   5.746   0.784
 8821SOL    HW227363   1.569   5.861   0.712
 8822SOL     OW27364   0.597   0.665   3.420
 8822SOL    HW127365   0.649   0.644   3.338
 8822SOL    HW227366   0.518   0.720   3.396
 8823SOL     OW27367   1.864   1.193   2.304
 8823SOL    HW127368   1.824   1.263   2.362
 8823SOL    HW227369   1.932   1.234   2.243
 8824SOL     OW27370   1.503   0.939   0.617
 8824SOL    HW127371   1.556   0.867   0.572
 8824SOL    HW227372   1.560   1.019   0.630
 8825SOL     OW27373   1.384   1.622   1.457
 8825SOL    HW127374   1.399   1.661   1.548
 8825SOL    HW227375   1.464   1.640   1.399
 8826SOL     OW27376   0.744   3.622   1.037
 8826SOL    HW127377   0.824   3.650   0.984
 8826SOL    HW227378   0.691   3.703   1.063
 8827SOL     OW27379   4.150   0.581   3.031
 8827SOL    HW127380   4.157   0.604   3.128
 8827SOL    HW227381   4.080   0.511   3.017
 8828SOL     OW27382   4.313   4.932   6.936
 8828SOL    HW127383   4.237   4.950   6.998
 8828SOL    HW227384   4.290   4.855   6.876
 8829SOL     OW27385   5.666   1.806   1.341
 8829SOL    HW127386   5.683   1.809   1.243
 8829SOL    HW227387   5.605   1.881   1.366
 8830SOL     OW27388   2.277   1.562   2.729
 8830SOL    HW127389   2.372   1.592   2.721
 8830SOL    HW227390   2.225   1.595   2.650
 8831SOL     OW27391   5.796   2.739   2.778
 8831SOL    HW127392   5.870   2.791   2.821
 8831SOL    HW227393   5.731   2.711   2.849
 8832SOL     OW27394   6.246   5.832   3.717
 8832SOL    HW127395   6.296   5.870   3.640
 8832SOL    HW227396   6.235   5.734   3.705
 8833SOL     OW27397   3.736   4.493   6.268
 8833SOL    HW127398   3.654   4.482   6.324
 8833SOL    HW227399   3.740   4.420   6.200
 8834SOL     OW27400   5.713   3.752   4.254
 8834SOL    HW127401   5.621   3.733   4.221
 8834SOL    HW227402   5.753   3.827   4.201
 8835SOL     OW27403   5.114   0.877   6.244
 8835SOL    HW127404   5.084   0.941   6.315
 8835SOL    HW227405   5.211   0.893   6.224
 8836SOL     OW27406   4.671   1.688   1.225
 8836SOL    HW127407   4.727   1.749   1.282
 8836SOL    HW227408   4.661   1.600   1.270
 8837SOL     OW27409   0.347   6.927   2.795
 8837SOL    HW127410   0.283   6.973   2.857
 8837SOL    HW227411   0.410   6.870   2.849
 8838SOL     OW27412   1.790   4.432   3.601
 8838SOL    HW127413   1.861   4.452   3.669
 8838SOL    HW227414   1.820   4.358   3.541
 8839SOL     OW27415   4.082   6.710   2.211
 8839SOL    HW127416   4.136   6.776   2.263
 8839SOL    HW227417   4.059   6.748   2.121
 8840SOL     OW27418   0.288   0.820   2.322
 8840SOL    HW127419   0.278   0.902   2.265
 8840SOL    HW227420   0.199   0.777   2.333
 8841SOL     OW27421   6.261   1.626   3.915
 8841SOL    HW127422   6.216   1.554   3.967
 8841SOL    HW227423   6.226   1.715   3.944
 8842SOL     OW27424   3.080   3.548   3.375
 8842SOL    HW127425   3.042   3.625   3.324
 8842SOL    HW227426   3.083   3.571   3.472
 8843SOL     OW27427   1.882   3.574   3.963
 8843SOL    HW127428   1.978   3.591   3.942
 8843SOL    HW227429   1.861   3.604   4.056
 8844SOL     OW27430   6.558   1.277   4.844
 8844SOL    HW127431   6.462   1.266   4.817
 8844SOL    HW227432   6.564   1.325   4.931
 8845SOL     OW27433   2.398   4.181   0.704
 8845SOL    HW127434   2.363   4.245   0.773
 8845SOL    HW227435   2.476   4.131   0.742
 8846SOL     OW27436   3.523   4.932   4.339
 8846SOL    HW127437   3.427   4.904   4.350
 8846SOL    HW227438   3.554   4.978   4.423
 8847SOL     OW27439   2.514   1.198   3.267
 8847SOL    HW127440   2.537   1.252   3.186
 8847SOL    HW227441   2.561   1.110   3.263
 8848SOL     OW27442   2.996   2.108   2.505
 8848SOL    HW127443   2.993   2.008   2.511
 8848SOL    HW227444   2.994   2.136   2.409
 8849SOL     OW27445   3.546   4.938   3.100
 8849SOL    HW127446   3.458   4.980   3.122
 8849SOL    HW227447   3.590   4.908   3.185
 8850SOL     OW27448   2.429   0.698   0.108
 8850SOL    HW127449   2.443   0.602   0.132
 8850SOL    HW227450   2.476   0.717   0.022
 8851SOL     OW27451   1.173   4.853   1.745
 8851SOL    HW127452   1.144   4.758   1.733
 8851SOL    HW227453   1.208   4.889   1.659
 8852SOL     OW27454   4.312   3.892   5.923
 8852SOL    HW127455   4.409   3.914   5.934
 8852SOL    HW227456   4.258   3.946   5.987
 8853SOL     OW27457   3.445   0.535   5.976
 8853SOL    HW127458   3.400   0.453   5.942
 8853SOL    HW227459   3.523   0.557   5.919
 8854SOL     OW27460   3.433   1.380   6.326
 8854SOL    HW127461   3.511   1.384   6.262
 8854SOL    HW227462   3.349   1.362   6.275
 8855SOL     OW27463   6.578   6.109   0.283
 8855SOL    HW127464   6.623   6.199   0.284
 8855SOL    HW227465   6.479   6.122   0.274
 8856SOL     OW27466   6.781   0.898   5.948
 8856SOL    HW127467   6.803   0.945   6.033
 8856SOL    HW227468   6.861   0.846   5.917
 8857SOL     OW27469   6.725   2.408   4.138
 8857SOL    HW127470   6.822   2.384   4.139
 8857SOL    HW227471   6.675   2.349   4.201
 8858SOL     OW27472   1.151   2.446   5.579
 8858SOL    HW127473   1.099   2.372   5.535
 8858SOL    HW227474   1.156   2.524   5.517
 8859SOL     OW27475   7.005   0.820   4.240
 8859SOL    HW127476   7.010   0.721   4.225
 8859SOL    HW227477   6.991   0.865   4.152
 8860SOL     OW27478   0.982   3.499   3.360
 8860SOL    HW127479   1.033   3.429   3.311
 8860SOL    HW227480   0.998   3.588   3.318
 8861SOL     OW27481   3.722   1.838   5.874
 8861SOL    HW127482   3.645   1.883   5.830
 8861SOL    HW227483   3.778   1.905   5.922
 8862SOL     OW27484   5.998   0.544   3.101
 8862SOL    HW127485   6.043   0.595   3.028
 8862SOL    HW227486   6.063   0.525   3.175
 8863SOL     OW27487   1.265   5.797   4.211
 8863SOL    HW127488   1.289   5.874   4.152
 8863SOL    HW227489   1.254   5.715   4.156
 8864SOL     OW27490   2.168   2.747   6.405
 8864SOL    HW127491   2.114   2.765   6.323
 8864SOL    HW227492   2.149   2.818   6.474
 8865SOL     OW27493   3.361   1.664   5.786
 8865SOL    HW127494   3.263   1.642   5.785
 8865SOL    HW227495   3.379   1.738   5.723
 8866SOL     OW27496   4.937   6.703   3.497
 8866SOL    HW127497   4.885   6.702   3.582
 8866SOL    HW227498   5.002   6.780   3.499
 8867SOL     OW27499   5.277   3.958   2.306
 8867SOL    HW127500   5.214   4.033   2.326
 8867SOL    HW227501   5.323   3.930   2.391
 8868SOL     OW27502   6.837   3.520   0.460
 8868SOL    HW127503   6.833   3.501   0.362
 8868SOL    HW227504   6.834   3.434   0.512
 8869SOL     OW27505   4.336   5.761   4.273
 8869SOL    HW127506   4.341   5.709   4.187
 8869SOL    HW227507   4.319   5.857   4.252
 8870SOL     OW27508   4.269   0.381   0.638
 8870SOL    HW127509   4.188   0.426   0.602
 8870SOL    HW227510   4.326   0.348   0.562
 8871SOL     OW27511   1.121   1.044   3.736
 8871SOL    HW127512   1.113   1.035   3.637
 8871SOL    HW227513   1.154   0.958   3.775
 8872SOL     OW27514   1.566   4.817   5.057
 8872SOL    HW127515   1.484   4.874   5.053
 8872SOL    HW227516   1.541   4.722   5.039
 8873SOL     OW27517   0.557   5.657   1.841
 8873SOL    HW127518   0.498   5.592   1.888
 8873SOL    HW227519   0.619   5.608   1.780
 8874SOL     OW27520   3.054   6.424   1.732
 8874SOL    HW127521   3.009   6.335   1.733
 8874SOL    HW227522   3.004   6.487   1.673
 8875SOL     OW27523   6.259   3.686   4.637
 8875SOL    HW127524   6.349   3.678   4.681
 8875SOL    HW227525   6.244   3.607   4.578
 8876SOL     OW27526   1.833   0.420   4.259
 8876SOL    HW127527   1.865   0.325   4.254
 8876SOL    HW227528   1.827   0.457   4.166
 8877SOL     OW27529   2.444   1.800   4.285
 8877SOL    HW127530   2.537   1.764   4.281
 8877SOL    HW227531   2.417   1.834   4.195
 8878SOL     OW27532   6.932   5.925   0.417
 8878SOL    HW127533   6.942   5.909   0.515
 8878SOL    HW227534   6.934   5.838   0.368
 8879SOL     OW27535   5.261   4.809   1.848
 8879SOL    HW127536   5.323   4.853   1.784
 8879SOL    HW227537   5.298   4.719   1.874
 8880SOL     OW27538   5.957   5.056   4.730
 8880SOL    HW127539   5.906   5.109   4.662
 8880SOL    HW227540   5.907   4.971   4.749
 8881SOL     OW27541   6.366   6.865   5.069
 8881SOL    HW127542   6.268   6.876   5.089
 8881SOL    HW227543   6.401   6.786   5.119
 8882SOL     OW27544   5.410   1.675   0.985
 8882SOL    HW127545   5.368   1.713   1.067
 8882SOL    HW227546   5.340   1.630   0.930
 8883SOL     OW27547   2.049   6.797   5.494
 8883SOL    HW127548   2.005   6.748   5.419
 8883SOL    HW227549   2.034   6.895   5.484
 8884SOL     OW27550   5.890   4.587   6.321
 8884SOL    HW127551   5.825   4.648   6.367
 8884SOL    HW227552   5.980   4.598   6.363
 8885SOL     OW27553   0.558   3.385   0.669
 8885SOL    HW127554   0.607   3.326   0.734
 8885SOL    HW227555   0.522   3.465   0.717
 8886SOL     OW27556   3.766   5.956   5.358
 8886SOL    HW127557   3.767   5.861   5.390
 8886SOL    HW227558   3.787   5.959   5.260
 8887SOL     OW27559   3.050   1.606   1.683
 8887SOL    HW127560   2.980   1.603   1.612
 8887SOL    HW227561   3.014   1.654   1.763
 8888SOL     OW27562   1.375   1.639   0.335
 8888SOL    HW127563   1.458   1.583   0.340
 8888SOL    HW227564   1.373   1.702   0.413
 8889SOL     OW27565   5.721   0.286   5.186
 8889SOL    HW127566   5.687   0.204   5.232
 8889SOL    HW227567   5.679   0.367   5.226
 8890SOL     OW27568   6.260   5.219   3.863
 8890SOL    HW127569   6.345   5.237   3.913
 8890SOL    HW227570   6.193   5.289   3.886
 8891SOL     OW27571   5.403   3.500   5.741
 8891SOL    HW127572   5.490   3.543   5.764
 8891SOL    HW227573   5.331   3.569   5.738
 8892SOL     OW27574   3.814   5.789   3.206
 8892SOL    HW127575   3.748   5.833   3.268
 8892SOL    HW227576   3.768   5.714   3.157
 8893SOL     OW27577   0.907   6.828   2.434
 8893SOL    HW127578   0.879   6.886   2.511
 8893SOL    HW227579   0.827   6.780   2.399
 8894SOL     OW27580   3.884   2.558   5.842
 8894SOL    HW127581   3.960   2.494   5.832
 8894SOL    HW227582   3.880   2.618   5.762
 8895SOL     OW27583   6.643   1.784   1.652
 8895SOL    HW127584   6.614   1.697   1.612
 8895SOL    HW227585   6.624   1.858   1.588
 8896SOL     OW27586   1.814   3.217   5.300
 8896SOL    HW127587   1.906   3.199   5.265
 8896SOL    HW227588   1.771   3.131   5.327
 8897SOL     OW27589   1.827   2.829   3.460
 8897SOL    HW127590   1.861   2.920   3.436
 8897SOL    HW227591   1.747   2.807   3.405
 8898SOL     OW27592   5.430   4.043   3.821
 8898SOL    HW127593   5.421   4.139   3.850
 8898SOL    HW227594   5.340   4.007   3.799
 8899SOL     OW27595   2.015   4.717   6.963
 8899SOL    HW127596   2.045   4.624   6.985
 8899SOL    HW227597   2.091   4.780   6.976
 8900SOL     OW27598   5.696   2.864   2.091
 8900SOL    HW127599   5.788   2.832   2.068
 8900SOL    HW227600   5.682   2.856   2.190
 8901SOL     OW27601   1.790   1.727   4.569
 8901SOL    HW127602   1.749   1.663   4.504
 8901SOL    HW227603   1.753   1.710   4.661
 8902SOL     OW27604   2.837   6.854   0.808
 8902SOL    HW127605   2.864   6.931   0.750
 8902SOL    HW227606   2.803   6.779   0.751
 8903SOL     OW27607   0.926   1.716   4.686
 8903SOL    HW127608   0.827   1.724   4.687
 8903SOL    HW227609   0.952   1.635   4.634
 8904SOL     OW27610   5.828   5.457   3.803
 8904SOL    HW127611   5.869   5.547   3.786
 8904SOL    HW227612   5.837   5.400   3.722
 8905SOL     OW27613   2.023   4.502   4.292
 8905SOL    HW127614   2.003   4.593   4.256
 8905SOL    HW227615   2.115   4.474   4.263
 8906SOL     OW27616   6.752   6.641   6.860
 8906SOL    HW127617   6.687   6.621   6.786
 8906SOL    HW227618   6.717   6.718   6.913
 8907SOL     OW27619   3.019   2.216   4.470
 8907SOL    HW127620   2.971   2.280   4.410
 8907SOL    HW227621   3.036   2.131   4.421
 8908SOL     OW27622   1.175   3.477   6.983
 8908SOL    HW127623   1.206   3.387   6.953
 8908SOL    HW227624   1.076   3.481   6.980
 8909SOL     OW27625   1.964   0.377   5.748
 8909SOL    HW127626   1.902   0.355   5.673
 8909SOL    HW227627   1.919   0.441   5.811
 8910SOL     OW27628   0.932   2.962   5.847
 8910SOL    HW127629   0.963   2.898   5.918
 8910SOL    HW227630   0.906   2.910   5.766
 8911SOL     OW27631   4.291   2.321   4.809
 8911SOL    HW127632   4.320   2.396   4.749
 8911SOL    HW227633   4.250   2.360   4.892
 8912SOL     OW27634   3.989   2.566   0.989
 8912SOL    HW127635   4.060   2.500   1.015
 8912SOL    HW227636   3.937   2.530   0.912
 8913SOL     OW27637   5.046   5.042   6.737
 8913SOL    HW127638   5.092   4.988   6.807
 8913SOL    HW227639   5.024   4.984   6.659
 8914SOL     OW27640   3.719   0.708   4.882
 8914SOL    HW127641   3.666   0.778   4.834
 8914SOL    HW227642   3.802   0.749   4.921
 8915SOL     OW27643   1.226   2.724   3.619
 8915SOL    HW127644   1.293   2.739   3.692
 8915SOL    HW227645   1.169   2.645   3.641
 8916SOL     OW27646   6.881   4.274   0.691
 8916SOL    HW127647   6.793   4.249   0.653
 8916SOL    HW227648   6.914   4.201   0.751
 8917SOL     OW27649   6.526   4.414   6.327
 8917SOL    HW127650   6.531   4.317   6.305
 8917SOL    HW227651   6.611   4.459   6.299
 8918SOL     OW27652   6.696   3.858   1.000
 8918SOL    HW127653   6.752   3.786   0.958
 8918SOL    HW227654   6.599   3.837   0.987
 8919SOL     OW27655   3.781   3.651   0.676
 8919SOL    HW127656   3.729   3.590   0.615
 8919SOL    HW227657   3.718   3.716   0.719
 8920SOL     OW27658   1.196   6.762   0.014
 8920SOL    HW127659   1.152   6.757   6.947
 8920SOL    HW227660   1.126   6.778   0.084
 8921SOL     OW27661   2.617   2.144   2.710
 8921SOL    HW127662   2.666   2.079   2.768
 8921SOL    HW227663   2.682   2.210   2.671
 8922SOL     OW27664   3.753   4.950   1.346
 8922SOL    HW127665   3.737   5.021   1.414
 8922SOL    HW227666   3.696   4.968   1.265
 8923SOL     OW27667   1.262   2.814   6.197
 8923SOL    HW127668   1.320   2.757   6.139
 8923SOL    HW227669   1.311   2.898   6.221
 8924SOL     OW27670   3.319   5.850   5.891
 8924SOL    HW127671   3.226   5.857   5.853
 8924SOL    HW227672   3.367   5.937   5.877
 8925SOL     OW27673   0.628   1.293   2.659
 8925SOL    HW127674   0.671   1.332   2.577
 8925SOL    HW227675   0.650   1.349   2.738
 8926SOL     OW27676   5.964   3.889   6.167
 8926SOL    HW127677   5.932   3.813   6.223
 8926SOL    HW227678   5.981   3.856   6.073
 8927SOL     OW27679   1.181   1.707   4.506
 8927SOL    HW127680   1.274   1.701   4.472
 8927SOL    HW227681   1.143   1.616   4.516
 8928SOL     OW27682   0.113   0.821   5.950
 8928SOL    HW127683   0.130   0.834   5.852
 8928SOL    HW227684   0.107   0.723   5.971
 8929SOL     OW27685   6.651   3.584   4.202
 8929SOL    HW127686   6.688   3.576   4.109
 8929SOL    HW227687   6.712   3.537   4.266
 8930SOL     OW27688   1.875   4.041   4.584
 8930SOL    HW127689   1.929   4.054   4.667
 8930SOL    HW227690   1.803   4.110   4.581
 8931SOL     OW27691   3.095   2.973   1.317
 8931SOL    HW127692   3.055   3.027   1.243
 8931SOL    HW227693   3.181   2.933   1.286
 8932SOL     OW27694   5.252   0.183   0.466
 8932SOL    HW127695   5.253   0.248   0.542
 8932SOL    HW227696   5.345   0.172   0.431
 8933SOL     OW27697   1.514   2.706   6.018
 8933SOL    HW127698   1.596   2.745   6.060
 8933SOL    HW227699   1.512   2.607   6.032
 8934SOL     OW27700   2.826   5.250   4.493
 8934SOL    HW127701   2.738   5.211   4.468
 8934SOL    HW227702   2.846   5.228   4.589
 8935SOL     OW27703   5.861   3.585   1.400
 8935SOL    HW127704   5.777   3.569   1.452
 8935SOL    HW227705   5.844   3.654   1.329
 8936SOL     OW27706   1.194   3.648   1.061
 8936SOL    HW127707   1.162   3.573   1.118
 8936SOL    HW227708   1.155   3.639   0.969
 8937SOL     OW27709   0.275   0.447   4.584
 8937SOL    HW127710   0.270   0.547   4.594
 8937SOL    HW227711   0.359   0.423   4.537
 8938SOL     OW27712   6.848   1.066   0.226
 8938SOL    HW127713   6.810   1.138   0.285
 8938SOL    HW227714   6.948   1.075   0.224
 8939SOL     OW27715   5.906   3.596   4.430
 8939SOL    HW127716   5.995   3.629   4.399
 8939SOL    HW227717   5.834   3.629   4.369
 8940SOL     OW27718   5.868   1.682   1.458
 8940SOL    HW127719   5.810   1.747   1.407
 8940SOL    HW227720   5.813   1.604   1.486
 8941SOL     OW27721   6.502   2.542   2.833
 8941SOL    HW127722   6.425   2.491   2.871
 8941SOL    HW227723   6.515   2.517   2.737
 8942SOL     OW27724   0.861   5.681   5.539
 8942SOL    HW127725   0.950   5.656   5.577
 8942SOL    HW227726   0.848   5.780   5.548
 8943SOL     OW27727   4.021   5.232   7.007
 8943SOL    HW127728   4.116   5.231   0.014
 8943SOL    HW227729   3.971   5.304   0.031
 8944SOL     OW27730   5.037   5.848   4.864
 8944SOL    HW127731   5.073   5.760   4.895
 8944SOL    HW227732   4.954   5.871   4.916
 8945SOL     OW27733   6.919   2.255   4.430
 8945SOL    HW127734   6.962   2.259   4.340
 8945SOL    HW227735   6.847   2.184   4.429
 8946SOL     OW27736   3.575   0.997   4.352
 8946SOL    HW127737   3.659   1.007   4.405
 8946SOL    HW227738   3.499   0.973   4.414
 8947SOL     OW27739   1.993   3.115   5.777
 8947SOL    HW127740   1.928   3.040   5.765
 8947SOL    HW227741   2.025   3.147   5.688
 8948SOL     OW27742   5.820   5.878   3.238
 8948SOL    HW127743   5.774   5.915   3.319
 8948SOL    HW227744   5.918   5.867   3.257
 8949SOL     OW27745   4.003   5.864   0.448
 8949SOL    HW127746   4.037   5.957   0.460
 8949SOL    HW227747   4.065   5.800   0.495
 8950SOL     OW27748   4.213   2.972   0.978
 8950SOL    HW127749   4.130   2.945   0.930
 8950SOL    HW227750   4.265   3.036   0.921
 8951SOL     OW27751   2.226   0.749   4.735
 8951SOL    HW127752   2.168   0.694   4.796
 8951SOL    HW227753   2.176   0.772   4.652
 8952SOL     OW27754   0.788   5.072   3.632
 8952SOL    HW127755   0.785   5.066   3.532
 8952SOL    HW227756   0.695   5.090   3.666
 8953SOL     OW27757   0.646   4.919   0.934
 8953SOL    HW127758   0.620   4.919   1.031
 8953SOL    HW227759   0.745   4.931   0.927
 8954SOL     OW27760   7.016   0.174   4.096
 8954SOL    HW127761   7.003   0.230   4.015
 8954SOL    HW227762   0.063   0.105   4.079
 8955SOL     OW27763   6.849   4.714   3.282
 8955SOL    HW127764   6.802   4.801   3.297
 8955SOL    HW227765   6.805   4.642   3.336
 8956SOL     OW27766   1.452   1.195   5.262
 8956SOL    HW127767   1.540   1.182   5.308
 8956SOL    HW227768   1.407   1.106   5.251
 8957SOL     OW27769   2.099   4.501   1.158
 8957SOL    HW127770   2.078   4.589   1.116
 8957SOL    HW227771   2.080   4.506   1.256
 8958SOL     OW27772   0.832   2.375   5.622
 8958SOL    HW127773   0.873   2.336   5.539
 8958SOL    HW227774   0.890   2.353   5.700
 8959SOL     OW27775   1.722   4.190   2.842
 8959SOL    HW127776   1.790   4.117   2.838
 8959SOL    HW227777   1.767   4.279   2.848
 8960SOL     OW27778   5.419   5.303   4.008
 8960SOL    HW127779   5.323   5.277   3.997
 8960SOL    HW227780   5.448   5.356   3.928
 8961SOL     OW27781   3.520   1.233   4.239
 8961SOL    HW127782   3.523   1.141   4.277
 8961SOL    HW227783   3.539   1.230   4.141
 8962SOL     OW27784   6.345   5.194   1.667
 8962SOL    HW127785   6.430   5.195   1.720
 8962SOL    HW227786   6.365   5.170   1.572
 8963SOL     OW27787   3.736   6.335   4.865
 8963SOL    HW127788   3.752   6.418   4.812
 8963SOL    HW227789   3.726   6.257   4.803
 8964SOL     OW27790   6.220   2.999   2.879
 8964SOL    HW127791   6.202   2.901   2.883
 8964SOL    HW227792   6.315   3.016   2.903
 8965SOL     OW27793   2.704   5.312   6.817
 8965SOL    HW127794   2.757   5.394   6.796
 8965SOL    HW227795   2.658   5.280   6.734
 8966SOL     OW27796   6.838   4.530   0.713
 8966SOL    HW127797   6.748   4.542   0.670
 8966SOL    HW227798   6.861   4.432   0.713
 8967SOL     OW27799   3.840   0.893   2.292
 8967SOL    HW127800   3.776   0.957   2.250
 8967SOL    HW227801   3.821   0.800   2.259
 8968SOL     OW27802   4.106   6.241   2.214
 8968SOL    HW127803   4.198   6.266   2.185
 8968SOL    HW227804   4.100   6.142   2.228
 8969SOL     OW27805   0.340   0.320   3.447
 8969SOL    HW127806   0.414   0.256   3.468
 8969SOL    HW227807   0.255   0.269   3.436
 8970SOL     OW27808   1.913   2.463   6.548
 8970SOL    HW127809   1.941   2.552   6.586
 8970SOL    HW227810   1.969   2.441   6.469
 8971SOL     OW27811   5.430   6.059   1.313
 8971SOL    HW127812   5.376   6.138   1.340
 8971SOL    HW227813   5.514   6.090   1.268
 8972SOL     OW27814   4.814   3.940   0.686
 8972SOL    HW127815   4.715   3.925   0.694
 8972SOL    HW227816   4.852   3.959   0.776
 8973SOL     OW27817   6.813   2.816   2.992
 8973SOL    HW127818   6.715   2.801   2.977
 8973SOL    HW227819   6.836   2.910   2.970
 8974SOL     OW27820   1.833   3.430   3.744
 8974SOL    HW127821   1.831   3.470   3.835
 8974SOL    HW227822   1.928   3.424   3.712
 8975SOL     OW27823   0.830   6.084   6.917
 8975SOL    HW127824   0.745   6.098   6.967
 8975SOL    HW227825   0.810   6.050   6.825
 8976SOL     OW27826   6.930   5.701   0.270
 8976SOL    HW127827   6.853   5.649   0.308
 8976SOL    HW227828   6.964   5.655   0.188
 8977SOL     OW27829   6.895   3.602   6.730
 8977SOL    HW127830   6.867   3.697   6.740
 8977SOL    HW227831   6.958   3.594   6.652
 8978SOL     OW27832   5.939   6.981   4.871
 8978SOL    HW127833   5.911   0.047   4.906
 8978SOL    HW227834   6.007   6.994   4.799
 8979SOL     OW27835   1.488   4.743   6.224
 8979SOL    HW127836   1.497   4.712   6.130
 8979SOL    HW227837   1.467   4.841   6.226
 8980SOL     OW27838   5.081   2.862   5.559
 8980SOL    HW127839   5.130   2.803   5.623
 8980SOL    HW227840   5.045   2.807   5.484
 8981SOL     OW27841   4.821   1.726   5.592
 8981SOL    HW127842   4.784   1.818   5.600
 8981SOL    HW227843   4.921   1.729   5.604
 8982SOL     OW27844   0.363   1.973   0.849
 8982SOL    HW127845   0.319   1.911   0.784
 8982SOL    HW227846   0.298   2.045   0.875
 8983SOL     OW27847   0.459   5.812   0.905
 8983SOL    HW127848   0.482   5.739   0.841
 8983SOL    HW227849   0.473   5.780   0.998
 8984SOL     OW27850   6.671   5.951   4.053
 8984SOL    HW127851   6.715   5.962   4.143
 8984SOL    HW227852   6.575   5.928   4.066
 8985SOL     OW27853   2.699   1.981   1.156
 8985SOL    HW127854   2.660   2.025   1.237
 8985SOL    HW227855   2.724   1.887   1.177
 8986SOL     OW27856   4.188   5.224   3.060
 8986SOL    HW127857   4.269   5.249   3.114
 8986SOL    HW227858   4.166   5.128   3.076
 8987SOL     OW27859   2.884   0.344   1.627
 8987SOL    HW127860   2.900   0.432   1.581
 8987SOL    HW227861   2.836   0.283   1.564
 8988SOL     OW27862   2.272   4.520   0.552
 8988SOL    HW127863   2.230   4.512   0.462
 8988SOL    HW227864   2.371   4.514   0.544
 8989SOL     OW27865   5.312   4.039   1.989
 8989SOL    HW127866   5.405   4.018   2.019
 8989SOL    HW227867   5.248   4.014   2.062
 8990SOL     OW27868   2.559   5.292   1.742
 8990SOL    HW127869   2.503   5.256   1.816
 8990SOL    HW227870   2.625   5.357   1.779
 8991SOL     OW27871   2.552   1.326   0.898
 8991SOL    HW127872   2.651   1.312   0.903
 8991SOL    HW227873   2.509   1.293   0.982
 8992SOL     OW27874   6.507   2.483   6.715
 8992SOL    HW127875   6.589   2.523   6.756
 8992SOL    HW227876   6.532   2.428   6.635
 8993SOL     OW27877   4.723   2.662   2.389
 8993SOL    HW127878   4.791   2.590   2.400
 8993SOL    HW227879   4.667   2.642   2.309
 8994SOL     OW27880   0.881   5.935   4.624
 8994SOL    HW127881   0.953   5.931   4.555
 8994SOL    HW227882   0.796   5.967   4.582
 8995SOL     OW27883   1.084   2.744   5.696
 8995SOL    HW127884   1.137   2.819   5.737
 8995SOL    HW227885   1.114   2.657   5.734
 8996SOL     OW27886   0.433   4.811   1.868
 8996SOL    HW127887   0.530   4.833   1.856
 8996SOL    HW227888   0.396   4.776   1.781
 8997SOL     OW27889   4.374   1.312   6.363
 8997SOL    HW127890   4.397   1.237   6.302
 8997SOL    HW227891   4.276   1.311   6.381
 8998SOL     OW27892   0.621   2.658   4.066
 8998SOL    HW127893   0.654   2.748   4.096
 8998SOL    HW227894   0.521   2.661   4.056
 8999SOL     OW27895   4.073   0.276   6.722
 8999SOL    HW127896   4.083   0.360   6.774
 8999SOL    HW227897   4.112   0.288   6.631
 9000SOL     OW27898   2.652   4.282   6.397
 9000SOL    HW127899   2.577   4.296   6.462
 9000SOL    HW227900   2.679   4.186   6.397
 9001SOL     OW27901   1.871   5.525   3.146
 9001SOL    HW127902   1.962   5.562   3.160
 9001SOL    HW227903   1.834   5.493   3.234
 9002SOL     OW27904   0.591   4.773   4.991
 9002SOL    HW127905   0.517   4.839   4.986
 9002SOL    HW227906   0.669   4.806   4.937
 9003SOL     OW27907   5.451   2.690   1.233
 9003SOL    HW127908   5.525   2.705   1.167
 9003SOL    HW227909   5.434   2.774   1.283
 9004SOL     OW27910   4.091   6.824   1.953
 9004SOL    HW127911   4.037   6.740   1.945
 9004SOL    HW227912   4.126   6.849   1.862
 9005SOL     OW27913   6.152   2.079   4.297
 9005SOL    HW127914   6.222   2.016   4.332
 9005SOL    HW227915   6.190   2.129   4.219
 9006SOL     OW27916   1.542   5.993   1.023
 9006SOL    HW127917   1.517   6.005   0.927
 9006SOL    HW227918   1.493   5.914   1.060
 9007SOL     OW27919   3.602   5.800   3.706
 9007SOL    HW127920   3.533   5.741   3.749
 9007SOL    HW227921   3.689   5.790   3.753
 9008SOL     OW27922   6.842   5.517   2.553
 9008SOL    HW127923   6.939   5.539   2.565
 9008SOL    HW227924   6.792   5.598   2.523
 9009SOL     OW27925   2.429   6.442   0.578
 9009SOL    HW127926   2.484   6.394   0.509
 9009SOL    HW227927   2.411   6.535   0.548
 9010SOL     OW27928   1.154   6.966   4.583
 9010SOL    HW127929   1.140   7.018   4.499
 9010SOL    HW227930   1.082   6.989   4.649
 9011SOL     OW27931   4.097   1.913   1.677
 9011SOL    HW127932   4.165   1.947   1.741
 9011SOL    HW227933   4.029   1.985   1.658
 9012SOL     OW27934   2.875   4.995   1.005
 9012SOL    HW127935   2.840   4.915   1.054
 9012SOL    HW227936   2.948   5.037   1.058
 9013SOL     OW27937   6.043   5.955   4.748
 9013SOL    HW127938   6.013   5.900   4.826
 9013SOL    HW227939   6.095   5.898   4.684
 9014SOL     OW27940   1.255   1.398   6.999
 9014SOL    HW127941   1.343   1.352   7.014
 9014SOL    HW227942   1.267   1.472   6.934
 9015SOL     OW27943   6.237   0.591   0.590
 9015SOL    HW127944   6.199   0.673   0.634
 9015SOL    HW227945   6.290   0.539   0.657
 9016SOL     OW27946   6.953   6.356   6.343
 9016SOL    HW127947   6.907   6.424   6.401
 9016SOL    HW227948   0.028   6.359   6.360
 9017SOL     OW27949   5.527   2.814   2.655
 9017SOL    HW127950   5.570   2.727   2.632
 9017SOL    HW227951   5.594   2.876   2.694
 9018SOL     OW27952   4.400   1.564   5.448
 9018SOL    HW127953   4.405   1.476   5.400
 9018SOL    HW227954   4.461   1.629   5.403
 9019SOL     OW27955   1.000   0.165   1.030
 9019SOL    HW127956   0.917   0.128   1.071
 9019SOL    HW227957   1.076   0.156   1.094
 9020SOL     OW27958   1.510   3.499   2.004
 9020SOL    HW127959   1.443   3.511   1.930
 9020SOL    HW227960   1.477   3.429   2.067
 9021SOL     OW27961   6.230   0.292   4.013
 9021SOL    HW127962   6.262   0.217   3.954
 9021SOL    HW227963   6.130   0.297   4.009
 9022SOL     OW27964   2.669   0.395   1.395
 9022SOL    HW127965   2.695   0.299   1.396
 9022SOL    HW227966   2.705   0.439   1.313
 9023SOL     OW27967   4.016   3.107   2.732
 9023SOL    HW127968   3.983   3.111   2.638
 9023SOL    HW227969   4.111   3.077   2.734
 9024SOL     OW27970   1.459   5.504   6.573
 9024SOL    HW127971   1.469   5.511   6.474
 9024SOL    HW227972   1.465   5.408   6.600
 9025SOL     OW27973   6.577   5.858   0.924
 9025SOL    HW127974   6.604   5.762   0.916
 9025SOL    HW227975   6.556   5.893   0.833
 9026SOL     OW27976   3.726   3.384   2.781
 9026SOL    HW127977   3.668   3.377   2.862
 9026SOL    HW227978   3.781   3.300   2.772
 9027SOL     OW27979   2.473   1.780   3.559
 9027SOL    HW127980   2.410   1.720   3.510
 9027SOL    HW227981   2.477   1.753   3.655
 9028SOL     OW27982   2.416   3.925   5.721
 9028SOL    HW127983   2.485   3.998   5.718
 9028SOL    HW227984   2.380   3.917   5.814
 9029SOL     OW27985   3.261   5.326   5.079
 9029SOL    HW127986   3.356   5.352   5.063
 9029SOL    HW227987   3.250   5.228   5.065
 9030SOL     OW27988   2.247   0.921   3.059
 9030SOL    HW127989   2.248   1.018   3.035
 9030SOL    HW227990   2.195   0.870   2.991
 9031SOL     OW27991   4.981   5.358   5.756
 9031SOL    HW127992   4.944   5.362   5.664
 9031SOL    HW227993   5.073   5.398   5.757
 9032SOL     OW27994   3.966   2.791   0.784
 9032SOL    HW127995   3.957   2.722   0.856
 9032SOL    HW227996   3.903   2.867   0.803
 9033SOL     OW27997   1.638   4.147   3.391
 9033SOL    HW127998   1.616   4.087   3.468
 9033SOL    HW227999   1.729   4.185   3.403
 9034SOL     OW28000   3.294   6.973   4.843
 9034SOL    HW128001   3.284   6.932   4.752
 9034SOL    HW228002   3.204   7.000   4.878
 9035SOL     OW28003   1.120   6.366   5.318
 9035SOL    HW128004   1.026   6.358   5.284
 9035SOL    HW228005   1.159   6.453   5.289
 9036SOL     OW28006   1.378   1.415   4.533
 9036SOL    HW128007   1.343   1.337   4.481
 9036SOL    HW228008   1.416   1.483   4.470
 9037SOL     OW28009   1.397   4.549   6.410
 9037SOL    HW128010   1.454   4.626   6.381
 9037SOL    HW228011   1.445   4.496   6.480
 9038SOL     OW28012   4.527   0.586   5.167
 9038SOL    HW128013   4.518   0.567   5.069
 9038SOL    HW228014   4.573   0.510   5.212
 9039SOL     OW28015   1.628   4.459   4.690
 9039SOL    HW128016   1.558   4.449   4.760
 9039SOL    HW228017   1.632   4.555   4.662
 9040SOL     OW28018   2.822   1.580   3.165
 9040SOL    HW128019   2.891   1.631   3.113
 9040SOL    HW228020   2.848   1.483   3.168
 9041SOL     OW28021   0.674   2.274   1.770
 9041SOL    HW128022   0.736   2.208   1.727
 9041SOL    HW228023   0.689   2.274   1.869
 9042SOL     OW28024   3.201   6.352   3.922
 9042SOL    HW128025   3.213   6.274   3.983
 9042SOL    HW228026   3.133   6.330   3.852
 9043SOL     OW28027   2.040   1.016   5.985
 9043SOL    HW128028   2.115   0.983   5.928
 9043SOL    HW228029   1.958   1.031   5.929
 9044SOL     OW28030   6.480   1.265   1.151
 9044SOL    HW128031   6.538   1.210   1.090
 9044SOL    HW228032   6.415   1.205   1.196
 9045SOL     OW28033   3.845   1.910   2.541
 9045SOL    HW128034   3.784   1.853   2.487
 9045SOL    HW228035   3.903   1.853   2.599
 9046SOL     OW28036   3.407   3.478   4.216
 9046SOL    HW128037   3.371   3.491   4.308
 9046SOL    HW228038   3.506   3.493   4.217
 9047SOL     OW28039   1.856   3.472   5.165
 9047SOL    HW128040   1.896   3.433   5.249
 9047SOL    HW228041   1.890   3.422   5.086
 9048SOL     OW28042   5.922   3.122   6.146
 9048SOL    HW128043   5.873   3.197   6.191
 9048SOL    HW228044   5.944   3.149   6.052
 9049SOL     OW28045   4.367   6.679   6.162
 9049SOL    HW128046   4.348   6.597   6.108
 9049SOL    HW228047   4.448   6.725   6.125
 9050SOL     OW28048   0.388   5.132   5.771
 9050SOL    HW128049   0.438   5.208   5.728
 9050SOL    HW228050   0.297   5.126   5.730
 9051SOL     OW28051   4.730   6.182   1.280
 9051SOL    HW128052   4.763   6.275   1.266
 9051SOL    HW228053   4.775   6.121   1.214
 9052SOL     OW28054   1.897   3.060   3.685
 9052SOL    HW128055   1.842   2.980   3.660
 9052SOL    HW228056   1.850   3.111   3.757
 9053SOL     OW28057   2.251   1.596   3.326
 9053SOL    HW128058   2.338   1.547   3.338
 9053SOL    HW228059   2.177   1.543   3.367
 9054SOL     OW28060   1.110   0.222   2.320
 9054SOL    HW128061   1.207   0.242   2.331
 9054SOL    HW228062   1.062   0.238   2.406
 9055SOL     OW28063   0.017   3.985   3.455
 9055SOL    HW128064   6.944   4.007   3.440
 9055SOL    HW228065   0.070   4.070   3.458
 9056SOL     OW28066   5.774   0.317   1.840
 9056SOL    HW128067   5.724   0.239   1.802
 9056SOL    HW228068   5.777   0.308   1.940
 9057SOL     OW28069   5.932   5.532   6.094
 9057SOL    HW128070   5.984   5.618   6.102
 9057SOL    HW228071   5.978   5.472   6.029
 9058SOL     OW28072   1.634   1.726   3.587
 9058SOL    HW128073   1.675   1.807   3.629
 9058SOL    HW228074   1.587   1.752   3.503
 9059SOL     OW28075   0.368   1.406   4.027
 9059SOL    HW128076   0.391   1.353   3.945
 9059SOL    HW228077   0.451   1.420   4.081
 9060SOL     OW28078   0.118   3.475   1.743
 9060SOL    HW128079   0.021   3.451   1.739
 9060SOL    HW228080   0.134   3.538   1.818
 9061SOL     OW28081   4.103   6.000   2.321
 9061SOL    HW128082   4.043   5.919   2.320
 9061SOL    HW228083   4.099   6.042   2.412
 9062SOL     OW28084   1.619   5.040   2.365
 9062SOL    HW128085   1.686   4.966   2.352
 9062SOL    HW228086   1.613   5.062   2.462
 9063SOL     OW28087   2.742   0.644   3.043
 9063SOL    HW128088   2.685   0.633   2.962
 9063SOL    HW228089   2.833   0.674   3.016
 9064SOL     OW28090   6.057   3.877   4.064
 9064SOL    HW128091   6.089   3.971   4.061
 9064SOL    HW228092   6.087   3.828   3.982
 9065SOL     OW28093   3.528   5.451   6.774
 9065SOL    HW128094   3.452   5.516   6.773
 9065SOL    HW228095   3.529   5.403   6.862
 9066SOL     OW28096   5.734   0.798   6.989
 9066SOL    HW128097   5.813   0.794   6.928
 9066SOL    HW228098   5.763   0.833   0.055
 9067SOL     OW28099   5.870   6.873   5.260
 9067SOL    HW128100   5.901   6.785   5.295
 9067SOL    HW228101   5.776   6.865   5.225
 9068SOL     OW28102   2.750   0.436   5.208
 9068SOL    HW128103   2.797   0.351   5.188
 9068SOL    HW228104   2.782   0.508   5.148
 9069SOL     OW28105   3.382   2.156   1.818
 9069SOL    HW128106   3.308   2.162   1.885
 9069SOL    HW228107   3.469   2.141   1.866
 9070SOL     OW28108   0.522   3.330   6.230
 9070SOL    HW128109   0.490   3.318   6.324
 9070SOL    HW228110   0.585   3.256   6.207
 9071SOL     OW28111   4.546   6.582   0.767
 9071SOL    HW128112   4.595   6.661   0.806
 9071SOL    HW228113   4.589   6.498   0.799
 9072SOL     OW28114   5.646   0.815   1.728
 9072SOL    HW128115   5.642   0.716   1.713
 9072SOL    HW228116   5.559   0.847   1.765
 9073SOL     OW28117   3.663   6.339   0.767
 9073SOL    HW128118   3.735   6.302   0.708
 9073SOL    HW228119   3.695   6.342   0.861
 9074SOL     OW28120   1.718   0.560   1.661
 9074SOL    HW128121   1.746   0.656   1.661
 9074SOL    HW228122   1.750   0.516   1.577
 9075SOL     OW28123   0.738   0.165   1.117
 9075SOL    HW128124   0.691   0.198   1.199
 9075SOL    HW228125   0.674   0.160   1.041
 9076SOL     OW28126   5.482   1.501   4.758
 9076SOL    HW128127   5.572   1.477   4.793
 9076SOL    HW228128   5.461   1.595   4.781
 9077SOL     OW28129   5.474   1.133   6.684
 9077SOL    HW128130   5.400   1.098   6.626
 9077SOL    HW228131   5.441   1.212   6.736
 9078SOL     OW28132   5.122   3.679   0.407
 9078SOL    HW128133   5.187   3.645   0.476
 9078SOL    HW228134   5.157   3.658   0.316
 9079SOL     OW28135   1.589   6.341   4.076
 9079SOL    HW128136   1.621   6.264   4.020
 9079SOL    HW228137   1.637   6.424   4.049
 9080SOL     OW28138   5.563   2.602   6.789
 9080SOL    HW128139   5.663   2.595   6.779
 9080SOL    HW228140   5.524   2.510   6.793
 9081SOL     OW28141   3.438   0.127   2.332
 9081SOL    HW128142   3.497   0.052   2.361
 9081SOL    HW228143   3.484   0.214   2.350
 9082SOL     OW28144   2.582   6.616   5.720
 9082SOL    HW128145   2.596   6.712   5.745
 9082SOL    HW228146   2.603   6.558   5.799
 9083SOL     OW28147   3.995   4.217   5.552
 9083SOL    HW128148   3.992   4.237   5.454
 9083SOL    HW228149   4.011   4.119   5.565
 9084SOL     OW28150   2.561   2.806   5.970
 9084SOL    HW128151   2.635   2.750   5.932
 9084SOL    HW228152   2.598   2.891   6.006
 9085SOL     OW28153   1.218   5.113   0.574
 9085SOL    HW128154   1.296   5.106   0.511
 9085SOL    HW228155   1.133   5.098   0.524
 9086SOL     OW28156   6.829   4.683   0.942
 9086SOL    HW128157   6.835   4.652   0.847
 9086SOL    HW228158   6.907   4.742   0.962
 9087SOL     OW28159   4.539   2.894   1.635
 9087SOL    HW128160   4.548   2.945   1.721
 9087SOL    HW228161   4.550   2.797   1.653
 9088SOL     OW28162   6.764   6.314   0.974
 9088SOL    HW128163   6.724   6.223   0.987
 9088SOL    HW228164   6.861   6.311   1.000
 9089SOL     OW28165   4.671   5.942   5.499
 9089SOL    HW128166   4.759   5.919   5.539
 9089SOL    HW228167   4.606   5.964   5.572
 9090SOL     OW28168   6.195   6.385   3.441
 9090SOL    HW128169   6.187   6.452   3.367
 9090SOL    HW228170   6.174   6.428   3.528
 9091SOL     OW28171   2.737   3.851   0.609
 9091SOL    HW128172   2.794   3.902   0.545
 9091SOL    HW228173   2.649   3.830   0.567
 9092SOL     OW28174   0.004   1.255   0.653
 9092SOL    HW128175   7.001   1.288   0.743
 9092SOL    HW228176   6.996   1.160   0.642
 9093SOL     OW28177   2.027   6.009   6.626
 9093SOL    HW128178   2.027   5.909   6.630
 9093SOL    HW228179   2.068   6.039   6.540
 9094SOL     OW28180   6.509   5.104   2.962
 9094SOL    HW128181   6.589   5.150   2.924
 9094SOL    HW228182   6.452   5.170   3.011
 9095SOL     OW28183   4.522   3.820   6.929
 9095SOL    HW128184   4.602   3.832   6.869
 9095SOL    HW228185   4.547   3.844   7.022
 9096SOL     OW28186   5.592   4.140   1.747
 9096SOL    HW128187   5.657   4.123   1.673
 9096SOL    HW228188   5.607   4.074   1.820
 9097SOL     OW28189   0.832   2.571   0.160
 9097SOL    HW128190   0.919   2.535   0.195
 9097SOL    HW228191   0.850   2.642   0.092
 9098SOL     OW28192   3.703   2.348   6.655
 9098SOL    HW128193   3.609   2.370   6.678
 9098SOL    HW228194   3.705   2.289   6.574
 9099SOL     OW28195   2.983   3.307   0.001
 9099SOL    HW128196   2.925   3.387   0.012
 9099SOL    HW228197   2.941   3.244   6.960
 9100SOL     OW28198   1.035   3.510   3.957
 9100SOL    HW128199   0.980   3.593   3.954
 9100SOL    HW228200   1.070   3.496   4.050
 9101SOL     OW28201   2.637   2.376   3.008
 9101SOL    HW128202   2.577   2.298   3.026
 9101SOL    HW228203   2.582   2.456   2.986
 9102SOL     OW28204   2.865   0.113   2.218
 9102SOL    HW128205   2.837   0.074   2.130
 9102SOL    HW228206   2.847   0.211   2.219
 9103SOL     OW28207   6.626   3.368   6.985
 9103SOL    HW128208   6.695   3.303   7.019
 9103SOL    HW228209   6.535   3.331   7.000
 9104SOL     OW28210   5.692   6.374   2.757
 9104SOL    HW128211   5.698   6.276   2.777
 9104SOL    HW228212   5.610   6.411   2.801
 9105SOL     OW28213   1.924   1.389   0.319
 9105SOL    HW128214   2.020   1.414   0.325
 9105SOL    HW228215   1.900   1.371   0.224
 9106SOL     OW28216   6.894   3.727   0.075
 9106SOL    HW128217   6.868   3.798   0.009
 9106SOL    HW228218   6.871   3.637   0.037
 9107SOL     OW28219   3.243   0.763   5.977
 9107SOL    HW128220   3.305   0.688   5.955
 9107SOL    HW228221   3.294   0.838   6.020
 9108SOL     OW28222   4.690   3.789   5.786
 9108SOL    HW128223   4.652   3.839   5.864
 9108SOL    HW228224   4.671   3.839   5.702
 9109SOL     OW28225   0.838   2.933   2.695
 9109SOL    HW128226   0.938   2.945   2.699
 9109SOL    HW228227   0.794   3.023   2.687
 9110SOL     OW28228   1.839   4.035   3.871
 9110SOL    HW128229   1.879   4.015   3.781
 9110SOL    HW228230   1.743   4.060   3.860
 9111SOL     OW28231   4.378   1.377   0.654
 9111SOL    HW128232   4.284   1.392   0.623
 9111SOL    HW228233   4.394   1.280   0.668
 9112SOL     OW28234   0.605   4.616   4.101
 9112SOL    HW128235   0.657   4.675   4.163
 9112SOL    HW228236   0.636   4.629   4.007
 9113SOL     OW28237   5.587   1.193   2.356
 9113SOL    HW128238   5.645   1.130   2.304
 9113SOL    HW228239   5.505   1.144   2.388
 9114SOL     OW28240   0.623   4.743   1.660
 9114SOL    HW128241   0.698   4.803   1.686
 9114SOL    HW228242   0.574   4.782   1.583
 9115SOL     OW28243   0.002   4.675   5.324
 9115SOL    HW128244   6.947   4.732   5.300
 9115SOL    HW228245   6.994   4.599   5.381
 9116SOL     OW28246   6.524   1.532   1.222
 9116SOL    HW128247   6.476   1.454   1.182
 9116SOL    HW228248   6.548   1.511   1.317
 9117SOL     OW28249   6.005   2.759   7.006
 9117SOL    HW128250   5.985   2.807   0.068
 9117SOL    HW228251   6.043   2.669   0.003
 9118SOL     OW28252   6.565   3.945   0.564
 9118SOL    HW128253   6.504   3.870   0.591
 9118SOL    HW228254   6.659   3.922   0.587
 9119SOL     OW28255   4.941   0.894   1.635
 9119SOL    HW128256   4.934   0.902   1.535
 9119SOL    HW228257   4.886   0.965   1.678
 9120SOL     OW28258   6.030   1.790   5.871
 9120SOL    HW128259   5.994   1.881   5.892
 9120SOL    HW228260   6.116   1.798   5.821
 9121SOL     OW28261   3.064   1.075   5.229
 9121SOL    HW128262   2.972   1.110   5.213
 9121SOL    HW228263   3.093   1.100   5.321
 9122SOL     OW28264   1.492   4.031   2.329
 9122SOL    HW128265   1.469   4.125   2.356
 9122SOL    HW228266   1.446   4.009   2.242
 9123SOL     OW28267   1.960   1.195   4.201
 9123SOL    HW128268   2.049   1.209   4.157
 9123SOL    HW228269   1.904   1.277   4.190
 9124SOL     OW28270   5.377   6.586   0.039
 9124SOL    HW128271   5.346   6.640   6.984
 9124SOL    HW228272   5.443   6.517   0.008
 9125SOL     OW28273   4.851   3.933   0.968
 9125SOL    HW128274   4.772   3.876   0.993
 9125SOL    HW228275   4.885   3.979   1.050
 9126SOL     OW28276   5.816   3.099   1.610
 9126SOL    HW128277   5.805   3.118   1.708
 9126SOL    HW228278   5.760   3.163   1.558
 9127SOL     OW28279   6.893   1.584   6.136
 9127SOL    HW128280   6.797   1.588   6.107
 9127SOL    HW228281   6.905   1.634   6.221
 9128SOL     OW28282   5.363   1.505   5.097
 9128SOL    HW128283   5.284   1.514   5.037
 9128SOL    HW228284   5.340   1.443   5.172
 9129SOL     OW28285   0.714   2.078   0.225
 9129SOL    HW128286   0.795   2.105   0.276
 9129SOL    HW228287   0.647   2.037   0.287
 9130SOL     OW28288   0.046   3.461   6.245
 9130SOL    HW128289   0.076   3.370   6.271
 9130SOL    HW228290   0.113   3.503   6.183
 9131SOL     OW28291   5.836   2.493   4.731
 9131SOL    HW128292   5.829   2.394   4.723
 9131SOL    HW228293   5.912   2.517   4.793
 9132SOL     OW28294   0.809   5.406   4.447
 9132SOL    HW128295   0.828   5.483   4.508
 9132SOL    HW228296   0.867   5.413   4.365
 9133SOL     OW28297   3.494   6.469   1.379
 9133SOL    HW128298   3.416   6.407   1.387
 9133SOL    HW228299   3.577   6.423   1.411
 9134SOL     OW28300   4.579   5.622   1.102
 9134SOL    HW128301   4.606   5.525   1.110
 9134SOL    HW228302   4.488   5.635   1.141
 9135SOL     OW28303   6.507   6.895   1.578
 9135SOL    HW128304   6.558   6.976   1.604
 9135SOL    HW228305   6.417   6.897   1.621
 9136SOL     OW28306   4.904   6.526   6.558
 9136SOL    HW128307   4.821   6.533   6.503
 9136SOL    HW228308   4.882   6.486   6.647
 9137SOL     OW28309   5.425   1.476   0.668
 9137SOL    HW128310   5.442   1.380   0.646
 9137SOL    HW228311   5.341   1.483   0.723
 9138SOL     OW28312   0.305   5.730   6.650
 9138SOL    HW128313   0.320   5.829   6.656
 9138SOL    HW228314   0.389   5.685   6.620
 9139SOL     OW28315   2.635   1.888   3.354
 9139SOL    HW128316   2.580   1.844   3.424
 9139SOL    HW228317   2.726   1.909   3.391
 9140SOL     OW28318   0.042   3.444   2.644
 9140SOL    HW128319   0.046   3.351   2.681
 9140SOL    HW228320   6.972   3.476   2.645
 9141SOL     OW28321   5.509   0.636   0.893
 9141SOL    HW128322   5.581   0.576   0.858
 9141SOL    HW228323   5.440   0.650   0.822
 9142SOL     OW28324   0.649   2.583   1.065
 9142SOL    HW128325   0.652   2.539   0.976
 9142SOL    HW228326   0.652   2.683   1.053
 9143SOL     OW28327   6.192   3.432   6.894
 9143SOL    HW128328   6.116   3.447   6.957
 9143SOL    HW228329   6.157   3.404   6.805
 9144SOL     OW28330   2.412   5.135   4.519
 9144SOL    HW128331   2.422   5.233   4.538
 9144SOL    HW228332   2.497   5.087   4.540
 9145SOL     OW28333   0.178   5.679   0.334
 9145SOL    HW128334   0.238   5.705   0.259
 9145SOL    HW228335   0.085   5.714   0.316
 9146SOL     OW28336   5.441   2.958   3.469
 9146SOL    HW128337   5.394   2.969   3.382
 9146SOL    HW228338   5.374   2.956   3.544
 9147SOL     OW28339   6.290   0.359   5.319
 9147SOL    HW128340   6.369   0.370   5.260
 9147SOL    HW228341   6.214   0.413   5.283
 9148SOL     OW28342   5.325   5.864   1.467
 9148SOL    HW128343   5.374   5.933   1.414
 9148SOL    HW228344   5.311   5.782   1.411
 9149SOL     OW28345   5.866   4.173   2.492
 9149SOL    HW128346   5.810   4.160   2.574
 9149SOL    HW228347   5.963   4.171   2.517
 9150SOL     OW28348   3.732   5.238   1.353
 9150SOL    HW128349   3.666   5.261   1.424
 9150SOL    HW228350   3.702   5.277   1.266
 9151SOL     OW28351   2.276   4.171   3.346
 9151SOL    HW128352   2.277   4.206   3.252
 9151SOL    HW228353   2.204   4.218   3.398
 9152SOL     OW28354   2.012   4.321   4.733
 9152SOL    HW128355   2.060   4.234   4.723
 9152SOL    HW228356   2.076   4.397   4.718
 9153SOL     OW28357   0.431   2.833   6.656
 9153SOL    HW128358   0.331   2.836   6.648
 9153SOL    HW228359   0.462   2.911   6.711
 9154SOL     OW28360   4.754   4.600   0.015
 9154SOL    HW128361   4.671   4.637   6.997
 9154SOL    HW228362   4.828   4.599   6.972
 9155SOL     OW28363   1.803   3.515   2.380
 9155SOL    HW128364   1.790   3.419   2.404
 9155SOL    HW228365   1.882   3.551   2.431
 9156SOL     OW28366   1.069   2.390   0.172
 9156SOL    HW128367   1.159   2.348   0.185
 9156SOL    HW228368   1.006   2.320   0.136
 9157SOL     OW28369   1.491   4.059   6.192
 9157SOL    HW128370   1.437   3.994   6.245
 9157SOL    HW228371   1.562   4.099   6.249
 9158SOL     OW28372   5.389   3.430   4.663
 9158SOL    HW128373   5.438   3.351   4.699
 9158SOL    HW228374   5.420   3.513   4.708
 9159SOL     OW28375   1.682   1.081   1.927
 9159SOL    HW128376   1.736   1.001   1.900
 9159SOL    HW228377   1.644   1.066   2.018
 9160SOL     OW28378   6.959   6.031   5.492
 9160SOL    HW128379   0.005   6.093   5.456
 9160SOL    HW228380   6.943   5.958   5.426
 9161SOL     OW28381   5.484   4.680   3.942
 9161SOL    HW128382   5.424   4.686   4.022
 9161SOL    HW228383   5.559   4.746   3.952
 9162SOL     OW28384   4.275   1.322   3.485
 9162SOL    HW128385   4.264   1.267   3.568
 9162SOL    HW228386   4.194   1.379   3.472
 9163SOL     OW28387   1.043   2.694   5.050
 9163SOL    HW128388   0.996   2.677   5.136
 9163SOL    HW228389   0.991   2.763   4.998
 9164SOL     OW28390   2.737   0.007   6.721
 9164SOL    HW128391   2.702   0.067   6.793
 9164SOL    HW228392   2.806   6.969   6.759
 9165SOL     OW28393   6.573   1.141   5.249
 9165SOL    HW128394   6.597   1.233   5.278
 9165SOL    HW228395   6.478   1.140   5.216
 9166SOL     OW28396   4.354   6.170   1.587
 9166SOL    HW128397   4.401   6.092   1.628
 9166SOL    HW228398   4.275   6.137   1.535
 9167SOL     OW28399   2.428   2.119   6.135
 9167SOL    HW128400   2.444   2.213   6.105
 9167SOL    HW228401   2.500   2.091   6.198
 9168SOL     OW28402   0.057   6.226   5.859
 9168SOL    HW128403   6.998   6.194   5.905
 9168SOL    HW228404   0.132   6.161   5.875
 9169SOL     OW28405   6.452   0.524   6.114
 9169SOL    HW128406   6.420   0.528   6.208
 9169SOL    HW228407   6.552   0.521   6.113
 9170SOL     OW28408   1.257   0.328   6.761
 9170SOL    HW128409   1.257   0.230   6.741
 9170SOL    HW228410   1.335   0.371   6.718
 9171SOL     OW28411   4.062   5.091   0.433
 9171SOL    HW128412   4.132   5.023   0.456
 9171SOL    HW228413   3.973   5.046   0.431
 9172SOL     OW28414   5.261   0.810   2.640
 9172SOL    HW128415   5.251   0.721   2.686
 9172SOL    HW228416   5.299   0.877   2.703
 9173SOL     OW28417   6.070   4.114   6.056
 9173SOL    HW128418   6.017   4.046   6.106
 9173SOL    HW228419   6.044   4.205   6.086
 9174SOL     OW28420   6.496   4.398   0.896
 9174SOL    HW128421   6.555   4.479   0.896
 9174SOL    HW228422   6.545   4.321   0.855
 9175SOL     OW28423   1.280   6.334   6.626
 9175SOL    HW128424   1.317   6.367   6.712
 9175SOL    HW228425   1.258   6.237   6.633
 9176SOL     OW28426   2.325   1.157   3.475
 9176SOL    HW128427   2.249   1.095   3.457
 9176SOL    HW228428   2.378   1.169   3.391
 9177SOL     OW28429   0.624   4.673   4.382
 9177SOL    HW128430   0.670   4.758   4.407
 9177SOL    HW228431   0.684   4.595   4.402
 9178SOL     OW28432   1.713   5.272   0.799
 9178SOL    HW128433   1.724   5.358   0.748
 9178SOL    HW228434   1.718   5.195   0.736
 9179SOL     OW28435   1.989   5.054   3.920
 9179SOL    HW128436   1.899   5.073   3.882
 9179SOL    HW228437   2.000   5.104   4.006
 9180SOL     OW28438   6.608   3.159   3.659
 9180SOL    HW128439   6.695   3.165   3.610
 9180SOL    HW228440   6.625   3.145   3.756
 9181SOL     OW28441   5.874   2.796   4.433
 9181SOL    HW128442   5.786   2.843   4.436
 9181SOL    HW228443   5.866   2.706   4.477
 9182SOL     OW28444   2.740   6.919   3.139
 9182SOL    HW128445   2.784   7.008   3.129
 9182SOL    HW228446   2.675   6.922   3.214
 9183SOL     OW28447   4.627   4.145   0.028
 9183SOL    HW128448   4.528   4.134   0.037
 9183SOL    HW228449   4.674   4.068   0.072
 9184SOL     OW28450   4.364   2.027   1.032
 9184SOL    HW128451   4.398   2.116   1.062
 9184SOL    HW228452   4.270   2.037   1.000
 9185SOL     OW28453   5.051   6.722   5.136
 9185SOL    HW128454   5.080   6.781   5.061
 9185SOL    HW228455   5.131   6.683   5.182
 9186SOL     OW28456   6.064   6.618   4.773
 9186SOL    HW128457   6.158   6.621   4.739
 9186SOL    HW228458   6.053   6.539   4.833
 9187SOL     OW28459   3.579   1.751   0.575
 9187SOL    HW128460   3.479   1.743   0.567
 9187SOL    HW228461   3.621   1.716   0.491
 9188SOL     OW28462   2.131   0.661   1.855
 9188SOL    HW128463   2.157   0.657   1.759
 9188SOL    HW228464   2.053   0.600   1.871
 9189SOL     OW28465   3.361   5.463   1.917
 9189SOL    HW128466   3.291   5.499   1.980
 9189SOL    HW228467   3.380   5.531   1.846
 9190SOL     OW28468   1.584   3.931   5.091
 9190SOL    HW128469   1.676   3.960   5.117
 9190SOL    HW228470   1.573   3.938   4.992
 9191SOL     OW28471   5.436   1.210   0.251
 9191SOL    HW128472   5.475   1.228   0.342
 9191SOL    HW228473   5.426   1.297   0.202
 9192SOL     OW28474   6.846   2.473   6.329
 9192SOL    HW128475   6.825   2.392   6.273
 9192SOL    HW228476   6.877   2.443   6.420
 9193SOL     OW28477   4.165   3.743   5.207
 9193SOL    HW128478   4.169   3.648   5.238
 9193SOL    HW228479   4.115   3.747   5.120
 9194SOL     OW28480   2.996   1.224   2.928
 9194SOL    HW128481   2.932   1.289   2.888
 9194SOL    HW228482   2.981   1.134   2.888
 9195SOL     OW28483   0.621   3.652   3.223
 9195SOL    HW128484   0.662   3.629   3.311
 9195SOL    HW228485   0.580   3.570   3.183
 9196SOL     OW28486   5.634   6.746   3.709
 9196SOL    HW128487   5.645   6.835   3.753
 9196SOL    HW228488   5.541   6.739   3.673
 9197SOL     OW28489   2.882   5.014   1.416
 9197SOL    HW128490   2.813   5.034   1.346
 9197SOL    HW228491   2.920   4.923   1.399
 9198SOL     OW28492   6.405   4.381   6.778
 9198SOL    HW128493   6.339   4.341   6.714
 9198SOL    HW228494   6.498   4.364   6.745
 9199SOL     OW28495   6.778   3.326   5.492
 9199SOL    HW128496   6.864   3.293   5.452
 9199SOL    HW228497   6.726   3.249   5.528
 9200SOL     OW28498   3.259   6.371   6.287
 9200SOL    HW128499   3.282   6.310   6.363
 9200SOL    HW228500   3.269   6.320   6.201
 9201SOL     OW28501   0.180   3.781   0.000
 9201SOL    HW128502   0.191   3.793   6.925
 9201SOL    HW228503   0.099   3.726   0.019
 9202SOL     OW28504   0.811   5.924   3.795
 9202SOL    HW128505   0.814   5.881   3.705
 9202SOL    HW228506   0.722   5.968   3.809
 9203SOL     OW28507   6.288   2.721   6.060
 9203SOL    HW128508   6.209   2.659   6.053
 9203SOL    HW228509   6.304   2.743   6.156
 9204SOL     OW28510   4.903   3.433   4.543
 9204SOL    HW128511   4.872   3.420   4.637
 9204SOL    HW228512   4.992   3.390   4.531
 9205SOL     OW28513   5.176   5.778   3.596
 9205SOL    HW128514   5.164   5.876   3.582
 9205SOL    HW228515   5.096   5.742   3.644
 9206SOL     OW28516   3.313   5.461   3.253
 9206SOL    HW128517   3.302   5.413   3.340
 9206SOL    HW228518   3.223   5.476   3.212
 9207SOL     OW28519   4.651   4.212   0.354
 9207SOL    HW128520   4.580   4.282   0.347
 9207SOL    HW228521   4.632   4.139   0.288
 9208SOL     OW28522   5.207   4.740   3.104
 9208SOL    HW128523   5.189   4.838   3.100
 9208SOL    HW228524   5.255   4.712   3.021
 9209SOL     OW28525   4.826   1.074   0.096
 9209SOL    HW128526   4.903   1.137   0.087
 9209SOL    HW228527   4.850   0.986   0.056
 9210SOL     OW28528   1.331   1.985   1.280
 9210SOL    HW128529   1.249   1.953   1.326
 9210SOL    HW228530   1.310   2.067   1.226
 9211SOL     OW28531   5.968   2.826   5.766
 9211SOL    HW128532   5.899   2.898   5.754
 9211SOL    HW228533   6.045   2.862   5.819
 9212SOL     OW28534   4.788   5.275   4.335
 9212SOL    HW128535   4.765   5.366   4.371
 9212SOL    HW228536   4.741   5.205   4.389
 9213SOL     OW28537   5.589   4.726   5.061
 9213SOL    HW128538   5.527   4.683   5.128
 9213SOL    HW228539   5.664   4.770   5.109
 9214SOL     OW28540   7.022   3.397   5.636
 9214SOL    HW128541   0.028   3.312   5.592
 9214SOL    HW228542   6.924   3.410   5.622
 9215SOL     OW28543   2.112   3.429   2.301
 9215SOL    HW128544   2.093   3.511   2.248
 9215SOL    HW228545   2.190   3.381   2.262
 9216SOL     OW28546   2.612   6.904   3.394
 9216SOL    HW128547   2.551   6.920   3.471
 9216SOL    HW228548   2.584   6.820   3.346
 9217SOL     OW28549   6.027   3.532   6.036
 9217SOL    HW128550   6.107   3.557   6.091
 9217SOL    HW228551   5.973   3.465   6.087
 9218SOL     OW28552   3.496   0.859   0.043
 9218SOL    HW128553   3.495   0.817   6.976
 9218SOL    HW228554   3.544   0.947   0.038
 9219SOL     OW28555   5.481   4.013   6.256
 9219SOL    HW128556   5.495   4.099   6.207
 9219SOL    HW228557   5.567   3.983   6.296
 9220SOL     OW28558   0.925   6.200   1.642
 9220SOL    HW128559   1.009   6.147   1.654
 9220SOL    HW228560   0.936   6.291   1.682
 9221SOL     OW28561   1.614   0.635   2.802
 9221SOL    HW128562   1.555   0.590   2.735
 9221SOL    HW228563   1.557   0.677   2.873
 9222SOL     OW28564   2.587   5.920   5.705
 9222SOL    HW128565   2.497   5.963   5.703
 9222SOL    HW228566   2.604   5.882   5.796
 9223SOL     OW28567   1.329   1.924   4.300
 9223SOL    HW128568   1.321   1.975   4.385
 9223SOL    HW228569   1.238   1.892   4.272
 9224SOL     OW28570   0.909   5.423   4.203
 9224SOL    HW128571   0.860   5.487   4.145
 9224SOL    HW228572   0.892   5.329   4.172
 9225SOL     OW28573   3.129   6.119   6.340
 9225SOL    HW128574   3.175   6.063   6.272
 9225SOL    HW228575   3.117   6.212   6.304
 9226SOL     OW28576   0.025   6.723   1.281
 9226SOL    HW128577   0.010   6.626   1.300
 9226SOL    HW228578   0.071   6.732   1.192
 9227SOL     OW28579   1.983   5.518   1.308
 9227SOL    HW128580   1.958   5.473   1.394
 9227SOL    HW228581   2.082   5.515   1.296
 9228SOL     OW28582   3.087   1.043   6.846
 9228SOL    HW128583   3.145   1.082   6.774
 9228SOL    HW228584   3.077   1.110   6.920
 9229SOL     OW28585   1.400   5.301   5.285
 9229SOL    HW128586   1.430   5.341   5.372
 9229SOL    HW228587   1.308   5.262   5.297
 9230SOL     OW28588   5.266   2.942   3.231
 9230SOL    HW128589   5.201   2.876   3.267
 9230SOL    HW228590   5.311   2.904   3.150
 9231SOL     OW28591   1.192   3.536   4.586
 9231SOL    HW128592   1.101   3.520   4.548
 9231SOL    HW228593   1.185   3.545   4.685
 9232SOL     OW28594   3.517   4.933   6.490
 9232SOL    HW128595   3.431   4.980   6.468
 9232SOL    HW228596   3.593   4.997   6.477
 9233SOL     OW28597   5.758   5.959   2.039
 9233SOL    HW128598   5.735   5.887   1.974
 9233SOL    HW228599   5.842   6.006   2.009
 9234SOL     OW28600   3.662   5.123   6.930
 9234SOL    HW128601   3.745   5.169   6.899
 9234SOL    HW228602   3.605   5.188   6.980
 9235SOL     OW28603   1.738   2.824   3.880
 9235SOL    HW128604   1.795   2.814   3.961
 9235SOL    HW228605   1.646   2.854   3.908
 9236SOL     OW28606   2.043   4.284   6.661
 9236SOL    HW128607   1.987   4.202   6.673
 9236SOL    HW228608   1.987   4.358   6.623
 9237SOL     OW28609   0.226   6.308   3.300
 9237SOL    HW128610   0.233   6.386   3.238
 9237SOL    HW228611   0.307   6.249   3.289
 9238SOL     OW28612   1.710   2.337   6.724
 9238SOL    HW128613   1.694   2.412   6.789
 9238SOL    HW228614   1.793   2.356   6.672
 9239SOL     OW28615   0.128   3.823   6.766
 9239SOL    HW128616   0.208   3.883   6.756
 9239SOL    HW228617   0.046   3.871   6.734
 9240SOL     OW28618   5.459   2.468   2.305
 9240SOL    HW128619   5.361   2.463   2.324
 9240SOL    HW228620   5.485   2.396   2.240
 9241SOL     OW28621   0.876   5.375   5.947
 9241SOL    HW128622   0.861   5.307   5.875
 9241SOL    HW228623   0.877   5.330   6.036
 9242SOL     OW28624   1.408   5.018   0.388
 9242SOL    HW128625   1.360   5.005   0.301
 9242SOL    HW228626   1.451   4.932   0.415
 9243SOL     OW28627   0.803   0.174   1.519
 9243SOL    HW128628   0.765   0.107   1.455
 9243SOL    HW228629   0.760   0.263   1.502
 9244SOL     OW28630   3.803   5.035   6.048
 9244SOL    HW128631   3.731   4.989   6.100
 9244SOL    HW228632   3.804   5.133   6.071
 9245SOL     OW28633   1.262   5.545   4.082
 9245SOL    HW128634   1.214   5.575   4.000
 9245SOL    HW228635   1.206   5.479   4.132
 9246SOL     OW28636   6.299   6.704   1.931
 9246SOL    HW128637   6.305   6.760   2.013
 9246SOL    HW228638   6.389   6.695   1.890
 9247SOL     OW28639   2.208   6.341   3.319
 9247SOL    HW128640   2.120   6.378   3.349
 9247SOL    HW228641   2.201   6.308   3.225
 9248SOL     OW28642   2.687   1.950   4.439
 9248SOL    HW128643   2.736   1.950   4.352
 9248SOL    HW228644   2.722   2.025   4.496
 9249SOL     OW28645   3.677   4.649   0.868
 9249SOL    HW128646   3.647   4.739   0.901
 9249SOL    HW228647   3.648   4.579   0.933
 9250SOL     OW28648   5.926   3.069   3.838
 9250SOL    HW128649   5.862   3.139   3.808
 9250SOL    HW228650   5.900   2.981   3.798
 9251SOL     OW28651   3.950   1.366   2.757
 9251SOL    HW128652   3.930   1.289   2.818
 9251SOL    HW228653   4.027   1.419   2.794
 9252SOL     OW28654   5.135   0.785   3.996
 9252SOL    HW128655   5.180   0.696   3.989
 9252SOL    HW228656   5.046   0.781   3.952
 9253SOL     OW28657   5.331   5.347   6.158
 9253SOL    HW128658   5.358   5.252   6.169
 9253SOL    HW228659   5.231   5.355   6.166
 9254SOL     OW28660   5.839   5.073   3.769
 9254SOL    HW128661   5.754   5.022   3.786
 9254SOL    HW228662   5.901   5.060   3.847
 9255SOL     OW28663   4.465   4.199   0.719
 9255SOL    HW128664   4.432   4.136   0.649
 9255SOL    HW228665   4.388   4.246   0.762
 9256SOL     OW28666   2.941   0.559   2.736
 9256SOL    HW128667   3.007   0.544   2.662
 9256SOL    HW228668   2.989   0.570   2.823
 9257SOL     OW28669   0.486   4.432   3.239
 9257SOL    HW128670   0.418   4.404   3.171
 9257SOL    HW228671   0.534   4.514   3.207
 9258SOL     OW28672   3.221   3.705   2.890
 9258SOL    HW128673   3.299   3.707   2.952
 9258SOL    HW228674   3.253   3.711   2.795
 9259SOL     OW28675   0.372   2.443   6.802
 9259SOL    HW128676   0.457   2.414   6.846
 9259SOL    HW228677   0.390   2.464   6.706
 9260SOL     OW28678   6.118   1.618   4.983
 9260SOL    HW128679   6.150   1.600   5.076
 9260SOL    HW228680   6.019   1.603   4.978
 9261SOL     OW28681   2.568   1.556   0.281
 9261SOL    HW128682   2.661   1.560   0.318
 9261SOL    HW228683   2.525   1.470   0.308
 9262SOL     OW28684   6.579   4.907   5.173
 9262SOL    HW128685   6.530   4.914   5.260
 9262SOL    HW228686   6.515   4.883   5.100
 9263SOL     OW28687   4.987   0.070   1.737
 9263SOL    HW128688   4.900   0.026   1.716
 9263SOL    HW228689   5.000   0.072   1.836
 9264SOL     OW28690   4.909   4.554   0.411
 9264SOL    HW128691   4.929   4.481   0.345
 9264SOL    HW228692   4.905   4.641   0.363
 9265SOL     OW28693   3.765   2.072   0.425
 9265SOL    HW128694   3.702   2.145   0.398
 9265SOL    HW228695   3.741   2.038   0.515
 9266SOL     OW28696   1.323   6.611   1.195
 9266SOL    HW128697   1.355   6.706   1.192
 9266SOL    HW228698   1.224   6.610   1.214
 9267SOL     OW28699   6.740   2.625   4.536
 9267SOL    HW128700   6.700   2.581   4.455
 9267SOL    HW228701   6.695   2.713   4.551
 9268SOL     OW28702   1.270   5.375   2.332
 9268SOL    HW128703   1.257   5.279   2.354
 9268SOL    HW228704   1.344   5.385   2.265
 9269SOL     OW28705   3.758   1.190   6.590
 9269SOL    HW128706   3.810   1.220   6.510
 9269SOL    HW228707   3.822   1.158   6.661
 9270SOL     OW28708   4.273   6.935   5.924
 9270SOL    HW128709   4.300   7.004   5.991
 9270SOL    HW228710   4.288   6.971   5.832
 9271SOL     OW28711   5.758   0.078   0.989
 9271SOL    HW128712   5.839   0.067   1.046
 9271SOL    HW228713   5.731   0.174   0.988
 9272SOL     OW28714   1.119   6.040   5.102
 9272SOL    HW128715   1.200   6.005   5.148
 9272SOL    HW228716   1.042   5.977   5.116
 9273SOL     OW28717   5.298   6.771   2.992
 9273SOL    HW128718   5.309   6.711   2.912
 9273SOL    HW228719   5.254   6.719   3.066
 9274SOL     OW28720   6.295   1.353   0.038
 9274SOL    HW128721   6.307   1.378   0.134
 9274SOL    HW228722   6.254   1.431   7.012
 9275SOL     OW28723   6.250   1.017   0.462
 9275SOL    HW128724   6.233   0.962   0.380
 9275SOL    HW228725   6.339   1.061   0.455
 9276SOL     OW28726   1.558   3.294   1.720
 9276SOL    HW128727   1.461   3.303   1.744
 9276SOL    HW228728   1.577   3.350   1.639
 9277SOL     OW28729   4.571   3.853   0.750
 9277SOL    HW128730   4.539   3.797   0.826
 9277SOL    HW228731   4.494   3.901   0.709
 9278SOL     OW28732   1.995   0.183   5.938
 9278SOL    HW128733   1.971   0.234   6.021
 9278SOL    HW228734   2.008   0.247   5.863
 9279SOL     OW28735   3.649   1.087   2.243
 9279SOL    HW128736   3.623   1.139   2.162
 9279SOL    HW228737   3.568   1.065   2.297
 9280SOL     OW28738   2.297   1.759   3.116
 9280SOL    HW128739   2.261   1.731   3.204
 9280SOL    HW228740   2.306   1.679   3.056
 9281SOL     OW28741   2.192   3.366   6.608
 9281SOL    HW128742   2.192   3.435   6.535
 9281SOL    HW228743   2.278   3.316   6.606
 9282SOL     OW28744   5.387   0.483   3.722
 9282SOL    HW128745   5.339   0.482   3.811
 9282SOL    HW228746   5.336   0.540   3.658
 9283SOL     OW28747   5.279   0.867   3.759
 9283SOL    HW128748   5.255   0.805   3.683
 9283SOL    HW228749   5.215   0.852   3.834
 9284SOL     OW28750   2.590   3.438   5.604
 9284SOL    HW128751   2.570   3.340   5.596
 9284SOL    HW228752   2.612   3.460   5.700
 9285SOL     OW28753   4.645   2.250   0.916
 9285SOL    HW128754   4.640   2.277   0.820
 9285SOL    HW228755   4.563   2.281   0.964
 9286SOL     OW28756   5.253   5.510   1.083
 9286SOL    HW128757   5.282   5.524   1.178
 9286SOL    HW228758   5.274   5.416   1.056
 9287SOL     OW28759   3.445   4.821   0.414
 9287SOL    HW128760   3.378   4.864   0.353
 9287SOL    HW228761   3.398   4.770   0.485
 9288SOL     OW28762   4.639   1.859   2.935
 9288SOL    HW128763   4.684   1.771   2.944
 9288SOL    HW228764   4.606   1.870   2.841
 9289SOL     OW28765   3.769   0.654   2.105
 9289SOL    HW128766   3.692   0.590   2.109
 9289SOL    HW228767   3.758   0.716   2.027
 9290SOL     OW28768   5.815   0.980   2.747
 9290SOL    HW128769   5.747   0.919   2.706
 9290SOL    HW228770   5.781   1.012   2.836
 9291SOL     OW28771   1.271   5.854   5.280
 9291SOL    HW128772   1.229   5.764   5.266
 9291SOL    HW228773   1.359   5.843   5.326
 9292SOL     OW28774   1.859   2.898   6.454
 9292SOL    HW128775   1.899   2.915   6.544
 9292SOL    HW228776   1.866   2.800   6.433
 9293SOL     OW28777   5.311   3.004   6.386
 9293SOL    HW128778   5.279   2.990   6.292
 9293SOL    HW228779   5.242   3.056   6.437
 9294SOL     OW28780   4.364   0.451   5.769
 9294SOL    HW128781   4.461   0.427   5.765
 9294SOL    HW228782   4.322   0.435   5.680
 9295SOL     OW28783   5.302   1.263   4.782
 9295SOL    HW128784   5.325   1.360   4.782
 9295SOL    HW228785   5.386   1.208   4.778
 9296SOL     OW28786   1.748   5.795   0.067
 9296SOL    HW128787   1.812   5.869   0.088
 9296SOL    HW228788   1.665   5.807   0.121
 9297SOL     OW28789   0.434   6.847   2.326
 9297SOL    HW128790   0.380   6.836   2.242
 9297SOL    HW228791   0.497   6.923   2.314
 9298SOL     OW28792   1.052   6.452   6.326
 9298SOL    HW128793   1.151   6.460   6.336
 9298SOL    HW228794   1.016   6.530   6.274
 9299SOL     OW28795   0.252   2.275   4.988
 9299SOL    HW128796   0.177   2.333   4.956
 9299SOL    HW228797   0.324   2.333   5.026
 9300SOL     OW28798   0.226   4.439   5.883
 9300SOL    HW128799   0.324   4.457   5.884
 9300SOL    HW228800   0.210   4.340   5.883
 9301SOL     OW28801   5.405   5.385   4.416
 9301SOL    HW128802   5.399   5.381   4.516
 9301SOL    HW228803   5.447   5.301   4.382
 9302SOL     OW28804   2.067   2.698   4.041
 9302SOL    HW128805   1.989   2.636   4.037
 9302SOL    HW228806   2.085   2.735   3.950
 9303SOL     OW28807   2.635   4.014   0.788
 9303SOL    HW128808   2.692   3.958   0.727
 9303SOL    HW228809   2.613   3.961   0.870
 9304SOL     OW28810   4.076   4.685   1.684
 9304SOL    HW128811   3.981   4.665   1.659
 9304SOL    HW228812   4.134   4.678   1.603
 9305SOL     OW28813   3.260   0.926   0.843
 9305SOL    HW128814   3.263   0.938   0.942
 9305SOL    HW228815   3.300   1.006   0.799
 9306SOL     OW28816   0.516   5.342   5.369
 9306SOL    HW128817   0.444   5.273   5.374
 9306SOL    HW228818   0.604   5.297   5.353
 9307SOL     OW28819   1.075   3.345   1.221
 9307SOL    HW128820   1.163   3.304   1.246
 9307SOL    HW228821   1.003   3.310   1.282
 9308SOL     OW28822   2.275   3.554   0.502
 9308SOL    HW128823   2.229   3.634   0.463
 9308SOL    HW228824   2.257   3.549   0.600
 9309SOL     OW28825   3.742   4.616   6.007
 9309SOL    HW128826   3.766   4.597   6.102
 9309SOL    HW228827   3.732   4.715   5.995
 9310SOL     OW28828   4.989   5.333   6.498
 9310SOL    HW128829   5.028   5.360   6.586
 9310SOL    HW228830   4.934   5.251   6.511
 9311SOL     OW28831   4.645   4.628   1.773
 9311SOL    HW128832   4.673   4.683   1.852
 9311SOL    HW228833   4.552   4.652   1.746
 9312SOL     OW28834   1.174   3.843   0.751
 9312SOL    HW128835   1.184   3.918   0.815
 9312SOL    HW228836   1.256   3.786   0.753
 9313SOL     OW28837   0.312   0.602   0.762
 9313SOL    HW128838   0.272   0.693   0.754
 9313SOL    HW228839   0.410   0.610   0.783
 9314SOL     OW28840   6.112   4.271   6.745
 9314SOL    HW128841   6.044   4.237   6.809
 9314SOL    HW228842   6.069   4.334   6.680
 9315SOL     OW28843   6.190   0.093   5.279
 9315SOL    HW128844   6.248   0.172   5.258
 9315SOL    HW228845   6.243   0.024   5.327
 9316SOL     OW28846   5.642   6.731   5.995
 9316SOL    HW128847   5.721   6.718   6.055
 9316SOL    HW228848   5.603   6.821   6.010
 9317SOL     OW28849   5.571   5.004   3.879
 9317SOL    HW128850   5.521   4.989   3.793
 9317SOL    HW228851   5.536   5.087   3.923
 9318SOL     OW28852   5.688   1.226   5.600
 9318SOL    HW128853   5.777   1.259   5.568
 9318SOL    HW228854   5.697   1.131   5.631
 9319SOL     OW28855   2.760   2.325   6.695
 9319SOL    HW128856   2.662   2.308   6.685
 9319SOL    HW228857   2.786   2.320   6.792
 9320SOL     OW28858   3.117   0.423   4.949
 9320SOL    HW128859   3.023   0.457   4.951
 9320SOL    HW228860   3.158   0.446   4.860
 9321SOL     OW28861   0.546   0.456   4.448
 9321SOL    HW128862   0.604   0.463   4.366
 9321SOL    HW228863   0.568   0.530   4.511
 9322SOL     OW28864   6.852   3.764   5.972
 9322SOL    HW128865   6.845   3.671   5.936
 9322SOL    HW228866   6.819   3.766   6.066
 9323SOL     OW28867   1.415   0.591   5.191
 9323SOL    HW128868   1.413   0.507   5.246
 9323SOL    HW228869   1.438   0.668   5.249
 9324SOL     OW28870   1.476   4.215   1.619
 9324SOL    HW128871   1.434   4.207   1.529
 9324SOL    HW228872   1.413   4.259   1.682
 9325SOL     OW28873   5.696   1.434   0.202
 9325SOL    HW128874   5.747   1.482   0.130
 9325SOL    HW228875   5.746   1.353   0.230
 9326SOL     OW28876   2.607   4.911   0.625
 9326SOL    HW128877   2.578   5.002   0.655
 9326SOL    HW228878   2.556   4.842   0.675
 9327SOL     OW28879   5.007   0.335   2.659
 9327SOL    HW128880   5.008   0.340   2.759
 9327SOL    HW228881   5.101   0.327   2.626
 9328SOL     OW28882   2.526   0.909   4.887
 9328SOL    HW128883   2.588   0.832   4.897
 9328SOL    HW228884   2.561   0.972   4.817
 9329SOL     OW28885   6.026   3.802   0.697
 9329SOL    HW128886   5.982   3.872   0.642
 9329SOL    HW228887   6.002   3.712   0.663
 9330SOL     OW28888   6.130   0.310   5.538
 9330SOL    HW128889   6.123   0.403   5.577
 9330SOL    HW228890   6.211   0.303   5.481
 9331SOL     OW28891   2.007   0.940   6.866
 9331SOL    HW128892   2.100   0.949   6.831
 9331SOL    HW228893   1.977   0.845   6.856
 9332SOL     OW28894   4.057   4.497   0.575
 9332SOL    HW128895   3.996   4.572   0.602
 9332SOL    HW228896   4.075   4.439   0.655
 9333SOL     OW28897   3.707   4.085   6.824
 9333SOL    HW128898   3.715   4.135   6.910
 9333SOL    HW228899   3.760   4.131   6.753
 9334SOL     OW28900   5.072   6.434   3.715
 9334SOL    HW128901   5.149   6.405   3.771
 9334SOL    HW228902   5.102   6.446   3.620
 9335SOL     OW28903   1.064   0.798   6.853
 9335SOL    HW128904   0.978   0.748   6.865
 9335SOL    HW228905   1.085   0.804   6.755
 9336SOL     OW28906   3.468   6.521   5.356
 9336SOL    HW128907   3.395   6.497   5.293
 9336SOL    HW228908   3.436   6.510   5.450
 9337SOL     OW28909   4.096   1.393   4.626
 9337SOL    HW128910   4.102   1.383   4.527
 9337SOL    HW228911   4.170   1.340   4.669
 9338SOL     OW28912   6.305   0.220   1.597
 9338SOL    HW128913   6.236   0.194   1.664
 9338SOL    HW228914   6.280   0.181   1.508
 9339SOL     OW28915   6.153   6.365   0.896
 9339SOL    HW128916   6.055   6.380   0.885
 9339SOL    HW228917   6.201   6.402   0.816
 9340SOL     OW28918   4.911   4.707   3.361
 9340SOL    HW128919   4.833   4.761   3.392
 9340SOL    HW228920   4.996   4.751   3.391
 9341SOL     OW28921   6.790   5.145   1.060
 9341SOL    HW128922   6.696   5.173   1.038
 9341SOL    HW228923   6.854   5.200   1.007
 9342SOL     OW28924   3.148   6.618   3.731
 9342SOL    HW128925   3.180   6.646   3.640
 9342SOL    HW228926   3.183   6.683   3.799
 9343SOL     OW28927   5.096   3.959   1.619
 9343SOL    HW128928   5.049   4.027   1.563
 9343SOL    HW228929   5.182   3.997   1.654
 9344SOL     OW28930   5.167   6.681   2.004
 9344SOL    HW128931   5.079   6.679   2.050
 9344SOL    HW228932   5.239   6.650   2.067
 9345SOL     OW28933   6.852   5.778   1.878
 9345SOL    HW128934   6.795   5.705   1.842
 9345SOL    HW228935   6.841   5.860   1.822
 9346SOL     OW28936   5.423   0.988   1.378
 9346SOL    HW128937   5.407   0.901   1.424
 9346SOL    HW228938   5.512   0.986   1.333
 9347SOL     OW28939   3.588   4.090   0.223
 9347SOL    HW128940   3.615   4.019   0.288
 9347SOL    HW228941   3.520   4.150   0.264
 9348SOL     OW28942   2.206   6.275   3.040
 9348SOL    HW128943   2.293   6.303   3.000
 9348SOL    HW228944   2.151   6.228   2.971
 9349SOL     OW28945   6.299   5.082   2.222
 9349SOL    HW128946   6.388   5.036   2.226
 9349SOL    HW228947   6.256   5.064   2.134
 9350SOL     OW28948   6.911   2.590   5.573
 9350SOL    HW128949   6.856   2.644   5.636
 9350SOL    HW228950   6.950   2.650   5.503
 9351SOL     OW28951   3.431   0.223   6.316
 9351SOL    HW128952   3.474   0.240   6.405
 9351SOL    HW228953   3.500   0.229   6.244
 9352SOL     OW28954   3.883   1.207   6.352
 9352SOL    HW128955   3.854   1.241   6.262
 9352SOL    HW228956   3.906   1.110   6.345
 9353SOL     OW28957   0.562   4.019   0.809
 9353SOL    HW128958   0.640   4.077   0.832
 9353SOL    HW228959   0.565   3.996   0.712
 9354SOL     OW28960   0.260   2.265   5.983
 9354SOL    HW128961   0.168   2.229   5.968
 9354SOL    HW228962   0.266   2.301   6.076
 9355SOL     OW28963   0.121   2.141   4.742
 9355SOL    HW128964   0.068   2.094   4.672
 9355SOL    HW228965   0.218   2.121   4.728
 9356SOL     OW28966   4.576   6.510   1.988
 9356SOL    HW128967   4.532   6.473   1.906
 9356SOL    HW228968   4.507   6.537   2.054
 9357SOL     OW28969   1.352   3.224   6.509
 9357SOL    HW128970   1.330   3.161   6.435
 9357SOL    HW228971   1.443   3.202   6.545
 9358SOL     OW28972   0.107   3.109   2.210
 9358SOL    HW128973   0.060   3.046   2.271
 9358SOL    HW228974   0.055   3.194   2.203
 9359SOL     OW28975   1.756   3.642   5.902
 9359SOL    HW128976   1.672   3.610   5.859
 9359SOL    HW228977   1.824   3.662   5.832
 9360SOL     OW28978   1.401   5.761   6.847
 9360SOL    HW128979   1.497   5.789   6.846
 9360SOL    HW228980   1.377   5.721   6.758
 9361SOL     OW28981   1.770   5.435   2.382
 9361SOL    HW128982   1.699   5.385   2.334
 9361SOL    HW228983   1.730   5.482   2.461
 9362SOL     OW28984   2.016   2.785   2.345
 9362SOL    HW128985   2.028   2.759   2.440
 9362SOL    HW228986   2.046   2.880   2.332
 9363SOL     OW28987   3.775   6.398   1.942
 9363SOL    HW128988   3.699   6.433   1.997
 9363SOL    HW228989   3.740   6.341   1.868
 9364SOL     OW28990   3.835   2.950   6.079
 9364SOL    HW128991   3.907   3.001   6.126
 9364SOL    HW228992   3.820   2.989   5.988
 9365SOL     OW28993   2.359   1.943   3.979
 9365SOL    HW128994   2.286   1.944   4.048
 9365SOL    HW228995   2.341   2.013   3.910
 9366SOL     OW28996   3.566   5.580   6.166
 9366SOL    HW128997   3.523   5.497   6.200
 9366SOL    HW228998   3.644   5.603   6.223
 9367SOL     OW28999   0.268   6.812   3.141
 9367SOL    HW129000   0.204   6.851   3.075
 9367SOL    HW229001   0.231   6.728   3.178
 9368SOL     OW29002   2.831   1.028   2.473
 9368SOL    HW129003   2.833   1.077   2.386
 9368SOL    HW229004   2.891   0.949   2.468
 9369SOL     OW29005   6.508   5.817   4.850
 9369SOL    HW129006   6.529   5.914   4.839
 9369SOL    HW229007   6.421   5.807   4.899
 9370SOL     OW29008   5.551   0.093   3.491
 9370SOL    HW129009   5.454   0.070   3.488
 9370SOL    HW229010   5.571   0.144   3.576
 9371SOL     OW29011   2.796   5.244   0.774
 9371SOL    HW129012   2.791   5.344   0.773
 9371SOL    HW229013   2.851   5.214   0.852
 9372SOL     OW29014   4.935   0.861   1.951
 9372SOL    HW129015   4.932   0.761   1.957
 9372SOL    HW229016   4.955   0.889   1.857
 9373SOL     OW29017   5.252   1.826   2.340
 9373SOL    HW129018   5.321   1.762   2.375
 9373SOL    HW229019   5.297   1.896   2.285
 9374SOL     OW29020   0.189   3.414   0.345
 9374SOL    HW129021   0.128   3.356   0.291
 9374SOL    HW229022   0.265   3.446   0.288
 9375SOL     OW29023   0.767   1.417   1.504
 9375SOL    HW129024   0.698   1.422   1.432
 9375SOL    HW229025   0.767   1.325   1.544
 9376SOL     OW29026   2.387   3.996   1.043
 9376SOL    HW129027   2.406   4.094   1.054
 9376SOL    HW229028   2.290   3.984   1.022
 9377SOL     OW29029   1.815   5.543   3.599
 9377SOL    HW129030   1.877   5.466   3.617
 9377SOL    HW229031   1.860   5.608   3.538
 9378SOL     OW29032   1.585   1.184   3.946
 9378SOL    HW129033   1.592   1.270   3.996
 9378SOL    HW229034   1.624   1.194   3.855
 9379SOL     OW29035   5.043   6.907   5.556
 9379SOL    HW129036   4.969   6.868   5.610
 9379SOL    HW229037   5.008   6.936   5.467
 9380SOL     OW29038   4.640   5.491   5.554
 9380SOL    HW129039   4.653   5.451   5.645
 9380SOL    HW229040   4.716   5.551   5.532
 9381SOL     OW29041   4.487   2.951   5.588
 9381SOL    HW129042   4.547   2.871   5.587
 9381SOL    HW229043   4.468   2.980   5.494
 9382SOL     OW29044   3.352   0.738   3.984
 9382SOL    HW129045   3.440   0.720   3.940
 9382SOL    HW229046   3.278   0.721   3.919
 9383SOL     OW29047   6.265   5.818   4.507
 9383SOL    HW129048   6.325   5.752   4.553
 9383SOL    HW229049   6.211   5.771   4.437
 9384SOL     OW29050   4.423   0.508   2.007
 9384SOL    HW129051   4.380   0.428   1.964
 9384SOL    HW229052   4.506   0.480   2.054
 9385SOL     OW29053   3.995   1.397   3.502
 9385SOL    HW129054   3.968   1.344   3.583
 9385SOL    HW229055   3.912   1.433   3.458
 9386SOL     OW29056   3.106   5.633   5.096
 9386SOL    HW129057   3.121   5.609   5.000
 9386SOL    HW229058   3.156   5.569   5.154
 9387SOL     OW29059   2.676   1.999   0.130
 9387SOL    HW129060   2.695   2.020   0.035
 9387SOL    HW229061   2.619   1.917   0.135
 9388SOL     OW29062   2.790   5.691   3.261
 9388SOL    HW129063   2.853   5.716   3.188
 9388SOL    HW229064   2.842   5.670   3.344
 9389SOL     OW29065   1.910   0.351   3.515
 9389SOL    HW129066   1.979   0.406   3.467
 9389SOL    HW229067   1.943   0.257   3.524
 9390SOL     OW29068   5.769   4.678   6.759
 9390SOL    HW129069   5.681   4.719   6.781
 9390SOL    HW229070   5.820   4.738   6.698
 9391SOL     OW29071   1.573   0.824   5.331
 9391SOL    HW129072   1.519   0.891   5.280
 9391SOL    HW229073   1.564   0.841   5.429
 9392SOL     OW29074   5.544   5.359   5.881
 9392SOL    HW129075   5.597   5.443   5.896
 9392SOL    HW229076   5.463   5.360   5.940
 9393SOL     OW29077   3.505   6.709   6.748
 9393SOL    HW129078   3.545   6.800   6.750
 9393SOL    HW229079   3.418   6.709   6.797
 9394SOL     OW29080   6.657   0.827   1.832
 9394SOL    HW129081   6.636   0.920   1.802
 9394SOL    HW229082   6.632   0.763   1.760
 9395SOL     OW29083   3.431   1.408   1.158
 9395SOL    HW129084   3.424   1.379   1.253
 9395SOL    HW229085   3.362   1.360   1.104
 9396SOL     OW29086   2.202   4.036   3.979
 9396SOL    HW129087   2.184   4.008   4.073
 9396SOL    HW229088   2.293   4.006   3.951
 9397SOL     OW29089   3.570   6.171   6.311
 9397SOL    HW129090   3.617   6.228   6.378
 9397SOL    HW229091   3.636   6.108   6.269
 9398SOL     OW29092   6.338   1.167   5.056
 9398SOL    HW129093   6.249   1.210   5.039
 9398SOL    HW229094   6.344   1.081   5.005
 9399SOL     OW29095   1.359   3.007   4.806
 9399SOL    HW129096   1.418   3.080   4.773
 9399SOL    HW229097   1.404   2.959   4.881
 9400SOL     OW29098   4.841   1.382   1.099
 9400SOL    HW129099   4.880   1.308   1.044
 9400SOL    HW229100   4.886   1.468   1.076
 9401SOL     OW29101   6.541   0.900   3.081
 9401SOL    HW129102   6.570   0.806   3.064
 9401SOL    HW229103   6.466   0.924   3.019
 9402SOL     OW29104   1.295   5.454   2.633
 9402SOL    HW129105   1.339   5.375   2.674
 9402SOL    HW229106   1.302   5.448   2.533
 9403SOL     OW29107   6.557   1.298   1.687
 9403SOL    HW129108   6.564   1.199   1.686
 9403SOL    HW229109   6.527   1.329   1.777
 9404SOL     OW29110   0.954   1.995   0.463
 9404SOL    HW129111   1.054   2.003   0.467
 9404SOL    HW229112   0.925   1.910   0.508
 9405SOL     OW29113   2.142   4.127   3.731
 9405SOL    HW129114   2.163   4.096   3.823
 9405SOL    HW229115   2.188   4.215   3.714
 9406SOL     OW29116   0.554   2.602   6.575
 9406SOL    HW129117   0.484   2.665   6.608
 9406SOL    HW229118   0.639   2.618   6.624
 9407SOL     OW29119   2.469   4.838   3.453
 9407SOL    HW129120   2.382   4.847   3.405
 9407SOL    HW229121   2.469   4.895   3.535
 9408SOL     OW29122   6.390   2.665   5.796
 9408SOL    HW129123   6.334   2.727   5.852
 9408SOL    HW229124   6.352   2.573   5.800
 9409SOL     OW29125   6.390   5.541   0.930
 9409SOL    HW129126   6.456   5.513   0.859
 9409SOL    HW229127   6.327   5.608   0.892
 9410SOL     OW29128   1.816   0.766   2.671
 9410SOL    HW129129   1.910   0.773   2.706
 9410SOL    HW229130   1.763   0.706   2.731
 9411SOL     OW29131   4.142   3.702   2.922
 9411SOL    HW129132   4.068   3.752   2.966
 9411SOL    HW229133   4.204   3.665   2.991
 9412SOL     OW29134   1.433   1.565   2.203
 9412SOL    HW129135   1.434   1.661   2.229
 9412SOL    HW229136   1.481   1.553   2.116
 9413SOL     OW29137   4.098   5.295   3.480
 9413SOL    HW129138   4.175   5.233   3.468
 9413SOL    HW229139   4.130   5.382   3.517
 9414SOL     OW29140   2.827   1.295   3.165
 9414SOL    HW129141   2.887   1.245   3.102
 9414SOL    HW229142   2.738   1.309   3.122
 9415SOL     OW29143   2.062   6.801   2.988
 9415SOL    HW129144   2.123   6.826   3.064
 9415SOL    HW229145   2.114   6.798   2.903
 9416SOL     OW29146   0.168   1.602   6.042
 9416SOL    HW129147   0.234   1.565   6.107
 9416SOL    HW229148   0.084   1.547   6.045
 9417SOL     OW29149   3.586   0.720   0.876
 9417SOL    HW129150   3.496   0.714   0.918
 9417SOL    HW229151   3.655   0.730   0.947
 9418SOL     OW29152   2.901   0.820   1.502
 9418SOL    HW129153   2.961   0.741   1.489
 9418SOL    HW229154   2.884   0.863   1.413
 9419SOL     OW29155   2.551   4.459   6.228
 9419SOL    HW129156   2.469   4.507   6.258
 9419SOL    HW229157   2.576   4.390   6.296
 9420SOL     OW29158   5.632   4.932   0.807
 9420SOL    HW129159   5.558   4.873   0.772
 9420SOL    HW229160   5.596   4.990   0.880
 9421SOL     OW29161   2.946   6.064   4.655
 9421SOL    HW129162   3.037   6.102   4.643
 9421SOL    HW229163   2.883   6.137   4.683
 9422SOL     OW29164   3.254   5.537   2.631
 9422SOL    HW129165   3.179   5.563   2.570
 9422SOL    HW229166   3.261   5.437   2.635
 9423SOL     OW29167   3.589   6.252   3.633
 9423SOL    HW129168   3.528   6.183   3.671
 9423SOL    HW229169   3.675   6.209   3.606
 9424SOL     OW29170   4.631   2.260   4.240
 9424SOL    HW129171   4.534   2.280   4.225
 9424SOL    HW229172   4.641   2.190   4.310
 9425SOL     OW29173   5.421   4.173   1.408
 9425SOL    HW129174   5.338   4.229   1.411
 9425SOL    HW229175   5.399   4.083   1.369
 9426SOL     OW29176   3.493   1.977   6.364
 9426SOL    HW129177   3.461   1.905   6.425
 9426SOL    HW229178   3.547   1.937   6.290
 9427SOL     OW29179   3.006   5.183   3.345
 9427SOL    HW129180   3.083   5.158   3.404
 9427SOL    HW229181   3.026   5.156   3.251
 9428SOL     OW29182   0.149   0.535   1.159
 9428SOL    HW129183   0.073   0.600   1.167
 9428SOL    HW229184   0.194   0.547   1.070
 9429SOL     OW29185   1.763   3.903   3.367
 9429SOL    HW129186   1.760   3.910   3.467
 9429SOL    HW229187   1.680   3.942   3.329
 9430SOL     OW29188   0.197   2.543   5.144
 9430SOL    HW129189   0.191   2.559   5.046
 9430SOL    HW229190   0.294   2.537   5.171
 9431SOL     OW29191   6.429   4.696   0.772
 9431SOL    HW129192   6.483   4.769   0.815
 9431SOL    HW229193   6.340   4.690   0.816
 9432SOL     OW29194   6.172   0.487   3.816
 9432SOL    HW129195   6.134   0.426   3.886
 9432SOL    HW229196   6.251   0.536   3.854
 9433SOL     OW29197   2.871   6.418   2.910
 9433SOL    HW129198   2.964   6.440   2.879
 9433SOL    HW229199   2.854   6.320   2.897
 9434SOL     OW29200   5.620   5.973   2.494
 9434SOL    HW129201   5.603   5.946   2.400
 9434SOL    HW229202   5.630   5.892   2.551
 9435SOL     OW29203   0.142   2.483   3.672
 9435SOL    HW129204   0.058   2.518   3.712
 9435SOL    HW229205   0.122   2.410   3.607
 9436SOL     OW29206   1.478   2.507   1.630
 9436SOL    HW129207   1.537   2.563   1.572
 9436SOL    HW229208   1.403   2.469   1.576
 9437SOL     OW29209   0.693   6.084   2.820
 9437SOL    HW129210   0.743   6.160   2.862
 9437SOL    HW229211   0.745   6.051   2.741
 9438SOL     OW29212   0.759   0.190   2.050
 9438SOL    HW129213   0.741   0.283   2.083
 9438SOL    HW229214   0.818   0.142   2.115
 9439SOL     OW29215   0.868   3.130   0.347
 9439SOL    HW129216   0.863   3.160   0.251
 9439SOL    HW229217   0.775   3.120   0.383
 9440SOL     OW29218   3.890   4.814   3.261
 9440SOL    HW129219   3.815   4.828   3.326
 9440SOL    HW229220   3.974   4.850   3.300
 9441SOL     OW29221   5.969   4.490   5.849
 9441SOL    HW129222   6.031   4.564   5.877
 9441SOL    HW229223   6.023   4.410   5.823
 9442SOL     OW29224   5.797   3.984   1.591
 9442SOL    HW129225   5.890   3.975   1.555
 9442SOL    HW229226   5.783   3.917   1.664
 9443SOL     OW29227   2.479   5.480   0.413
 9443SOL    HW129228   2.492   5.381   0.405
 9443SOL    HW229229   2.515   5.524   0.331
 9444SOL     OW29230   1.795   3.862   0.652
 9444SOL    HW129231   1.758   3.945   0.693
 9444SOL    HW229232   1.777   3.784   0.712
 9445SOL     OW29233   5.924   3.463   2.771
 9445SOL    HW129234   5.958   3.553   2.797
 9445SOL    HW229235   5.930   3.401   2.849
 9446SOL     OW29236   6.081   5.222   5.160
 9446SOL    HW129237   6.079   5.189   5.066
 9446SOL    HW229238   6.041   5.313   5.165
 9447SOL     OW29239   5.535   4.677   3.663
 9447SOL    HW129240   5.616   4.652   3.609
 9447SOL    HW229241   5.549   4.649   3.758
 9448SOL     OW29242   0.062   0.180   5.981
 9448SOL    HW129243   0.048   0.278   5.962
 9448SOL    HW229244   7.001   0.141   6.018
 9449SOL     OW29245   5.489   6.999   0.196
 9449SOL    HW129246   5.399   6.974   0.231
 9449SOL    HW229247   5.558   6.938   0.233
 9450SOL     OW29248   2.649   6.008   3.113
 9450SOL    HW129249   2.574   5.980   3.053
 9450SOL    HW229250   2.714   5.933   3.122
 9451SOL     OW29251   4.852   6.358   5.887
 9451SOL    HW129252   4.908   6.329   5.809
 9451SOL    HW229253   4.769   6.403   5.853
 9452SOL     OW29254   1.524   4.209   7.018
 9452SOL    HW129255   1.588   4.156   6.962
 9452SOL    HW229256   1.552   4.305   7.019
 9453SOL     OW29257   2.727   5.284   2.750
 9453SOL    HW129258   2.688   5.265   2.840
 9453SOL    HW229259   2.826   5.268   2.753
 9454SOL     OW29260   3.348   3.589   6.606
 9454SOL    HW129261   3.363   3.618   6.700
 9454SOL    HW229262   3.374   3.493   6.596
 9455SOL     OW29263   2.743   1.927   3.670
 9455SOL    HW129264   2.832   1.921   3.716
 9455SOL    HW229265   2.680   1.861   3.710
 9456SOL     OW29266   0.014   3.272   0.506
 9456SOL    HW129267   6.982   3.325   0.570
 9456SOL    HW229268   0.093   3.326   0.477
 9457SOL     OW29269   0.971   4.373   4.242
 9457SOL    HW129270   1.040   4.343   4.308
 9457SOL    HW229271   0.942   4.296   4.186
 9458SOL     OW29272   0.299   3.601   6.170
 9458SOL    HW129273   0.356   3.636   6.095
 9458SOL    HW229274   0.334   3.636   6.257
 9459SOL     OW29275   5.167   4.828   3.933
 9459SOL    HW129276   5.196   4.763   4.004
 9459SOL    HW229277   5.124   4.779   3.858
 9460SOL     OW29278   2.181   3.892   4.522
 9460SOL    HW129279   2.221   3.800   4.532
 9460SOL    HW229280   2.081   3.885   4.525
 9461SOL     OW29281   0.587   1.902   1.665
 9461SOL    HW129282   0.618   1.969   1.597
 9461SOL    HW229283   0.493   1.924   1.692
 9462SOL     OW29284   1.650   3.197   3.456
 9462SOL    HW129285   1.734   3.214   3.404
 9462SOL    HW229286   1.667   3.210   3.553
 9463SOL     OW29287   5.893   0.522   1.219
 9463SOL    HW129288   5.937   0.606   1.249
 9463SOL    HW229289   5.829   0.491   1.289
 9464SOL     OW29290   5.698   0.328   0.958
 9464SOL    HW129291   5.756   0.409   0.962
 9464SOL    HW229292   5.636   0.327   1.037
 9465SOL     OW29293   0.021   3.973   1.697
 9465SOL    HW129294   6.975   3.907   1.671
 9465SOL    HW229295   0.017   3.990   1.796
 9466SOL     OW29296   3.274   4.385   5.349
 9466SOL    HW129297   3.215   4.464   5.333
 9466SOL    HW229298   3.255   4.314   5.281
 9467SOL     OW29299   1.259   2.897   1.164
 9467SOL    HW129300   1.300   2.808   1.144
 9467SOL    HW229301   1.165   2.885   1.196
 9468SOL     OW29302   5.519   4.120   6.584
 9468SOL    HW129303   5.467   4.195   6.625
 9468SOL    HW229304   5.617   4.137   6.598
 9469SOL     OW29305   0.041   5.678   1.759
 9469SOL    HW129306   6.992   5.726   1.807
 9469SOL    HW229307   0.057   5.589   1.801
 9470SOL     OW29308   5.137   3.204   0.098
 9470SOL    HW129309   5.145   3.107   0.122
 9470SOL    HW229310   5.041   3.228   0.085
 9471SOL     OW29311   6.380   2.672   4.170
 9471SOL    HW129312   6.359   2.658   4.267
 9471SOL    HW229313   6.312   2.733   4.129
 9472SOL     OW29314   6.786   2.943   5.054
 9472SOL    HW129315   6.745   3.011   5.115
 9472SOL    HW229316   6.741   2.855   5.068
 9473SOL     OW29317   2.991   4.834   0.184
 9473SOL    HW129318   2.997   4.759   0.251
 9473SOL    HW229319   2.920   4.813   0.117
 9474SOL     OW29320   0.012   3.685   0.953
 9474SOL    HW129321   0.023   3.732   0.866
 9474SOL    HW229322   0.101   3.669   0.995
 9475SOL     OW29323   3.676   2.999   0.290
 9475SOL    HW129324   3.596   2.954   0.330
 9475SOL    HW229325   3.737   3.028   0.363
 9476SOL     OW29326   4.018   3.872   4.254
 9476SOL    HW129327   4.057   3.951   4.207
 9476SOL    HW229328   4.026   3.791   4.196
 9477SOL     OW29329   0.779   2.821   0.449
 9477SOL    HW129330   0.844   2.823   0.373
 9477SOL    HW229331   0.827   2.841   0.534
 9478SOL     OW29332   5.392   3.410   1.429
 9478SOL    HW129333   5.379   3.507   1.450
 9478SOL    HW229334   5.342   3.386   1.346
 9479SOL     OW29335   4.394   6.491   0.541
 9479SOL    HW129336   4.433   6.508   0.632
 9479SOL    HW229337   4.417   6.567   0.481
 9480SOL     OW29338   5.548   5.174   0.273
 9480SOL    HW129339   5.506   5.129   0.351
 9480SOL    HW229340   5.476   5.198   0.207
 9481SOL     OW29341   4.960   3.238   2.543
 9481SOL    HW129342   4.964   3.291   2.458
 9481SOL    HW229343   4.972   3.300   2.621
 9482SOL     OW29344   0.504   1.058   2.689
 9482SOL    HW129345   0.514   1.028   2.784
 9482SOL    HW229346   0.548   1.147   2.677
 9483SOL     OW29347   1.537   0.371   0.683
 9483SOL    HW129348   1.580   0.281   0.679
 9483SOL    HW229349   1.439   0.362   0.666
 9484SOL     OW29350   3.875   6.737   4.497
 9484SOL    HW129351   3.933   6.659   4.521
 9484SOL    HW229352   3.907   6.776   4.411
 9485SOL     OW29353   0.540   1.020   0.900
 9485SOL    HW129354   0.501   0.964   0.972
 9485SOL    HW229355   0.609   0.968   0.850
 9486SOL     OW29356   4.128   6.221   1.085
 9486SOL    HW129357   4.182   6.298   1.050
 9486SOL    HW229358   4.032   6.247   1.088
 9487SOL     OW29359   3.270   3.787   3.868
 9487SOL    HW129360   3.273   3.713   3.936
 9487SOL    HW229361   3.220   3.865   3.905
 9488SOL     OW29362   2.744   6.959   1.285
 9488SOL    HW129363   2.838   6.974   1.254
 9488SOL    HW229364   2.681   6.978   1.211
 9489SOL     OW29365   5.034   4.323   1.829
 9489SOL    HW129366   5.097   4.331   1.752
 9489SOL    HW229367   4.942   4.303   1.795
 9490SOL     OW29368   6.210   5.641   2.981
 9490SOL    HW129369   6.188   5.738   2.970
 9490SOL    HW229370   6.135   5.585   2.946
 9491SOL     OW29371   5.000   4.459   4.214
 9491SOL    HW129372   4.919   4.507   4.248
 9491SOL    HW229373   5.005   4.368   4.255
 9492SOL     OW29374   3.933   3.293   4.616
 9492SOL    HW129375   3.877   3.304   4.534
 9492SOL    HW229376   3.973   3.201   4.617
 9493SOL     OW29377   2.515   5.779   4.163
 9493SOL    HW129378   2.591   5.842   4.176
 9493SOL    HW229379   2.431   5.831   4.147
 9494SOL     OW29380   5.473   2.903   3.000
 9494SOL    HW129381   5.390   2.867   2.957
 9494SOL    HW229382   5.546   2.911   2.932
 9495SOL     OW29383   6.890   1.960   3.319
 9495SOL    HW129384   6.871   2.051   3.281
 9495SOL    HW229385   6.988   1.952   3.339
 9496SOL     OW29386   6.355   3.356   1.666
 9496SOL    HW129387   6.283   3.420   1.693
 9496SOL    HW229388   6.426   3.354   1.736
 9497SOL     OW29389   5.564   6.598   5.346
 9497SOL    HW129390   5.589   6.653   5.425
 9497SOL    HW229391   5.563   6.656   5.264
 9498SOL     OW29392   5.542   5.655   4.728
 9498SOL    HW129393   5.537   5.753   4.742
 9498SOL    HW229394   5.577   5.611   4.811
 9499SOL     OW29395   2.038   5.044   6.364
 9499SOL    HW129396   2.025   5.021   6.268
 9499SOL    HW229397   2.039   4.960   6.418
 9500SOL     OW29398   4.429   0.067   0.635
 9500SOL    HW129399   4.442   0.135   0.562
 9500SOL    HW229400   4.495   0.084   0.708
 9501SOL     OW29401   2.838   1.203   5.119
 9501SOL    HW129402   2.741   1.182   5.110
 9501SOL    HW229403   2.868   1.257   5.040
 9502SOL     OW29404   6.053   2.591   4.932
 9502SOL    HW129405   6.126   2.602   4.864
 9502SOL    HW229406   6.041   2.676   4.983
 9503SOL     OW29407   0.349   1.477   0.423
 9503SOL    HW129408   0.429   1.456   0.367
 9503SOL    HW229409   0.378   1.494   0.517
 9504SOL     OW29410   6.826   3.599   0.712
 9504SOL    HW129411   6.891   3.540   0.761
 9504SOL    HW229412   6.828   3.577   0.615
 9505SOL     OW29413   5.232   4.976   5.124
 9505SOL    HW129414   5.246   5.005   5.218
 9505SOL    HW229415   5.252   5.052   5.062
 9506SOL     OW29416   1.949   2.592   0.037
 9506SOL    HW129417   2.007   2.517   0.005
 9506SOL    HW229418   1.940   2.587   0.136
 9507SOL     OW29419   0.934   1.294   1.996
 9507SOL    HW129420   0.921   1.245   1.909
 9507SOL    HW229421   0.984   1.379   1.979
 9508SOL     OW29422   6.328   2.115   2.115
 9508SOL    HW129423   6.331   2.016   2.101
 9508SOL    HW229424   6.264   2.156   2.049
 9509SOL     OW29425   0.360   0.917   4.119
 9509SOL    HW129426   0.452   0.957   4.110
 9509SOL    HW229427   0.368   0.818   4.124
 9510SOL     OW29428   1.582   4.019   3.632
 9510SOL    HW129429   1.496   3.970   3.648
 9510SOL    HW229430   1.591   4.094   3.698
 9511SOL     OW29431   1.749   0.229   1.435
 9511SOL    HW129432   1.802   0.223   1.350
 9511SOL    HW229433   1.672   0.292   1.423
 9512SOL     OW29434   6.285   1.888   1.340
 9512SOL    HW129435   6.254   1.885   1.435
 9512SOL    HW229436   6.272   1.980   1.303
 9513SOL     OW29437   2.120   3.949   5.852
 9513SOL    HW129438   2.051   3.957   5.924
 9513SOL    HW229439   2.160   4.039   5.834
 9514SOL     OW29440   2.455   5.446   5.846
 9514SOL    HW129441   2.544   5.443   5.800
 9514SOL    HW229442   2.455   5.383   5.923
 9515SOL     OW29443   1.850   5.672   1.140
 9515SOL    HW129444   1.787   5.671   1.218
 9515SOL    HW229445   1.922   5.604   1.153
 9516SOL     OW29446   5.917   5.012   6.887
 9516SOL    HW129447   5.976   5.044   6.813
 9516SOL    HW229448   5.831   5.063   6.886
 9517SOL     OW29449   1.504   3.717   1.458
 9517SOL    HW129450   1.529   3.708   1.554
 9517SOL    HW229451   1.523   3.810   1.426
 9518SOL     OW29452   1.724   1.812   0.508
 9518SOL    HW129453   1.735   1.723   0.464
 9518SOL    HW229454   1.627   1.828   0.527
 9519SOL     OW29455   3.605   3.140   4.681
 9519SOL    HW129456   3.542   3.133   4.758
 9519SOL    HW229457   3.658   3.055   4.674
 9520SOL     OW29458   2.490   1.921   3.008
 9520SOL    HW129459   2.574   1.902   3.058
 9520SOL    HW229460   2.414   1.874   3.052
 9521SOL     OW29461   5.109   6.193   2.385
 9521SOL    HW129462   5.025   6.240   2.414
 9521SOL    HW229463   5.146   6.238   2.303
 9522SOL     OW29464   2.522   5.487   1.261
 9522SOL    HW129465   2.475   5.400   1.248
 9522SOL    HW229466   2.560   5.518   1.174
 9523SOL     OW29467   3.338   5.253   4.776
 9523SOL    HW129468   3.283   5.307   4.713
 9523SOL    HW229469   3.420   5.220   4.729
 9524SOL     OW29470   3.778   2.554   1.173
 9524SOL    HW129471   3.849   2.530   1.106
 9524SOL    HW229472   3.688   2.543   1.131
 9525SOL     OW29473   2.328   2.745   5.852
 9525SOL    HW129474   2.415   2.755   5.900
 9525SOL    HW229475   2.340   2.769   5.756
 9526SOL     OW29476   5.034   5.843   1.892
 9526SOL    HW129477   4.951   5.794   1.865
 9526SOL    HW229478   5.082   5.874   1.810
 9527SOL     OW29479   0.981   0.568   2.806
 9527SOL    HW129480   1.007   0.472   2.811
 9527SOL    HW229481   0.923   0.582   2.725
 9528SOL     OW29482   6.686   0.713   0.444
 9528SOL    HW129483   6.718   0.727   0.538
 9528SOL    HW229484   6.587   0.700   0.443
 9529SOL     OW29485   6.483   3.181   5.389
 9529SOL    HW129486   6.440   3.091   5.385
 9529SOL    HW229487   6.431   3.241   5.449
 9530SOL     OW29488   1.872   3.372   2.776
 9530SOL    HW129489   1.779   3.402   2.759
 9530SOL    HW229490   1.874   3.272   2.783
 9531SOL     OW29491   4.384   6.115   2.847
 9531SOL    HW129492   4.330   6.049   2.796
 9531SOL    HW229493   4.361   6.110   2.944
 9532SOL     OW29494   6.858   6.393   2.387
 9532SOL    HW129495   6.774   6.435   2.353
 9532SOL    HW229496   6.892   6.327   2.321
 9533SOL     OW29497   6.620   0.530   5.018
 9533SOL    HW129498   6.613   0.589   4.938
 9533SOL    HW229499   6.536   0.477   5.028
 9534SOL     OW29500   6.134   3.151   5.275
 9534SOL    HW129501   6.058   3.120   5.217
 9534SOL    HW229502   6.216   3.098   5.255
 9535SOL     OW29503   2.527   1.401   5.621
 9535SOL    HW129504   2.621   1.378   5.644
 9535SOL    HW229505   2.511   1.384   5.524
 9536SOL     OW29506   3.094   4.576   5.342
 9536SOL    HW129507   3.083   4.588   5.441
 9536SOL    HW229508   3.003   4.564   5.300
 9537SOL     OW29509   2.646   6.812   2.910
 9537SOL    HW129510   2.617   6.719   2.931
 9537SOL    HW229511   2.687   6.853   2.991
 9538SOL     OW29512   6.700   2.474   3.862
 9538SOL    HW129513   6.634   2.482   3.787
 9538SOL    HW229514   6.651   2.467   3.949
 9539SOL     OW29515   1.521   3.319   5.178
 9539SOL    HW129516   1.553   3.351   5.089
 9539SOL    HW229517   1.599   3.295   5.236
 9540SOL     OW29518   5.097   3.669   4.324
 9540SOL    HW129519   5.142   3.580   4.323
 9540SOL    HW229520   5.132   3.723   4.401
 9541SOL     OW29521   2.796   1.746   5.779
 9541SOL    HW129522   2.773   1.673   5.843
 9541SOL    HW229523   2.750   1.730   5.692
 9542SOL     OW29524   4.926   3.718   4.603
 9542SOL    HW129525   5.005   3.765   4.564
 9542SOL    HW229526   4.924   3.623   4.571
 9543SOL     OW29527   2.922   1.024   4.619
 9543SOL    HW129528   3.010   1.066   4.600
 9543SOL    HW229529   2.924   0.928   4.591
 9544SOL     OW29530   0.246   1.522   3.021
 9544SOL    HW129531   0.280   1.568   3.103
 9544SOL    HW229532   0.147   1.536   3.014
 9545SOL     OW29533   6.633   4.870   3.595
 9545SOL    HW129534   6.697   4.794   3.596
 9545SOL    HW229535   6.607   4.893   3.689
 9546SOL     OW29536   2.719   2.446   5.816
 9546SOL    HW129537   2.784   2.441   5.739
 9546SOL    HW229538   2.720   2.538   5.854
 9547SOL     OW29539   2.167   6.272   4.068
 9547SOL    HW129540   2.244   6.325   4.032
 9547SOL    HW229541   2.156   6.290   4.165
 9548SOL     OW29542   5.998   6.441   4.992
 9548SOL    HW129543   5.912   6.396   5.016
 9548SOL    HW229544   6.023   6.506   5.063
 9549SOL     OW29545   2.908   3.824   1.212
 9549SOL    HW129546   2.967   3.744   1.219
 9549SOL    HW229547   2.812   3.797   1.216
 9550SOL     OW29548   0.023   1.136   6.957
 9550SOL    HW129549   6.974   1.203   6.939
 9550SOL    HW229550   0.015   1.103   0.027
 9551SOL     OW29551   6.625   0.924   4.046
 9551SOL    HW129552   6.712   0.969   4.028
 9551SOL    HW229553   6.635   0.825   4.034
 9552SOL     OW29554   0.931   5.883   2.107
 9552SOL    HW129555   0.950   5.926   2.195
 9552SOL    HW229556   0.870   5.805   2.120
 9553SOL     OW29557   6.400   3.610   6.841
 9553SOL    HW129558   6.466   3.614   6.916
 9553SOL    HW229559   6.335   3.536   6.857
 9554SOL     OW29560   2.727   0.125   1.491
 9554SOL    HW129561   2.718   0.060   1.416
 9554SOL    HW229562   2.656   0.108   1.559
 9555SOL     OW29563   1.045   1.089   1.488
 9555SOL    HW129564   1.143   1.102   1.504
 9555SOL    HW229565   1.024   1.109   1.393
 9556SOL     OW29566   3.055   2.638   0.885
 9556SOL    HW129567   3.061   2.540   0.867
 9556SOL    HW229568   3.012   2.683   0.806
 9557SOL     OW29569   6.593   0.638   2.969
 9557SOL    HW129570   6.638   0.551   2.983
 9557SOL    HW229571   6.629   0.682   2.886
 9558SOL     OW29572   5.744   5.436   4.618
 9558SOL    HW129573   5.696   5.365   4.670
 9558SOL    HW229574   5.682   5.511   4.598
 9559SOL     OW29575   0.254   3.754   1.324
 9559SOL    HW129576   0.154   3.756   1.331
 9559SOL    HW229577   0.281   3.778   1.231
 9560SOL     OW29578   1.335   1.886   2.724
 9560SOL    HW129579   1.360   1.902   2.629
 9560SOL    HW229580   1.242   1.847   2.728
 9561SOL     OW29581   1.715   6.774   0.569
 9561SOL    HW129582   1.632   6.758   0.623
 9561SOL    HW229583   1.700   6.745   0.475
 9562SOL     OW29584   3.362   6.687   4.866
 9562SOL    HW129585   3.368   6.707   4.768
 9562SOL    HW229586   3.290   6.743   4.906
 9563SOL     OW29587   5.730   6.871   0.263
 9563SOL    HW129588   5.779   6.956   0.244
 9563SOL    HW229589   5.740   6.808   0.186
 9564SOL     OW29590   3.046   6.985   6.566
 9564SOL    HW129591   2.954   0.001   6.571
 9564SOL    HW229592   3.096   0.003   6.489
 9565SOL     OW29593   4.283   6.277   5.204
 9565SOL    HW129594   4.209   6.238   5.260
 9565SOL    HW229595   4.269   6.376   5.196
 9566SOL     OW29596   3.337   4.513   0.386
 9566SOL    HW129597   3.369   4.516   0.292
 9566SOL    HW229598   3.322   4.606   0.419
 9567SOL     OW29599   6.542   5.088   6.546
 9567SOL    HW129600   6.504   5.086   6.638
 9567SOL    HW229601   6.516   5.004   6.498
 9568SOL     OW29602   5.246   2.819   6.600
 9568SOL    HW129603   5.206   2.853   6.685
 9568SOL    HW229604   5.248   2.893   6.532
 9569SOL     OW29605   7.001   0.220   2.117
 9569SOL    HW129606   0.058   0.220   2.177
 9569SOL    HW229607   6.919   0.201   2.171
 9570SOL     OW29608   0.896   2.254   1.527
 9570SOL    HW129609   0.899   2.342   1.575
 9570SOL    HW229610   0.897   2.180   1.594
 9571SOL     OW29611   2.829   3.525   6.959
 9571SOL    HW129612   2.913   3.505   6.909
 9571SOL    HW229613   2.750   3.492   6.907
 9572SOL     OW29614   1.727   5.331   1.109
 9572SOL    HW129615   1.727   5.308   1.011
 9572SOL    HW229616   1.636   5.363   1.135
 9573SOL     OW29617   0.546   1.800   6.463
 9573SOL    HW129618   0.577   1.889   6.497
 9573SOL    HW229619   0.447   1.801   6.450
 9574SOL     OW29620   3.964   3.054   4.458
 9574SOL    HW129621   3.920   2.964   4.456
 9574SOL    HW229622   3.901   3.123   4.425
 9575SOL     OW29623   5.385   0.712   0.673
 9575SOL    HW129624   5.395   0.806   0.704
 9575SOL    HW229625   5.290   0.683   0.682
 9576SOL     OW29626   2.947   0.992   2.842
 9576SOL    HW129627   3.029   1.004   2.787
 9576SOL    HW229628   2.882   0.935   2.792
 9577SOL     OW29629   1.281   0.885   3.331
 9577SOL    HW129630   1.318   0.817   3.394
 9577SOL    HW229631   1.236   0.958   3.383
 9578SOL     OW29632   0.169   3.750   3.421
 9578SOL    HW129633   0.263   3.775   3.445
 9578SOL    HW229634   0.108   3.827   3.438
 9579SOL     OW29635   1.238   5.645   3.286
 9579SOL    HW129636   1.225   5.712   3.212
 9579SOL    HW229637   1.246   5.694   3.373
 9580SOL     OW29638   5.097   2.866   0.750
 9580SOL    HW129639   5.031   2.920   0.699
 9580SOL    HW229640   5.189   2.900   0.732
 9581SOL     OW29641   1.450   5.229   6.608
 9581SOL    HW129642   1.370   5.238   6.549
 9581SOL    HW229643   1.478   5.133   6.610
 9582SOL     OW29644   4.470   4.727   4.821
 9582SOL    HW129645   4.410   4.664   4.871
 9582SOL    HW229646   4.500   4.800   4.883
 9583SOL     OW29647   2.969   3.427   1.498
 9583SOL    HW129648   3.013   3.361   1.559
 9583SOL    HW229649   2.879   3.392   1.471
 9584SOL     OW29650   6.147   5.928   6.961
 9584SOL    HW129651   6.118   5.904   6.868
 9584SOL    HW229652   6.105   5.865   0.003
 9585SOL     OW29653   6.891   1.106   3.076
 9585SOL    HW129654   6.839   1.075   2.996
 9585SOL    HW229655   6.828   1.135   3.148
 9586SOL     OW29656   6.356   4.008   1.738
 9586SOL    HW129657   6.309   4.096   1.742
 9586SOL    HW229658   6.333   3.954   1.819
 9587SOL     OW29659   6.309   0.194   2.409
 9587SOL    HW129660   6.297   0.288   2.442
 9587SOL    HW229661   6.390   0.154   2.452
 9588SOL     OW29662   0.589   1.482   2.115
 9588SOL    HW129663   0.618   1.406   2.173
 9588SOL    HW229664   0.526   1.541   2.166
 9589SOL     OW29665   2.918   5.914   6.310
 9589SOL    HW129666   2.835   5.950   6.266
 9589SOL    HW229667   2.979   5.990   6.333
 9590SOL     OW29668   0.138   4.777   2.401
 9590SOL    HW129669   0.110   4.815   2.313
 9590SOL    HW229670   0.229   4.736   2.393
 9591SOL     OW29671   3.186   5.580   7.020
 9591SOL    HW129672   3.280   5.593   6.989
 9591SOL    HW229673   3.126   5.645   6.973
 9592SOL     OW29674   3.690   5.049   1.851
 9592SOL    HW129675   3.679   4.959   1.809
 9592SOL    HW229676   3.601   5.087   1.874
 9593SOL     OW29677   5.010   1.239   4.715
 9593SOL    HW129678   5.040   1.203   4.627
 9593SOL    HW229679   5.088   1.279   4.763
 9594SOL     OW29680   6.964   5.344   3.767
 9594SOL    HW129681   6.917   5.256   3.774
 9594SOL    HW229682   7.023   5.344   3.686
 9595SOL     OW29683   1.727   4.380   4.192
 9595SOL    HW129684   1.785   4.451   4.232
 9595SOL    HW229685   1.781   4.325   4.128
 9596SOL     OW29686   0.415   5.267   0.123
 9596SOL    HW129687   0.455   5.276   0.031
 9596SOL    HW229688   0.488   5.271   0.191
 9597SOL     OW29689   0.051   4.184   1.047
 9597SOL    HW129690   0.013   4.271   1.017
 9597SOL    HW229691   0.131   4.200   1.105
 9598SOL     OW29692   0.402   3.920   5.174
 9598SOL    HW129693   0.337   3.926   5.099
 9598SOL    HW229694   0.440   3.827   5.178
 9599SOL     OW29695   3.019   0.615   4.733
 9599SOL    HW129696   2.934   0.653   4.770
 9599SOL    HW229697   3.094   0.680   4.748
 9600SOL     OW29698   2.408   6.934   5.819
 9600SOL    HW129699   2.494   6.937   5.768
 9600SOL    HW229700   2.365   6.845   5.807
 9601SOL     OW29701   6.305   4.353   6.061
 9601SOL    HW129702   6.268   4.396   5.979
 9601SOL    HW229703   6.242   4.366   6.137
 9602SOL     OW29704   6.769   5.217   6.498
 9602SOL    HW129705   6.691   5.161   6.525
 9602SOL    HW229706   6.830   5.230   6.576
 9603SOL     OW29707   2.276   7.016   4.302
 9603SOL    HW129708   2.246   6.985   4.392
 9603SOL    HW229709   2.376   7.012   4.297
 9604SOL     OW29710   5.071   0.518   0.379
 9604SOL    HW129711   5.013   0.513   0.460
 9604SOL    HW229712   5.067   0.431   0.330
 9605SOL     OW29713   0.277   4.925   5.928
 9605SOL    HW129714   0.223   4.853   5.883
 9605SOL    HW229715   0.307   4.991   5.860
 9606SOL     OW29716   0.921   6.656   4.465
 9606SOL    HW129717   0.992   6.709   4.510
 9606SOL    HW229718   0.955   6.564   4.445
 9607SOL     OW29719   1.292   1.988   1.650
 9607SOL    HW129720   1.320   1.895   1.628
 9607SOL    HW229721   1.269   2.036   1.565
 9608SOL     OW29722   0.496   6.470   2.458
 9608SOL    HW129723   0.456   6.559   2.480
 9608SOL    HW229724   0.429   6.398   2.476
 9609SOL     OW29725   1.409   3.631   5.143
 9609SOL    HW129726   1.502   3.601   5.166
 9609SOL    HW229727   1.397   3.726   5.171
 9610SOL     OW29728   1.730   3.409   5.477
 9610SOL    HW129729   1.667   3.392   5.552
 9610SOL    HW229730   1.746   3.324   5.426
 9611SOL     OW29731   0.244   6.985   1.074
 9611SOL    HW129732   0.211   0.043   1.026
 9611SOL    HW229733   0.184   6.908   1.054
 9612SOL     OW29734   6.139   2.875   0.571
 9612SOL    HW129735   6.163   2.807   0.502
 9612SOL    HW229736   6.172   2.845   0.661
 9613SOL     OW29737   5.203   6.135   4.126
 9613SOL    HW129738   5.219   6.167   4.219
 9613SOL    HW229739   5.175   6.039   4.128
 9614SOL     OW29740   4.023   3.623   1.477
 9614SOL    HW129741   4.074   3.694   1.428
 9614SOL    HW229742   4.017   3.541   1.421
 9615SOL     OW29743   1.594   6.304   2.525
 9615SOL    HW129744   1.534   6.316   2.446
 9615SOL    HW229745   1.596   6.208   2.552
 9616SOL     OW29746   4.326   3.723   0.972
 9616SOL    HW129747   4.228   3.738   0.969
 9616SOL    HW229748   4.356   3.677   0.888
 9617SOL     OW29749   1.284   3.959   4.306
 9617SOL    HW129750   1.259   4.053   4.331
 9617SOL    HW229751   1.218   3.896   4.347
 9618SOL     OW29752   3.362   0.422   6.787
 9618SOL    HW129753   3.442   0.362   6.789
 9618SOL    HW229754   3.285   0.373   6.746
 9619SOL     OW29755   1.494   0.150   0.932
 9619SOL    HW129756   1.480   0.227   0.870
 9619SOL    HW229757   1.563   0.088   0.893
 9620SOL     OW29758   4.543   2.186   6.950
 9620SOL    HW129759   4.500   2.119   7.010
 9620SOL    HW229760   4.635   2.156   6.926
 9621SOL     OW29761   1.374   0.895   1.960
 9621SOL    HW129762   1.314   0.959   2.007
 9621SOL    HW229763   1.377   0.917   1.863
 9622SOL     OW29764   6.078   1.370   6.725
 9622SOL    HW129765   6.040   1.278   6.719
 9622SOL    HW229766   6.032   1.429   6.659
 9623SOL     OW29767   4.403   5.045   6.592
 9623SOL    HW129768   4.391   4.954   6.555
 9623SOL    HW229769   4.366   5.113   6.529
 9624SOL     OW29770   5.320   4.557   5.472
 9624SOL    HW129771   5.290   4.619   5.400
 9624SOL    HW229772   5.408   4.517   5.446
 9625SOL     OW29773   4.779   4.231   6.853
 9625SOL    HW129774   4.868   4.210   6.894
 9625SOL    HW229775   4.706   4.206   6.917
 9626SOL     OW29776   2.415   5.639   4.435
 9626SOL    HW129777   2.346   5.658   4.505
 9626SOL    HW229778   2.445   5.725   4.394
 9627SOL     OW29779   0.834   4.354   4.918
 9627SOL    HW129780   0.919   4.313   4.950
 9627SOL    HW229781   0.812   4.433   4.975
 9628SOL     OW29782   5.870   4.008   0.589
 9628SOL    HW129783   5.897   4.101   0.564
 9628SOL    HW229784   5.772   4.007   0.609
 9629SOL     OW29785   6.598   6.192   3.172
 9629SOL    HW129786   6.659   6.168   3.247
 9629SOL    HW229787   6.606   6.290   3.152
 9630SOL     OW29788   6.289   5.998   5.359
 9630SOL    HW129789   6.386   6.012   5.340
 9630SOL    HW229790   6.243   6.087   5.363
 9631SOL     OW29791   4.506   1.751   0.975
 9631SOL    HW129792   4.464   1.840   0.995
 9631SOL    HW229793   4.554   1.718   1.057
 9632SOL     OW29794   2.159   5.208   1.296
 9632SOL    HW129795   2.200   5.269   1.229
 9632SOL    HW229796   2.069   5.180   1.265
 9633SOL     OW29797   4.027   3.609   0.539
 9633SOL    HW129798   4.024   3.605   0.439
 9633SOL    HW229799   3.942   3.649   0.573
 9634SOL     OW29800   6.099   5.275   3.260
 9634SOL    HW129801   6.097   5.339   3.336
 9634SOL    HW229802   6.112   5.182   3.296
 9635SOL     OW29803   0.841   4.584   5.343
 9635SOL    HW129804   0.822   4.640   5.423
 9635SOL    HW229805   0.809   4.490   5.360
 9636SOL     OW29806   3.683   1.497   6.185
 9636SOL    HW129807   3.755   1.440   6.145
 9636SOL    HW229808   3.630   1.540   6.112
 9637SOL     OW29809   3.422   3.231   1.191
 9637SOL    HW129810   3.380   3.155   1.141
 9637SOL    HW229811   3.376   3.243   1.279
 9638SOL     OW29812   0.121   3.576   5.961
 9638SOL    HW129813   0.189   3.596   6.032
 9638SOL    HW229814   0.151   3.497   5.908
 9639SOL     OW29815   4.289   2.300   1.746
 9639SOL    HW129816   4.195   2.321   1.772
 9639SOL    HW229817   4.314   2.353   1.665
 9640SOL     OW29818   3.448   0.709   2.361
 9640SOL    HW129819   3.479   0.646   2.290
 9640SOL    HW229820   3.466   0.803   2.331
 9641SOL     OW29821   5.620   6.439   2.296
 9641SOL    HW129822   5.662   6.350   2.277
 9641SOL    HW229823   5.634   6.463   2.392
 9642SOL     OW29824   1.027   6.756   3.983
 9642SOL    HW129825   0.955   6.723   4.044
 9642SOL    HW229826   1.114   6.717   4.010
 9643SOL     OW29827   5.207   3.699   3.867
 9643SOL    HW129828   5.114   3.666   3.884
 9643SOL    HW229829   5.272   3.623   3.875
 9644SOL     OW29830   2.040   5.823   5.448
 9644SOL    HW129831   2.055   5.838   5.350
 9644SOL    HW229832   2.031   5.725   5.465
 9645SOL     OW29833   2.427   4.391   5.197
 9645SOL    HW129834   2.406   4.305   5.244
 9645SOL    HW229835   2.520   4.419   5.220
 9646SOL     OW29836   3.095   5.623   2.429
 9646SOL    HW129837   3.058   5.716   2.439
 9646SOL    HW229838   3.020   5.557   2.432
 9647SOL     OW29839   0.111   6.857   3.435
 9647SOL    HW129840   0.105   6.909   3.350
 9647SOL    HW229841   0.090   6.917   3.512
 9648SOL     OW29842   4.762   2.846   1.040
 9648SOL    HW129843   4.820   2.884   1.112
 9648SOL    HW229844   4.710   2.769   1.076
 9649SOL     OW29845   2.394   3.880   6.607
 9649SOL    HW129846   2.405   3.952   6.675
 9649SOL    HW229847   2.478   3.825   6.602
 9650SOL     OW29848   5.132   4.045   3.114
 9650SOL    HW129849   5.176   3.971   3.063
 9650SOL    HW229850   5.116   4.123   3.053
 9651SOL     OW29851   4.049   0.986   0.885
 9651SOL    HW129852   4.146   0.980   0.861
 9651SOL    HW229853   4.036   1.059   0.952
 9652SOL     OW29854   0.602   5.207   0.866
 9652SOL    HW129855   0.607   5.107   0.871
 9652SOL    HW229856   0.599   5.245   0.959
 9653SOL     OW29857   4.584   4.614   5.697
 9653SOL    HW129858   4.652   4.686   5.682
 9653SOL    HW229859   4.630   4.529   5.721
 9654SOL     OW29860   3.269   3.185   3.141
 9654SOL    HW129861   3.172   3.203   3.121
 9654SOL    HW229862   3.276   3.110   3.207
 9655SOL     OW29863   6.933   1.674   0.352
 9655SOL    HW129864   6.848   1.659   0.303
 9655SOL    HW229865   7.002   1.608   0.320
 9656SOL     OW29866   4.573   2.329   0.608
 9656SOL    HW129867   4.536   2.414   0.646
 9656SOL    HW229868   4.648   2.349   0.546
 9657SOL     OW29869   5.978   4.356   2.693
 9657SOL    HW129870   6.038   4.416   2.747
 9657SOL    HW229871   5.882   4.375   2.717
 9658SOL     OW29872   5.957   2.173   2.770
 9658SOL    HW129873   6.031   2.223   2.814
 9658SOL    HW229874   5.992   2.086   2.735
 9659SOL     OW29875   1.032   2.503   0.418
 9659SOL    HW129876   1.047   2.602   0.426
 9659SOL    HW229877   1.048   2.474   0.324
 9660SOL     OW29878   0.892   0.065   2.231
 9660SOL    HW129879   0.928   6.995   2.234
 9660SOL    HW229880   0.965   0.130   2.252
 9661SOL     OW29881   4.134   6.094   1.393
 9661SOL    HW129882   4.122   5.996   1.411
 9661SOL    HW229883   4.087   6.118   1.308
 9662SOL     OW29884   4.958   3.893   0.437
 9662SOL    HW129885   5.008   3.807   0.442
 9662SOL    HW229886   4.912   3.910   0.524
 9663SOL     OW29887   0.307   5.917   2.694
 9663SOL    HW129888   0.372   5.977   2.740
 9663SOL    HW229889   0.267   5.854   2.761
 9664SOL     OW29890   5.262   4.495   4.471
 9664SOL    HW129891   5.322   4.564   4.512
 9664SOL    HW229892   5.178   4.540   4.439
 9665SOL     OW29893   5.906   6.300   5.760
 9665SOL    HW129894   5.959   6.293   5.845
 9665SOL    HW229895   5.953   6.249   5.688
 9666SOL     OW29896   6.355   3.593   2.037
 9666SOL    HW129897   6.325   3.578   2.132
 9666SOL    HW229898   6.454   3.582   2.031
 9667SOL     OW29899   3.708   3.466   0.491
 9667SOL    HW129900   3.669   3.430   0.406
 9667SOL    HW229901   3.758   3.393   0.538
 9668SOL     OW29902   1.088   0.820   6.593
 9668SOL    HW129903   1.039   0.900   6.559
 9668SOL    HW229904   1.117   0.763   6.517
 9669SOL     OW29905   1.941   6.978   1.739
 9669SOL    HW129906   1.900   6.998   1.828
 9669SOL    HW229907   1.950   6.879   1.729
 9670SOL     OW29908   0.152   5.435   5.380
 9670SOL    HW129909   0.242   5.408   5.414
 9670SOL    HW229910   0.154   5.438   5.280
 9671SOL     OW29911   6.593   4.561   0.589
 9671SOL    HW129912   6.589   4.618   0.508
 9671SOL    HW229913   6.558   4.611   0.668
 9672SOL     OW29914   1.471   4.922   3.227
 9672SOL    HW129915   1.481   4.876   3.315
 9672SOL    HW229916   1.397   4.988   3.232
 9673SOL     OW29917   3.321   3.643   1.360
 9673SOL    HW129918   3.250   3.641   1.289
 9673SOL    HW229919   3.328   3.736   1.397
 9674SOL     OW29920   3.826   6.725   3.334
 9674SOL    HW129921   3.883   6.800   3.370
 9674SOL    HW229922   3.832   6.647   3.396
 9675SOL     OW29923   4.975   2.444   6.835
 9675SOL    HW129924   4.946   2.370   6.774
 9675SOL    HW229925   4.907   2.456   6.907
 9676SOL     OW29926   1.446   3.321   6.195
 9676SOL    HW129927   1.510   3.257   6.152
 9676SOL    HW229928   1.495   3.400   6.230
 9677SOL     OW29929   6.753   4.875   5.687
 9677SOL    HW129930   6.723   4.958   5.640
 9677SOL    HW229931   6.698   4.862   5.770
 9678SOL     OW29932   2.952   3.576   4.145
 9678SOL    HW129933   2.957   3.479   4.168
 9678SOL    HW229934   2.936   3.629   4.229
 9679SOL     OW29935   2.186   6.969   3.850
 9679SOL    HW129936   2.258   0.012   3.869
 9679SOL    HW229937   2.098   7.017   3.844
 9680SOL     OW29938   4.507   0.465   4.897
 9680SOL    HW129939   4.543   0.420   4.815
 9680SOL    HW229940   4.413   0.435   4.913
 9681SOL     OW29941   3.032   2.323   0.539
 9681SOL    HW129942   2.982   2.399   0.498
 9681SOL    HW229943   2.977   2.239   0.533
 9682SOL     OW29944   4.752   4.185   3.654
 9682SOL    HW129945   4.794   4.261   3.605
 9682SOL    HW229946   4.710   4.123   3.587
 9683SOL     OW29947   3.247   6.377   1.368
 9683SOL    HW129948   3.210   6.286   1.352
 9683SOL    HW229949   3.218   6.438   1.294
 9684SOL     OW29950   0.642   4.063   5.091
 9684SOL    HW129951   0.691   4.003   5.027
 9684SOL    HW229952   0.553   4.022   5.112
 9685SOL     OW29953   4.682   4.304   1.338
 9685SOL    HW129954   4.625   4.283   1.418
 9685SOL    HW229955   4.637   4.373   1.283
 9686SOL     OW29956   0.333   3.071   6.473
 9686SOL    HW129957   0.236   3.049   6.463
 9686SOL    HW229958   0.385   2.986   6.485
 9687SOL     OW29959   7.000   1.180   3.393
 9687SOL    HW129960   0.041   1.104   3.399
 9687SOL    HW229961   6.917   1.159   3.445
 9688SOL     OW29962   0.963   2.881   0.670
 9688SOL    HW129963   1.018   2.818   0.725
 9688SOL    HW229964   0.966   2.972   0.711
 9689SOL     OW29965   0.914   4.661   6.611
 9689SOL    HW129966   1.012   4.664   6.592
 9689SOL    HW229967   0.899   4.648   6.709
 9690SOL     OW29968   6.091   6.577   5.960
 9690SOL    HW129969   6.119   6.520   5.883
 9690SOL    HW229970   6.161   6.646   5.978
 9691SOL     OW29971   2.775   3.839   1.500
 9691SOL    HW129972   2.780   3.791   1.412
 9691SOL    HW229973   2.770   3.773   1.574
 9692SOL     OW29974   4.483   5.968   1.077
 9692SOL    HW129975   4.507   5.919   0.993
 9692SOL    HW229976   4.563   5.971   1.137
 9693SOL     OW29977   6.255   3.855   3.146
 9693SOL    HW129978   6.256   3.937   3.090
 9693SOL    HW229979   6.343   3.808   3.138
 9694SOL     OW29980   2.857   1.210   1.796
 9694SOL    HW129981   2.803   1.178   1.873
 9694SOL    HW229982   2.923   1.279   1.827
 9695SOL     OW29983   6.841   2.586   3.130
 9695SOL    HW129984   6.928   2.569   3.177
 9695SOL    HW229985   6.843   2.677   3.089
 9696SOL     OW29986   5.388   2.746   1.575
 9696SOL    HW129987   5.407   2.828   1.520
 9696SOL    HW229988   5.345   2.772   1.661
 9697SOL     OW29989   0.460   5.931   0.290
 9697SOL    HW129990   0.478   6.029   0.278
 9697SOL    HW229991   0.380   5.919   0.348
 9698SOL     OW29992   5.607   2.500   5.847
 9698SOL    HW129993   5.673   2.542   5.785
 9698SOL    HW229994   5.650   2.424   5.895
 9699SOL     OW29995   6.990   5.906   6.932
 9699SOL    HW129996   7.018   5.813   6.908
 9699SOL    HW229997   0.030   5.944   6.999
 9700SOL     OW29998   5.826   4.846   4.814
 9700SOL    HW129999   5.910   4.795   4.827
 9700SOL    HW230000   5.799   4.890   4.900
 9701SOL     OW30001   5.214   4.131   5.906
 9701SOL    HW130002   5.198   4.055   5.843
 9701SOL    HW230003   5.230   4.215   5.854
 9702SOL     OW30004   3.864   2.404   6.925
 9702SOL    HW130005   3.843   2.415   6.828
 9702SOL    HW230006   3.959   2.376   6.936
 9703SOL     OW30007   5.112   3.210   3.535
 9703SOL    HW130008   5.151   3.285   3.481
 9703SOL    HW230009   5.186   3.157   3.576
 9704SOL     OW30010   3.520   6.068   1.545
 9704SOL    HW130011   3.430   6.110   1.527
 9704SOL    HW230012   3.548   6.014   1.466
 9705SOL     OW30013   5.101   4.640   6.319
 9705SOL    HW130014   5.152   4.683   6.393
 9705SOL    HW230015   5.023   4.590   6.356
 9706SOL     OW30016   3.029   2.383   0.818
 9706SOL    HW130017   3.067   2.375   0.725
 9706SOL    HW230018   3.042   2.296   0.866
 9707SOL     OW30019   6.474   4.661   2.681
 9707SOL    HW130020   6.462   4.744   2.626
 9707SOL    HW230021   6.547   4.675   2.747
 9708SOL     OW30022   0.393   1.399   3.517
 9708SOL    HW130023   0.392   1.499   3.506
 9708SOL    HW230024   0.335   1.357   3.447
 9709SOL     OW30025   5.228   5.601   2.652
 9709SOL    HW130026   5.179   5.555   2.578
 9709SOL    HW230027   5.216   5.700   2.644
 9710SOL     OW30028   0.104   1.624   1.337
 9710SOL    HW130029   0.198   1.630   1.371
 9710SOL    HW230030   0.042   1.672   1.400
 9711SOL     OW30031   4.301   5.147   6.335
 9711SOL    HW130032   4.278   5.147   6.238
 9711SOL    HW230033   4.335   5.238   6.361
 9712SOL     OW30034   5.566   3.475   0.126
 9712SOL    HW130035   5.534   3.380   0.126
 9712SOL    HW230036   5.637   3.487   0.195
 9713SOL     OW30037   2.122   4.379   3.437
 9713SOL    HW130038   2.120   4.406   3.533
 9713SOL    HW230039   2.107   4.459   3.379
 9714SOL     OW30040   4.355   6.460   6.331
 9714SOL    HW130041   4.335   6.403   6.251
 9714SOL    HW230042   4.364   6.556   6.303
 9715SOL     OW30043   5.915   4.170   6.941
 9715SOL    HW130044   5.922   4.166   0.017
 9715SOL    HW230045   5.826   4.133   6.912
 9716SOL     OW30046   3.234   4.255   6.782
 9716SOL    HW130047   3.136   4.238   6.772
 9716SOL    HW230048   3.257   4.258   6.879
 9717SOL     OW30049   5.285   6.971   5.968
 9717SOL    HW130050   5.218   7.014   5.908
 9717SOL    HW230051   5.315   0.013   6.037
 9718SOL     OW30052   5.346   3.285   1.039
 9718SOL    HW130053   5.256   3.244   1.024
 9718SOL    HW230054   5.337   3.385   1.040
 9719SOL     OW30055   5.906   0.633   5.989
 9719SOL    HW130056   5.999   0.611   6.019
 9719SOL    HW230057   5.906   0.719   5.939
 9720SOL     OW30058   0.818   4.196   2.217
 9720SOL    HW130059   0.800   4.196   2.315
 9720SOL    HW230060   0.758   4.262   2.172
 9721SOL     OW30061   0.581   1.219   6.968
 9721SOL    HW130062   0.615   1.132   6.932
 9721SOL    HW230063   0.482   1.221   6.961
 9722SOL     OW30064   3.674   1.252   5.030
 9722SOL    HW130065   3.592   1.197   5.021
 9722SOL    HW230066   3.672   1.302   5.117
 9723SOL     OW30067   3.884   6.374   3.757
 9723SOL    HW130068   3.806   6.421   3.799
 9723SOL    HW230069   3.871   6.275   3.764
 9724SOL     OW30070   1.307   5.004   0.146
 9724SOL    HW130071   1.347   5.017   0.055
 9724SOL    HW230072   1.207   5.001   0.138
 9725SOL     OW30073   4.389   6.347   6.083
 9725SOL    HW130074   4.385   6.378   5.988
 9725SOL    HW230075   4.426   6.254   6.086
 9726SOL     OW30076   4.441   1.544   3.213
 9726SOL    HW130077   4.413   1.621   3.155
 9726SOL    HW230078   4.514   1.493   3.169
 9727SOL     OW30079   0.737   2.639   6.787
 9727SOL    HW130080   0.768   2.544   6.793
 9727SOL    HW230081   0.680   2.660   6.866
 9728SOL     OW30082   0.592   0.716   5.257
 9728SOL    HW130083   0.506   0.698   5.304
 9728SOL    HW230084   0.667   0.671   5.307
 9729SOL     OW30085   1.378   4.657   3.644
 9729SOL    HW130086   1.341   4.674   3.736
 9729SOL    HW230087   1.363   4.561   3.620
 9730SOL     OW30088   1.446   4.544   3.086
 9730SOL    HW130089   1.432   4.517   3.182
 9730SOL    HW230090   1.476   4.639   3.083
 9731SOL     OW30091   4.891   5.660   1.742
 9731SOL    HW130092   4.916   5.600   1.667
 9731SOL    HW230093   4.792   5.675   1.741
 9732SOL     OW30094   0.902   3.867   2.110
 9732SOL    HW130095   0.804   3.866   2.128
 9732SOL    HW230096   0.932   3.961   2.094
 9733SOL     OW30097   5.042   5.733   0.322
 9733SOL    HW130098   5.113   5.720   0.253
 9733SOL    HW230099   5.062   5.676   0.402
 9734SOL     OW30100   0.073   0.576   0.129
 9734SOL    HW130101   0.073   0.542   0.222
 9734SOL    HW230102   0.156   0.630   0.113
 9735SOL     OW30103   1.963   3.058   3.329
 9735SOL    HW130104   2.020   2.985   3.291
 9735SOL    HW230105   1.947   3.128   3.260
 9736SOL     OW30106   5.531   1.368   5.415
 9736SOL    HW130107   5.581   1.453   5.400
 9736SOL    HW230108   5.566   1.323   5.497
 9737SOL     OW30109   5.535   2.393   2.963
 9737SOL    HW130110   5.536   2.314   3.024
 9737SOL    HW230111   5.448   2.442   2.972
 9738SOL     OW30112   2.313   6.736   0.152
 9738SOL    HW130113   2.306   6.725   0.251
 9738SOL    HW230114   2.408   6.758   0.127
 9739SOL     OW30115   5.118   5.708   0.739
 9739SOL    HW130116   5.118   5.638   0.668
 9739SOL    HW230117   5.091   5.668   0.826
 9740SOL     OW30118   0.170   1.360   3.334
 9740SOL    HW130119   0.102   1.295   3.366
 9740SOL    HW230120   0.216   1.323   3.253
 9741SOL     OW30121   2.258   1.183   2.476
 9741SOL    HW130122   2.185   1.121   2.449
 9741SOL    HW230123   2.346   1.145   2.449
 9742SOL     OW30124   3.699   1.162   0.458
 9742SOL    HW130125   3.737   1.253   0.473
 9742SOL    HW230126   3.773   1.095   0.458
 9743SOL     OW30127   6.742   4.004   3.673
 9743SOL    HW130128   6.792   3.925   3.637
 9743SOL    HW230129   6.644   3.986   3.671
 9744SOL     OW30130   1.280   6.732   2.007
 9744SOL    HW130131   1.202   6.777   2.051
 9744SOL    HW230132   1.309   6.654   2.062
 9745SOL     OW30133   4.520   2.852   6.566
 9745SOL    HW130134   4.469   2.856   6.480
 9745SOL    HW230135   4.606   2.901   6.557
 9746SOL     OW30136   5.669   0.705   5.687
 9746SOL    HW130137   5.662   0.784   5.748
 9746SOL    HW230138   5.580   0.659   5.683
 9747SOL     OW30139   2.781   2.235   1.767
 9747SOL    HW130140   2.841   2.256   1.844
 9747SOL    HW230141   2.735   2.318   1.737
 9748SOL     OW30142   6.161   6.760   3.704
 9748SOL    HW130143   6.147   6.857   3.684
 9748SOL    HW230144   6.259   6.739   3.698
 9749SOL     OW30145   1.373   0.872   4.150
 9749SOL    HW130146   1.468   0.851   4.173
 9749SOL    HW230147   1.370   0.956   4.097
 9750SOL     OW30148   5.887   5.287   3.596
 9750SOL    HW130149   5.911   5.199   3.638
 9750SOL    HW230150   5.790   5.287   3.572
 9751SOL     OW30151   2.448   0.000   1.211
 9751SOL    HW130152   2.445   7.009   1.310
 9751SOL    HW230153   2.436   0.097   1.191
 9752SOL     OW30154   4.357   1.316   5.297
 9752SOL    HW130155   4.395   1.224   5.311
 9752SOL    HW230156   4.291   1.336   5.369
 9753SOL     OW30157   0.222   5.705   6.381
 9753SOL    HW130158   0.230   5.703   6.481
 9753SOL    HW230159   0.171   5.625   6.350
 9754SOL     OW30160   2.033   0.051   1.005
 9754SOL    HW130161   1.997   0.136   1.044
 9754SOL    HW230162   2.039   7.005   1.077
 9755SOL     OW30163   3.823   3.709   4.375
 9755SOL    HW130164   3.904   3.759   4.343
 9755SOL    HW230165   3.801   3.737   4.468
 9756SOL     OW30166   5.535   2.091   5.744
 9756SOL    HW130167   5.588   2.106   5.660
 9756SOL    HW230168   5.450   2.143   5.740
 9757SOL     OW30169   5.788   4.510   4.529
 9757SOL    HW130170   5.812   4.426   4.579
 9757SOL    HW230171   5.706   4.551   4.570
 9758SOL     OW30172   2.102   0.437   6.984
 9758SOL    HW130173   2.168   0.503   7.020
 9758SOL    HW230174   2.120   0.347   7.023
 9759SOL     OW30175   1.276   0.881   7.005
 9759SOL    HW130176   1.341   0.908   6.934
 9759SOL    HW230177   1.185   0.869   6.966
 9760SOL     OW30178   4.887   3.467   5.629
 9760SOL    HW130179   4.904   3.392   5.692
 9760SOL    HW230180   4.895   3.435   5.535
 9761SOL     OW30181   0.707   2.049   1.442
 9761SOL    HW130182   0.735   1.989   1.367
 9761SOL    HW230183   0.760   2.134   1.437
 9762SOL     OW30184   3.458   1.989   4.679
 9762SOL    HW130185   3.379   2.044   4.651
 9762SOL    HW230186   3.485   2.015   4.772
 9763SOL     OW30187   4.836   2.051   2.915
 9763SOL    HW130188   4.778   1.978   2.951
 9763SOL    HW230189   4.779   2.127   2.884
 9764SOL     OW30190   6.532   2.757   3.042
 9764SOL    HW130191   6.470   2.699   2.990
 9764SOL    HW230192   6.506   2.757   3.138
 9765SOL     OW30193   6.472   6.513   3.467
 9765SOL    HW130194   6.484   6.532   3.370
 9765SOL    HW230195   6.425   6.426   3.479
 9766SOL     OW30196   2.359   6.602   2.186
 9766SOL    HW130197   2.455   6.589   2.163
 9766SOL    HW230198   2.304   6.532   2.140
 9767SOL     OW30199   3.266   1.712   5.500
 9767SOL    HW130200   3.242   1.806   5.474
 9767SOL    HW230201   3.271   1.655   5.418
 9768SOL     OW30202   5.541   1.181   1.546
 9768SOL    HW130203   5.511   1.276   1.550
 9768SOL    HW230204   5.490   1.133   1.475
 9769SOL     OW30205   4.431   0.590   4.476
 9769SOL    HW130206   4.347   0.602   4.423
 9769SOL    HW230207   4.430   0.651   4.555
 9770SOL     OW30208   4.137   1.018   6.189
 9770SOL    HW130209   4.096   0.977   6.270
 9770SOL    HW230210   4.169   0.945   6.128
 9771SOL     OW30211   2.622   5.453   0.993
 9771SOL    HW130212   2.542   5.414   0.947
 9771SOL    HW230213   2.679   5.499   0.925
 9772SOL     OW30214   1.438   5.981   1.340
 9772SOL    HW130215   1.511   5.982   1.272
 9772SOL    HW230216   1.475   6.010   1.429
 9773SOL     OW30217   5.627   5.539   4.235
 9773SOL    HW130218   5.565   5.461   4.241
 9773SOL    HW230219   5.604   5.605   4.306
 9774SOL     OW30220   6.465   5.310   2.139
 9774SOL    HW130221   6.394   5.240   2.141
 9774SOL    HW230222   6.444   5.378   2.069
 9775SOL     OW30223   2.589   0.365   3.658
 9775SOL    HW130224   2.623   0.283   3.613
 9775SOL    HW230225   2.604   0.357   3.757
 9776SOL     OW30226   0.202   4.788   5.506
 9776SOL    HW130227   0.134   4.756   5.439
 9776SOL    HW230228   0.165   4.779   5.598
 9777SOL     OW30229   5.869   5.209   0.685
 9777SOL    HW130230   5.834   5.242   0.597
 9777SOL    HW230231   5.927   5.279   0.727
 9778SOL     OW30232   0.365   2.032   4.463
 9778SOL    HW130233   0.451   2.076   4.438
 9778SOL    HW230234   0.361   1.941   4.421
 9779SOL     OW30235   0.581   2.190   4.446
 9779SOL    HW130236   0.582   2.206   4.347
 9779SOL    HW230237   0.676   2.184   4.479
 9780SOL     OW30238   2.768   2.408   6.993
 9780SOL    HW130239   2.853   2.460   7.001
 9780SOL    HW230240   2.690   2.469   7.008
 9781SOL     OW30241   2.263   2.452   4.871
 9781SOL    HW130242   2.266   2.544   4.832
 9781SOL    HW230243   2.354   2.427   4.903
 9782SOL     OW30244   0.144   1.591   0.742
 9782SOL    HW130245   0.075   1.628   0.804
 9782SOL    HW230246   0.109   1.508   0.698
 9783SOL     OW30247   4.816   2.983   3.118
 9783SOL    HW130248   4.813   3.053   3.188
 9783SOL    HW230249   4.873   3.014   3.042
 9784SOL     OW30250   3.314   1.505   6.557
 9784SOL    HW130251   3.359   1.466   6.637
 9784SOL    HW230252   3.361   1.473   6.474
 9785SOL     OW30253   0.598   2.168   5.951
 9785SOL    HW130254   0.615   2.071   5.936
 9785SOL    HW230255   0.618   2.192   6.046
 9786SOL     OW30256   2.934   4.020   0.486
 9786SOL    HW130257   2.883   4.096   0.447
 9786SOL    HW230258   2.971   3.963   0.412
 9787SOL     OW30259   3.243   2.897   2.451
 9787SOL    HW130260   3.208   2.865   2.363
 9787SOL    HW230261   3.168   2.911   2.514
 9788SOL     OW30262   0.956   0.249   3.264
 9788SOL    HW130263   0.871   0.235   3.213
 9788SOL    HW230264   1.022   0.179   3.237
 9789SOL     OW30265   1.586   5.265   0.320
 9789SOL    HW130266   1.552   5.172   0.335
 9789SOL    HW230267   1.625   5.272   0.228
 9790SOL     OW30268   6.379   5.014   6.865
 9790SOL    HW130269   6.434   4.960   6.929
 9790SOL    HW230270   6.424   5.102   6.848
 9791SOL     OW30271   0.941   0.164   7.017
 9791SOL    HW130272   0.904   0.074   0.015
 9791SOL    HW230273   0.920   0.186   6.921
 9792SOL     OW30274   3.406   4.240   0.888
 9792SOL    HW130275   3.505   4.235   0.906
 9792SOL    HW230276   3.360   4.164   0.934
 9793SOL     OW30277   4.400   0.278   2.578
 9793SOL    HW130278   4.360   0.326   2.500
 9793SOL    HW230279   4.340   0.203   2.606
 9794SOL     OW30280   0.078   4.160   6.505
 9794SOL    HW130281   0.040   4.207   6.585
 9794SOL    HW230282   0.014   4.089   6.475
 9795SOL     OW30283   1.293   1.832   4.725
 9795SOL    HW130284   1.253   1.797   4.640
 9795SOL    HW230285   1.219   1.858   4.787
 9796SOL     OW30286   4.091   3.280   2.354
 9796SOL    HW130287   4.126   3.347   2.420
 9796SOL    HW230288   4.034   3.213   2.401
 9797SOL     OW30289   2.457   5.730   0.523
 9797SOL    HW130290   2.372   5.719   0.575
 9797SOL    HW230291   2.470   5.651   0.463
 9798SOL     OW30292   3.518   0.505   2.165
 9798SOL    HW130293   3.522   0.529   2.068
 9798SOL    HW230294   3.423   0.487   2.192
 9799SOL     OW30295   2.433   4.297   5.572
 9799SOL    HW130296   2.431   4.288   5.472
 9799SOL    HW230297   2.523   4.269   5.606
 9800SOL     OW30298   4.995   5.254   5.271
 9800SOL    HW130299   4.985   5.319   5.346
 9800SOL    HW230300   4.913   5.254   5.215
 9801SOL     OW30301   4.673   3.899   0.145
 9801SOL    HW130302   4.652   3.840   0.222
 9801SOL    HW230303   4.750   3.861   0.093
 9802SOL     OW30304   6.326   4.284   1.839
 9802SOL    HW130305   6.284   4.301   1.928
 9802SOL    HW230306   6.295   4.353   1.773
 9803SOL     OW30307   2.028   2.416   6.313
 9803SOL    HW130308   2.008   2.320   6.294
 9803SOL    HW230309   2.021   2.469   6.228
 9804SOL     OW30310   1.037   6.430   2.942
 9804SOL    HW130311   1.066   6.427   3.038
 9804SOL    HW230312   1.103   6.382   2.885
 9805SOL     OW30313   0.848   0.103   2.850
 9805SOL    HW130314   0.895   0.028   2.896
 9805SOL    HW230315   0.915   0.174   2.827
 9806SOL     OW30316   1.580   1.037   6.853
 9806SOL    HW130317   1.553   1.030   6.757
 9806SOL    HW230318   1.580   1.133   6.881
 9807SOL     OW30319   3.311   3.882   1.484
 9807SOL    HW130320   3.317   3.898   1.583
 9807SOL    HW230321   3.388   3.926   1.438
 9808SOL     OW30322   3.667   6.661   4.848
 9808SOL    HW130323   3.567   6.662   4.840
 9808SOL    HW230324   3.692   6.674   4.944
 9809SOL     OW30325   1.001   3.615   6.428
 9809SOL    HW130326   0.902   3.626   6.430
 9809SOL    HW230327   1.041   3.682   6.364
 9810SOL     OW30328   2.159   2.598   3.601
 9810SOL    HW130329   2.136   2.519   3.658
 9810SOL    HW230330   2.248   2.583   3.557
 9811SOL     OW30331   5.547   4.541   3.104
 9811SOL    HW130332   5.590   4.616   3.154
 9811SOL    HW230333   5.495   4.483   3.167
 9812SOL     OW30334   4.034   1.724   5.704
 9812SOL    HW130335   4.124   1.739   5.664
 9812SOL    HW230336   4.031   1.635   5.749
 9813SOL     OW30337   4.650   1.434   0.587
 9813SOL    HW130338   4.607   1.388   0.509
 9813SOL    HW230339   4.581   1.451   0.658
 9814SOL     OW30340   0.102   0.010   6.441
 9814SOL    HW130341   0.075   0.021   6.537
 9814SOL    HW230342   0.044   0.069   6.384
 9815SOL     OW30343   5.227   3.786   4.555
 9815SOL    HW130344   5.304   3.849   4.565
 9815SOL    HW230345   5.213   3.736   4.641
 9816SOL     OW30346   1.000   0.758   6.187
 9816SOL    HW130347   0.940   0.762   6.107
 9816SOL    HW230348   1.079   0.700   6.168
 9817SOL     OW30349   2.979   6.441   3.174
 9817SOL    HW130350   2.996   6.538   3.185
 9817SOL    HW230351   2.953   6.422   3.079
 9818SOL     OW30352   0.786   0.342   3.777
 9818SOL    HW130353   0.770   0.326   3.679
 9818SOL    HW230354   0.880   0.375   3.790
 9819SOL     OW30355   4.893   3.550   3.262
 9819SOL    HW130356   4.794   3.549   3.276
 9819SOL    HW230357   4.936   3.602   3.336
 9820SOL     OW30358   4.118   2.944   6.303
 9820SOL    HW130359   4.063   3.027   6.316
 9820SOL    HW230360   4.060   2.864   6.312
 9821SOL     OW30361   4.888   1.597   6.535
 9821SOL    HW130362   4.871   1.521   6.471
 9821SOL    HW230363   4.955   1.568   6.603
 9822SOL     OW30364   1.664   0.203   3.493
 9822SOL    HW130365   1.584   0.181   3.438
 9822SOL    HW230366   1.729   0.255   3.438
 9823SOL     OW30367   2.727   0.471   7.008
 9823SOL    HW130368   2.740   0.464   6.909
 9823SOL    HW230369   2.778   0.549   0.019
 9824SOL     OW30370   2.008   5.073   4.550
 9824SOL    HW130371   1.910   5.052   4.540
 9824SOL    HW230372   2.039   5.047   4.641
 9825SOL     OW30373   4.855   5.652   5.454
 9825SOL    HW130374   4.852   5.677   5.357
 9825SOL    HW230375   4.854   5.734   5.510
 9826SOL     OW30376   4.974   4.872   6.487
 9826SOL    HW130377   5.067   4.885   6.452
 9826SOL    HW230378   4.934   4.790   6.446
 9827SOL     OW30379   2.132   3.640   3.451
 9827SOL    HW130380   2.160   3.730   3.419
 9827SOL    HW230381   2.035   3.641   3.475
 9828SOL     OW30382   2.403   2.639   5.610
 9828SOL    HW130383   2.459   2.623   5.529
 9828SOL    HW230384   2.428   2.574   5.682
 9829SOL     OW30385   4.089   4.866   0.160
 9829SOL    HW130386   4.181   4.874   0.197
 9829SOL    HW230387   4.022   4.888   0.231
 9830SOL     OW30388   6.057   2.529   2.082
 9830SOL    HW130389   5.977   2.471   2.063
 9830SOL    HW230390   6.033   2.624   2.066
 9831SOL     OW30391   2.423   5.161   1.354
 9831SOL    HW130392   2.473   5.105   1.288
 9831SOL    HW230393   2.326   5.162   1.331
 9832SOL     OW30394   4.970   5.550   3.154
 9832SOL    HW130395   5.007   5.619   3.215
 9832SOL    HW230396   5.044   5.493   3.118
 9833SOL     OW30397   3.558   3.589   5.121
 9833SOL    HW130398   3.460   3.604   5.105
 9833SOL    HW230399   3.590   3.650   5.193
 9834SOL     OW30400   2.644   4.532   5.281
 9834SOL    HW130401   2.730   4.547   5.232
 9834SOL    HW230402   2.651   4.571   5.373
 9835SOL     OW30403   4.111   3.280   5.405
 9835SOL    HW130404   4.027   3.268   5.352
 9835SOL    HW230405   4.106   3.223   5.488
 9836SOL     OW30406   6.827   4.657   3.629
 9836SOL    HW130407   6.815   4.591   3.703
 9836SOL    HW230408   6.905   4.716   3.649
 9837SOL     OW30409   3.113   0.215   3.272
 9837SOL    HW130410   3.117   0.273   3.353
 9837SOL    HW230411   3.168   0.255   3.199
 9838SOL     OW30412   2.040   6.940   6.765
 9838SOL    HW130413   2.001   6.850   6.746
 9838SOL    HW230414   2.121   6.930   6.822
 9839SOL     OW30415   5.674   0.694   3.539
 9839SOL    HW130416   5.749   0.707   3.475
 9839SOL    HW230417   5.694   0.616   3.598
 9840SOL     OW30418   5.778   1.350   1.008
 9840SOL    HW130419   5.724   1.323   1.087
 9840SOL    HW230420   5.830   1.433   1.030
 9841SOL     OW30421   2.189   4.650   5.098
 9841SOL    HW130422   2.186   4.616   5.192
 9841SOL    HW230423   2.275   4.701   5.085
 9842SOL     OW30424   3.751   3.285   2.098
 9842SOL    HW130425   3.680   3.260   2.031
 9842SOL    HW230426   3.831   3.227   2.084
 9843SOL     OW30427   6.104   0.806   1.254
 9843SOL    HW130428   6.166   0.839   1.326
 9843SOL    HW230429   6.047   0.882   1.222
 9844SOL     OW30430   6.211   0.457   2.069
 9844SOL    HW130431   6.140   0.406   2.119
 9844SOL    HW230432   6.198   0.444   1.971
 9845SOL     OW30433   1.956   2.534   2.841
 9845SOL    HW130434   2.017   2.590   2.897
 9845SOL    HW230435   1.952   2.441   2.877
 9846SOL     OW30436   3.679   3.402   1.765
 9846SOL    HW130437   3.712   3.490   1.732
 9846SOL    HW230438   3.640   3.412   1.856
 9847SOL     OW30439   3.543   2.953   3.675
 9847SOL    HW130440   3.557   2.897   3.594
 9847SOL    HW230441   3.583   2.908   3.755
 9848SOL     OW30442   4.013   3.340   4.993
 9848SOL    HW130443   3.942   3.403   4.961
 9848SOL    HW230444   4.103   3.378   4.973
 9849SOL     OW30445   0.109   6.697   6.494
 9849SOL    HW130446   0.084   6.622   6.555
 9849SOL    HW230447   0.123   6.780   6.546
 9850SOL     OW30448   5.873   0.116   4.238
 9850SOL    HW130449   5.877   0.050   4.313
 9850SOL    HW230450   5.778   0.145   4.226
 9851SOL     OW30451   5.918   0.774   4.565
 9851SOL    HW130452   5.968   0.848   4.610
 9851SOL    HW230453   5.847   0.739   4.626
 9852SOL     OW30454   4.079   2.144   3.555
 9852SOL    HW130455   4.137   2.138   3.473
 9852SOL    HW230456   4.103   2.070   3.618
 9853SOL     OW30457   4.808   4.027   5.019
 9853SOL    HW130458   4.795   4.079   5.103
 9853SOL    HW230459   4.723   3.980   4.995
 9854SOL     OW30460   6.969   5.492   5.083
 9854SOL    HW130461   6.921   5.516   4.999
 9854SOL    HW230462   6.910   5.437   5.141
 9855SOL     OW30463   2.053   3.349   1.156
 9855SOL    HW130464   1.965   3.396   1.152
 9855SOL    HW230465   2.079   3.335   1.251
 9856SOL     OW30466   5.254   4.708   5.241
 9856SOL    HW130467   5.226   4.661   5.157
 9856SOL    HW230468   5.270   4.804   5.222
 9857SOL     OW30469   4.877   2.865   2.772
 9857SOL    HW130470   4.864   2.890   2.676
 9857SOL    HW230471   4.936   2.932   2.816
 9858SOL     OW30472   0.479   0.856   1.168
 9858SOL    HW130473   0.479   0.766   1.213
 9858SOL    HW230474   0.397   0.865   1.112
 9859SOL     OW30475   6.216   6.913   2.412
 9859SOL    HW130476   6.242   6.857   2.491
 9859SOL    HW230477   6.201   7.008   2.442
 9860SOL     OW30478   1.141   1.634   3.512
 9860SOL    HW130479   1.133   1.547   3.462
 9860SOL    HW230480   1.228   1.636   3.560
 9861SOL     OW30481   2.821   0.183   3.572
 9861SOL    HW130482   2.898   0.246   3.564
 9861SOL    HW230483   2.835   0.106   3.509
 9862SOL     OW30484   3.818   2.884   0.079
 9862SOL    HW130485   3.770   2.916   0.161
 9862SOL    HW230486   3.784   2.792   0.055
 9863SOL     OW30487   3.248   0.140   2.875
 9863SOL    HW130488   3.230   0.045   2.900
 9863SOL    HW230489   3.236   0.152   2.776
 9864SOL     OW30490   4.104   6.950   3.946
 9864SOL    HW130491   4.144   0.018   3.938
 9864SOL    HW230492   4.008   6.954   3.918
 9865SOL     OW30493   1.312   0.712   4.533
 9865SOL    HW130494   1.282   0.692   4.626
 9865SOL    HW230495   1.388   0.776   4.535
 9866SOL     OW30496   5.455   4.728   6.342
 9866SOL    HW130497   5.421   4.676   6.264
 9866SOL    HW230498   5.551   4.753   6.326
 9867SOL     OW30499   6.546   0.802   1.127
 9867SOL    HW130500   6.644   0.784   1.124
 9867SOL    HW230501   6.513   0.795   1.221
 9868SOL     OW30502   0.334   3.582   5.485
 9868SOL    HW130503   0.257   3.638   5.515
 9868SOL    HW230504   0.394   3.636   5.426
 9869SOL     OW30505   1.366   3.045   1.841
 9869SOL    HW130506   1.281   3.029   1.891
 9869SOL    HW230507   1.444   3.039   1.903
 9870SOL     OW30508   3.821   6.142   2.813
 9870SOL    HW130509   3.846   6.056   2.857
 9870SOL    HW230510   3.856   6.219   2.867
 9871SOL     OW30511   0.261   6.041   5.824
 9871SOL    HW130512   0.319   6.113   5.863
 9871SOL    HW230513   0.286   5.953   5.863
 9872SOL     OW30514   2.405   5.523   4.143
 9872SOL    HW130515   2.464   5.604   4.148
 9872SOL    HW230516   2.461   5.441   4.152
 9873SOL     OW30517   2.497   2.548   0.044
 9873SOL    HW130518   2.453   2.464   0.073
 9873SOL    HW230519   2.481   2.619   0.112
 9874SOL     OW30520   5.832   3.087   4.796
 9874SOL    HW130521   5.834   2.995   4.758
 9874SOL    HW230522   5.736   3.116   4.806
 9875SOL     OW30523   5.870   6.630   1.778
 9875SOL    HW130524   5.786   6.683   1.789
 9875SOL    HW230525   5.919   6.625   1.865
 9876SOL     OW30526   6.485   0.116   3.383
 9876SOL    HW130527   6.497   0.165   3.470
 9876SOL    HW230528   6.481   0.018   3.401
 9877SOL     OW30529   6.756   5.816   4.528
 9877SOL    HW130530   6.708   5.894   4.567
 9877SOL    HW230531   6.733   5.809   4.431
 9878SOL     OW30532   2.603   4.827   5.095
 9878SOL    HW130533   2.592   4.898   5.026
 9878SOL    HW230534   2.693   4.784   5.084
 9879SOL     OW30535   5.583   5.202   5.199
 9879SOL    HW130536   5.558   5.207   5.295
 9879SOL    HW230537   5.520   5.257   5.145
 9880SOL     OW30538   3.702   0.726   6.918
 9880SOL    HW130539   3.713   0.826   6.923
 9880SOL    HW230540   3.639   0.704   6.843
 9881SOL     OW30541   1.061   1.243   4.658
 9881SOL    HW130542   1.116   1.262   4.740
 9881SOL    HW230543   1.088   1.155   4.620
 9882SOL     OW30544   1.333   3.232   4.502
 9882SOL    HW130545   1.403   3.241   4.573
 9882SOL    HW230546   1.326   3.317   4.450
 9883SOL     OW30547   1.122   6.379   0.923
 9883SOL    HW130548   1.213   6.349   0.953
 9883SOL    HW230549   1.104   6.471   0.957
 9884SOL     OW30550   4.790   2.480   1.586
 9884SOL    HW130551   4.881   2.442   1.575
 9884SOL    HW230552   4.797   2.577   1.609
 9885SOL     OW30553   6.796   2.086   4.747
 9885SOL    HW130554   6.789   2.009   4.684
 9885SOL    HW230555   6.892   2.114   4.755
 9886SOL     OW30556   1.417   4.703   1.632
 9886SOL    HW130557   1.480   4.746   1.696
 9886SOL    HW230558   1.329   4.687   1.677
 9887SOL     OW30559   3.963   0.002   6.436
 9887SOL    HW130560   3.901   0.080   6.451
 9887SOL    HW230561   3.985   6.984   6.524
 9888SOL     OW30562   5.517   5.240   2.404
 9888SOL    HW130563   5.579   5.162   2.403
 9888SOL    HW230564   5.565   5.319   2.443
 9889SOL     OW30565   6.520   4.929   0.903
 9889SOL    HW130566   6.468   5.014   0.910
 9889SOL    HW230567   6.579   4.919   0.984
 9890SOL     OW30568   0.948   2.809   1.404
 9890SOL    HW130569   0.992   2.761   1.328
 9890SOL    HW230570   0.859   2.844   1.374
 9891SOL     OW30571   5.768   3.311   2.034
 9891SOL    HW130572   5.688   3.358   1.998
 9891SOL    HW230573   5.797   3.240   1.969
 9892SOL     OW30574   0.831   4.899   1.761
 9892SOL    HW130575   0.885   4.924   1.841
 9892SOL    HW230576   0.892   4.877   1.684
 9893SOL     OW30577   0.345   0.662   1.998
 9893SOL    HW130578   0.406   0.737   1.973
 9893SOL    HW230579   0.256   0.699   2.023
 9894SOL     OW30580   3.242   2.202   0.347
 9894SOL    HW130581   3.217   2.289   0.305
 9894SOL    HW230582   3.159   2.155   0.380
 9895SOL     OW30583   5.660   4.095   5.337
 9895SOL    HW130584   5.593   4.027   5.308
 9895SOL    HW230585   5.703   4.066   5.422
 9896SOL     OW30586   6.269   1.101   0.720
 9896SOL    HW130587   6.231   1.062   0.635
 9896SOL    HW230588   6.369   1.092   0.719
 9897SOL     OW30589   5.706   6.822   2.510
 9897SOL    HW130590   5.783   6.823   2.446
 9897SOL    HW230591   5.629   6.872   2.470
 9898SOL     OW30592   1.093   5.322   5.668
 9898SOL    HW130593   1.147   5.272   5.736
 9898SOL    HW230594   1.138   5.410   5.647
 9899SOL     OW30595   1.437   5.393   1.185
 9899SOL    HW130596   1.468   5.380   1.279
 9899SOL    HW230597   1.360   5.457   1.184
 9900SOL     OW30598   1.353   3.018   2.944
 9900SOL    HW130599   1.318   2.955   3.013
 9900SOL    HW230600   1.446   3.047   2.968
 9901SOL     OW30601   2.903   0.877   6.968
 9901SOL    HW130602   2.938   0.797   7.015
 9901SOL    HW230603   2.978   0.927   6.926
 9902SOL     OW30604   2.969   4.712   1.464
 9902SOL    HW130605   2.944   4.619   1.434
 9902SOL    HW230606   3.063   4.731   1.437
 9903SOL     OW30607   5.361   1.392   1.608
 9903SOL    HW130608   5.308   1.308   1.617
 9903SOL    HW230609   5.354   1.427   1.515
 9904SOL     OW30610   0.752   3.872   6.686
 9904SOL    HW130611   0.701   3.852   6.602
 9904SOL    HW230612   0.810   3.794   6.709
 9905SOL     OW30613   2.430   0.203   5.761
 9905SOL    HW130614   2.352   0.239   5.711
 9905SOL    HW230615   2.408   0.197   5.858
 9906SOL     OW30616   1.824   3.156   0.379
 9906SOL    HW130617   1.914   3.153   0.335
 9906SOL    HW230618   1.801   3.251   0.403
 9907SOL     OW30619   1.392   0.508   1.132
 9907SOL    HW130620   1.417   0.484   1.039
 9907SOL    HW230621   1.424   0.601   1.152
 9908SOL     OW30622   6.466   1.945   4.679
 9908SOL    HW130623   6.530   2.018   4.658
 9908SOL    HW230624   6.515   1.864   4.711
 9909SOL     OW30625   3.806   0.868   2.554
 9909SOL    HW130626   3.898   0.863   2.593
 9909SOL    HW230627   3.813   0.888   2.456
 9910SOL     OW30628   1.304   4.799   1.344
 9910SOL    HW130629   1.365   4.877   1.350
 9910SOL    HW230630   1.321   4.736   1.420
 9911SOL     OW30631   2.814   6.004   2.433
 9911SOL    HW130632   2.800   6.099   2.403
 9911SOL    HW230633   2.758   5.987   2.514
 9912SOL     OW30634   3.704   1.608   0.954
 9912SOL    HW130635   3.697   1.537   0.884
 9912SOL    HW230636   3.791   1.657   0.945
 9913SOL     OW30637   6.411   3.595   0.694
 9913SOL    HW130638   6.459   3.534   0.630
 9913SOL    HW230639   6.327   3.551   0.725
 9914SOL     OW30640   6.271   0.759   5.151
 9914SOL    HW130641   6.225   0.726   5.233
 9914SOL    HW230642   6.369   0.740   5.157
 9915SOL     OW30643   6.092   0.782   3.627
 9915SOL    HW130644   6.087   0.818   3.720
 9915SOL    HW230645   6.163   0.711   3.623
 9916SOL     OW30646   2.140   2.283   2.808
 9916SOL    HW130647   2.116   2.331   2.724
 9916SOL    HW230648   2.176   2.348   2.875
 9917SOL     OW30649   4.190   4.018   6.145
 9917SOL    HW130650   4.198   4.114   6.117
 9917SOL    HW230651   4.094   3.996   6.159
 9918SOL     OW30652   1.350   2.468   2.910
 9918SOL    HW130653   1.400   2.496   2.828
 9918SOL    HW230654   1.405   2.402   2.961
 9919SOL     OW30655   1.658   5.660   0.935
 9919SOL    HW130656   1.744   5.662   0.986
 9919SOL    HW230657   1.581   5.666   0.999
 9920SOL     OW30658   5.574   0.507   2.389
 9920SOL    HW130659   5.490   0.489   2.338
 9920SOL    HW230660   5.641   0.549   2.328
 9921SOL     OW30661   4.310   6.276   4.150
 9921SOL    HW130662   4.404   6.298   4.126
 9921SOL    HW230663   4.248   6.313   4.081
 9922SOL     OW30664   3.669   4.187   0.954
 9922SOL    HW130665   3.754   4.158   0.910
 9922SOL    HW230666   3.632   4.110   1.008
 9923SOL     OW30667   5.941   4.387   6.567
 9923SOL    HW130668   5.946   4.480   6.531
 9923SOL    HW230669   5.851   4.372   6.608
 9924SOL     OW30670   6.059   2.250   3.080
 9924SOL    HW130671   5.978   2.309   3.076
 9924SOL    HW230672   6.117   2.270   3.001
 9925SOL     OW30673   0.390   5.424   4.224
 9925SOL    HW130674   0.470   5.381   4.182
 9925SOL    HW230675   0.408   5.441   4.321
 9926SOL     OW30676   4.225   2.370   1.007
 9926SOL    HW130677   4.162   2.309   1.054
 9926SOL    HW230678   4.202   2.375   0.910
 9927SOL     OW30679   1.901   0.616   0.802
 9927SOL    HW130680   1.904   0.676   0.722
 9927SOL    HW230681   1.920   0.670   0.884
 9928SOL     OW30682   5.015   4.721   3.670
 9928SOL    HW130683   4.993   4.624   3.660
 9928SOL    HW230684   5.062   4.754   3.588
 9929SOL     OW30685   3.597   4.142   4.502
 9929SOL    HW130686   3.564   4.056   4.542
 9929SOL    HW230687   3.688   4.127   4.462
 9930SOL     OW30688   0.112   6.843   5.566
 9930SOL    HW130689   0.209   6.820   5.556
 9930SOL    HW230690   0.103   6.934   5.606
 9931SOL     OW30691   0.064   5.058   4.765
 9931SOL    HW130692   7.013   5.008   4.722
 9931SOL    HW230693   0.035   5.091   4.855
 9932SOL     OW30694   2.699   3.139   5.771
 9932SOL    HW130695   2.668   3.134   5.676
 9932SOL    HW230696   2.798   3.128   5.775
 9933SOL     OW30697   1.550   6.705   4.157
 9933SOL    HW130698   1.540   6.685   4.254
 9933SOL    HW230699   1.636   6.665   4.123
 9934SOL     OW30700   0.245   2.281   6.264
 9934SOL    HW130701   0.244   2.187   6.297
 9934SOL    HW230702   0.211   2.343   6.335
 9935SOL     OW30703   2.706   7.020   1.001
 9935SOL    HW130704   2.627   0.056   0.989
 9935SOL    HW230705   2.721   6.969   0.916
 9936SOL     OW30706   5.810   4.512   0.548
 9936SOL    HW130707   5.864   4.593   0.572
 9936SOL    HW230708   5.728   4.540   0.499
 9937SOL     OW30709   0.367   2.153   1.716
 9937SOL    HW130710   0.348   2.218   1.643
 9937SOL    HW230711   0.456   2.174   1.757
 9938SOL     OW30712   5.381   4.889   3.720
 9938SOL    HW130713   5.441   4.810   3.713
 9938SOL    HW230714   5.311   4.872   3.789
 9939SOL     OW30715   4.377   2.786   1.101
 9939SOL    HW130716   4.413   2.748   1.016
 9939SOL    HW230717   4.312   2.859   1.081
 9940SOL     OW30718   1.033   0.452   1.851
 9940SOL    HW130719   1.020   0.355   1.830
 9940SOL    HW230720   1.010   0.469   1.947
 9941SOL     OW30721   3.353   3.700   5.358
 9941SOL    HW130722   3.399   3.776   5.405
 9941SOL    HW230723   3.334   3.627   5.424
 9942SOL     OW30724   3.457   5.091   2.675
 9942SOL    HW130725   3.535   5.154   2.674
 9942SOL    HW230726   3.479   5.010   2.622
 9943SOL     OW30727   0.858   4.887   6.477
 9943SOL    HW130728   0.887   4.800   6.518
 9943SOL    HW230729   0.872   4.883   6.378
 9944SOL     OW30730   0.752   4.557   6.336
 9944SOL    HW130731   0.704   4.519   6.416
 9944SOL    HW230732   0.686   4.579   6.265
 9945SOL     OW30733   4.806   5.971   7.019
 9945SOL    HW130734   4.839   6.007   0.083
 9945SOL    HW230735   4.706   5.974   7.018
 9946SOL     OW30736   6.196   0.209   3.577
 9946SOL    HW130737   6.113   0.258   3.603
 9946SOL    HW230738   6.173   0.133   3.517
 9947SOL     OW30739   2.678   2.349   4.457
 9947SOL    HW130740   2.749   2.288   4.493
 9947SOL    HW230741   2.636   2.399   4.533
 9948SOL     OW30742   6.813   5.096   6.257
 9948SOL    HW130743   6.762   5.011   6.251
 9948SOL    HW230744   6.777   5.152   6.332
 9949SOL     OW30745   6.687   4.645   4.185
 9949SOL    HW130746   6.626   4.597   4.123
 9949SOL    HW230747   6.750   4.702   4.133
 9950SOL     OW30748   5.889   6.042   6.341
 9950SOL    HW130749   5.833   5.967   6.376
 9950SOL    HW230750   5.909   6.107   6.414
 9951SOL     OW30751   1.554   2.492   3.308
 9951SOL    HW130752   1.474   2.502   3.250
 9951SOL    HW230753   1.541   2.414   3.370
 9952SOL     OW30754   1.088   4.454   0.499
 9952SOL    HW130755   1.160   4.432   0.433
 9952SOL    HW230756   1.120   4.434   0.591
 9953SOL     OW30757   6.216   2.629   3.751
 9953SOL    HW130758   6.196   2.570   3.830
 9953SOL    HW230759   6.148   2.614   3.680
 9954SOL     OW30760   1.150   0.297   5.522
 9954SOL    HW130761   1.179   0.380   5.570
 9954SOL    HW230762   1.054   0.278   5.545
 9955SOL     OW30763   4.884   4.093   6.463
 9955SOL    HW130764   4.938   4.015   6.496
 9955SOL    HW230765   4.787   4.075   6.478
 9956SOL     OW30766   1.080   5.659   3.899
 9956SOL    HW130767   1.064   5.658   3.801
 9956SOL    HW230768   0.993   5.643   3.947
 9957SOL     OW30769   5.688   0.146   1.630
 9957SOL    HW130770   5.601   0.104   1.604
 9957SOL    HW230771   5.722   0.202   1.554
 9958SOL     OW30772   2.297   5.663   6.885
 9958SOL    HW130773   2.372   5.600   6.905
 9958SOL    HW230774   2.234   5.622   6.819
 9959SOL     OW30775   4.096   3.633   3.789
 9959SOL    HW130776   4.194   3.612   3.786
 9959SOL    HW230777   4.069   3.677   3.704
 9960SOL     OW30778   6.910   0.272   1.866
 9960SOL    HW130779   6.958   0.248   1.951
 9960SOL    HW230780   6.815   0.244   1.873
 9961SOL     OW30781   1.272   4.966   4.486
 9961SOL    HW130782   1.227   5.001   4.569
 9961SOL    HW230783   1.280   4.867   4.492
 9962SOL     OW30784   4.616   1.135   2.486
 9962SOL    HW130785   4.650   1.058   2.432
 9962SOL    HW230786   4.545   1.103   2.549
 9963SOL     OW30787   2.425   2.501   6.067
 9963SOL    HW130788   2.385   2.555   6.141
 9963SOL    HW230789   2.480   2.560   6.008
 9964SOL     OW30790   4.568   3.909   5.994
 9964SOL    HW130791   4.578   3.998   6.038
 9964SOL    HW230792   4.565   3.837   6.063
 9965SOL     OW30793   4.223   5.108   6.076
 9965SOL    HW130794   4.170   5.023   6.072
 9965SOL    HW230795   4.292   5.107   6.004
 9966SOL     OW30796   2.499   5.689   2.094
 9966SOL    HW130797   2.507   5.676   2.193
 9966SOL    HW230798   2.500   5.786   2.073
 9967SOL     OW30799   6.194   6.061   1.620
 9967SOL    HW130800   6.224   6.036   1.528
 9967SOL    HW230801   6.103   6.103   1.615
 9968SOL     OW30802   3.336   4.185   6.294
 9968SOL    HW130803   3.315   4.265   6.238
 9968SOL    HW230804   3.313   4.204   6.389
 9969SOL     OW30805   1.715   3.185   4.189
 9969SOL    HW130806   1.636   3.157   4.134
 9969SOL    HW230807   1.788   3.218   4.129
 9970SOL     OW30808   5.526   4.795   2.470
 9970SOL    HW130809   5.462   4.809   2.394
 9970SOL    HW230810   5.569   4.883   2.493
 9971SOL     OW30811   2.799   3.493   0.508
 9971SOL    HW130812   2.699   3.501   0.508
 9971SOL    HW230813   2.827   3.434   0.432
 9972SOL     OW30814   3.615   4.151   0.588
 9972SOL    HW130815   3.525   4.114   0.562
 9972SOL    HW230816   3.603   4.240   0.632
 9973SOL     OW30817   4.123   1.557   4.020
 9973SOL    HW130818   4.107   1.639   3.965
 9973SOL    HW230819   4.172   1.582   4.103
 9974SOL     OW30820   6.280   3.747   3.466
 9974SOL    HW130821   6.304   3.736   3.369
 9974SOL    HW230822   6.262   3.657   3.506
 9975SOL     OW30823   6.277   4.388   0.206
 9975SOL    HW130824   6.238   4.297   0.224
 9975SOL    HW230825   6.376   4.380   0.196
 9976SOL     OW30826   0.427   5.495   5.560
 9976SOL    HW130827   0.443   5.593   5.550
 9976SOL    HW230828   0.464   5.447   5.481
 9977SOL     OW30829   0.104   5.449   6.438
 9977SOL    HW130830   0.020   5.422   6.392
 9977SOL    HW230831   0.181   5.397   6.400
 9978SOL     OW30832   6.500   2.985   3.444
 9978SOL    HW130833   6.545   3.010   3.529
 9978SOL    HW230834   6.501   3.064   3.382
 9979SOL     OW30835   6.129   4.752   5.741
 9979SOL    HW130836   6.042   4.748   5.693
 9979SOL    HW230837   6.197   4.798   5.684
 9980SOL     OW30838   1.720   1.594   6.362
 9980SOL    HW130839   1.811   1.604   6.405
 9980SOL    HW230840   1.655   1.655   6.407
 9981SOL     OW30841   2.288   1.921   1.296
 9981SOL    HW130842   2.219   1.974   1.246
 9981SOL    HW230843   2.320   1.973   1.375
 9982SOL     OW30844   0.395   1.254   3.788
 9982SOL    HW130845   0.377   1.173   3.733
 9982SOL    HW230846   0.371   1.336   3.736
 9983SOL     OW30847   1.190   2.105   2.907
 9983SOL    HW130848   1.186   2.186   2.849
 9983SOL    HW230849   1.229   2.028   2.856
 9984SOL     OW30850   1.574   0.091   0.660
 9984SOL    HW130851   1.588   0.008   0.713
 9984SOL    HW230852   1.480   0.094   0.626
 9985SOL     OW30853   2.509   1.063   1.787
 9985SOL    HW130854   2.435   0.998   1.799
 9985SOL    HW230855   2.592   1.014   1.759
 9986SOL     OW30856   5.423   4.144   6.996
 9986SOL    HW130857   5.352   4.193   0.022
 9986SOL    HW230858   5.406   4.153   6.897
 9987SOL     OW30859   6.406   1.937   3.222
 9987SOL    HW130860   6.400   2.027   3.266
 9987SOL    HW230861   6.347   1.937   3.141
 9988SOL     OW30862   0.250   5.301   5.009
 9988SOL    HW130863   0.263   5.383   5.065
 9988SOL    HW230864   0.336   5.250   5.005
 9989SOL     OW30865   6.017   4.136   3.250
 9989SOL    HW130866   6.112   4.165   3.237
 9989SOL    HW230867   6.015   4.039   3.277
 9990SOL     OW30868   2.284   0.312   2.703
 9990SOL    HW130869   2.330   0.227   2.676
 9990SOL    HW230870   2.298   0.327   2.801
 9991SOL     OW30871   2.110   3.077   4.017
 9991SOL    HW130872   2.124   2.979   4.004
 9991SOL    HW230873   2.076   3.094   4.110
 9992SOL     OW30874   4.302   3.769   0.515
 9992SOL    HW130875   4.233   3.700   0.537
 9992SOL    HW230876   4.376   3.726   0.463
 9993SOL     OW30877   4.003   0.528   2.038
 9993SOL    HW130878   4.065   0.602   2.013
 9993SOL    HW230879   3.916   0.565   2.069
 9994SOL     OW30880   0.117   4.515   4.177
 9994SOL    HW130881   0.141   4.611   4.166
 9994SOL    HW230882   0.030   4.507   4.225
 9995SOL     OW30883   3.072   0.861   2.536
 9995SOL    HW130884   3.119   0.920   2.602
 9995SOL    HW230885   3.094   0.766   2.556
 9996SOL     OW30886   3.208   3.097   1.844
 9996SOL    HW130887   3.290   3.121   1.793
 9996SOL    HW230888   3.210   2.999   1.866
 9997SOL     OW30889   3.986   1.771   0.952
 9997SOL    HW130890   4.033   1.855   0.980
 9997SOL    HW230891   4.002   1.700   1.020
 9998SOL     OW30892   6.382   3.950   1.470
 9998SOL    HW130893   6.400   3.852   1.461
 9998SOL    HW230894   6.365   3.971   1.566
 9999SOL     OW30895   6.263   3.544   5.025
 9999SOL    HW130896   6.191   3.550   5.095
 9999SOL    HW230897   6.221   3.537   4.935
10000SOL     OW30898   5.925   3.468   6.986
10000SOL    HW130899   5.854   3.513   6.932
10000SOL    HW230900   5.905   3.370   6.992
10001SOL     OW30901   5.744   1.061   2.161
10001SOL    HW130902   5.781   0.969   2.144
10001SOL    HW230903   5.762   1.119   2.080
10002SOL     OW30904   1.950   0.347   0.908
10002SOL    HW130905   1.955   0.442   0.877
10002SOL    HW230906   1.946   0.287   0.828
10003SOL     OW30907   3.708   1.407   3.772
10003SOL    HW130908   3.767   1.365   3.841
10003SOL    HW230909   3.738   1.500   3.753
10004SOL     OW30910   4.929   2.202   4.395
10004SOL    HW130911   4.839   2.167   4.367
10004SOL    HW230912   4.997   2.129   4.384
10005SOL     OW30913   4.606   0.297   3.896
10005SOL    HW130914   4.697   0.268   3.926
10005SOL    HW230915   4.563   0.223   3.844
10006SOL     OW30916   5.264   1.143   3.837
10006SOL    HW130917   5.279   1.061   3.782
10006SOL    HW230918   5.166   1.160   3.845
10007SOL     OW30919   0.745   4.958   4.839
10007SOL    HW130920   0.779   4.902   4.764
10007SOL    HW230921   0.785   5.049   4.833
10008SOL     OW30922   4.560   1.324   3.991
10008SOL    HW130923   4.658   1.334   3.975
10008SOL    HW230924   4.517   1.414   3.988
10009SOL     OW30925   1.720   4.330   1.122
10009SOL    HW130926   1.780   4.311   1.200
10009SOL    HW230927   1.733   4.425   1.094
10010SOL     OW30928   2.276   6.348   6.654
10010SOL    HW130929   2.273   6.248   6.656
10010SOL    HW230930   2.352   6.379   6.598
10011SOL     OW30931   5.614   2.118   4.715
10011SOL    HW130932   5.598   2.216   4.701
10011SOL    HW230933   5.612   2.071   4.627
10012SOL     OW30934   4.747   0.723   3.120
10012SOL    HW130935   4.747   0.659   3.042
10012SOL    HW230936   4.714   0.812   3.090
10013SOL     OW30937   1.195   1.607   3.906
10013SOL    HW130938   1.181   1.697   3.863
10013SOL    HW230939   1.166   1.535   3.843
10014SOL     OW30940   6.427   3.049   6.780
10014SOL    HW130941   6.465   3.101   6.703
10014SOL    HW230942   6.491   2.977   6.806
10015SOL     OW30943   2.510   4.188   0.453
10015SOL    HW130944   2.494   4.114   0.389
10015SOL    HW230945   2.461   4.170   0.539
10016SOL     OW30946   2.131   0.022   5.264
10016SOL    HW130947   2.057   0.028   5.331
10016SOL    HW230948   2.216   0.055   5.305
10017SOL     OW30949   2.546   2.430   2.448
10017SOL    HW130950   2.545   2.468   2.355
10017SOL    HW230951   2.464   2.460   2.497
10018SOL     OW30952   4.487   0.178   5.567
10018SOL    HW130953   4.559   0.112   5.544
10018SOL    HW230954   4.528   0.261   5.603
10019SOL     OW30955   1.051   1.485   2.955
10019SOL    HW130956   1.113   1.469   3.032
10019SOL    HW230957   1.104   1.515   2.875
10020SOL     OW30958   0.512   2.797   1.406
10020SOL    HW130959   0.532   2.735   1.482
10020SOL    HW230960   0.457   2.874   1.439
10021SOL     OW30961   0.072   2.529   1.030
10021SOL    HW130962   0.055   2.528   0.931
10021SOL    HW230963   0.039   2.444   1.070
10022SOL     OW30964   3.036   7.005   6.907
10022SOL    HW130965   3.074   7.020   6.998
10022SOL    HW230966   3.041   0.067   6.855
10023SOL     OW30967   1.207   4.979   6.225
10023SOL    HW130968   1.232   4.911   6.155
10023SOL    HW230969   1.265   5.060   6.214
10024SOL     OW30970   2.086   6.692   2.059
10024SOL    HW130971   2.122   6.611   2.014
10024SOL    HW230972   2.065   6.671   2.155
10025SOL     OW30973   1.326   1.368   1.089
10025SOL    HW130974   1.258   1.430   1.050
10025SOL    HW230975   1.417   1.409   1.080
10026SOL     OW30976   5.146   6.745   3.761
10026SOL    HW130977   5.158   6.772   3.857
10026SOL    HW230978   5.062   6.692   3.752
10027SOL     OW30979   6.741   4.219   5.600
10027SOL    HW130980   6.771   4.180   5.513
10027SOL    HW230981   6.821   4.256   5.649
10028SOL     OW30982   1.503   1.657   1.005
10028SOL    HW130983   1.563   1.732   1.034
10028SOL    HW230984   1.419   1.693   0.965
10029SOL     OW30985   3.777   2.193   4.533
10029SOL    HW130986   3.760   2.107   4.582
10029SOL    HW230987   3.794   2.266   4.598
10030SOL     OW30988   1.961   6.717   3.712
10030SOL    HW130989   1.888   6.770   3.755
10030SOL    HW230990   2.013   6.777   3.650
10031SOL     OW30991   6.061   4.920   4.275
10031SOL    HW130992   6.075   4.870   4.189
10031SOL    HW230993   6.009   4.862   4.338
10032SOL     OW30994   2.783   1.925   4.785
10032SOL    HW130995   2.873   1.922   4.741
10032SOL    HW230996   2.735   2.009   4.758
10033SOL     OW30997   5.855   2.024   3.814
10033SOL    HW130998   5.788   1.977   3.757
10033SOL    HW230999   5.848   1.991   3.908
10034SOL     OW31000   2.524   0.097   4.202
10034SOL    HW131001   2.548   0.009   4.161
10034SOL    HW231002   2.581   0.112   4.282
10035SOL     OW31003   6.586   4.412   1.816
10035SOL    HW131004   6.507   4.353   1.827
10035SOL    HW231005   6.647   4.375   1.746
10036SOL     OW31006   5.961   2.042   1.793
10036SOL    HW131007   5.919   1.955   1.764
10036SOL    HW231008   5.889   2.108   1.813
10037SOL     OW31009   6.533   1.160   0.752
10037SOL    HW131010   6.551   1.105   0.833
10037SOL    HW231011   6.586   1.245   0.756
10038SOL     OW31012   5.028   0.812   0.279
10038SOL    HW131013   5.056   0.882   0.344
10038SOL    HW231014   5.010   0.726   0.328
10039SOL     OW31015   3.791   0.426   3.420
10039SOL    HW131016   3.883   0.388   3.417
10039SOL    HW231017   3.731   0.364   3.471
10040SOL     OW31018   4.762   5.517   6.440
10040SOL    HW131019   4.835   5.477   6.497
10040SOL    HW231020   4.796   5.601   6.397
10041SOL     OW31021   4.237   6.238   0.053
10041SOL    HW131022   4.157   6.205   0.002
10041SOL    HW231023   4.227   6.335   0.073
10042SOL     OW31024   0.850   1.522   4.294
10042SOL    HW131025   0.891   1.609   4.323
10042SOL    HW231026   0.922   1.455   4.276
10043SOL     OW31027   6.102   1.322   5.065
10043SOL    HW131028   6.133   1.401   5.118
10043SOL    HW231029   6.014   1.291   5.100
10044SOL     OW31030   2.448   1.782   4.566
10044SOL    HW131031   2.440   1.809   4.470
10044SOL    HW231032   2.418   1.857   4.624
10045SOL     OW31033   3.976   0.343   2.972
10045SOL    HW131034   4.054   0.282   2.987
10045SOL    HW231035   3.892   0.290   2.971
10046SOL     OW31036   2.133   3.929   1.032
10046SOL    HW131037   2.077   4.001   1.072
10046SOL    HW231038   2.119   3.844   1.081
10047SOL     OW31039   0.735   3.538   4.683
10047SOL    HW131040   0.711   3.596   4.761
10047SOL    HW231041   0.684   3.569   4.602
10048SOL     OW31042   0.047   0.241   2.532
10048SOL    HW131043   0.135   0.284   2.551
10048SOL    HW231044   0.062   0.147   2.502
10049SOL     OW31045   1.499   1.582   5.795
10049SOL    HW131046   1.495   1.564   5.697
10049SOL    HW231047   1.545   1.670   5.811
10050SOL     OW31048   5.130   3.785   5.229
10050SOL    HW131049   5.086   3.760   5.143
10050SOL    HW231050   5.220   3.824   5.211
10051SOL     OW31051   6.510   4.006   5.417
10051SOL    HW131052   6.439   4.042   5.356
10051SOL    HW231053   6.593   4.060   5.406
10052SOL     OW31054   2.148   1.317   3.104
10052SOL    HW131055   2.062   1.300   3.152
10052SOL    HW231056   2.154   1.256   3.025
10053SOL     OW31057   4.329   5.605   3.990
10053SOL    HW131058   4.353   5.699   3.966
10053SOL    HW231059   4.246   5.579   3.941
10054SOL     OW31060   5.429   6.398   5.653
10054SOL    HW131061   5.497   6.334   5.688
10054SOL    HW231062   5.441   6.487   5.697
10055SOL     OW31063   6.191   1.340   5.458
10055SOL    HW131064   6.096   1.325   5.483
10055SOL    HW231065   6.243   1.255   5.471
10056SOL     OW31066   5.380   4.367   2.994
10056SOL    HW131067   5.292   4.414   2.989
10056SOL    HW231068   5.454   4.435   2.994
10057SOL     OW31069   4.737   3.358   5.290
10057SOL    HW131070   4.716   3.442   5.241
10057SOL    HW231071   4.826   3.367   5.336
10058SOL     OW31072   6.399   3.318   4.879
10058SOL    HW131073   6.409   3.404   4.928
10058SOL    HW231074   6.324   3.265   4.919
10059SOL     OW31075   0.164   1.599   6.655
10059SOL    HW131076   0.067   1.623   6.654
10059SOL    HW231077   0.217   1.676   6.692
10060SOL     OW31078   2.287   2.714   2.426
10060SOL    HW131079   2.303   2.809   2.398
10060SOL    HW231080   2.214   2.674   2.370
10061SOL     OW31081   4.448   1.571   3.962
10061SOL    HW131082   4.372   1.601   4.019
10061SOL    HW231083   4.529   1.624   3.983
10062SOL     OW31084   6.648   0.741   4.349
10062SOL    HW131085   6.671   0.699   4.261
10062SOL    HW231086   6.729   0.740   4.408
10063SOL     OW31087   3.191   1.349   4.458
10063SOL    HW131088   3.108   1.368   4.510
10063SOL    HW231089   3.167   1.340   4.361
10064SOL     OW31090   4.977   6.583   0.110
10064SOL    HW131091   4.992   6.620   0.202
10064SOL    HW231092   5.021   6.642   0.043
10065SOL     OW31093   2.487   0.730   2.115
10065SOL    HW131094   2.471   0.721   2.017
10065SOL    HW231095   2.499   0.639   2.155
10066SOL     OW31096   0.311   2.653   4.901
10066SOL    HW131097   0.340   2.650   4.805
10066SOL    HW231098   0.388   2.681   4.958
10067SOL     OW31099   0.095   3.662   5.609
10067SOL    HW131100   0.129   3.717   5.685
10067SOL    HW231101   0.071   3.571   5.642
10068SOL     OW31102   0.853   3.307   3.930
10068SOL    HW131103   0.761   3.342   3.909
10068SOL    HW231104   0.920   3.379   3.915
10069SOL     OW31105   3.099   5.043   1.852
10069SOL    HW131106   3.017   5.043   1.795
10069SOL    HW231107   3.087   5.108   1.928
10070SOL     OW31108   0.231   5.931   5.377
10070SOL    HW131109   0.205   5.841   5.411
10070SOL    HW231110   0.150   5.977   5.339
10071SOL     OW31111   0.635   6.510   4.385
10071SOL    HW131112   0.597   6.567   4.458
10071SOL    HW231113   0.636   6.415   4.414
10072SOL     OW31114   0.242   0.625   3.818
10072SOL    HW131115   0.312   0.596   3.753
10072SOL    HW231116   0.229   0.724   3.812
10073SOL     OW31117   0.102   4.439   3.916
10073SOL    HW131118   0.156   4.515   3.881
10073SOL    HW231119   0.085   4.454   4.014
10074SOL     OW31120   2.659   6.578   6.341
10074SOL    HW131121   2.653   6.664   6.291
10074SOL    HW231122   2.613   6.587   6.429
10075SOL     OW31123   1.531   2.035   1.765
10075SOL    HW131124   1.611   2.078   1.723
10075SOL    HW231125   1.454   2.037   1.701
10076SOL     OW31126   4.708   6.240   3.145
10076SOL    HW131127   4.656   6.168   3.191
10076SOL    HW231128   4.796   6.252   3.192
10077SOL     OW31129   4.194   2.733   0.617
10077SOL    HW131130   4.234   2.813   0.573
10077SOL    HW231131   4.112   2.761   0.667
10078SOL     OW31132   6.289   5.820   5.042
10078SOL    HW131133   6.328   5.777   5.123
10078SOL    HW231134   6.236   5.752   4.991
10079SOL     OW31135   6.532   3.081   2.681
10079SOL    HW131136   6.493   2.990   2.665
10079SOL    HW231137   6.632   3.075   2.684
10080SOL     OW31138   4.773   1.751   6.040
10080SOL    HW131139   4.815   1.786   6.124
10080SOL    HW231140   4.838   1.759   5.964
10081SOL     OW31141   0.776   1.665   6.994
10081SOL    HW131142   0.751   1.584   0.023
10081SOL    HW231143   0.853   1.643   6.935
10082SOL     OW31144   0.899   5.673   2.476
10082SOL    HW131145   0.935   5.689   2.567
10082SOL    HW231146   0.800   5.661   2.480
10083SOL     OW31147   3.077   6.955   3.676
10083SOL    HW131148   3.109   6.904   3.756
10083SOL    HW231149   3.023   0.010   3.706
10084SOL     OW31150   0.514   6.903   5.239
10084SOL    HW131151   0.550   6.974   5.178
10084SOL    HW231152   0.586   6.836   5.259
10085SOL     OW31153   4.031   0.296   0.957
10085SOL    HW131154   4.106   0.243   0.918
10085SOL    HW231155   3.985   0.348   0.884
10086SOL     OW31156   6.026   6.554   3.079
10086SOL    HW131157   5.945   6.599   3.043
10086SOL    HW231158   6.003   6.507   3.164
10087SOL     OW31159   6.236   5.816   3.997
10087SOL    HW131160   6.184   5.886   4.047
10087SOL    HW231161   6.248   5.845   3.902
10088SOL     OW31162   6.884   0.321   1.459
10088SOL    HW131163   6.965   0.298   1.406
10088SOL    HW231164   6.858   0.243   1.516
10089SOL     OW31165   3.557   1.719   3.238
10089SOL    HW131166   3.543   1.646   3.171
10089SOL    HW231167   3.538   1.807   3.195
10090SOL     OW31168   0.455   5.204   2.045
10090SOL    HW131169   0.517   5.133   2.078
10090SOL    HW231170   0.363   5.166   2.034
10091SOL     OW31171   0.040   6.107   6.655
10091SOL    HW131172   0.081   6.067   6.737
10091SOL    HW231173   0.105   6.099   6.579
10092SOL     OW31174   0.740   3.146   5.930
10092SOL    HW131175   0.814   3.079   5.920
10092SOL    HW231176   0.655   3.106   5.896
10093SOL     OW31177   5.026   3.468   5.171
10093SOL    HW131178   5.109   3.502   5.127
10093SOL    HW231179   4.946   3.508   5.126
10094SOL     OW31180   2.293   6.447   0.843
10094SOL    HW131181   2.373   6.433   0.784
10094SOL    HW231182   2.322   6.445   0.939
10095SOL     OW31183   5.323   1.799   4.298
10095SOL    HW131184   5.363   1.882   4.336
10095SOL    HW231185   5.388   1.724   4.306
10096SOL     OW31186   4.716   0.481   2.958
10096SOL    HW131187   4.635   0.519   2.913
10096SOL    HW231188   4.688   0.426   3.037
10097SOL     OW31189   2.163   1.865   6.662
10097SOL    HW131190   2.177   1.816   6.575
10097SOL    HW231191   2.144   1.961   6.643
10098SOL     OW31192   3.023   6.761   4.816
10098SOL    HW131193   2.924   6.774   4.819
10098SOL    HW231194   3.058   6.748   4.909
10099SOL     OW31195   6.689   4.666   1.724
10099SOL    HW131196   6.631   4.584   1.723
10099SOL    HW231197   6.763   4.654   1.791
10100SOL     OW31198   5.507   6.011   5.784
10100SOL    HW131199   5.553   6.099   5.790
10100SOL    HW231200   5.570   5.942   5.747
10101SOL     OW31201   6.688   3.008   1.412
10101SOL    HW131202   6.781   3.020   1.446
10101SOL    HW231203   6.652   3.095   1.380
10102SOL     OW31204   6.653   0.425   1.313
10102SOL    HW131205   6.724   0.367   1.354
10102SOL    HW231206   6.655   0.516   1.355
10103SOL     OW31207   1.798   0.437   5.056
10103SOL    HW131208   1.827   0.405   4.966
10103SOL    HW231209   1.814   0.364   5.123
10104SOL     OW31210   1.318   0.964   5.697
10104SOL    HW131211   1.312   0.918   5.786
10104SOL    HW231212   1.349   1.058   5.711
10105SOL     OW31213   1.598   0.450   5.884
10105SOL    HW131214   1.617   0.406   5.972
10105SOL    HW231215   1.682   0.493   5.850
10106SOL     OW31216   4.017   6.412   0.782
10106SOL    HW131217   4.014   6.511   0.793
10106SOL    HW231218   4.110   6.384   0.758
10107SOL     OW31219   5.354   1.690   6.059
10107SOL    HW131220   5.421   1.748   6.012
10107SOL    HW231221   5.397   1.646   6.138
10108SOL     OW31222   0.491   2.376   0.174
10108SOL    HW131223   0.504   2.311   0.100
10108SOL    HW231224   0.550   2.351   0.251
10109SOL     OW31225   0.728   1.031   0.543
10109SOL    HW131226   0.812   1.046   0.491
10109SOL    HW231227   0.680   1.117   0.555
10110SOL     OW31228   4.750   4.646   3.927
10110SOL    HW131229   4.805   4.671   3.848
10110SOL    HW231230   4.653   4.656   3.905
10111SOL     OW31231   0.166   3.573   2.939
10111SOL    HW131232   0.151   3.594   2.842
10111SOL    HW231233   0.226   3.642   2.979
10112SOL     OW31234   5.500   3.609   2.558
10112SOL    HW131235   5.563   3.663   2.503
10112SOL    HW231236   5.480   3.657   2.643
10113SOL     OW31237   4.314   6.915   0.876
10113SOL    HW131238   4.336   6.820   0.855
10113SOL    HW231239   4.397   6.971   0.871
10114SOL     OW31240   4.212   2.103   3.344
10114SOL    HW131241   4.145   2.123   3.273
10114SOL    HW231242   4.289   2.167   3.336
10115SOL     OW31243   3.639   1.798   5.153
10115SOL    HW131244   3.704   1.724   5.170
10115SOL    HW231245   3.688   1.883   5.136
10116SOL     OW31246   6.954   6.838   6.275
10116SOL    HW131247   7.016   6.902   6.322
10116SOL    HW231248   6.893   6.796   6.343
10117SOL     OW31249   6.979   6.278   5.609
10117SOL    HW131250   0.006   6.250   5.691
10117SOL    HW231251   6.899   6.219   5.597
10118SOL     OW31252   2.647   4.674   4.008
10118SOL    HW131253   2.732   4.715   3.973
10118SOL    HW231254   2.608   4.614   3.938
10119SOL     OW31255   6.479   4.956   4.453
10119SOL    HW131256   6.495   4.898   4.533
10119SOL    HW231257   6.425   5.036   4.481
10120SOL     OW31258   1.668   3.215   3.769
10120SOL    HW131259   1.725   3.296   3.757
10120SOL    HW231260   1.619   3.222   3.856
10121SOL     OW31261   5.939   4.582   0.865
10121SOL    HW131262   6.011   4.520   0.898
10121SOL    HW231263   5.851   4.535   0.865
10122SOL     OW31264   5.910   2.819   3.715
10122SOL    HW131265   5.948   2.748   3.774
10122SOL    HW231266   5.901   2.784   3.622
10123SOL     OW31267   5.937   6.629   0.840
10123SOL    HW131268   5.883   6.600   0.761
10123SOL    HW231269   5.996   6.706   0.813
10124SOL     OW31270   1.115   5.464   1.050
10124SOL    HW131271   1.130   5.495   0.956
10124SOL    HW231272   1.113   5.364   1.053
10125SOL     OW31273   2.772   1.742   1.223
10125SOL    HW131274   2.760   1.652   1.183
10125SOL    HW231275   2.843   1.738   1.294
10126SOL     OW31276   6.443   0.134   6.098
10126SOL    HW131277   6.492   0.058   6.056
10126SOL    HW231278   6.412   0.197   6.026
10127SOL     OW31279   2.113   4.054   6.884
10127SOL    HW131280   2.084   4.079   6.977
10127SOL    HW231281   2.208   4.081   6.871
10128SOL     OW31282   2.881   0.919   6.074
10128SOL    HW131283   2.951   0.950   6.010
10128SOL    HW231284   2.820   0.853   6.029
10129SOL     OW31285   0.144   2.162   2.149
10129SOL    HW131286   0.228   2.122   2.113
10129SOL    HW231287   0.077   2.089   2.165
10130SOL     OW31288   0.799   3.117   1.551
10130SOL    HW131289   0.852   3.116   1.635
10130SOL    HW231290   0.842   3.180   1.485
10131SOL     OW31291   1.228   0.629   4.229
10131SOL    HW131292   1.285   0.707   4.255
10131SOL    HW231293   1.134   0.645   4.260
10132SOL     OW31294   1.362   0.338   2.867
10132SOL    HW131295   1.278   0.354   2.918
10132SOL    HW231296   1.432   0.301   2.928
10133SOL     OW31297   4.229   6.446   1.020
10133SOL    HW131298   4.247   6.513   0.948
10133SOL    HW231299   4.210   6.494   1.106
10134SOL     OW31300   6.597   1.705   3.378
10134SOL    HW131301   6.499   1.717   3.394
10134SOL    HW231302   6.622   1.749   3.292
10135SOL     OW31303   5.148   1.777   3.263
10135SOL    HW131304   5.100   1.805   3.180
10135SOL    HW231305   5.214   1.848   3.289
10136SOL     OW31306   5.535   2.200   2.550
10136SOL    HW131307   5.622   2.247   2.565
10136SOL    HW231308   5.470   2.229   2.620
10137SOL     OW31309   0.155   4.907   6.501
10137SOL    HW131310   0.129   4.918   6.405
10137SOL    HW231311   0.250   4.878   6.507
10138SOL     OW31312   5.195   2.317   0.485
10138SOL    HW131313   5.283   2.355   0.513
10138SOL    HW231314   5.187   2.224   0.519
10139SOL     OW31315   3.628   3.413   4.788
10139SOL    HW131316   3.638   3.320   4.755
10139SOL    HW231317   3.605   3.474   4.712
10140SOL     OW31318   6.861   6.133   5.995
10140SOL    HW131319   6.874   6.121   6.094
10140SOL    HW231320   6.774   6.092   5.968
10141SOL     OW31321   4.575   0.867   3.783
10141SOL    HW131322   4.537   0.959   3.790
10141SOL    HW231323   4.666   0.865   3.823
10142SOL     OW31324   6.445   6.538   5.621
10142SOL    HW131325   6.509   6.609   5.649
10142SOL    HW231326   6.427   6.545   5.523
10143SOL     OW31327   5.460   2.628   0.412
10143SOL    HW131328   5.502   2.711   0.376
10143SOL    HW231329   5.368   2.618   0.373
10144SOL     OW31330   4.426   0.203   5.294
10144SOL    HW131331   4.341   0.240   5.255
10144SOL    HW231332   4.404   0.151   5.377
10145SOL     OW31333   4.063   5.855   3.171
10145SOL    HW131334   4.128   5.890   3.239
10145SOL    HW231335   3.975   5.839   3.215
10146SOL     OW31336   7.010   4.682   4.507
10146SOL    HW131337   6.947   4.639   4.442
10146SOL    HW231338   6.957   4.730   4.577
10147SOL     OW31339   4.985   4.489   6.876
10147SOL    HW131340   5.013   4.393   6.876
10147SOL    HW231341   5.013   4.532   6.790
10148SOL     OW31342   5.807   4.093   1.200
10148SOL    HW131343   5.760   4.144   1.128
10148SOL    HW231344   5.761   4.109   1.287
10149SOL     OW31345   5.072   4.869   1.595
10149SOL    HW131346   5.096   4.874   1.692
10149SOL    HW231347   5.149   4.833   1.543
10150SOL     OW31348   5.154   3.139   1.833
10150SOL    HW131349   5.095   3.059   1.844
10150SOL    HW231350   5.192   3.166   1.922
10151SOL     OW31351   0.879   6.702   5.813
10151SOL    HW131352   0.850   6.650   5.733
10151SOL    HW231353   0.959   6.659   5.853
10152SOL     OW31354   6.275   5.548   3.692
10152SOL    HW131355   6.371   5.548   3.666
10152SOL    HW231356   6.265   5.511   3.784
10153SOL     OW31357   4.364   5.892   3.918
10153SOL    HW131358   4.331   5.876   3.825
10153SOL    HW231359   4.456   5.931   3.914
10154SOL     OW31360   3.657   5.870   6.199
10154SOL    HW131361   3.642   5.933   6.123
10154SOL    HW231362   3.713   5.793   6.167
10155SOL     OW31363   5.224   2.504   5.435
10155SOL    HW131364   5.165   2.573   5.395
10155SOL    HW231365   5.239   2.524   5.532
10156SOL     OW31366   4.611   0.702   0.929
10156SOL    HW131367   4.656   0.616   0.951
10156SOL    HW231368   4.644   0.736   0.841
10157SOL     OW31369   7.005   1.887   0.100
10157SOL    HW131370   7.023   1.789   0.094
10157SOL    HW231371   0.013   1.922   0.189
10158SOL     OW31372   6.036   6.684   2.494
10158SOL    HW131373   5.966   6.641   2.553
10158SOL    HW231374   6.103   6.731   2.551
10159SOL     OW31375   4.122   3.439   2.833
10159SOL    HW131376   4.076   3.368   2.886
10159SOL    HW231377   4.111   3.528   2.878
10160SOL     OW31378   1.436   4.118   3.208
10160SOL    HW131379   1.417   4.172   3.126
10160SOL    HW231380   1.530   4.133   3.238
10161SOL     OW31381   3.704   4.745   6.751
10161SOL    HW131382   3.621   4.728   6.698
10161SOL    HW231383   3.678   4.776   6.843
10162SOL     OW31384   2.516   4.278   1.351
10162SOL    HW131385   2.478   4.196   1.394
10162SOL    HW231386   2.506   4.356   1.413
10163SOL     OW31387   0.770   5.728   6.330
10163SOL    HW131388   0.838   5.773   6.388
10163SOL    HW231389   0.809   5.644   6.293
10164SOL     OW31390   6.096   3.745   3.804
10164SOL    HW131391   6.012   3.791   3.775
10164SOL    HW231392   6.090   3.647   3.784
10165SOL     OW31393   6.385   2.438   3.979
10165SOL    HW131394   6.430   2.482   3.902
10165SOL    HW231395   6.372   2.505   4.052
10166SOL     OW31396   1.351   2.639   1.122
10166SOL    HW131397   1.310   2.606   1.207
10166SOL    HW231398   1.386   2.561   1.070
10167SOL     OW31399   0.220   5.426   0.161
10167SOL    HW131400   0.274   5.502   0.199
10167SOL    HW231401   0.279   5.348   0.143
10168SOL     OW31402   6.163   1.487   5.899
10168SOL    HW131403   6.080   1.435   5.920
10168SOL    HW231404   6.240   1.424   5.889
10169SOL     OW31405   6.573   3.930   3.327
10169SOL    HW131406   6.604   3.835   3.321
10169SOL    HW231407   6.512   3.950   3.250
10170SOL     OW31408   6.228   5.230   6.527
10170SOL    HW131409   6.283   5.195   6.451
10170SOL    HW231410   6.281   5.297   6.578
10171SOL     OW31411   0.619   2.772   5.489
10171SOL    HW131412   0.632   2.725   5.576
10171SOL    HW231413   0.554   2.720   5.433
10172SOL     OW31414   0.143   7.019   4.503
10172SOL    HW131415   0.196   0.025   4.583
10172SOL    HW231416   0.172   0.047   4.423
10173SOL     OW31417   2.148   3.383   7.016
10173SOL    HW131418   2.222   3.316   7.004
10173SOL    HW231419   2.146   3.445   6.938
10174SOL     OW31420   4.524   4.729   3.814
10174SOL    HW131421   4.557   4.823   3.813
10174SOL    HW231422   4.428   4.728   3.841
10175SOL     OW31423   6.587   1.824   3.625
10175SOL    HW131424   6.680   1.859   3.631
10175SOL    HW231425   6.578   1.770   3.541
10176SOL     OW31426   5.936   4.047   5.456
10176SOL    HW131427   6.027   4.021   5.488
10176SOL    HW231428   5.936   4.053   5.356
10177SOL     OW31429   1.785   6.839   1.245
10177SOL    HW131430   1.764   6.778   1.169
10177SOL    HW231431   1.716   6.912   1.250
10178SOL     OW31432   1.713   1.485   0.713
10178SOL    HW131433   1.744   1.524   0.799
10178SOL    HW231434   1.616   1.505   0.699
10179SOL     OW31435   0.349   3.958   6.725
10179SOL    HW131436   0.364   4.056   6.714
10179SOL    HW231437   0.399   3.908   6.655
10180SOL     OW31438   4.161   0.631   0.047
10180SOL    HW131439   4.168   0.549   0.104
10180SOL    HW231440   4.101   0.698   0.091
10181SOL     OW31441   6.961   3.079   1.371
10181SOL    HW131442   0.016   3.029   1.408
10181SOL    HW231443   6.988   3.173   1.351
10182SOL     OW31444   5.071   1.199   7.007
10182SOL    HW131445   4.998   1.181   6.942
10182SOL    HW231446   5.153   1.149   6.980
10183SOL     OW31447   5.754   3.018   5.825
10183SOL    HW131448   5.728   2.973   5.911
10183SOL    HW231449   5.707   3.106   5.818
10184SOL     OW31450   5.774   3.021   6.832
10184SOL    HW131451   5.675   3.024   6.835
10184SOL    HW231452   5.808   3.096   6.775
10185SOL     OW31453   5.024   6.360   2.681
10185SOL    HW131454   5.007   6.284   2.744
10185SOL    HW231455   5.025   6.327   2.587
10186SOL     OW31456   4.951   3.808   4.958
10186SOL    HW131457   4.893   3.888   4.976
10186SOL    HW231458   4.897   3.724   4.970
10187SOL     OW31459   1.711   4.151   5.384
10187SOL    HW131460   1.761   4.078   5.337
10187SOL    HW231461   1.636   4.182   5.325
10188SOL     OW31462   3.248   5.544   6.701
10188SOL    HW131463   3.261   5.599   6.618
10188SOL    HW231464   3.205   5.601   6.772
10189SOL     OW31465   1.554   0.746   6.419
10189SOL    HW131466   1.600   0.835   6.411
10189SOL    HW231467   1.519   0.735   6.512
10190SOL     OW31468   3.692   3.038   1.245
10190SOL    HW131469   3.605   3.086   1.231
10190SOL    HW231470   3.765   3.087   1.197
10191SOL     OW31471   5.876   6.019   1.063
10191SOL    HW131472   5.964   6.057   1.090
10191SOL    HW231473   5.873   6.011   0.963
10192SOL     OW31474   3.071   1.803   4.958
10192SOL    HW131475   2.986   1.751   4.955
10192SOL    HW231476   3.127   1.781   4.878
10193SOL     OW31477   2.857   3.580   2.582
10193SOL    HW131478   2.917   3.529   2.520
10193SOL    HW231479   2.913   3.638   2.641
10194SOL     OW31480   3.913   0.309   4.674
10194SOL    HW131481   3.882   0.386   4.619
10194SOL    HW231482   3.915   0.335   4.770
10195SOL     OW31483   0.134   7.008   1.512
10195SOL    HW131484   0.163   0.058   1.451
10195SOL    HW231485   0.066   0.019   1.576
10196SOL     OW31486   5.839   1.825   3.289
10196SOL    HW131487   5.811   1.734   3.258
10196SOL    HW231488   5.861   1.821   3.387
10197SOL     OW31489   5.055   1.098   4.171
10197SOL    HW131490   5.122   1.047   4.225
10197SOL    HW231491   5.096   1.185   4.141
10198SOL     OW31492   3.527   0.126   1.005
10198SOL    HW131493   3.543   0.065   0.927
10198SOL    HW231494   3.495   0.215   0.971
10199SOL     OW31495   0.789   1.673   6.489
10199SOL    HW131496   0.779   1.598   6.554
10199SOL    HW231497   0.699   1.703   6.458
10200SOL     OW31498   4.837   3.201   5.002
10200SOL    HW131499   4.781   3.248   5.070
10200SOL    HW231500   4.811   3.105   4.998
10201SOL     OW31501   0.580   6.505   1.172
10201SOL    HW131502   0.495   6.503   1.224
10201SOL    HW231503   0.584   6.590   1.119
10202SOL     OW31504   1.633   3.518   0.579
10202SOL    HW131505   1.599   3.434   0.623
10202SOL    HW231506   1.559   3.560   0.527
10203SOL     OW31507   1.358   3.012   1.559
10203SOL    HW131508   1.362   3.009   1.659
10203SOL    HW231509   1.372   3.106   1.528
10204SOL     OW31510   3.651   4.858   6.215
10204SOL    HW131511   3.581   4.847   6.284
10204SOL    HW231512   3.739   4.826   6.250
10205SOL     OW31513   3.679   1.100   2.783
10205SOL    HW131514   3.766   1.133   2.820
10205SOL    HW231515   3.681   1.105   2.683
10206SOL     OW31516   4.696   6.514   6.390
10206SOL    HW131517   4.618   6.470   6.436
10206SOL    HW231518   4.719   6.462   6.307
10207SOL     OW31519   1.982   0.790   0.595
10207SOL    HW131520   2.043   0.711   0.588
10207SOL    HW231521   2.033   0.869   0.629
10208SOL     OW31522   6.416   4.740   4.628
10208SOL    HW131523   6.414   4.799   4.709
10208SOL    HW231524   6.323   4.720   4.598
10209SOL     OW31525   0.888   0.697   5.409
10209SOL    HW131526   0.911   0.760   5.483
10209SOL    HW231527   0.953   0.710   5.334
10210SOL     OW31528   5.040   0.359   1.675
10210SOL    HW131529   5.039   0.261   1.693
10210SOL    HW231530   4.970   0.381   1.607
10211SOL     OW31531   4.584   6.043   5.788
10211SOL    HW131532   4.497   6.090   5.785
10211SOL    HW231533   4.648   6.093   5.846
10212SOL     OW31534   0.197   1.565   4.609
10212SOL    HW131535   0.183   1.517   4.523
10212SOL    HW231536   0.108   1.590   4.648
10213SOL     OW31537   6.774   1.692   2.299
10213SOL    HW131538   6.863   1.712   2.341
10213SOL    HW231539   6.733   1.777   2.265
10214SOL     OW31540   1.129   2.064   2.156
10214SOL    HW131541   1.176   2.038   2.240
10214SOL    HW231542   1.181   2.134   2.108
10215SOL     OW31543   3.386   2.908   4.683
10215SOL    HW131544   3.363   2.876   4.775
10215SOL    HW231545   3.319   2.977   4.654
10216SOL     OW31546   6.983   0.192   0.681
10216SOL    HW131547   6.991   0.273   0.739
10216SOL    HW231548   6.887   0.168   0.671
10217SOL     OW31549   2.821   1.416   4.144
10217SOL    HW131550   2.837   1.392   4.048
10217SOL    HW231551   2.874   1.497   4.168
10218SOL     OW31552   1.473   0.768   1.319
10218SOL    HW131553   1.388   0.817   1.333
10218SOL    HW231554   1.549   0.833   1.316
10219SOL     OW31555   0.504   3.005   2.176
10219SOL    HW131556   0.582   3.017   2.114
10219SOL    HW231557   0.485   3.092   2.221
10220SOL     OW31558   4.283   1.508   2.397
10220SOL    HW131559   4.228   1.592   2.396
10220SOL    HW231560   4.229   1.434   2.438
10221SOL     OW31561   1.534   2.235   3.392
10221SOL    HW131562   1.612   2.174   3.408
10221SOL    HW231563   1.486   2.208   3.309
10222SOL     OW31564   1.594   3.129   6.059
10222SOL    HW131565   1.574   3.111   5.963
10222SOL    HW231566   1.690   3.108   6.078
10223SOL     OW31567   1.638   6.309   6.848
10223SOL    HW131568   1.669   6.273   6.761
10223SOL    HW231569   1.638   6.237   6.917
10224SOL     OW31570   6.855   1.204   5.027
10224SOL    HW131571   6.842   1.301   5.047
10224SOL    HW231572   6.885   1.193   4.932
10225SOL     OW31573   1.706   6.279   5.883
10225SOL    HW131574   1.799   6.284   5.845
10225SOL    HW231575   1.687   6.185   5.913
10226SOL     OW31576   2.850   6.830   6.831
10226SOL    HW131577   2.862   6.733   6.852
10226SOL    HW231578   2.916   6.884   6.884
10227SOL     OW31579   4.660   4.776   0.858
10227SOL    HW131580   4.607   4.702   0.900
10227SOL    HW231581   4.659   4.855   0.919
10228SOL     OW31582   1.377   5.861   2.113
10228SOL    HW131583   1.399   5.867   2.016
10228SOL    HW231584   1.294   5.807   2.125
10229SOL     OW31585   0.593   1.201   3.978
10229SOL    HW131586   0.597   1.294   4.016
10229SOL    HW231587   0.525   1.198   3.905
10230SOL     OW31588   6.458   6.693   4.101
10230SOL    HW131589   6.505   6.729   4.182
10230SOL    HW231590   6.366   6.664   4.126
10231SOL     OW31591   6.828   5.772   5.862
10231SOL    HW131592   6.888   5.843   5.825
10231SOL    HW231593   6.765   5.741   5.790
10232SOL     OW31594   2.714   0.934   3.962
10232SOL    HW131595   2.720   0.990   4.045
10232SOL    HW231596   2.618   0.916   3.941
10233SOL     OW31597   5.379   3.627   5.347
10233SOL    HW131598   5.332   3.703   5.393
10233SOL    HW231599   5.330   3.602   5.264
10234SOL     OW31600   5.050   1.153   1.183
10234SOL    HW131601   5.059   1.183   1.278
10234SOL    HW231602   5.116   1.080   1.165
10235SOL     OW31603   4.483   2.528   0.199
10235SOL    HW131604   4.426   2.457   0.240
10235SOL    HW231605   4.536   2.489   0.125
10236SOL     OW31606   1.938   7.018   2.283
10236SOL    HW131607   1.908   6.936   2.331
10236SOL    HW231608   1.920   7.009   2.185
10237SOL     OW31609   6.065   3.718   1.186
10237SOL    HW131610   6.118   3.800   1.165
10237SOL    HW231611   6.122   3.652   1.235
10238SOL     OW31612   3.477   4.203   3.925
10238SOL    HW131613   3.443   4.297   3.922
10238SOL    HW231614   3.513   4.183   4.017
10239SOL     OW31615   1.070   4.279   5.035
10239SOL    HW131616   1.021   4.280   5.122
10239SOL    HW231617   1.125   4.195   5.029
10240SOL     OW31618   1.832   4.952   3.344
10240SOL    HW131619   1.749   4.960   3.399
10240SOL    HW231620   1.845   5.036   3.291
10241SOL     OW31621   0.283   0.395   1.924
10241SOL    HW131622   0.286   0.467   1.993
10241SOL    HW231623   0.277   0.306   1.969
10242SOL     OW31624   6.488   1.334   6.823
10242SOL    HW131625   6.438   1.330   6.910
10242SOL    HW231626   6.424   1.354   6.749
10243SOL     OW31627   0.500   5.732   1.235
10243SOL    HW131628   0.589   5.754   1.274
10243SOL    HW231629   0.433   5.722   1.309
10244SOL     OW31630   1.972   4.968   0.578
10244SOL    HW131631   2.066   4.976   0.612
10244SOL    HW231632   1.970   4.905   0.501
10245SOL     OW31633   3.453   4.652   6.952
10245SOL    HW131634   3.466   4.744   6.989
10245SOL    HW231635   3.496   4.645   6.862
10246SOL     OW31636   2.931   3.708   3.875
10246SOL    HW131637   2.934   3.655   3.960
10246SOL    HW231638   2.995   3.668   3.809
10247SOL     OW31639   0.539   5.253   5.055
10247SOL    HW131640   0.583   5.267   4.966
10247SOL    HW231641   0.566   5.327   5.117
10248SOL     OW31642   3.526   6.689   2.290
10248SOL    HW131643   3.506   6.633   2.371
10248SOL    HW231644   3.459   6.669   2.218
10249SOL     OW31645   3.567   1.550   5.955
10249SOL    HW131646   3.490   1.547   5.891
10249SOL    HW231647   3.652   1.562   5.904
10250SOL     OW31648   6.666   2.040   0.824
10250SOL    HW131649   6.685   1.947   0.855
10250SOL    HW231650   6.631   2.094   0.901
10251SOL     OW31651   2.851   2.269   4.852
10251SOL    HW131652   2.848   2.261   4.952
10251SOL    HW231653   2.943   2.248   4.820
10252SOL     OW31654   6.300   6.071   0.623
10252SOL    HW131655   6.244   6.019   0.558
10252SOL    HW231656   6.243   6.098   0.701
10253SOL     OW31657   5.527   5.909   0.566
10253SOL    HW131658   5.573   5.900   0.655
10253SOL    HW231659   5.561   5.991   0.519
10254SOL     OW31660   4.137   1.994   5.390
10254SOL    HW131661   4.142   1.985   5.291
10254SOL    HW231662   4.041   2.008   5.417
10255SOL     OW31663   2.209   5.238   1.570
10255SOL    HW131664   2.183   5.238   1.474
10255SOL    HW231665   2.282   5.305   1.585
10256SOL     OW31666   5.747   0.493   1.441
10256SOL    HW131667   5.698   0.536   1.517
10256SOL    HW231668   5.817   0.431   1.477
10257SOL     OW31669   1.873   5.368   4.262
10257SOL    HW131670   1.844   5.439   4.198
10257SOL    HW231671   1.793   5.331   4.309
10258SOL     OW31672   4.777   0.229   4.297
10258SOL    HW131673   4.710   0.298   4.268
10258SOL    HW231674   4.850   0.223   4.228
10259SOL     OW31675   0.925   4.890   3.176
10259SOL    HW131676   0.907   4.945   3.094
10259SOL    HW231677   0.962   4.801   3.150
10260SOL     OW31678   0.508   0.471   3.016
10260SOL    HW131679   0.456   0.474   3.102
10260SOL    HW231680   0.512   0.562   2.977
10261SOL     OW31681   6.786   5.991   2.791
10261SOL    HW131682   6.848   5.920   2.821
10261SOL    HW231683   6.831   6.048   2.721
10262SOL     OW31684   2.408   6.530   4.183
10262SOL    HW131685   2.367   6.516   4.274
10262SOL    HW231686   2.362   6.607   4.138
10263SOL     OW31687   4.795   1.286   6.516
10263SOL    HW131688   4.786   1.187   6.518
10263SOL    HW231689   4.877   1.314   6.567
10264SOL     OW31690   5.600   2.123   6.885
10264SOL    HW131691   5.557   2.126   6.795
10264SOL    HW231692   5.531   2.103   6.955
10265SOL     OW31693   3.129   2.165   2.976
10265SOL    HW131694   3.054   2.198   3.034
10265SOL    HW231695   3.110   2.187   2.881
10266SOL     OW31696   3.278   2.818   5.533
10266SOL    HW131697   3.366   2.774   5.548
10266SOL    HW231698   3.216   2.754   5.488
10267SOL     OW31699   5.745   1.795   6.447
10267SOL    HW131700   5.703   1.822   6.533
10267SOL    HW231701   5.807   1.718   6.463
10268SOL     OW31702   4.121   5.651   2.113
10268SOL    HW131703   4.159   5.731   2.067
10268SOL    HW231704   4.111   5.576   2.048
10269SOL     OW31705   1.321   1.989   5.086
10269SOL    HW131706   1.369   2.018   5.003
10269SOL    HW231707   1.317   2.065   5.151
10270SOL     OW31708   2.314   5.320   3.172
10270SOL    HW131709   2.389   5.384   3.187
10270SOL    HW231710   2.246   5.330   3.245
10271SOL     OW31711   4.121   2.573   0.371
10271SOL    HW131712   4.153   2.612   0.458
10271SOL    HW231713   4.156   2.628   0.296
10272SOL     OW31714   0.479   0.234   4.295
10272SOL    HW131715   0.519   0.316   4.335
10272SOL    HW231716   0.536   0.155   4.316
10273SOL     OW31717   4.695   4.855   3.455
10273SOL    HW131718   4.671   4.887   3.363
10273SOL    HW231719   4.645   4.771   3.475
10274SOL     OW31720   0.719   3.832   4.940
10274SOL    HW131721   0.766   3.867   4.859
10274SOL    HW231722   0.779   3.766   4.987
10275SOL     OW31723   0.628   6.270   1.861
10275SOL    HW131724   0.617   6.335   1.936
10275SOL    HW231725   0.669   6.186   1.895
10276SOL     OW31726   5.659   5.678   5.690
10276SOL    HW131727   5.667   5.672   5.789
10276SOL    HW231728   5.717   5.752   5.656
10277SOL     OW31729   2.620   5.452   3.755
10277SOL    HW131730   2.583   5.537   3.792
10277SOL    HW231731   2.645   5.466   3.659
10278SOL     OW31732   5.693   0.966   4.522
10278SOL    HW131733   5.627   0.913   4.468
10278SOL    HW231734   5.700   0.927   4.614
10279SOL     OW31735   1.820   6.171   4.243
10279SOL    HW131736   1.751   6.237   4.271
10279SOL    HW231737   1.811   6.152   4.145
10280SOL     OW31738   1.656   3.406   1.484
10280SOL    HW131739   1.751   3.397   1.514
10280SOL    HW231740   1.629   3.502   1.489
10281SOL     OW31741   6.703   2.205   2.858
10281SOL    HW131742   6.725   2.300   2.878
10281SOL    HW231743   6.668   2.197   2.764
10282SOL     OW31744   6.165   4.363   4.440
10282SOL    HW131745   6.192   4.410   4.355
10282SOL    HW231746   6.247   4.340   4.492
10283SOL     OW31747   0.958   3.284   0.559
10283SOL    HW131748   0.911   3.234   0.486
10283SOL    HW231749   0.955   3.231   0.644
10284SOL     OW31750   5.164   3.795   5.498
10284SOL    HW131751   5.134   3.805   5.403
10284SOL    HW231752   5.086   3.769   5.555
10285SOL     OW31753   4.365   0.771   0.638
10285SOL    HW131754   4.308   0.770   0.721
10285SOL    HW231755   4.319   0.719   0.566
10286SOL     OW31756   3.103   2.175   4.143
10286SOL    HW131757   3.101   2.266   4.103
10286SOL    HW231758   3.197   2.140   4.142
10287SOL     OW31759   2.153   6.182   2.264
10287SOL    HW131760   2.246   6.178   2.227
10287SOL    HW231761   2.141   6.267   2.314
10288SOL     OW31762   4.881   6.474   2.349
10288SOL    HW131763   4.797   6.510   2.391
10288SOL    HW231764   4.864   6.453   2.253
10289SOL     OW31765   3.216   1.020   2.715
10289SOL    HW131766   3.246   1.097   2.660
10289SOL    HW231767   3.293   0.984   2.767
10290SOL     OW31768   3.322   4.112   2.156
10290SOL    HW131769   3.225   4.117   2.133
10290SOL    HW231770   3.376   4.127   2.073
10291SOL     OW31771   4.159   1.148   4.116
10291SOL    HW131772   4.123   1.171   4.206
10291SOL    HW231773   4.224   1.072   4.125
10292SOL     OW31774   1.181   1.012   4.598
10292SOL    HW131775   1.158   0.924   4.639
10292SOL    HW231776   1.171   1.007   4.499
10293SOL     OW31777   2.137   5.706   3.809
10293SOL    HW131778   2.085   5.647   3.871
10293SOL    HW231779   2.076   5.744   3.740
10294SOL     OW31780   4.882   3.873   2.564
10294SOL    HW131781   4.831   3.942   2.513
10294SOL    HW231782   4.882   3.787   2.513
10295SOL     OW31783   6.019   5.237   5.926
10295SOL    HW131784   6.090   5.281   5.981
10295SOL    HW231785   5.989   5.153   5.971
10296SOL     OW31786   5.083   3.108   6.558
10296SOL    HW131787   5.010   3.148   6.503
10296SOL    HW231788   5.086   3.153   6.647
10297SOL     OW31789   1.812   6.695   4.860
10297SOL    HW131790   1.726   6.656   4.893
10297SOL    HW231791   1.817   6.792   4.884
10298SOL     OW31792   4.155   4.869   2.478
10298SOL    HW131793   4.161   4.955   2.428
10298SOL    HW231794   4.061   4.854   2.507
10299SOL     OW31795   4.892   4.484   2.698
10299SOL    HW131796   4.895   4.573   2.651
10299SOL    HW231797   4.986   4.453   2.714
10300SOL     OW31798   1.948   4.674   2.915
10300SOL    HW131799   1.893   4.707   2.991
10300SOL    HW231800   1.924   4.724   2.832
10301SOL     OW31801   6.307   2.512   3.023
10301SOL    HW131802   6.224   2.566   3.011
10301SOL    HW231803   6.336   2.517   3.118
10302SOL     OW31804   0.309   6.439   4.015
10302SOL    HW131805   0.285   6.471   3.923
10302SOL    HW231806   0.292   6.341   4.022
10303SOL     OW31807   2.836   5.412   1.456
10303SOL    HW131808   2.753   5.401   1.511
10303SOL    HW231809   2.824   5.366   1.368
10304SOL     OW31810   5.438   0.825   2.895
10304SOL    HW131811   5.480   0.806   2.983
10304SOL    HW231812   5.365   0.760   2.877
10305SOL     OW31813   0.606   5.284   6.925
10305SOL    HW131814   0.624   5.381   6.910
10305SOL    HW231815   0.692   5.233   6.918
10306SOL     OW31816   4.671   6.610   6.760
10306SOL    HW131817   4.762   6.627   6.798
10306SOL    HW231818   4.630   6.530   6.805
10307SOL     OW31819   1.825   2.047   4.305
10307SOL    HW131820   1.753   2.032   4.373
10307SOL    HW231821   1.911   2.068   4.351
10308SOL     OW31822   2.471   5.121   3.925
10308SOL    HW131823   2.486   5.038   3.979
10308SOL    HW231824   2.407   5.180   3.972
10309SOL     OW31825   6.497   0.319   3.824
10309SOL    HW131826   6.419   0.381   3.831
10309SOL    HW231827   6.535   0.302   3.915
10310SOL     OW31828   4.019   2.594   1.651
10310SOL    HW131829   3.988   2.566   1.560
10310SOL    HW231830   4.079   2.674   1.643
10311SOL     OW31831   0.604   6.125   1.244
10311SOL    HW131832   0.562   6.192   1.305
10311SOL    HW231833   0.539   6.100   1.172
10312SOL     OW31834   2.857   5.673   1.119
10312SOL    HW131835   2.761   5.649   1.133
10312SOL    HW231836   2.909   5.592   1.095
10313SOL     OW31837   3.541   0.495   1.640
10313SOL    HW131838   3.507   0.425   1.577
10313SOL    HW231839   3.635   0.473   1.667
10314SOL     OW31840   6.530   0.638   1.650
10314SOL    HW131841   6.434   0.616   1.666
10314SOL    HW231842   6.588   0.575   1.702
10315SOL     OW31843   5.946   5.565   4.799
10315SOL    HW131844   5.925   5.520   4.712
10315SOL    HW231845   5.887   5.528   4.870
10316SOL     OW31846   6.081   2.897   4.903
10316SOL    HW131847   6.046   2.987   4.929
10316SOL    HW231848   6.124   2.903   4.813
10317SOL     OW31849   3.368   4.823   6.193
10317SOL    HW131850   3.465   4.823   6.169
10317SOL    HW231851   3.314   4.803   6.112
10318SOL     OW31852   5.479   5.777   0.257
10318SOL    HW131853   5.566   5.812   0.223
10318SOL    HW231854   5.472   5.793   0.355
10319SOL     OW31855   1.287   3.223   5.638
10319SOL    HW131856   1.321   3.317   5.644
10319SOL    HW231857   1.355   3.166   5.591
10320SOL     OW31858   0.781   0.596   1.192
10320SOL    HW131859   0.786   0.603   1.292
10320SOL    HW231860   0.772   0.688   1.153
10321SOL     OW31861   4.146   0.300   4.501
10321SOL    HW131862   4.081   0.359   4.549
10321SOL    HW231863   4.096   0.227   4.455
10322SOL     OW31864   6.157   5.560   0.032
10322SOL    HW131865   6.075   5.505   0.017
10322SOL    HW231866   6.131   5.654   0.052
10323SOL     OW31867   6.431   3.894   6.142
10323SOL    HW131868   6.528   3.869   6.149
10323SOL    HW231869   6.416   3.943   6.056
10324SOL     OW31870   3.447   2.899   3.180
10324SOL    HW131871   3.497   2.845   3.248
10324SOL    HW231872   3.356   2.922   3.215
10325SOL     OW31873   6.652   4.486   3.193
10325SOL    HW131874   6.609   4.576   3.201
10325SOL    HW231875   6.688   4.459   3.282
10326SOL     OW31876   4.523   2.696   6.831
10326SOL    HW131877   4.452   2.754   6.871
10326SOL    HW231878   4.518   2.701   6.731
10327SOL     OW31879   2.844   1.622   2.393
10327SOL    HW131880   2.870   1.565   2.471
10327SOL    HW231881   2.746   1.610   2.374
10328SOL     OW31882   6.263   3.228   1.387
10328SOL    HW131883   6.309   3.270   1.309
10328SOL    HW231884   6.257   3.293   1.462
10329SOL     OW31885   3.436   0.171   4.390
10329SOL    HW131886   3.476   0.262   4.393
10329SOL    HW231887   3.503   0.104   4.422
10330SOL     OW31888   3.403   5.721   2.771
10330SOL    HW131889   3.358   5.726   2.860
10330SOL    HW231890   3.338   5.687   2.703
10331SOL     OW31891   6.218   0.208   3.209
10331SOL    HW131892   6.306   0.254   3.224
10331SOL    HW231893   6.144   0.267   3.242
10332SOL     OW31894   5.894   1.362   0.653
10332SOL    HW131895   5.817   1.384   0.712
10332SOL    HW231896   5.969   1.426   0.670
10333SOL     OW31897   6.351   4.295   4.841
10333SOL    HW131898   6.437   4.245   4.833
10333SOL    HW231899   6.320   4.324   4.751
10334SOL     OW31900   2.350   5.904   3.529
10334SOL    HW131901   2.260   5.883   3.569
10334SOL    HW231902   2.339   5.974   3.458
10335SOL     OW31903   2.348   4.120   0.043
10335SOL    HW131904   2.283   4.173   0.097
10335SOL    HW231905   2.422   4.088   0.102
10336SOL     OW31906   5.384   0.031   3.188
10336SOL    HW131907   5.362   6.969   3.140
10336SOL    HW231908   5.481   0.031   3.213
10337SOL     OW31909   6.406   6.507   5.338
10337SOL    HW131910   6.333   6.520   5.271
10337SOL    HW231911   6.492   6.492   5.290
10338SOL     OW31912   3.328   6.680   1.401
10338SOL    HW131913   3.371   6.589   1.405
10338SOL    HW231914   3.398   6.749   1.382
10339SOL     OW31915   3.660   4.405   0.674
10339SOL    HW131916   3.734   4.410   0.742
10339SOL    HW231917   3.686   4.458   0.593
10340SOL     OW31918   1.367   5.585   0.029
10340SOL    HW131919   1.382   5.647   6.977
10340SOL    HW231920   1.273   5.551   0.027
10341SOL     OW31921   2.562   3.324   1.623
10341SOL    HW131922   2.484   3.377   1.655
10341SOL    HW231923   2.534   3.229   1.608
10342SOL     OW31924   2.730   5.838   5.484
10342SOL    HW131925   2.729   5.916   5.421
10342SOL    HW231926   2.665   5.854   5.558
10343SOL     OW31927   2.460   3.951   0.316
10343SOL    HW131928   2.426   3.895   0.241
10343SOL    HW231929   2.486   3.892   0.393
10344SOL     OW31930   3.932   3.885   3.005
10344SOL    HW131931   3.905   3.926   2.918
10344SOL    HW231932   3.926   3.953   3.078
10345SOL     OW31933   1.781   0.322   6.185
10345SOL    HW131934   1.713   0.280   6.126
10345SOL    HW231935   1.741   0.400   6.233
10346SOL     OW31936   6.230   0.576   1.187
10346SOL    HW131937   6.164   0.646   1.212
10346SOL    HW231938   6.251   0.582   1.090
10347SOL     OW31939   4.808   2.758   1.655
10347SOL    HW131940   4.761   2.845   1.639
10347SOL    HW231941   4.774   2.717   1.740
10348SOL     OW31942   7.004   1.389   6.308
10348SOL    HW131943   6.964   1.464   6.255
10348SOL    HW231944   7.006   1.306   6.252
10349SOL     OW31945   6.848   1.517   0.582
10349SOL    HW131946   6.888   1.579   0.514
10349SOL    HW231947   6.775   1.565   0.632
10350SOL     OW31948   3.301   6.041   4.943
10350SOL    HW131949   3.311   6.112   4.873
10350SOL    HW231950   3.219   6.061   4.997
10351SOL     OW31951   6.343   4.967   6.030
10351SOL    HW131952   6.316   4.880   6.071
10351SOL    HW231953   6.282   5.039   6.062
10352SOL     OW31954   5.350   2.353   6.483
10352SOL    HW131955   5.293   2.433   6.501
10352SOL    HW231956   5.293   2.271   6.482
10353SOL     OW31957   6.406   3.693   4.194
10353SOL    HW131958   6.493   3.645   4.202
10353SOL    HW231959   6.423   3.792   4.192
10354SOL     OW31960   0.815   3.093   1.076
10354SOL    HW131961   0.854   3.186   1.083
10354SOL    HW231962   0.794   3.060   1.168
10355SOL     OW31963   0.947   0.699   0.694
10355SOL    HW131964   0.938   0.618   0.637
10355SOL    HW231965   1.024   0.755   0.661
10356SOL     OW31966   6.811   3.496   5.892
10356SOL    HW131967   6.814   3.551   5.809
10356SOL    HW231968   6.890   3.435   5.895
10357SOL     OW31969   3.612   2.426   5.820
10357SOL    HW131970   3.606   2.327   5.806
10357SOL    HW231971   3.707   2.452   5.836
10358SOL     OW31972   0.979   3.166   3.722
10358SOL    HW131973   0.928   3.196   3.802
10358SOL    HW231974   1.048   3.234   3.698
10359SOL     OW31975   5.354   2.047   2.159
10359SOL    HW131976   5.286   2.016   2.092
10359SOL    HW231977   5.308   2.089   2.237
10360SOL     OW31978   5.322   5.868   2.752
10360SOL    HW131979   5.275   5.891   2.838
10360SOL    HW231980   5.303   5.938   2.684
10361SOL     OW31981   2.780   0.818   2.712
10361SOL    HW131982   2.822   0.731   2.736
10361SOL    HW231983   2.685   0.804   2.685
10362SOL     OW31984   0.666   5.212   2.955
10362SOL    HW131985   0.648   5.282   2.886
10362SOL    HW231986   0.594   5.215   3.025
10363SOL     OW31987   4.671   2.584   1.071
10363SOL    HW131988   4.587   2.553   1.027
10363SOL    HW231989   4.746   2.580   1.006
10364SOL     OW31990   4.762   4.490   2.095
10364SOL    HW131991   4.690   4.496   2.025
10364SOL    HW231992   4.793   4.395   2.102
10365SOL     OW31993   5.779   4.525   0.223
10365SOL    HW131994   5.807   4.521   0.127
10365SOL    HW231995   5.855   4.556   0.279
10366SOL     OW31996   3.700   6.718   3.650
10366SOL    HW131997   3.625   6.658   3.678
10366SOL    HW231998   3.772   6.663   3.606
10367SOL     OW31999   0.005   1.964   2.258
10367SOL    HW132000   0.097   1.932   2.283
10367SOL    HW232001   6.966   1.948   2.335
10368SOL     OW32002   2.054   1.013   2.443
10368SOL    HW132003   2.012   1.072   2.373
10368SOL    HW232004   2.003   0.927   2.448
10369SOL     OW32005   2.670   6.012   6.220
10369SOL    HW132006   2.615   5.943   6.173
10369SOL    HW232007   2.670   6.097   6.167
10370SOL     OW32008   6.207   1.507   5.229
10370SOL    HW132009   6.173   1.450   5.304
10370SOL    HW232010   6.305   1.491   5.216
10371SOL     OW32011   2.021   6.583   4.180
10371SOL    HW132012   2.014   6.560   4.083
10371SOL    HW232013   2.049   6.679   4.189
10372SOL     OW32014   2.989   1.092   0.888
10372SOL    HW132015   3.040   1.087   0.802
10372SOL    HW232016   3.053   1.108   0.963
10373SOL     OW32017   0.483   6.696   5.040
10373SOL    HW132018   0.516   6.607   5.010
10373SOL    HW232019   0.480   6.759   4.963
10374SOL     OW32020   3.131   0.469   3.706
10374SOL    HW132021   3.212   0.418   3.733
10374SOL    HW232022   3.138   0.564   3.739
10375SOL     OW32023   2.802   1.980   5.899
10375SOL    HW132024   2.713   2.025   5.897
10375SOL    HW232025   2.798   1.896   5.846
10376SOL     OW32026   0.737   6.257   4.230
10376SOL    HW132027   0.751   6.196   4.151
10376SOL    HW232028   0.748   6.352   4.201
10377SOL     OW32029   0.154   1.359   1.601
10377SOL    HW132030   0.138   1.276   1.655
10377SOL    HW232031   0.219   1.418   1.648
10378SOL     OW32032   6.186   5.988   6.053
10378SOL    HW132033   6.142   6.077   6.064
10378SOL    HW232034   6.188   5.963   5.957
10379SOL     OW32035   3.082   5.471   4.045
10379SOL    HW132036   3.022   5.519   4.108
10379SOL    HW232037   3.029   5.441   3.965
10380SOL     OW32038   0.678   2.520   5.019
10380SOL    HW132039   0.630   2.606   5.004
10380SOL    HW232040   0.769   2.538   5.055
10381SOL     OW32041   4.412   4.049   1.244
10381SOL    HW132042   4.395   3.953   1.223
10381SOL    HW232043   4.506   4.061   1.275
10382SOL     OW32044   3.135   5.994   1.630
10382SOL    HW132045   3.068   5.933   1.671
10382SOL    HW232046   3.182   6.046   1.701
10383SOL     OW32047   1.206   4.006   0.340
10383SOL    HW132048   1.185   3.920   0.386
10383SOL    HW232049   1.147   4.078   0.376
10384SOL     OW32050   6.651   6.889   0.349
10384SOL    HW132051   6.732   6.948   0.342
10384SOL    HW232052   6.572   6.944   0.376
10385SOL     OW32053   4.394   6.122   6.887
10385SOL    HW132054   4.311   6.109   6.832
10385SOL    HW232055   4.369   6.160   6.976
10386SOL     OW32056   0.388   0.575   5.577
10386SOL    HW132057   0.407   0.522   5.494
10386SOL    HW232058   0.335   0.520   5.641
10387SOL     OW32059   5.250   2.828   2.633
10387SOL    HW132060   5.349   2.832   2.649
10387SOL    HW232061   5.222   2.908   2.580
10388SOL     OW32062   0.975   6.495   1.404
10388SOL    HW132063   0.997   6.398   1.397
10388SOL    HW232064   1.056   6.546   1.436
10389SOL     OW32065   5.785   3.790   1.231
10389SOL    HW132066   5.702   3.844   1.229
10389SOL    HW232067   5.834   3.801   1.144
10390SOL     OW32068   2.186   3.103   0.164
10390SOL    HW132069   2.104   3.049   0.149
10390SOL    HW232070   2.182   3.145   0.255
10391SOL     OW32071   0.625   5.997   4.755
10391SOL    HW132072   0.627   6.072   4.820
10391SOL    HW232073   0.584   5.917   4.797
10392SOL     OW32074   5.766   5.128   5.480
10392SOL    HW132075   5.819   5.211   5.463
10392SOL    HW232076   5.700   5.115   5.406
10393SOL     OW32077   2.188   3.166   3.428
10393SOL    HW132078   2.262   3.137   3.367
10393SOL    HW232079   2.100   3.137   3.390
10394SOL     OW32080   2.590   5.575   5.023
10394SOL    HW132081   2.551   5.607   5.109
10394SOL    HW232082   2.613   5.478   5.031
10395SOL     OW32083   0.463   0.647   1.511
10395SOL    HW132084   0.473   0.583   1.588
10395SOL    HW232085   0.430   0.598   1.431
10396SOL     OW32086   3.613   1.836   4.162
10396SOL    HW132087   3.527   1.787   4.153
10396SOL    HW232088   3.619   1.878   4.253
10397SOL     OW32089   3.458   1.332   4.516
10397SOL    HW132090   3.505   1.327   4.428
10397SOL    HW232091   3.365   1.365   4.501
10398SOL     OW32092   5.871   2.369   0.292
10398SOL    HW132093   5.952   2.319   0.319
10398SOL    HW232094   5.873   2.385   0.193
10399SOL     OW32095   4.972   2.062   3.186
10399SOL    HW132096   4.880   2.033   3.210
10399SOL    HW232097   4.971   2.158   3.157
10400SOL     OW32098   4.559   5.924   6.977
10400SOL    HW132099   4.499   5.897   0.028
10400SOL    HW232100   4.515   5.994   6.921
10401SOL     OW32101   0.151   6.483   2.728
10401SOL    HW132102   0.087   6.486   2.804
10401SOL    HW232103   0.108   6.522   2.646
10402SOL     OW32104   6.790   1.615   5.410
10402SOL    HW132105   6.788   1.565   5.323
10402SOL    HW232106   6.885   1.629   5.438
10403SOL     OW32107   4.781   2.737   2.996
10403SOL    HW132108   4.804   2.765   2.903
10403SOL    HW232109   4.792   2.815   3.058
10404SOL     OW32110   5.816   6.610   4.658
10404SOL    HW132111   5.905   6.613   4.704
10404SOL    HW232112   5.821   6.550   4.579
10405SOL     OW32113   1.367   6.652   4.560
10405SOL    HW132114   1.389   6.588   4.634
10405SOL    HW232115   1.345   6.741   4.599
10406SOL     OW32116   2.113   3.383   3.590
10406SOL    HW132117   2.140   3.464   3.538
10406SOL    HW232118   2.141   3.300   3.541
10407SOL     OW32119   2.762   6.903   6.497
10407SOL    HW132120   2.752   6.969   6.571
10407SOL    HW232121   2.692   6.832   6.506
10408SOL     OW32122   4.398   0.206   1.063
10408SOL    HW132123   4.325   0.176   1.001
10408SOL    HW232124   4.365   0.205   1.157
10409SOL     OW32125   6.948   5.145   1.487
10409SOL    HW132126   6.862   5.126   1.438
10409SOL    HW232127   6.928   5.198   1.569
10410SOL     OW32128   4.789   2.089   1.918
10410SOL    HW132129   4.848   2.033   1.976
10410SOL    HW232130   4.817   2.080   1.822
10411SOL     OW32131   2.795   6.818   3.665
10411SOL    HW132132   2.817   6.724   3.636
10411SOL    HW232133   2.822   6.882   3.593
10412SOL     OW32134   0.136   1.376   0.124
10412SOL    HW132135   0.136   1.293   0.069
10412SOL    HW232136   0.128   1.352   0.221
10413SOL     OW32137   0.185   2.702   0.359
10413SOL    HW132138   0.275   2.743   0.374
10413SOL    HW232139   0.115   2.773   0.362
10414SOL     OW32140   4.286   5.613   5.953
10414SOL    HW132141   4.324   5.528   5.917
10414SOL    HW232142   4.217   5.648   5.890
10415SOL     OW32143   1.459   3.937   5.345
10415SOL    HW132144   1.492   4.031   5.351
10415SOL    HW232145   1.520   3.883   5.287
10416SOL     OW32146   5.636   0.516   5.323
10416SOL    HW132147   5.709   0.545   5.385
10416SOL    HW232148   5.548   0.548   5.357
10417SOL     OW32149   3.177   4.944   3.887
10417SOL    HW132150   3.257   4.921   3.831
10417SOL    HW232151   3.206   4.953   3.983
10418SOL     OW32152   6.415   3.844   6.428
10418SOL    HW132153   6.460   3.811   6.345
10418SOL    HW232154   6.343   3.908   6.402
10419SOL     OW32155   3.036   6.735   5.866
10419SOL    HW132156   3.092   6.670   5.814
10419SOL    HW232157   3.027   6.703   5.961
10420SOL     OW32158   0.198   3.690   4.117
10420SOL    HW132159   0.236   3.647   4.198
10420SOL    HW232160   0.271   3.706   4.050
10421SOL     OW32161   0.767   2.573   3.848
10421SOL    HW132162   0.852   2.526   3.869
10421SOL    HW232163   0.726   2.607   3.932
10422SOL     OW32164   5.842   3.450   5.342
10422SOL    HW132165   5.747   3.477   5.356
10422SOL    HW232166   5.851   3.351   5.356
10423SOL     OW32167   5.248   4.946   5.651
10423SOL    HW132168   5.201   4.858   5.658
10423SOL    HW232169   5.347   4.931   5.655
10424SOL     OW32170   4.293   2.944   0.404
10424SOL    HW132171   4.343   2.992   0.332
10424SOL    HW232172   4.202   2.984   0.414
10425SOL     OW32173   1.102   6.443   1.705
10425SOL    HW132174   1.145   6.507   1.641
10425SOL    HW232175   1.144   6.452   1.795
10426SOL     OW32176   5.347   5.113   0.458
10426SOL    HW132177   5.348   5.063   0.545
10426SOL    HW232178   5.267   5.086   0.405
10427SOL     OW32179   3.785   0.858   6.624
10427SOL    HW132180   3.780   0.947   6.669
10427SOL    HW232181   3.692   0.823   6.609
10428SOL     OW32182   3.892   0.842   4.052
10428SOL    HW132183   3.804   0.807   4.083
10428SOL    HW232184   3.947   0.870   4.130
10429SOL     OW32185   6.968   4.432   1.017
10429SOL    HW132186   6.898   4.495   0.983
10429SOL    HW232187   0.024   4.484   1.046
10430SOL     OW32188   4.965   0.345   5.008
10430SOL    HW132189   5.033   0.370   5.077
10430SOL    HW232190   4.973   0.405   4.929
10431SOL     OW32191   2.674   6.009   4.173
10431SOL    HW132192   2.672   6.100   4.214
10431SOL    HW232193   2.767   5.973   4.177
10432SOL     OW32194   5.285   0.032   4.454
10432SOL    HW132195   5.354   0.014   4.523
10432SOL    HW232196   5.238   0.118   4.475
10433SOL     OW32197   0.919   5.921   1.829
10433SOL    HW132198   0.923   5.837   1.883
10433SOL    HW232199   0.837   5.920   1.771
10434SOL     OW32200   3.967   6.218   3.024
10434SOL    HW132201   4.029   6.223   2.946
10434SOL    HW232202   4.004   6.155   3.092
10435SOL     OW32203   0.334   0.893   5.335
10435SOL    HW132204   0.411   0.902   5.398
10435SOL    HW232205   0.332   0.971   5.272
10436SOL     OW32206   0.053   4.623   5.757
10436SOL    HW132207   0.124   4.571   5.805
10436SOL    HW232208   6.988   4.605   5.800
10437SOL     OW32209   5.026   3.869   6.193
10437SOL    HW132210   4.971   3.788   6.174
10437SOL    HW232211   5.123   3.845   6.190
10438SOL     OW32212   6.276   6.395   6.953
10438SOL    HW132213   6.361   6.438   6.982
10438SOL    HW232214   6.199   6.454   6.975
10439SOL     OW32215   3.540   1.003   5.041
10439SOL    HW132216   3.453   0.959   5.063
10439SOL    HW232217   3.562   0.987   4.944
10440SOL     OW32218   1.493   6.655   0.703
10440SOL    HW132219   1.488   6.565   0.660
10440SOL    HW232220   1.423   6.714   0.663
10441SOL     OW32221   3.971   1.373   1.345
10441SOL    HW132222   3.890   1.359   1.402
10441SOL    HW232223   4.046   1.406   1.402
10442SOL     OW32224   4.254   6.105   6.662
10442SOL    HW132225   4.279   6.175   6.596
10442SOL    HW232226   4.221   6.024   6.614
10443SOL     OW32227   4.876   3.700   4.000
10443SOL    HW132228   4.871   3.600   4.003
10443SOL    HW232229   4.848   3.738   4.088
10444SOL     OW32230   4.499   5.444   4.130
10444SOL    HW132231   4.503   5.358   4.080
10444SOL    HW232232   4.438   5.507   4.082
10445SOL     OW32233   0.801   4.588   4.647
10445SOL    HW132234   0.716   4.556   4.687
10445SOL    HW232235   0.816   4.542   4.559
10446SOL     OW32236   1.448   3.045   5.515
10446SOL    HW132237   1.412   3.069   5.425
10446SOL    HW232238   1.457   2.946   5.522
10447SOL     OW32239   0.543   1.319   1.673
10447SOL    HW132240   0.600   1.248   1.632
10447SOL    HW232241   0.599   1.373   1.736
10448SOL     OW32242   4.861   0.831   2.328
10448SOL    HW132243   4.871   0.755   2.263
10448SOL    HW232244   4.862   0.917   2.277
10449SOL     OW32245   2.593   5.033   4.890
10449SOL    HW132246   2.570   5.078   4.804
10449SOL    HW232247   2.673   4.975   4.876
10450SOL     OW32248   0.779   1.466   0.585
10450SOL    HW132249   0.866   1.440   0.544
10450SOL    HW232250   0.772   1.566   0.588
10451SOL     OW32251   1.514   5.442   2.183
10451SOL    HW132252   1.603   5.452   2.137
10451SOL    HW232253   1.451   5.512   2.149
10452SOL     OW32254   6.447   2.942   2.066
10452SOL    HW132255   6.438   2.875   1.992
10452SOL    HW232256   6.524   2.917   2.124
10453SOL     OW32257   3.655   6.715   1.050
10453SOL    HW132258   3.576   6.658   1.030
10453SOL    HW232259   3.697   6.746   0.965
10454SOL     OW32260   4.286   3.528   0.199
10454SOL    HW132261   4.298   3.573   0.111
10454SOL    HW232262   4.190   3.535   0.227
10455SOL     OW32263   6.248   6.227   3.198
10455SOL    HW132264   6.149   6.223   3.208
10455SOL    HW232265   6.273   6.210   3.102
10456SOL     OW32266   2.733   6.438   0.846
10456SOL    HW132267   2.750   6.493   0.764
10456SOL    HW232268   2.667   6.366   0.824
10457SOL     OW32269   3.209   3.644   2.025
10457SOL    HW132270   3.136   3.606   2.081
10457SOL    HW232271   3.181   3.644   1.929
10458SOL     OW32272   6.909   1.647   6.615
10458SOL    HW132273   6.903   1.555   6.653
10458SOL    HW232274   6.824   1.696   6.631
10459SOL     OW32275   5.131   5.912   1.670
10459SOL    HW132276   5.184   5.885   1.590
10459SOL    HW232277   5.042   5.948   1.641
10460SOL     OW32278   0.644   4.379   2.087
10460SOL    HW132279   0.684   4.467   2.111
10460SOL    HW232280   0.544   4.386   2.089
10461SOL     OW32281   0.280   5.446   6.003
10461SOL    HW132282   0.216   5.486   6.069
10461SOL    HW232283   0.241   5.452   5.911
10462SOL     OW32284   5.895   1.670   3.536
10462SOL    HW132285   5.878   1.600   3.466
10462SOL    HW232286   5.966   1.637   3.599
10463SOL     OW32287   3.854   2.673   5.606
10463SOL    HW132288   3.872   2.771   5.612
10463SOL    HW232289   3.891   2.637   5.520
10464SOL     OW32290   6.636   0.239   0.902
10464SOL    HW132291   6.614   0.153   0.950
10464SOL    HW232292   6.663   0.219   0.808
10465SOL     OW32293   6.286   5.709   1.233
10465SOL    HW132294   6.230   5.753   1.163
10465SOL    HW232295   6.286   5.610   1.217
10466SOL     OW32296   4.535   4.763   6.575
10466SOL    HW132297   4.605   4.814   6.625
10466SOL    HW232298   4.487   4.701   6.638
10467SOL     OW32299   2.243   1.738   6.176
10467SOL    HW132300   2.225   1.669   6.246
10467SOL    HW232301   2.332   1.781   6.193
10468SOL     OW32302   3.899   5.160   3.241
10468SOL    HW132303   3.860   5.126   3.327
10468SOL    HW232304   3.979   5.105   3.217
10469SOL     OW32305   4.015   4.281   5.911
10469SOL    HW132306   4.007   4.381   5.906
10469SOL    HW232307   4.031   4.244   5.819
10470SOL     OW32308   2.421   2.493   3.525
10470SOL    HW132309   2.362   2.413   3.537
10470SOL    HW232310   2.459   2.520   3.614
10471SOL     OW32311   2.755   2.337   1.101
10471SOL    HW132312   2.765   2.428   1.143
10471SOL    HW232313   2.844   2.306   1.067
10472SOL     OW32314   4.269   5.295   0.503
10472SOL    HW132315   4.225   5.207   0.487
10472SOL    HW232316   4.227   5.365   0.445
10473SOL     OW32317   0.009   0.431   6.530
10473SOL    HW132318   0.004   0.526   6.562
10473SOL    HW232319   0.062   0.377   6.595
10474SOL     OW32320   4.505   1.958   4.572
10474SOL    HW132321   4.480   2.053   4.586
10474SOL    HW232322   4.476   1.903   4.650
10475SOL     OW32323   4.586   0.003   2.311
10475SOL    HW132324   4.641   0.078   2.276
10475SOL    HW232325   4.597   6.947   2.251
10476SOL     OW32326   7.000   6.304   7.002
10476SOL    HW132327   6.962   6.329   6.912
10476SOL    HW232328   6.937   6.240   0.024
10477SOL     OW32329   6.650   1.768   4.077
10477SOL    HW132330   6.713   1.810   4.012
10477SOL    HW232331   6.611   1.686   4.036
10478SOL     OW32332   0.402   0.556   1.259
10478SOL    HW132333   0.447   0.479   1.213
10478SOL    HW232334   0.303   0.545   1.254
10479SOL     OW32335   0.506   2.539   1.294
10479SOL    HW132336   0.549   2.541   1.204
10479SOL    HW232337   0.513   2.629   1.337
10480SOL     OW32338   6.619   0.217   1.846
10480SOL    HW132339   6.598   0.127   1.885
10480SOL    HW232340   6.594   0.218   1.750
10481SOL     OW32341   2.784   6.689   4.631
10481SOL    HW132342   2.791   6.767   4.569
10481SOL    HW232343   2.756   6.608   4.579
10482SOL     OW32344   6.496   5.512   5.095
10482SOL    HW132345   6.580   5.548   5.054
10482SOL    HW232346   6.476   5.422   5.055
10483SOL     OW32347   6.748   5.311   6.967
10483SOL    HW132348   6.792   5.390   6.925
10483SOL    HW232349   6.752   5.320   0.043
10484SOL     OW32350   6.141   1.267   1.585
10484SOL    HW132351   6.048   1.249   1.619
10484SOL    HW232352   6.157   1.214   1.502
10485SOL     OW32353   3.336   3.985   1.771
10485SOL    HW132354   3.344   3.992   1.870
10485SOL    HW232355   3.239   3.986   1.745
10486SOL     OW32356   6.888   0.512   6.272
10486SOL    HW132357   6.819   0.562   6.324
10486SOL    HW232358   6.953   0.468   6.334
10487SOL     OW32359   4.477   1.809   2.329
10487SOL    HW132360   4.544   1.753   2.378
10487SOL    HW232361   4.523   1.888   2.288
10488SOL     OW32362   2.426   1.707   5.396
10488SOL    HW132363   2.464   1.746   5.480
10488SOL    HW232364   2.501   1.675   5.338
10489SOL     OW32365   6.279   6.932   4.503
10489SOL    HW132366   6.378   6.945   4.501
10489SOL    HW232367   6.234   7.011   4.461
10490SOL     OW32368   6.231   1.622   0.730
10490SOL    HW132369   6.264   1.654   0.819
10490SOL    HW232370   6.131   1.609   0.735
10491SOL     OW32371   2.481   2.005   5.369
10491SOL    HW132372   2.460   1.914   5.332
10491SOL    HW232373   2.397   2.052   5.393
10492SOL     OW32374   5.005   5.871   1.055
10492SOL    HW132375   5.079   5.931   1.023
10492SOL    HW232376   5.018   5.780   1.017
10493SOL     OW32377   2.858   6.405   2.110
10493SOL    HW132378   2.935   6.342   2.102
10493SOL    HW232379   2.842   6.451   2.023
10494SOL     OW32380   5.469   4.438   6.501
10494SOL    HW132381   5.448   4.448   6.403
10494SOL    HW232382   5.556   4.391   6.511
10495SOL     OW32383   0.805   6.983   0.920
10495SOL    HW132384   0.859   6.900   0.906
10495SOL    HW232385   0.778   6.990   1.016
10496SOL     OW32386   6.073   4.198   6.425
10496SOL    HW132387   6.158   4.198   6.478
10496SOL    HW232388   6.000   4.238   6.479
10497SOL     OW32389   1.746   6.806   2.337
10497SOL    HW132390   1.727   6.884   2.278
10497SOL    HW232391   1.684   6.807   2.416
10498SOL     OW32392   5.399   5.430   0.670
10498SOL    HW132393   5.346   5.433   0.585
10498SOL    HW232394   5.353   5.370   0.735
10499SOL     OW32395   4.940   0.612   2.064
10499SOL    HW132396   4.932   0.543   2.136
10499SOL    HW232397   4.934   0.568   1.974
10500SOL     OW32398   5.901   1.281   5.426
10500SOL    HW132399   5.931   1.224   5.349
10500SOL    HW232400   5.850   1.359   5.392
10501SOL     OW32401   2.348   5.066   1.901
10501SOL    HW132402   2.295   5.057   1.816
10501SOL    HW232403   2.343   4.981   1.952
10502SOL     OW32404   2.857   2.965   1.091
10502SOL    HW132405   2.843   2.986   0.995
10502SOL    HW232406   2.774   2.923   1.128
10503SOL     OW32407   5.097   3.256   0.631
10503SOL    HW132408   5.029   3.324   0.605
10503SOL    HW232409   5.070   3.166   0.597
10504SOL     OW32410   0.427   3.177   5.295
10504SOL    HW132411   0.485   3.199   5.373
10504SOL    HW232412   0.361   3.251   5.281
10505SOL     OW32413   5.882   5.324   1.353
10505SOL    HW132414   5.928   5.259   1.414
10505SOL    HW232415   5.798   5.282   1.317
10506SOL     OW32416   0.927   3.550   6.996
10506SOL    HW132417   0.875   3.464   7.001
10506SOL    HW232418   0.881   3.612   6.932
10507SOL     OW32419   2.296   5.641   1.017
10507SOL    HW132420   2.235   5.714   0.983
10507SOL    HW232421   2.391   5.665   0.996
10508SOL     OW32422   0.113   5.380   4.775
10508SOL    HW132423   0.162   5.336   4.700
10508SOL    HW232424   0.143   5.341   4.862
10509SOL     OW32425   6.796   5.351   5.226
10509SOL    HW132426   6.793   5.391   5.317
10509SOL    HW232427   6.746   5.265   5.225
10510SOL     OW32428   4.675   6.628   0.442
10510SOL    HW132429   4.734   6.585   0.510
10510SOL    HW232430   4.632   6.709   0.481
10511SOL     OW32431   3.032   1.328   2.215
10511SOL    HW132432   3.002   1.416   2.178
10511SOL    HW232433   3.112   1.296   2.163
10512SOL     OW32434   3.845   0.676   6.253
10512SOL    HW132435   3.773   0.610   6.276
10512SOL    HW232436   3.818   0.728   6.172
10513SOL     OW32437   6.609   3.564   3.630
10513SOL    HW132438   6.642   3.529   3.542
10513SOL    HW232439   6.517   3.530   3.647
10514SOL     OW32440   0.724   2.968   1.323
10514SOL    HW132441   0.645   2.907   1.325
10514SOL    HW232442   0.728   3.020   1.409
10515SOL     OW32443   1.590   3.636   4.722
10515SOL    HW132444   1.631   3.716   4.765
10515SOL    HW232445   1.551   3.662   4.633
10516SOL     OW32446   3.006   1.820   0.520
10516SOL    HW132447   3.098   1.782   0.526
10516SOL    HW232448   2.988   1.876   0.601
10517SOL     OW32449   0.869   3.360   1.058
10517SOL    HW132450   0.957   3.365   1.104
10517SOL    HW232451   0.824   3.449   1.061
10518SOL     OW32452   6.964   6.417   1.374
10518SOL    HW132453   6.995   6.467   1.455
10518SOL    HW232454   0.019   6.372   1.331
10519SOL     OW32455   3.064   3.673   0.755
10519SOL    HW132456   3.081   3.676   0.656
10519SOL    HW232457   2.969   3.701   0.773
10520SOL     OW32458   0.558   2.548   5.922
10520SOL    HW132459   0.484   2.540   5.989
10520SOL    HW232460   0.595   2.641   5.923
10521SOL     OW32461   6.555   5.473   1.202
10521SOL    HW132462   6.592   5.560   1.237
10521SOL    HW232463   6.512   5.489   1.113
10522SOL     OW32464   0.077   2.022   4.490
10522SOL    HW132465   0.024   2.100   4.457
10522SOL    HW232466   0.173   2.033   4.463
10523SOL     OW32467   0.499   4.827   2.830
10523SOL    HW132468   0.488   4.740   2.782
10523SOL    HW232469   0.504   4.902   2.764
10524SOL     OW32470   6.947   6.440   4.506
10524SOL    HW132471   6.918   6.481   4.420
10524SOL    HW232472   6.900   6.353   4.519
10525SOL     OW32473   3.357   0.795   5.068
10525SOL    HW132474   3.432   0.731   5.085
10525SOL    HW232475   3.279   0.772   5.127
10526SOL     OW32476   1.120   0.106   2.033
10526SOL    HW132477   1.037   0.064   1.996
10526SOL    HW232478   1.096   0.161   2.113
10527SOL     OW32479   1.344   0.931   5.200
10527SOL    HW132480   1.265   0.875   5.225
10527SOL    HW232481   1.373   0.907   5.107
10528SOL     OW32482   1.704   4.068   6.367
10528SOL    HW132483   1.761   4.015   6.304
10528SOL    HW232484   1.644   4.007   6.418
10529SOL     OW32485   2.211   6.110   4.375
10529SOL    HW132486   2.192   6.208   4.380
10529SOL    HW232487   2.144   6.060   4.430
10530SOL     OW32488   1.380   0.155   6.406
10530SOL    HW132489   1.322   0.074   6.404
10530SOL    HW232490   1.476   0.128   6.406
10531SOL     OW32491   2.021   2.363   4.243
10531SOL    HW132492   2.106   2.400   4.281
10531SOL    HW232493   1.975   2.306   4.311
10532SOL     OW32494   0.548   6.595   6.666
10532SOL    HW132495   0.476   6.527   6.653
10532SOL    HW232496   0.627   6.570   6.610
10533SOL     OW32497   2.984   6.318   3.413
10533SOL    HW132498   2.990   6.368   3.326
10533SOL    HW232499   2.981   6.220   3.395
10534SOL     OW32500   6.258   5.457   2.356
10534SOL    HW132501   6.355   5.442   2.378
10534SOL    HW232502   6.205   5.377   2.382
10535SOL     OW32503   1.802   1.851   2.495
10535SOL    HW132504   1.870   1.923   2.509
10535SOL    HW232505   1.847   1.762   2.496
10536SOL     OW32506   4.892   0.578   4.557
10536SOL    HW132507   4.966   0.557   4.493
10536SOL    HW232508   4.856   0.669   4.537
10537SOL     OW32509   4.524   6.292   4.436
10537SOL    HW132510   4.613   6.308   4.477
10537SOL    HW232511   4.520   6.200   4.398
10538SOL     OW32512   6.532   3.425   0.519
10538SOL    HW132513   6.609   3.388   0.569
10538SOL    HW232514   6.564   3.474   0.438
10539SOL     OW32515   6.561   5.281   0.918
10539SOL    HW132516   6.476   5.244   0.956
10539SOL    HW232517   6.556   5.278   0.818
10540SOL     OW32518   1.713   2.963   5.315
10540SOL    HW132519   1.669   2.946   5.227
10540SOL    HW232520   1.658   2.924   5.388
10541SOL     OW32521   3.988   3.836   2.145
10541SOL    HW132522   4.036   3.777   2.079
10541SOL    HW232523   4.000   3.798   2.237
10542SOL     OW32524   6.698   1.348   5.368
10542SOL    HW132525   6.677   1.288   5.445
10542SOL    HW232526   6.703   1.443   5.400
10543SOL     OW32527   0.923   1.815   4.396
10543SOL    HW132528   0.985   1.777   4.464
10543SOL    HW232529   0.837   1.841   4.440
10544SOL     OW32530   2.565   6.405   2.126
10544SOL    HW132531   2.513   6.404   2.040
10544SOL    HW232532   2.663   6.407   2.106
10545SOL     OW32533   0.835   1.923   1.246
10545SOL    HW132534   0.922   1.901   1.203
10545SOL    HW232535   0.775   1.968   1.180
10546SOL     OW32536   2.596   6.324   0.373
10546SOL    HW132537   2.605   6.242   0.430
10546SOL    HW232538   2.589   6.297   0.277
10547SOL     OW32539   5.402   3.176   2.942
10547SOL    HW132540   5.379   3.172   2.845
10547SOL    HW232541   5.407   3.084   2.979
10548SOL     OW32542   0.122   4.147   4.333
10548SOL    HW132543   0.033   4.160   4.288
10548SOL    HW232544   0.142   4.049   4.341
10549SOL     OW32545   0.529   1.307   1.108
10549SOL    HW132546   0.462   1.277   1.040
10549SOL    HW232547   0.606   1.351   1.062
10550SOL     OW32548   4.446   6.906   3.818
10550SOL    HW132549   4.525   6.852   3.788
10550SOL    HW232550   4.376   6.846   3.855
10551SOL     OW32551   2.329   2.283   6.413
10551SOL    HW132552   2.285   2.360   6.368
10551SOL    HW232553   2.362   2.219   6.343
10552SOL     OW32554   1.783   0.860   5.776
10552SOL    HW132555   1.786   0.956   5.804
10552SOL    HW232556   1.862   0.839   5.719
10553SOL     OW32557   0.613   4.916   1.223
10553SOL    HW132558   0.547   4.985   1.255
10553SOL    HW232559   0.588   4.827   1.259
10554SOL     OW32560   4.910   4.948   1.165
10554SOL    HW132561   4.977   4.915   1.098
10554SOL    HW232562   4.895   4.878   1.235
10555SOL     OW32563   2.583   3.067   0.698
10555SOL    HW132564   2.548   3.065   0.792
10555SOL    HW232565   2.630   2.982   0.679
10556SOL     OW32566   1.201   1.278   3.806
10556SOL    HW132567   1.159   1.194   3.772
10556SOL    HW232568   1.142   1.320   3.875
10557SOL     OW32569   2.112   2.880   3.202
10557SOL    HW132570   2.052   2.840   3.133
10557SOL    HW232571   2.152   2.807   3.257
10558SOL     OW32572   3.777   5.944   5.645
10558SOL    HW132573   3.797   5.956   5.548
10558SOL    HW232574   3.700   6.002   5.671
10559SOL     OW32575   4.436   1.043   1.783
10559SOL    HW132576   4.376   1.063   1.706
10559SOL    HW232577   4.465   1.129   1.826
10560SOL     OW32578   4.733   0.188   2.929
10560SOL    HW132579   4.688   0.271   2.895
10560SOL    HW232580   4.780   0.208   3.015
10561SOL     OW32581   3.568   4.334   1.739
10561SOL    HW132582   3.481   4.310   1.695
10561SOL    HW232583   3.568   4.431   1.760
10562SOL     OW32584   4.445   5.299   0.066
10562SOL    HW132585   4.397   5.293   7.002
10562SOL    HW232586   4.382   5.276   0.140
10563SOL     OW32587   0.450   1.168   2.363
10563SOL    HW132588   0.372   1.174   2.426
10563SOL    HW232589   0.416   1.152   2.270
10564SOL     OW32590   5.378   6.415   3.802
10564SOL    HW132591   5.402   6.321   3.828
10564SOL    HW232592   5.462   6.468   3.790
10565SOL     OW32593   7.020   6.627   5.671
10565SOL    HW132594   0.039   6.559   5.610
10565SOL    HW232595   0.020   6.719   5.639
10566SOL     OW32596   3.855   1.547   6.632
10566SOL    HW132597   3.903   1.631   6.603
10566SOL    HW232598   3.921   1.484   6.671
10567SOL     OW32599   2.217   2.277   5.370
10567SOL    HW132600   2.182   2.278   5.277
10567SOL    HW232601   2.219   2.370   5.406
10568SOL     OW32602   6.796   3.236   0.925
10568SOL    HW132603   6.796   3.318   0.983
10568SOL    HW232604   6.724   3.173   0.956
10569SOL     OW32605   6.209   0.745   2.345
10569SOL    HW132606   6.263   0.663   2.358
10569SOL    HW232607   6.120   0.721   2.306
10570SOL     OW32608   1.492   4.820   3.477
10570SOL    HW132609   1.542   4.889   3.530
10570SOL    HW232610   1.441   4.761   3.539
10571SOL     OW32611   0.404   4.596   5.118
10571SOL    HW132612   0.471   4.643   5.062
10571SOL    HW232613   0.398   4.500   5.091
10572SOL     OW32614   6.905   4.462   2.701
10572SOL    HW132615   6.826   4.490   2.645
10572SOL    HW232616   6.890   4.490   2.795
10573SOL     OW32617   5.401   0.893   4.889
10573SOL    HW132618   5.340   0.965   4.923
10573SOL    HW232619   5.347   0.823   4.842
10574SOL     OW32620   0.612   1.476   4.126
10574SOL    HW132621   0.669   1.445   4.202
10574SOL    HW232622   0.670   1.505   4.050
10575SOL     OW32623   6.963   0.457   3.710
10575SOL    HW132624   6.906   0.377   3.692
10575SOL    HW232625   7.004   0.449   3.800
10576SOL     OW32626   0.629   5.966   4.462
10576SOL    HW132627   0.619   5.995   4.557
10576SOL    HW232628   0.607   5.869   4.454
10577SOL     OW32629   1.724   4.580   0.541
10577SOL    HW132630   1.774   4.510   0.491
10577SOL    HW232631   1.778   4.612   0.619
10578SOL     OW32632   4.133   1.529   3.203
10578SOL    HW132633   4.123   1.598   3.275
10578SOL    HW232634   4.229   1.500   3.198
10579SOL     OW32635   4.133   2.761   1.402
10579SOL    HW132636   4.075   2.769   1.321
10579SOL    HW232637   4.198   2.686   1.390
10580SOL     OW32638   6.776   6.822   6.494
10580SOL    HW132639   6.814   6.889   6.558
10580SOL    HW232640   6.711   6.763   6.541
10581SOL     OW32641   5.702   0.252   3.135
10581SOL    HW132642   5.690   0.157   3.164
10581SOL    HW232643   5.726   0.307   3.215
10582SOL     OW32644   4.576   4.528   6.101
10582SOL    HW132645   4.543   4.454   6.043
10582SOL    HW232646   4.654   4.572   6.058
10583SOL     OW32647   4.358   0.972   4.168
10583SOL    HW132648   4.351   0.872   4.175
10583SOL    HW232649   4.430   1.004   4.229
10584SOL     OW32650   6.882   0.446   0.229
10584SOL    HW132651   6.823   0.524   0.205
10584SOL    HW232652   6.953   0.435   0.160
10585SOL     OW32653   2.919   1.753   5.249
10585SOL    HW132654   2.892   1.758   5.153
10585SOL    HW232655   2.963   1.665   5.267
10586SOL     OW32656   4.920   4.511   5.653
10586SOL    HW132657   4.993   4.448   5.627
10586SOL    HW232658   4.847   4.460   5.699
10587SOL     OW32659   6.925   5.232   6.716
10587SOL    HW132660   6.934   5.305   6.784
10587SOL    HW232661   6.861   5.163   6.749
10588SOL     OW32662   1.569   1.716   5.250
10588SOL    HW132663   1.501   1.691   5.181
10588SOL    HW232664   1.637   1.643   5.258
10589SOL     OW32665   5.507   0.822   4.392
10589SOL    HW132666   5.546   0.730   4.382
10589SOL    HW232667   5.468   0.851   4.305
10590SOL     OW32668   0.257   0.024   0.535
10590SOL    HW132669   0.231   0.064   0.622
10590SOL    HW232670   0.353   7.019   0.539
10591SOL     OW32671   1.882   2.020   7.019
10591SOL    HW132672   1.813   1.987   0.061
10591SOL    HW232673   1.973   2.014   0.037
10592SOL     OW32674   5.888   3.620   3.075
10592SOL    HW132675   5.853   3.686   3.009
10592SOL    HW232676   5.811   3.570   3.117
10593SOL     OW32677   3.208   5.910   1.249
10593SOL    HW132678   3.198   6.001   1.290
10593SOL    HW232679   3.246   5.919   1.157
10594SOL     OW32680   5.187   1.463   2.652
10594SOL    HW132681   5.149   1.536   2.594
10594SOL    HW232682   5.283   1.482   2.671
10595SOL     OW32683   5.559   0.189   0.038
10595SOL    HW132684   5.516   0.267   0.084
10595SOL    HW232685   5.542   0.106   0.090
10596SOL     OW32686   3.999   0.836   0.192
10596SOL    HW132687   3.929   0.828   0.263
10596SOL    HW232688   4.036   0.929   0.192
10597SOL     OW32689   3.496   1.371   5.476
10597SOL    HW132690   3.530   1.461   5.503
10597SOL    HW232691   3.396   1.368   5.486
10598SOL     OW32692   3.379   2.942   0.331
10598SOL    HW132693   3.396   2.859   0.277
10598SOL    HW232694   3.335   2.917   0.418
10599SOL     OW32695   5.312   3.439   6.670
10599SOL    HW132696   5.231   3.463   6.617
10599SOL    HW232697   5.293   3.358   6.726
10600SOL     OW32698   3.460   2.387   1.686
10600SOL    HW132699   3.451   2.294   1.720
10600SOL    HW232700   3.547   2.425   1.715
10601SOL     OW32701   1.467   4.636   5.568
10601SOL    HW132702   1.468   4.598   5.475
10601SOL    HW232703   1.372   4.656   5.594
10602SOL     OW32704   1.396   1.156   1.429
10602SOL    HW132705   1.482   1.178   1.383
10602SOL    HW232706   1.355   1.240   1.464
10603SOL     OW32707   4.003   0.240   3.352
10603SOL    HW132708   4.066   0.164   3.363
10603SOL    HW232709   3.929   0.214   3.290
10604SOL     OW32710   6.336   5.331   5.295
10604SOL    HW132711   6.411   5.297   5.238
10604SOL    HW232712   6.250   5.295   5.260
10605SOL     OW32713   2.319   6.083   6.702
10605SOL    HW132714   2.389   6.055   6.768
10605SOL    HW232715   2.229   6.055   6.735
10606SOL     OW32716   0.086   0.491   0.674
10606SOL    HW132717   0.082   0.521   0.579
10606SOL    HW232718   0.166   0.530   0.719
10607SOL     OW32719   4.122   4.569   6.359
10607SOL    HW132720   4.172   4.584   6.274
10607SOL    HW232721   4.113   4.655   6.409
10608SOL     OW32722   6.892   4.500   4.292
10608SOL    HW132723   6.803   4.543   4.274
10608SOL    HW232724   6.884   4.401   4.278
10609SOL     OW32725   3.029   6.653   0.063
10609SOL    HW132726   3.091   6.680   7.013
10609SOL    HW232727   2.945   6.615   0.023
10610SOL     OW32728   0.817   2.476   4.227
10610SOL    HW132729   0.802   2.456   4.323
10610SOL    HW232730   0.738   2.525   4.190
10611SOL     OW32731   2.632   4.287   6.690
10611SOL    HW132732   2.656   4.323   6.780
10611SOL    HW232733   2.687   4.206   6.671
10612SOL     OW32734   4.055   1.823   4.657
10612SOL    HW132735   4.098   1.912   4.671
10612SOL    HW232736   4.126   1.752   4.654
10613SOL     OW32737   5.747   5.875   5.939
10613SOL    HW132738   5.766   5.951   6.002
10613SOL    HW232739   5.656   5.839   5.957
10614SOL     OW32740   4.760   1.493   5.016
10614SOL    HW132741   4.775   1.528   4.924
10614SOL    HW232742   4.760   1.393   5.015
10615SOL     OW32743   3.506   0.783   6.313
10615SOL    HW132744   3.546   0.809   6.400
10615SOL    HW232745   3.554   0.704   6.276
10616SOL     OW32746   2.508   6.907   6.897
10616SOL    HW132747   2.566   6.890   6.977
10616SOL    HW232748   2.564   6.943   6.823
10617SOL     OW32749   3.126   4.149   1.202
10617SOL    HW132750   3.037   4.159   1.158
10617SOL    HW232751   3.180   4.082   1.152
10618SOL     OW32752   1.560   4.217   5.982
10618SOL    HW132753   1.620   4.283   6.028
10618SOL    HW232754   1.541   4.141   6.044
10619SOL     OW32755   0.063   3.346   3.827
10619SOL    HW132756   0.116   3.284   3.768
10619SOL    HW232757   0.055   3.435   3.782
10620SOL     OW32758   1.158   6.897   4.902
10620SOL    HW132759   1.109   6.898   4.989
10620SOL    HW232760   1.096   6.926   4.829
10621SOL     OW32761   0.998   4.815   1.451
10621SOL    HW132762   1.047   4.824   1.365
10621SOL    HW232763   0.986   4.718   1.473
10622SOL     OW32764   5.072   1.707   2.528
10622SOL    HW132765   5.140   1.725   2.456
10622SOL    HW232766   5.078   1.778   2.598
10623SOL     OW32767   6.856   5.426   6.094
10623SOL    HW132768   6.865   5.413   6.193
10623SOL    HW232769   6.788   5.363   6.058
10624SOL     OW32770   0.443   2.422   5.157
10624SOL    HW132771   0.536   2.456   5.139
10624SOL    HW232772   0.437   2.391   5.252
10625SOL     OW32773   0.589   4.621   1.314
10625SOL    HW132774   0.530   4.560   1.366
10625SOL    HW232775   0.671   4.572   1.286
10626SOL     OW32776   3.302   3.112   0.763
10626SOL    HW132777   3.287   3.194   0.708
10626SOL    HW232778   3.372   3.055   0.720
10627SOL     OW32779   5.931   1.577   6.509
10627SOL    HW132780   5.959   1.516   6.436
10627SOL    HW232781   5.847   1.543   6.551
10628SOL     OW32782   4.809   6.443   1.236
10628SOL    HW132783   4.884   6.496   1.197
10628SOL    HW232784   4.739   6.504   1.273
10629SOL     OW32785   2.329   5.056   4.843
10629SOL    HW132786   2.287   4.998   4.773
10629SOL    HW232787   2.423   5.026   4.859
10630SOL     OW32788   6.543   1.569   2.942
10630SOL    HW132789   6.605   1.579   2.864
10630SOL    HW232790   6.563   1.640   3.009
10631SOL     OW32791   3.925   4.976   5.103
10631SOL    HW132792   3.941   4.911   5.178
10631SOL    HW232793   3.826   4.985   5.088
10632SOL     OW32794   5.387   6.698   3.608
10632SOL    HW132795   5.295   6.684   3.646
10632SOL    HW232796   5.411   6.620   3.551
10633SOL     OW32797   2.924   2.432   1.439
10633SOL    HW132798   2.880   2.486   1.367
10633SOL    HW232799   2.982   2.362   1.397
10634SOL     OW32800   2.176   4.199   0.534
10634SOL    HW132801   2.243   4.169   0.602
10634SOL    HW232802   2.110   4.260   0.577
10635SOL     OW32803   1.871   3.888   6.574
10635SOL    HW132804   1.794   3.849   6.624
10635SOL    HW232805   1.851   3.983   6.550
10636SOL     OW32806   0.200   2.225   0.869
10636SOL    HW132807   0.179   2.296   0.802
10636SOL    HW232808   0.116   2.178   0.895
10637SOL     OW32809   1.233   4.528   6.201
10637SOL    HW132810   1.275   4.531   6.292
10637SOL    HW232811   1.297   4.485   6.137
10638SOL     OW32812   5.502   5.737   2.922
10638SOL    HW132813   5.443   5.756   2.843
10638SOL    HW232814   5.593   5.710   2.890
10639SOL     OW32815   0.758   4.053   3.400
10639SOL    HW132816   0.753   4.112   3.320
10639SOL    HW232817   0.848   4.009   3.404
10640SOL     OW32818   5.165   6.850   4.325
10640SOL    HW132819   5.218   6.928   4.359
10640SOL    HW232820   5.077   6.846   4.374
10641SOL     OW32821   2.562   1.718   2.437
10641SOL    HW132822   2.493   1.697   2.368
10641SOL    HW232823   2.520   1.721   2.527
10642SOL     OW32824   5.975   2.076   0.543
10642SOL    HW132825   5.923   2.161   0.554
10642SOL    HW232826   6.057   2.080   0.600
10643SOL     OW32827   2.003   5.745   4.694
10643SOL    HW132828   1.937   5.745   4.620
10643SOL    HW232829   1.960   5.711   4.778
10644SOL     OW32830   5.796   2.579   1.745
10644SOL    HW132831   5.859   2.532   1.684
10644SOL    HW232832   5.829   2.673   1.761
10645SOL     OW32833   1.794   2.295   4.812
10645SOL    HW132834   1.833   2.233   4.880
10645SOL    HW232835   1.698   2.272   4.797
10646SOL     OW32836   0.563   6.700   5.776
10646SOL    HW132837   0.486   6.679   5.837
10646SOL    HW232838   0.547   6.790   5.734
10647SOL     OW32839   3.251   5.530   4.885
10647SOL    HW132840   3.264   5.510   4.787
10647SOL    HW232841   3.238   5.444   4.934
10648SOL     OW32842   5.661   4.457   6.262
10648SOL    HW132843   5.612   4.502   6.187
10648SOL    HW232844   5.751   4.499   6.273
10649SOL     OW32845   0.828   4.403   3.018
10649SOL    HW132846   0.927   4.392   3.012
10649SOL    HW232847   0.800   4.482   2.964
10650SOL     OW32848   0.839   0.452   3.484
10650SOL    HW132849   0.860   0.368   3.435
10650SOL    HW232850   0.793   0.516   3.423
10651SOL     OW32851   5.789   6.392   0.087
10651SOL    HW132852   5.730   6.376   0.166
10651SOL    HW232853   5.837   6.308   0.064
10652SOL     OW32854   3.549   6.737   5.606
10652SOL    HW132855   3.579   6.644   5.584
10652SOL    HW232856   3.464   6.732   5.658
10653SOL     OW32857   4.738   5.675   4.557
10653SOL    HW132858   4.704   5.618   4.483
10653SOL    HW232859   4.838   5.677   4.554
10654SOL     OW32860   5.191   0.706   0.072
10654SOL    HW132861   5.138   0.727   0.155
10654SOL    HW232862   5.199   0.788   0.016
10655SOL     OW32863   2.420   5.118   0.677
10655SOL    HW132864   2.420   5.201   0.621
10655SOL    HW232865   2.338   5.064   0.657
10656SOL     OW32866   0.327   1.813   2.840
10656SOL    HW132867   0.370   1.875   2.775
10656SOL    HW232868   0.397   1.769   2.896
10657SOL     OW32869   5.349   0.533   5.391
10657SOL    HW132870   5.288   0.507   5.316
10657SOL    HW232871   5.349   0.633   5.401
10658SOL     OW32872   6.481   4.920   4.822
10658SOL    HW132873   6.414   4.944   4.893
10658SOL    HW232874   6.542   4.997   4.807
10659SOL     OW32875   0.371   5.700   1.506
10659SOL    HW132876   0.327   5.758   1.574
10659SOL    HW232877   0.427   5.631   1.552
10660SOL     OW32878   5.282   3.829   6.241
10660SOL    HW132879   5.335   3.756   6.283
10660SOL    HW232880   5.337   3.912   6.237
10661SOL     OW32881   1.544   6.964   1.826
10661SOL    HW132882   1.446   6.958   1.842
10661SOL    HW232883   1.589   6.880   1.857
10662SOL     OW32884   5.187   0.837   2.123
10662SOL    HW132885   5.108   0.887   2.087
10662SOL    HW232886   5.184   0.837   2.223
10663SOL     OW32887   0.609   2.185   2.840
10663SOL    HW132888   0.626   2.280   2.866
10663SOL    HW232889   0.615   2.127   2.922
10664SOL     OW32890   6.378   3.925   5.002
10664SOL    HW132891   6.370   3.836   4.957
10664SOL    HW232892   6.473   3.954   5.003
10665SOL     OW32893   0.582   1.883   0.059
10665SOL    HW132894   0.629   1.950   0.117
10665SOL    HW232895   0.634   1.798   0.057
10666SOL     OW32896   4.134   3.618   1.970
10666SOL    HW132897   4.129   3.521   1.947
10666SOL    HW232898   4.120   3.673   1.887
10667SOL     OW32899   4.744   2.747   4.053
10667SOL    HW132900   4.842   2.723   4.058
10667SOL    HW232901   4.710   2.727   3.961
10668SOL     OW32902   2.505   0.517   5.300
10668SOL    HW132903   2.591   0.469   5.283
10668SOL    HW232904   2.438   0.493   5.229
10669SOL     OW32905   5.392   0.468   1.892
10669SOL    HW132906   5.369   0.424   1.979
10669SOL    HW232907   5.422   0.398   1.827
10670SOL     OW32908   5.624   4.801   5.418
10670SOL    HW132909   5.612   4.820   5.515
10670SOL    HW232910   5.557   4.733   5.389
10671SOL     OW32911   2.231   2.267   3.533
10671SOL    HW132912   2.246   2.187   3.474
10671SOL    HW232913   2.141   2.306   3.513
10672SOL     OW32914   6.568   3.495   0.916
10672SOL    HW132915   6.502   3.443   0.971
10672SOL    HW232916   6.521   3.535   0.837
10673SOL     OW32917   0.778   0.816   6.690
10673SOL    HW132918   0.825   0.762   6.621
10673SOL    HW232919   0.755   0.758   6.768
10674SOL     OW32920   3.538   4.120   2.338
10674SOL    HW132921   3.466   4.152   2.276
10674SOL    HW232922   3.610   4.075   2.284
10675SOL     OW32923   1.946   6.671   6.769
10675SOL    HW132924   1.872   6.683   6.835
10675SOL    HW232925   1.989   6.582   6.782
10676SOL     OW32926   6.266   5.816   5.584
10676SOL    HW132927   6.296   5.870   5.505
10676SOL    HW232928   6.188   5.759   5.558
10677SOL     OW32929   1.386   0.878   1.683
10677SOL    HW132930   1.421   0.784   1.686
10677SOL    HW232931   1.397   0.914   1.590
10678SOL     OW32932   4.509   5.233   3.972
10678SOL    HW132933   4.598   5.267   3.940
10678SOL    HW232934   4.522   5.146   4.020
10679SOL     OW32935   4.524   5.639   6.533
10679SOL    HW132936   4.604   5.584   6.510
10679SOL    HW232937   4.493   5.615   6.625
10680SOL     OW32938   3.680   1.510   4.282
10680SOL    HW132939   3.750   1.450   4.242
10680SOL    HW232940   3.721   1.563   4.356
10681SOL     OW32941   0.963   3.677   0.863
10681SOL    HW132942   1.028   3.602   0.873
10681SOL    HW232943   1.013   3.763   0.854
10682SOL     OW32944   0.857   1.545   5.569
10682SOL    HW132945   0.775   1.543   5.626
10682SOL    HW232946   0.924   1.479   5.604
10683SOL     OW32947   3.603   2.119   4.005
10683SOL    HW132948   3.702   2.135   4.008
10683SOL    HW232949   3.585   2.023   3.986
10684SOL     OW32950   5.320   4.643   2.859
10684SOL    HW132951   5.415   4.661   2.832
10684SOL    HW232952   5.259   4.701   2.807
10685SOL     OW32953   0.685   6.043   2.016
10685SOL    HW132954   0.663   5.979   1.942
10685SOL    HW232955   0.773   6.017   2.057
10686SOL     OW32956   0.509   4.564   6.192
10686SOL    HW132957   0.456   4.639   6.233
10686SOL    HW232958   0.461   4.531   6.110
10687SOL     OW32959   5.551   6.022   3.001
10687SOL    HW132960   5.519   5.931   2.973
10687SOL    HW232961   5.566   6.023   3.100
10688SOL     OW32962   6.626   3.663   2.223
10688SOL    HW132963   6.547   3.722   2.233
10688SOL    HW232964   6.681   3.665   2.307
10689SOL     OW32965   0.195   5.602   3.390
10689SOL    HW132966   0.185   5.692   3.432
10689SOL    HW232967   0.106   5.573   3.352
10690SOL     OW32968   6.869   6.116   3.892
10690SOL    HW132969   6.941   6.152   3.950
10690SOL    HW232970   6.784   6.108   3.944
10691SOL     OW32971   0.566   2.709   2.082
10691SOL    HW132972   0.536   2.717   1.987
10691SOL    HW232973   0.490   2.675   2.138
10692SOL     OW32974   3.236   5.912   3.549
10692SOL    HW132975   3.230   5.820   3.510
10692SOL    HW232976   3.277   5.974   3.482
10693SOL     OW32977   2.291   6.001   0.182
10693SOL    HW132978   2.370   5.955   0.223
10693SOL    HW232979   2.215   6.002   0.247
10694SOL     OW32980   5.466   6.712   1.850
10694SOL    HW132981   5.492   6.623   1.815
10694SOL    HW232982   5.470   6.712   1.950
10695SOL     OW32983   6.947   2.471   2.556
10695SOL    HW132984   7.014   2.539   2.586
10695SOL    HW232985   6.985   2.420   2.478
10696SOL     OW32986   0.370   4.060   3.814
10696SOL    HW132987   0.372   4.049   3.913
10696SOL    HW232988   0.462   4.051   3.777
10697SOL     OW32989   6.767   5.665   5.453
10697SOL    HW132990   6.728   5.713   5.374
10697SOL    HW232991   6.866   5.658   5.442
10698SOL     OW32992   4.682   4.974   6.045
10698SOL    HW132993   4.588   4.980   6.081
10698SOL    HW232994   4.711   4.878   6.045
10699SOL     OW32995   4.122   3.340   1.947
10699SOL    HW132996   4.077   3.272   2.005
10699SOL    HW232997   4.214   3.308   1.922
10700SOL     OW32998   0.077   6.792   1.001
10700SOL    HW132999   0.023   6.862   0.954
10700SOL    HW233000   0.123   6.735   0.933
10701SOL     OW33001   3.879   5.942   6.868
10701SOL    HW133002   3.859   5.896   6.955
10701SOL    HW233003   3.826   5.899   6.795
10702SOL     OW33004   6.065   2.644   1.610
10702SOL    HW133005   6.116   2.729   1.593
10702SOL    HW233006   6.039   2.603   1.523
10703SOL     OW33007   3.184   3.092   4.596
10703SOL    HW133008   3.170   3.124   4.690
10703SOL    HW233009   3.263   3.139   4.556
10704SOL     OW33010   6.104   5.895   1.810
10704SOL    HW133011   6.046   5.938   1.879
10704SOL    HW233012   6.138   5.964   1.747
10705SOL     OW33013   6.174   4.558   1.900
10705SOL    HW133014   6.241   4.629   1.923
10705SOL    HW233015   6.178   4.541   1.801
10706SOL     OW33016   5.007   6.753   1.702
10706SOL    HW133017   4.942   6.684   1.733
10706SOL    HW233018   5.019   6.822   1.773
10707SOL     OW33019   0.125   6.598   4.156
10707SOL    HW133020   0.201   6.542   4.122
10707SOL    HW233021   0.142   6.694   4.134
10708SOL     OW33022   4.056   0.452   2.300
10708SOL    HW133023   4.023   0.503   2.380
10708SOL    HW233024   4.030   0.499   2.217
10709SOL     OW33025   6.006   5.916   5.301
10709SOL    HW133026   6.097   5.910   5.342
10709SOL    HW233027   5.978   6.013   5.297
10710SOL     OW33028   0.126   6.634   4.549
10710SOL    HW133029   0.200   6.576   4.582
10710SOL    HW233030   0.050   6.576   4.518
10711SOL     OW33031   1.560   5.979   4.167
10711SOL    HW133032   1.610   6.021   4.091
10711SOL    HW233033   1.471   6.022   4.175
10712SOL     OW33034   2.818   1.124   1.291
10712SOL    HW133035   2.827   1.127   1.391
10712SOL    HW233036   2.852   1.210   1.253
10713SOL     OW33037   0.847   3.292   1.350
10713SOL    HW133038   0.846   3.373   1.409
10713SOL    HW233039   0.765   3.293   1.292
10714SOL     OW33040   6.187   4.107   4.969
10714SOL    HW133041   6.224   4.187   4.921
10714SOL    HW233042   6.259   4.040   4.981
10715SOL     OW33043   5.475   0.478   2.647
10715SOL    HW133044   5.547   0.476   2.716
10715SOL    HW233045   5.516   0.487   2.556
10716SOL     OW33046   5.803   2.514   4.469
10716SOL    HW133047   5.818   2.512   4.568
10716SOL    HW233048   5.814   2.423   4.431
10717SOL     OW33049   1.086   2.725   0.857
10717SOL    HW133050   1.132   2.636   0.850
10717SOL    HW233051   1.017   2.721   0.929
10718SOL     OW33052   0.896   2.637   6.538
10718SOL    HW133053   0.894   2.736   6.522
10718SOL    HW233054   0.891   2.619   6.636
10719SOL     OW33055   5.948   5.948   1.432
10719SOL    HW133056   5.933   5.867   1.488
10719SOL    HW233057   5.891   6.023   1.465
10720SOL     OW33058   0.139   4.242   5.117
10720SOL    HW133059   0.081   4.320   5.137
10720SOL    HW233060   0.126   4.172   5.187
10721SOL     OW33061   5.774   3.709   5.039
10721SOL    HW133062   5.690   3.763   5.031
10721SOL    HW233063   5.786   3.654   4.956
10722SOL     OW33064   0.894   4.489   0.777
10722SOL    HW133065   0.859   4.578   0.746
10722SOL    HW233066   0.848   4.416   0.728
10723SOL     OW33067   0.781   3.769   6.161
10723SOL    HW133068   0.834   3.839   6.210
10723SOL    HW233069   0.758   3.695   6.224
10724SOL     OW33070   5.315   1.059   6.965
10724SOL    HW133071   5.348   1.150   6.941
10724SOL    HW233072   5.357   0.991   6.904
10725SOL     OW33073   0.965   4.660   4.867
10725SOL    HW133074   0.911   4.648   4.950
10725SOL    HW233075   0.910   4.633   4.787
10726SOL     OW33076   5.097   0.314   5.500
10726SOL    HW133077   5.178   0.294   5.445
10726SOL    HW233078   5.079   0.413   5.498
10727SOL     OW33079   0.243   5.114   4.341
10727SOL    HW133080   0.260   5.137   4.245
10727SOL    HW233081   0.238   5.014   4.350
10728SOL     OW33082   6.721   6.378   0.268
10728SOL    HW133083   6.665   6.448   0.310
10728SOL    HW233084   6.803   6.362   0.323
10729SOL     OW33085   6.001   1.127   2.273
10729SOL    HW133086   5.994   1.149   2.176
10729SOL    HW233087   5.911   1.137   2.316
10730SOL     OW33088   2.232   6.988   2.303
10730SOL    HW133089   2.143   0.010   2.306
10730SOL    HW233090   2.252   6.959   2.209
10731SOL     OW33091   3.059   6.071   0.658
10731SOL    HW133092   3.050   6.167   0.630
10731SOL    HW233093   3.100   6.067   0.749
10732SOL     OW33094   5.137   4.821   3.437
10732SOL    HW133095   5.205   4.762   3.394
10732SOL    HW233096   5.166   4.917   3.431
10733SOL     OW33097   5.198   2.178   0.021
10733SOL    HW133098   5.142   2.213   0.097
10733SOL    HW233099   5.257   2.250   7.010
10734SOL     OW33100   1.496   6.844   6.697
10734SOL    HW133101   1.470   6.760   6.648
10734SOL    HW233102   1.454   6.844   6.787
10735SOL     OW33103   1.318   4.161   2.736
10735SOL    HW133104   1.316   4.106   2.653
10735SOL    HW233105   1.277   4.109   2.811
10736SOL     OW33106   0.483   6.971   3.284
10736SOL    HW133107   0.406   6.928   3.235
10736SOL    HW233108   0.546   7.010   3.217
10737SOL     OW33109   1.616   1.719   6.802
10737SOL    HW133110   1.618   1.676   6.892
10737SOL    HW233111   1.525   1.707   6.762
10738SOL     OW33112   2.271   0.222   3.906
10738SOL    HW133113   2.257   0.320   3.923
10738SOL    HW233114   2.263   0.171   3.991
10739SOL     OW33115   0.364   1.222   0.899
10739SOL    HW133116   0.420   1.143   0.875
10739SOL    HW233117   0.333   1.268   0.815
10740SOL     OW33118   0.667   4.695   5.509
10740SOL    HW133119   0.589   4.733   5.458
10740SOL    HW233120   0.639   4.610   5.552
10741SOL     OW33121   0.335   0.460   2.238
10741SOL    HW133122   0.327   0.481   2.335
10741SOL    HW233123   0.429   0.474   2.208
10742SOL     OW33124   5.932   0.282   1.489
10742SOL    HW133125   5.995   0.239   1.424
10742SOL    HW233126   5.936   0.234   1.577
10743SOL     OW33127   2.845   2.450   5.559
10743SOL    HW133128   2.897   2.518   5.507
10743SOL    HW233129   2.840   2.365   5.508
10744SOL     OW33130   2.820   1.176   2.233
10744SOL    HW133131   2.911   1.214   2.218
10744SOL    HW233132   2.797   1.115   2.157
10745SOL     OW33133   0.946   5.298   0.620
10745SOL    HW133134   0.884   5.365   0.661
10745SOL    HW233135   1.041   5.328   0.632
10746SOL     OW33136   1.870   3.877   1.250
10746SOL    HW133137   1.910   3.968   1.258
10746SOL    HW233138   1.906   3.818   1.322
10747SOL     OW33139   4.388   0.870   3.409
10747SOL    HW133140   4.307   0.905   3.455
10747SOL    HW233141   4.407   0.926   3.328
10748SOL     OW33142   3.445   0.906   1.775
10748SOL    HW133143   3.363   0.848   1.769
10748SOL    HW233144   3.521   0.860   1.730
10749SOL     OW33145   6.772   4.957   3.359
10749SOL    HW133146   6.732   4.925   3.446
10749SOL    HW233147   6.726   5.041   3.330
10750SOL     OW33148   4.502   6.031   4.353
10750SOL    HW133149   4.414   6.023   4.306
10750SOL    HW233150   4.495   5.991   4.445
10751SOL     OW33151   1.432   4.424   4.386
10751SOL    HW133152   1.442   4.380   4.297
10751SOL    HW233153   1.496   4.500   4.394
10752SOL     OW33154   6.153   3.948   6.398
10752SOL    HW133155   6.112   4.039   6.403
10752SOL    HW233156   6.119   3.900   6.317
10753SOL     OW33157   3.554   6.603   4.283
10753SOL    HW133158   3.499   6.646   4.355
10753SOL    HW233159   3.493   6.562   4.215
10754SOL     OW33160   1.115   1.929   3.624
10754SOL    HW133161   1.212   1.926   3.650
10754SOL    HW233162   1.063   1.871   3.686
10755SOL     OW33163   1.017   1.840   6.496
10755SOL    HW133164   0.942   1.775   6.491
10755SOL    HW233165   1.080   1.813   6.569
10756SOL     OW33166   6.566   4.366   0.218
10756SOL    HW133167   6.590   4.283   0.267
10756SOL    HW233168   6.586   4.446   0.275
10757SOL     OW33169   1.295   2.903   0.022
10757SOL    HW133170   1.268   2.807   0.030
10757SOL    HW233171   1.263   2.954   0.103
10758SOL     OW33172   0.869   6.508   5.131
10758SOL    HW133173   0.865   6.496   5.032
10758SOL    HW233174   0.833   6.426   5.176
10759SOL     OW33175   1.686   2.905   7.013
10759SOL    HW133176   1.632   2.958   0.055
10759SOL    HW233177   1.627   2.837   6.969
10760SOL     OW33178   5.931   1.617   1.080
10760SOL    HW133179   6.006   1.656   1.135
10760SOL    HW233180   5.850   1.674   1.091
10761SOL     OW33181   1.414   1.535   6.050
10761SOL    HW133182   1.375   1.599   6.116
10761SOL    HW233183   1.460   1.586   5.977
10762SOL     OW33184   3.813   1.996   5.086
10762SOL    HW133185   3.762   2.056   5.147
10762SOL    HW233186   3.860   2.052   5.017
10763SOL     OW33187   4.379   6.572   1.385
10763SOL    HW133188   4.305   6.573   1.453
10763SOL    HW233189   4.449   6.507   1.415
10764SOL     OW33190   5.373   2.112   6.177
10764SOL    HW133191   5.461   2.100   6.223
10764SOL    HW233192   5.300   2.116   6.246
10765SOL     OW33193   5.362   2.744   0.964
10765SOL    HW133194   5.353   2.752   1.063
10765SOL    HW233195   5.286   2.689   0.929
10766SOL     OW33196   4.150   3.172   1.216
10766SOL    HW133197   4.165   3.127   1.128
10766SOL    HW233198   4.213   3.250   1.225
10767SOL     OW33199   1.045   0.497   0.333
10767SOL    HW133200   1.102   0.563   0.283
10767SOL    HW233201   1.069   0.500   0.430
10768SOL     OW33202   4.412   4.632   0.924
10768SOL    HW133203   4.345   4.665   0.991
10768SOL    HW233204   4.424   4.534   0.935
10769SOL     OW33205   2.335   4.787   4.589
10769SOL    HW133206   2.420   4.812   4.636
10769SOL    HW233207   2.256   4.820   4.640
10770SOL     OW33208   5.189   0.417   5.215
10770SOL    HW133209   5.188   0.325   5.255
10770SOL    HW233210   5.252   0.419   5.138
10771SOL     OW33211   4.967   1.045   3.786
10771SOL    HW133212   4.890   1.109   3.782
10771SOL    HW233213   4.993   1.017   3.694
10772SOL     OW33214   0.152   6.805   4.752
10772SOL    HW133215   0.121   6.744   4.826
10772SOL    HW233216   0.141   6.758   4.664
10773SOL     OW33217   0.260   5.769   0.087
10773SOL    HW133218   0.187   5.708   0.056
10773SOL    HW233219   0.333   5.772   0.018
10774SOL     OW33220   1.779   1.175   6.246
10774SOL    HW133221   1.718   1.254   6.237
10774SOL    HW233222   1.873   1.206   6.260
10775SOL     OW33223   0.363   3.189   0.894
10775SOL    HW133224   0.375   3.103   0.845
10775SOL    HW233225   0.372   3.172   0.993
10776SOL     OW33226   1.391   6.470   6.847
10776SOL    HW133227   1.478   6.434   6.878
10776SOL    HW233228   1.333   6.490   6.926
10777SOL     OW33229   3.643   5.876   3.416
10777SOL    HW133230   3.558   5.891   3.466
10777SOL    HW233231   3.682   5.964   3.388
10778SOL     OW33232   5.302   6.600   4.776
10778SOL    HW133233   5.325   6.545   4.856
10778SOL    HW233234   5.205   6.591   4.755
10779SOL     OW33235   6.531   4.752   3.201
10779SOL    HW133236   6.539   4.817   3.126
10779SOL    HW233237   6.495   4.798   3.282
10780SOL     OW33238   1.662   0.339   3.720
10780SOL    HW133239   1.760   0.348   3.740
10780SOL    HW233240   1.650   0.292   3.632
10781SOL     OW33241   4.170   0.950   3.534
10781SOL    HW133242   4.084   0.972   3.487
10781SOL    HW233243   4.189   1.019   3.603
10782SOL     OW33244   6.626   2.417   3.193
10782SOL    HW133245   6.637   2.421   3.292
10782SOL    HW233246   6.697   2.473   3.148
10783SOL     OW33247   0.466   3.426   3.380
10783SOL    HW133248   0.551   3.373   3.389
10783SOL    HW233249   0.468   3.479   3.295
10784SOL     OW33250   3.258   0.983   4.064
10784SOL    HW133251   3.254   1.061   4.003
10784SOL    HW233252   3.289   0.902   4.014
10785SOL     OW33253   0.032   5.290   1.271
10785SOL    HW133254   7.000   5.260   1.349
10785SOL    HW233255   0.091   5.366   1.299
10786SOL     OW33256   5.009   5.250   2.781
10786SOL    HW133257   5.069   5.262   2.702
10786SOL    HW233258   4.931   5.193   2.754
10787SOL     OW33259   2.818   1.727   4.576
10787SOL    HW133260   2.749   1.659   4.599
10787SOL    HW233261   2.775   1.817   4.568
10788SOL     OW33262   2.313   5.174   6.439
10788SOL    HW133263   2.337   5.086   6.479
10788SOL    HW233264   2.244   5.161   6.367
10789SOL     OW33265   6.259   2.574   6.759
10789SOL    HW133266   6.250   2.662   6.713
10789SOL    HW233267   6.356   2.548   6.760
10790SOL     OW33268   1.316   1.302   2.460
10790SOL    HW133269   1.255   1.312   2.381
10790SOL    HW233270   1.334   1.205   2.476
10791SOL     OW33271   0.600   0.106   0.237
10791SOL    HW133272   0.501   0.095   0.244
10791SOL    HW233273   0.637   0.034   0.178
10792SOL     OW33274   3.237   3.510   3.150
10792SOL    HW133275   3.200   3.590   3.103
10792SOL    HW233276   3.205   3.509   3.245
10793SOL     OW33277   5.612   2.641   4.137
10793SOL    HW133278   5.698   2.691   4.136
10793SOL    HW233279   5.536   2.705   4.129
10794SOL     OW33280   2.988   3.924   3.729
10794SOL    HW133281   3.016   3.983   3.805
10794SOL    HW233282   2.938   3.846   3.765
10795SOL     OW33283   0.086   4.422   3.064
10795SOL    HW133284   0.132   4.501   3.023
10795SOL    HW233285   0.077   4.436   3.162
10796SOL     OW33286   5.542   6.726   0.783
10796SOL    HW133287   5.595   6.692   0.705
10796SOL    HW233288   5.570   6.819   0.805
10797SOL     OW33289   4.036   2.090   2.178
10797SOL    HW133290   4.013   2.134   2.092
10797SOL    HW233291   4.056   1.993   2.162
10798SOL     OW33292   2.819   6.493   0.413
10798SOL    HW133293   2.757   6.426   0.371
10798SOL    HW233294   2.902   6.446   0.444
10799SOL     OW33295   3.355   0.720   2.791
10799SOL    HW133296   3.409   0.767   2.721
10799SOL    HW233297   3.334   0.627   2.760
10800SOL     OW33298   0.601   6.677   6.928
10800SOL    HW133299   0.585   6.658   6.831
10800SOL    HW233300   0.700   6.681   6.944
10801SOL     OW33301   0.657   5.975   6.394
10801SOL    HW133302   0.715   5.915   6.340
10801SOL    HW233303   0.640   6.060   6.343
10802SOL     OW33304   0.903   2.486   3.483
10802SOL    HW133305   0.940   2.568   3.439
10802SOL    HW233306   0.978   2.430   3.519
10803SOL     OW33307   3.227   3.629   5.773
10803SOL    HW133308   3.222   3.712   5.718
10803SOL    HW233309   3.140   3.615   5.820
10804SOL     OW33310   6.082   3.730   1.745
10804SOL    HW133311   5.989   3.768   1.736
10804SOL    HW233312   6.127   3.772   1.824
10805SOL     OW33313   3.520   0.038   0.237
10805SOL    HW133314   3.515   0.037   0.137
10805SOL    HW233315   3.614   0.060   0.265
10806SOL     OW33316   4.859   3.621   6.202
10806SOL    HW133317   4.885   3.568   6.121
10806SOL    HW233318   4.860   3.561   6.283
10807SOL     OW33319   1.363   6.911   2.340
10807SOL    HW133320   1.449   6.891   2.386
10807SOL    HW233321   1.377   6.982   2.270
10808SOL     OW33322   6.317   2.988   6.176
10808SOL    HW133323   6.329   3.071   6.231
10808SOL    HW233324   6.347   2.909   6.229
10809SOL     OW33325   3.015   6.023   3.427
10809SOL    HW133326   3.073   5.993   3.503
10809SOL    HW233327   2.921   5.993   3.443
10810SOL     OW33328   2.003   0.649   4.994
10810SOL    HW133329   2.024   0.556   4.963
10810SOL    HW233330   1.929   0.646   5.061
10811SOL     OW33331   4.007   4.552   5.935
10811SOL    HW133332   3.910   4.574   5.936
10811SOL    HW233333   4.047   4.576   5.847
10812SOL     OW33334   0.947   3.479   1.536
10812SOL    HW133335   1.045   3.471   1.553
10812SOL    HW233336   0.896   3.449   1.617
10813SOL     OW33337   2.378   4.915   6.467
10813SOL    HW133338   2.346   4.877   6.380
10813SOL    HW233339   2.363   4.848   6.540
10814SOL     OW33340   1.840   6.831   6.369
10814SOL    HW133341   1.902   6.905   6.345
10814SOL    HW233342   1.746   6.865   6.372
10815SOL     OW33343   4.412   4.620   4.120
10815SOL    HW133344   4.474   4.698   4.125
10815SOL    HW233345   4.464   4.538   4.095
10816SOL     OW33346   2.229   2.529   1.351
10816SOL    HW133347   2.278   2.507   1.266
10816SOL    HW233348   2.294   2.536   1.426
10817SOL     OW33349   4.773   6.770   2.959
10817SOL    HW133350   4.792   6.682   2.915
10817SOL    HW233351   4.747   6.837   2.890
10818SOL     OW33352   4.320   4.687   5.394
10818SOL    HW133353   4.245   4.717   5.452
10818SOL    HW233354   4.370   4.613   5.440
10819SOL     OW33355   6.830   4.808   0.065
10819SOL    HW133356   6.886   4.825   0.146
10819SOL    HW233357   6.890   4.787   7.011
10820SOL     OW33358   5.849   5.712   4.243
10820SOL    HW133359   5.815   5.764   4.322
10820SOL    HW233360   5.774   5.661   4.202
10821SOL     OW33361   5.834   6.892   2.029
10821SOL    HW133362   5.756   6.908   1.969
10821SOL    HW233363   5.807   6.828   2.102
10822SOL     OW33364   6.768   3.155   3.217
10822SOL    HW133365   6.681   3.198   3.239
10822SOL    HW233366   6.809   3.118   3.300
10823SOL     OW33367   1.835   5.964   1.794
10823SOL    HW133368   1.854   5.869   1.820
10823SOL    HW233369   1.780   6.007   1.865
10824SOL     OW33370   6.512   0.509   3.532
10824SOL    HW133371   6.573   0.433   3.556
10824SOL    HW233372   6.567   0.590   3.513
10825SOL     OW33373   2.751   0.659   6.227
10825SOL    HW133374   2.732   0.706   6.140
10825SOL    HW233375   2.754   0.727   6.301
10826SOL     OW33376   1.386   2.965   3.314
10826SOL    HW133377   1.314   2.973   3.382
10826SOL    HW233378   1.414   3.056   3.284
10827SOL     OW33379   5.821   3.820   4.618
10827SOL    HW133380   5.856   3.896   4.674
10827SOL    HW233381   5.886   3.744   4.622
10828SOL     OW33382   0.624   5.917   1.777
10828SOL    HW133383   0.574   5.831   1.784
10828SOL    HW233384   0.624   5.949   1.682
10829SOL     OW33385   3.769   2.469   0.821
10829SOL    HW133386   3.704   2.471   0.897
10829SOL    HW233387   3.751   2.390   0.764
10830SOL     OW33388   5.716   2.268   3.353
10830SOL    HW133389   5.693   2.230   3.442
10830SOL    HW233390   5.774   2.204   3.303
10831SOL     OW33391   3.579   5.551   2.644
10831SOL    HW133392   3.632   5.622   2.597
10831SOL    HW233393   3.507   5.593   2.699
10832SOL     OW33394   1.496   2.573   0.256
10832SOL    HW133395   1.456   2.512   0.324
10832SOL    HW233396   1.436   2.576   0.175
10833SOL     OW33397   1.857   0.790   2.099
10833SOL    HW133398   1.955   0.803   2.087
10833SOL    HW233399   1.838   0.692   2.113
10834SOL     OW33400   0.940   2.201   6.341
10834SOL    HW133401   0.912   2.116   6.297
10834SOL    HW233402   0.874   2.273   6.320
10835SOL     OW33403   6.175   2.056   6.768
10835SOL    HW133404   6.219   2.075   6.680
10835SOL    HW233405   6.245   2.050   6.839
10836SOL     OW33406   6.623   1.750   4.761
10836SOL    HW133407   6.613   1.652   4.780
10836SOL    HW233408   6.680   1.762   4.680
10837SOL     OW33409   6.867   5.131   0.607
10837SOL    HW133410   6.778   5.125   0.562
10837SOL    HW233411   6.913   5.043   0.603
10838SOL     OW33412   5.596   6.366   4.480
10838SOL    HW133413   5.542   6.446   4.505
10838SOL    HW233414   5.583   6.345   4.383
10839SOL     OW33415   4.403   3.114   1.479
10839SOL    HW133416   4.310   3.077   1.478
10839SOL    HW233417   4.468   3.040   1.496
10840SOL     OW33418   3.156   5.490   2.155
10840SOL    HW133419   3.243   5.480   2.204
10840SOL    HW233420   3.084   5.514   2.219
10841SOL     OW33421   5.500   5.387   6.772
10841SOL    HW133422   5.476   5.353   6.681
10841SOL    HW233423   5.485   5.486   6.776
10842SOL     OW33424   4.507   2.600   1.601
10842SOL    HW133425   4.593   2.556   1.575
10842SOL    HW233426   4.433   2.533   1.597
10843SOL     OW33427   1.477   2.816   1.400
10843SOL    HW133428   1.406   2.872   1.442
10843SOL    HW233429   1.443   2.777   1.314
10844SOL     OW33430   7.001   6.901   3.686
10844SOL    HW133431   6.985   6.907   3.785
10844SOL    HW233432   6.914   6.913   3.638
10845SOL     OW33433   3.367   0.329   5.010
10845SOL    HW133434   3.308   0.390   4.957
10845SOL    HW233435   3.339   0.330   5.106
10846SOL     OW33436   4.823   1.737   0.532
10846SOL    HW133437   4.728   1.708   0.529
10846SOL    HW233438   4.846   1.767   0.625
10847SOL     OW33439   3.452   3.362   6.409
10847SOL    HW133440   3.483   3.272   6.438
10847SOL    HW233441   3.450   3.367   6.309
10848SOL     OW33442   3.056   3.468   6.782
10848SOL    HW133443   3.108   3.387   6.809
10848SOL    HW233444   3.049   3.472   6.683
10849SOL     OW33445   2.557   6.116   2.798
10849SOL    HW133446   2.568   6.073   2.709
10849SOL    HW233447   2.491   6.065   2.853
10850SOL     OW33448   3.460   4.648   6.621
10850SOL    HW133449   3.501   4.566   6.580
10850SOL    HW233450   3.443   4.716   6.550
10851SOL     OW33451   1.937   2.973   6.711
10851SOL    HW133452   2.034   2.955   6.693
10851SOL    HW233453   1.920   3.072   6.707
10852SOL     OW33454   1.389   0.417   7.015
10852SOL    HW133455   1.342   0.375   6.938
10852SOL    HW233456   1.487   0.397   7.010
10853SOL     OW33457   2.523   1.831   5.615
10853SOL    HW133458   2.505   1.826   5.713
10853SOL    HW233459   2.610   1.879   5.599
10854SOL     OW33460   4.187   5.641   5.368
10854SOL    HW133461   4.201   5.566   5.304
10854SOL    HW233462   4.097   5.631   5.412
10855SOL     OW33463   3.151   6.571   1.177
10855SOL    HW133464   3.057   6.603   1.167
10855SOL    HW233465   3.205   6.642   1.223
10856SOL     OW33466   6.089   1.694   1.296
10856SOL    HW133467   6.024   1.709   1.370
10856SOL    HW233468   6.157   1.768   1.296
10857SOL     OW33469   6.649   2.438   2.580
10857SOL    HW133470   6.601   2.351   2.570
10857SOL    HW233471   6.748   2.423   2.575
10858SOL     OW33472   0.678   2.052   6.204
10858SOL    HW133473   0.659   2.063   6.301
10858SOL    HW233474   0.742   1.975   6.191
10859SOL     OW33475   2.149   3.314   3.869
10859SOL    HW133476   2.156   3.316   3.769
10859SOL    HW233477   2.138   3.220   3.900
10860SOL     OW33478   6.406   1.635   5.860
10860SOL    HW133479   6.391   1.668   5.767
10860SOL    HW233480   6.318   1.621   5.906
10861SOL     OW33481   3.824   2.963   2.871
10861SOL    HW133482   3.781   2.931   2.787
10861SOL    HW233483   3.910   3.008   2.850
10862SOL     OW33484   2.467   1.792   5.905
10862SOL    HW133485   2.433   1.855   5.976
10862SOL    HW233486   2.432   1.700   5.922
10863SOL     OW33487   3.973   0.648   3.886
10863SOL    HW133488   4.052   0.673   3.831
10863SOL    HW233489   3.965   0.710   3.964
10864SOL     OW33490   3.210   5.191   0.470
10864SOL    HW133491   3.152   5.259   0.424
10864SOL    HW233492   3.152   5.120   0.509
10865SOL     OW33493   6.742   1.521   2.739
10865SOL    HW133494   6.687   1.442   2.712
10865SOL    HW233495   6.838   1.494   2.745
10866SOL     OW33496   5.206   4.974   0.210
10866SOL    HW133497   5.121   4.971   0.156
10866SOL    HW233498   5.249   4.884   0.210
10867SOL     OW33499   3.437   3.975   0.043
10867SOL    HW133500   3.495   4.037   0.095
10867SOL    HW233501   3.493   3.918   7.006
10868SOL     OW33502   3.262   2.155   3.871
10868SOL    HW133503   3.179   2.198   3.907
10868SOL    HW233504   3.313   2.112   3.946
10869NA      NA33505   0.457   2.305   5.814
10870NA      NA33506   4.422   4.652   5.187
10871NA      NA33507   1.688   3.931   2.435
10872NA      NA33508   4.978   4.074   3.752
10873NA      NA33509   4.266   2.353   5.285
10874NA      NA33510   3.196   4.822   1.825
10875NA      NA33511   0.008   4.631   0.578
10876NA      NA33512   3.422   3.378   3.162
10877NA      NA33513   4.956   5.154   1.265
10878NA      NA33514   3.702   6.443   5.358
10879NA      NA33515   5.982   5.443   1.773
10880NA      NA33516   2.162   1.217   4.616
10881NA      NA33517   3.917   5.082   1.865
10882NA      NA33518   3.837   3.248   1.703
   7.02351   7.02351   7.02351
