Generated by trjconv : CNT in water t= 345.00000
33518
    1C        C    1   2.852   2.773   4.747
    1C        C    2   2.905   2.726   4.869
    1C        C    3   2.852   2.782   4.985
    1C        C    4   2.850   2.777   4.259
    1C        C    5   2.903   2.730   4.381
    1C        C    6   2.845   2.773   4.502
    1C        C    7   3.013   2.640   4.626
    1C        C    8   2.898   2.723   4.623
    1C        C    9   3.077   2.602   4.745
    1C        C   10   3.012   2.633   4.867
    1C        C   11   3.182   2.489   4.972
    1C        C   12   3.062   2.561   4.976
    1C        C   13   2.848   2.776   3.771
    1C        C   14   2.899   2.725   3.892
    1C        C   15   2.854   2.776   4.016
    1C        C   16   3.019   2.644   4.139
    1C        C   17   2.903   2.725   4.138
    1C        C   18   3.082   2.616   4.262
    1C        C   19   3.022   2.653   4.384
    1C        C   20   3.212   2.560   4.504
    1C        C   21   3.081   2.611   4.505
    1C        C   22   3.281   2.536   4.625
    1C        C   23   3.210   2.551   4.746
    1C        C   24   3.414   2.480   4.868
    1C        C   25   3.273   2.499   4.862
    1C        C   26   3.491   2.474   4.985
    1C        C   27   2.854   2.771   3.283
    1C        C   28   2.906   2.724   3.406
    1C        C   29   2.859   2.777   3.528
    1C        C   30   3.021   2.645   3.651
    1C        C   31   2.909   2.730   3.652
    1C        C   32   3.080   2.608   3.774
    1C        C   33   3.014   2.642   3.894
    1C        C   34   3.208   2.553   4.017
    1C        C   35   3.077   2.608   4.016
    1C        C   36   3.275   2.533   4.139
    1C        C   37   3.209   2.554   4.263
    1C        C   38   3.420   2.510   4.382
    1C        C   39   3.282   2.540   4.383
    1C        C   40   3.491   2.504   4.505
    1C        C   41   3.419   2.507   4.626
    1C        C   42   3.630   2.480   4.745
    1C        C   43   3.488   2.477   4.746
    1C        C   44   3.705   2.488   4.864
    1C        C   45   3.630   2.477   4.982
    1C        C   46   2.845   2.758   2.794
    1C        C   47   2.901   2.717   2.918
    1C        C   48   2.847   2.765   3.039
    1C        C   49   3.021   2.642   3.161
    1C        C   50   2.908   2.727   3.161
    1C        C   51   3.080   2.605   3.284
    1C        C   52   3.019   2.639   3.407
    1C        C   53   3.207   2.543   3.530
    1C        C   54   3.080   2.605   3.529
    1C        C   55   3.277   2.529   3.652
    1C        C   56   3.213   2.560   3.774
    1C        C   57   3.416   2.500   3.896
    1C        C   58   3.279   2.536   3.896
    1C        C   59   3.486   2.497   4.019
    1C        C   60   3.415   2.511   4.140
    1C        C   61   3.630   2.496   4.259
    1C        C   62   3.490   2.506   4.259
    1C        C   63   3.701   2.505   4.380
    1C        C   64   3.632   2.501   4.503
    1C        C   65   3.840   2.534   4.621
    1C        C   66   3.704   2.496   4.625
    1C        C   67   3.905   2.559   4.744
    1C        C   68   3.842   2.523   4.865
    1C        C   69   4.048   2.591   4.976
    1C        C   70   3.921   2.531   4.980
    1C        C   71   2.828   2.737   2.310
    1C        C   72   2.892   2.699   2.429
    1C        C   73   2.837   2.747   2.550
    1C        C   74   3.011   2.627   2.673
    1C        C   75   2.892   2.704   2.673
    1C        C   76   3.076   2.601   2.796
    1C        C   77   3.016   2.636   2.919
    1C        C   78   3.212   2.548   3.039
    1C        C   79   3.082   2.602   3.039
    1C        C   80   3.275   2.526   3.164
    1C        C   81   3.209   2.548   3.287
    1C        C   82   3.414   2.493   3.406
    1C        C   83   3.276   2.520   3.408
    1C        C   84   3.485   2.488   3.528
    1C        C   85   3.415   2.496   3.650
    1C        C   86   3.625   2.499   3.770
    1C        C   87   3.484   2.491   3.773
    1C        C   88   3.696   2.511   3.891
    1C        C   89   3.627   2.505   4.014
    1C        C   90   3.834   2.550   4.138
    1C        C   91   3.699   2.508   4.136
    1C        C   92   3.904   2.571   4.258
    1C        C   93   3.837   2.544   4.380
    1C        C   94   4.031   2.631   4.498
    1C        C   95   3.907   2.562   4.501
    1C        C   96   4.089   2.669   4.621
    1C        C   97   4.030   2.626   4.742
    1C        C   98   4.192   2.769   4.864
    1C        C   99   4.097   2.662   4.862
    1C        C  100   4.215   2.844   4.980
    1C        C  101   2.822   2.730   2.074
    1C        C  102   2.995   2.595   2.188
    1C        C  103   2.876   2.676   2.191
    1C        C  104   3.067   2.575   2.309
    1C        C  105   3.010   2.620   2.430
    1C        C  106   3.202   2.532   2.550
    1C        C  107   3.073   2.590   2.552
    1C        C  108   3.270   2.518   2.673
    1C        C  109   3.205   2.543   2.795
    1C        C  110   3.414   2.491   2.915
    1C        C  111   3.276   2.523   2.916
    1C        C  112   3.482   2.485   3.038
    1C        C  113   3.413   2.495   3.161
    1C        C  114   3.624   2.497   3.280
    1C        C  115   3.484   2.484   3.283
    1C        C  116   3.696   2.506   3.401
    1C        C  117   3.626   2.499   3.524
    1C        C  118   3.832   2.540   3.646
    1C        C  119   3.695   2.507   3.647
    1C        C  120   3.897   2.571   3.768
    1C        C  121   3.833   2.548   3.891
    1C        C  122   4.025   2.635   4.012
    1C        C  123   3.898   2.573   4.014
    1C        C  124   4.083   2.679   4.133
    1C        C  125   4.032   2.631   4.256
    1C        C  126   4.197   2.766   4.377
    1C        C  127   4.094   2.669   4.377
    1C        C  128   4.236   2.822   4.500
    1C        C  129   4.189   2.769   4.622
    1C        C  130   4.325   2.937   4.739
    1C        C  131   4.238   2.825   4.742
    1C        C  132   4.354   3.006   4.859
    1C        C  133   4.288   2.962   4.974
    1C        C  134   3.174   2.469   2.080
    1C        C  135   3.042   2.515   2.080
    1C        C  136   3.261   2.475   2.189
    1C        C  137   3.197   2.516   2.308
    1C        C  138   3.408   2.478   2.428
    1C        C  139   3.270   2.507   2.428
    1C        C  140   3.480   2.477   2.549
    1C        C  141   3.410   2.496   2.670
    1C        C  142   3.623   2.492   2.791
    1C        C  143   3.482   2.490   2.791
    1C        C  144   3.694   2.498   2.913
    1C        C  145   3.624   2.488   3.035
    1C        C  146   3.829   2.541   3.155
    1C        C  147   3.694   2.502   3.157
    1C        C  148   3.896   2.565   3.277
    1C        C  149   3.834   2.538   3.401
    1C        C  150   4.025   2.628   3.524
    1C        C  151   3.899   2.563   3.524
    1C        C  152   4.083   2.670   3.646
    1C        C  153   4.022   2.639   3.769
    1C        C  154   4.193   2.764   3.890
    1C        C  155   4.087   2.671   3.890
    1C        C  156   4.246   2.816   4.011
    1C        C  157   4.195   2.764   4.132
    1C        C  158   4.336   2.922   4.254
    1C        C  159   4.251   2.809   4.254
    1C        C  160   4.371   2.986   4.376
    1C        C  161   4.326   2.932   4.498
    1C        C  162   4.440   3.115   4.617
    1C        C  163   4.372   2.992   4.617
    1C        C  164   4.472   3.186   4.735
    1C        C  165   4.434   3.122   4.856
    1C        C  166   4.515   3.320   4.974
    1C        C  167   4.485   3.185   4.970
    1C        C  168   3.476   2.437   2.070
    1C        C  169   3.401   2.455   2.187
    1C        C  170   3.620   2.465   2.307
    1C        C  171   3.477   2.461   2.306
    1C        C  172   3.693   2.486   2.426
    1C        C  173   3.622   2.477   2.547
    1C        C  174   3.830   2.525   2.668
    1C        C  175   3.693   2.492   2.668
    1C        C  176   3.896   2.555   2.789
    1C        C  177   3.831   2.534   2.913
    1C        C  178   4.023   2.626   3.033
    1C        C  179   3.900   2.558   3.034
    1C        C  180   4.082   2.666   3.156
    1C        C  181   4.023   2.627   3.278
    1C        C  182   4.192   2.753   3.399
    1C        C  183   4.085   2.661   3.401
    1C        C  184   4.242   2.806   3.520
    1C        C  185   4.195   2.756   3.643
    1C        C  186   4.331   2.918   3.765
    1C        C  187   4.244   2.808   3.765
    1C        C  188   4.371   2.982   3.885
    1C        C  189   4.332   2.928   4.010
    1C        C  190   4.441   3.108   4.130
    1C        C  191   4.373   2.984   4.133
    1C        C  192   4.470   3.173   4.251
    1C        C  193   4.440   3.109   4.373
    1C        C  194   4.507   3.313   4.492
    1C        C  195   4.470   3.177   4.493
    1C        C  196   4.519   3.388   4.612
    1C        C  197   4.507   3.323   4.737
    1C        C  198   4.556   3.536   4.851
    1C        C  199   4.537   3.394   4.857
    1C        C  200   4.582   3.622   4.963
    1C        C  201   3.616   2.422   2.070
    1C        C  202   3.824   2.515   2.183
    1C        C  203   3.692   2.460   2.184
    1C        C  204   3.898   2.541   2.302
    1C        C  205   3.830   2.519   2.424
    1C        C  206   4.019   2.617   2.544
    1C        C  207   3.897   2.546   2.545
    1C        C  208   4.082   2.656   2.665
    1C        C  209   4.021   2.621   2.788
    1C        C  210   4.191   2.751   2.908
    1C        C  211   4.081   2.661   2.909
    1C        C  212   4.245   2.796   3.031
    1C        C  213   4.197   2.748   3.154
    1C        C  214   4.329   2.914   3.274
    1C        C  215   4.244   2.801   3.276
    1C        C  216   4.366   2.976   3.396
    1C        C  217   4.327   2.920   3.519
    1C        C  218   4.432   3.103   3.639
    1C        C  219   4.367   2.978   3.642
    1C        C  220   4.461   3.171   3.760
    1C        C  221   4.436   3.107   3.883
    1C        C  222   4.502   3.308   4.005
    1C        C  223   4.463   3.172   4.006
    1C        C  224   4.520   3.380   4.125
    1C        C  225   4.504   3.311   4.247
    1C        C  226   4.519   3.522   4.367
    1C        C  227   4.518   3.381   4.369
    1C        C  228   4.523   3.597   4.487
    1C        C  229   4.528   3.529   4.611
    1C        C  230   4.509   3.745   4.727
    1C        C  231   4.540   3.606   4.729
    1C        C  232   4.502   3.820   4.846
    1C        C  233   4.547   3.758   4.963
    1C        C  234   4.017   2.612   2.064
    1C        C  235   3.892   2.551   2.065
    1C        C  236   4.079   2.654   2.182
    1C        C  237   4.022   2.610   2.304
    1C        C  238   4.198   2.737   2.421
    1C        C  239   4.084   2.651   2.424
    1C        C  240   4.246   2.788   2.543
    1C        C  241   4.193   2.742   2.665
    1C        C  242   4.330   2.909   2.785
    1C        C  243   4.241   2.799   2.785
    1C        C  244   4.372   2.965   2.908
    1C        C  245   4.330   2.909   3.031
    1C        C  246   4.434   3.097   3.147
    1C        C  247   4.369   2.971   3.151
    1C        C  248   4.457   3.162   3.271
    1C        C  249   4.431   3.102   3.396
    1C        C  250   4.494   3.305   3.515
    1C        C  251   4.459   3.168   3.517
    1C        C  252   4.512   3.375   3.637
    1C        C  253   4.497   3.308   3.760
    1C        C  254   4.523   3.518   3.878
    1C        C  255   4.507   3.378   3.882
    1C        C  256   4.521   3.589   4.000
    1C        C  257   4.524   3.521   4.123
    1C        C  258   4.494   3.732   4.243
    1C        C  259   4.513   3.592   4.245
    1C        C  260   4.476   3.804   4.363
    1C        C  261   4.496   3.735   4.485
    1C        C  262   4.424   3.939   4.605
    1C        C  263   4.473   3.807   4.605
    1C        C  264   4.402   4.010   4.725
    1C        C  265   4.436   3.944   4.845
    1C        C  266   4.318   4.128   4.960
    1C        C  267   4.395   4.013   4.960
    1C        C  268   4.258   2.781   2.063
    1C        C  269   4.191   2.739   2.179
    1C        C  270   4.344   2.892   2.300
    1C        C  271   4.248   2.788   2.299
    1C        C  272   4.381   2.954   2.421
    1C        C  273   4.334   2.899   2.543
    1C        C  274   4.446   3.085   2.660
    1C        C  275   4.374   2.963   2.662
    1C        C  276   4.474   3.152   2.781
    1C        C  277   4.444   3.087   2.903
    1C        C  278   4.505   3.293   3.025
    1C        C  279   4.466   3.157   3.024
    1C        C  280   4.515   3.364   3.146
    1C        C  281   4.495   3.298   3.269
    1C        C  282   4.516   3.511   3.390
    1C        C  283   4.506   3.370   3.390
    1C        C  284   4.511   3.584   3.511
    1C        C  285   4.516   3.516   3.635
    1C        C  286   4.496   3.729   3.753
    1C        C  287   4.519   3.589   3.756
    1C        C  288   4.473   3.795   3.876
    1C        C  289   4.488   3.727   3.999
    1C        C  290   4.424   3.931   4.117
    1C        C  291   4.476   3.800   4.120
    1C        C  292   4.398   4.000   4.238
    1C        C  293   4.425   3.936   4.361
    1C        C  294   4.326   4.125   4.476
    1C        C  295   4.394   4.002   4.482
    1C        C  296   4.286   4.183   4.598
    1C        C  297   4.326   4.131   4.723
    1C        C  298   4.200   4.313   4.838
    1C        C  299   4.280   4.194   4.842
    1C        C  300   4.170   4.403   4.944
    1C        C  301   4.352   2.883   2.062
    1C        C  302   4.466   3.072   2.177
    1C        C  303   4.394   2.948   2.179
    1C        C  304   4.480   3.145   2.298
    1C        C  305   4.442   3.081   2.418
    1C        C  306   4.507   3.287   2.537
    1C        C  307   4.473   3.150   2.538
    1C        C  308   4.520   3.357   2.659
    1C        C  309   4.509   3.289   2.782
    1C        C  310   4.529   3.503   2.900
    1C        C  311   4.522   3.362   2.902
    1C        C  312   4.525   3.574   3.022
    1C        C  313   4.524   3.505   3.145
    1C        C  314   4.493   3.718   3.265
    1C        C  315   4.515   3.579   3.266
    1C        C  316   4.472   3.791   3.384
    1C        C  317   4.490   3.724   3.508
    1C        C  318   4.424   3.925   3.628
    1C        C  319   4.477   3.794   3.629
    1C        C  320   4.390   3.989   3.750
    1C        C  321   4.425   3.927   3.872
    1C        C  322   4.318   4.112   3.994
    1C        C  323   4.391   3.991   3.993
    1C        C  324   4.280   4.175   4.114
    1C        C  325   4.327   4.122   4.236
    1C        C  326   4.182   4.284   4.357
    1C        C  327   4.281   4.183   4.355
    1C        C  328   4.136   4.340   4.478
    1C        C  329   4.189   4.287   4.598
    1C        C  330   4.026   4.435   4.715
    1C        C  331   4.138   4.348   4.714
    1C        C  332   3.969   4.492   4.830
    1C        C  333   4.050   4.475   4.943
    1C        C  334   4.559   3.268   2.064
    1C        C  335   4.527   3.132   2.063
    1C        C  336   4.542   3.352   2.175
    1C        C  337   4.517   3.283   2.296
    1C        C  338   4.533   3.497   2.415
    1C        C  339   4.529   3.356   2.416
    1C        C  340   4.529   3.572   2.534
    1C        C  341   4.523   3.498   2.654
    1C        C  342   4.491   3.709   2.774
    1C        C  343   4.513   3.569   2.776
    1C        C  344   4.477   3.779   2.896
    1C        C  345   4.497   3.713   3.019
    1C        C  346   4.427   3.914   3.138
    1C        C  347   4.481   3.783   3.140
    1C        C  348   4.387   3.978   3.257
    1C        C  349   4.421   3.923   3.382
    1C        C  350   4.322   4.108   3.502
    1C        C  351   4.399   3.989   3.505
    1C        C  352   4.273   4.162   3.623
    1C        C  353   4.312   4.107   3.747
    1C        C  354   4.176   4.267   3.868
    1C        C  355   4.271   4.163   3.870
    1C        C  356   4.121   4.315   3.989
    1C        C  357   4.177   4.272   4.112
    1C        C  358   4.011   4.406   4.232
    1C        C  359   4.125   4.321   4.233
    1C        C  360   3.952   4.448   4.353
    1C        C  361   4.021   4.421   4.473
    1C        C  362   3.832   4.523   4.592
    1C        C  363   3.961   4.464   4.593
    1C        C  364   3.761   4.551   4.711
    1C        C  365   3.835   4.538   4.830
    1C        C  366   3.631   4.592   4.950
    1C        C  367   3.769   4.573   4.949
    1C        C  368   4.516   3.565   2.053
    1C        C  369   4.533   3.493   2.172
    1C        C  370   4.505   3.706   2.289
    1C        C  371   4.522   3.566   2.292
    1C        C  372   4.487   3.777   2.409
    1C        C  373   4.506   3.712   2.533
    1C        C  374   4.423   3.910   2.651
    1C        C  375   4.482   3.781   2.653
    1C        C  376   4.392   3.974   2.772
    1C        C  377   4.431   3.913   2.894
    1C        C  378   4.317   4.093   3.013
    1C        C  379   4.399   3.978   3.015
    1C        C  380   4.270   4.151   3.133
    1C        C  381   4.312   4.098   3.257
    1C        C  382   4.175   4.258   3.378
    1C        C  383   4.276   4.159   3.379
    1C        C  384   4.118   4.303   3.499
    1C        C  385   4.174   4.263   3.623
    1C        C  386   4.004   4.389   3.746
    1C        C  387   4.122   4.311   3.745
    1C        C  388   3.938   4.426   3.865
    1C        C  389   4.001   4.389   3.987
    1C        C  390   3.820   4.494   4.109
    1C        C  391   3.948   4.435   4.109
    1C        C  392   3.749   4.514   4.230
    1C        C  393   3.821   4.501   4.352
    1C        C  394   3.617   4.555   4.475
    1C        C  395   3.756   4.533   4.473
    1C        C  396   3.545   4.573   4.596
    1C        C  397   3.622   4.574   4.714
    1C        C  398   3.412   4.556   4.841
    1C        C  399   3.551   4.577   4.836
    1C        C  400   3.344   4.515   4.957
    1C        C  401   4.505   3.704   2.051
    1C        C  402   4.454   3.916   2.167
    1C        C  403   4.490   3.779   2.169
    1C        C  404   4.413   3.979   2.286
    1C        C  405   4.432   3.908   2.406
    1C        C  406   4.318   4.090   2.525
    1C        C  407   4.393   3.970   2.527
    1C        C  408   4.273   4.146   2.646
    1C        C  409   4.314   4.092   2.770
    1C        C  410   4.173   4.251   2.888
    1C        C  411   4.272   4.151   2.892
    1C        C  412   4.121   4.296   3.011
    1C        C  413   4.171   4.252   3.136
    1C        C  414   4.000   4.381   3.256
    1C        C  415   4.117   4.302   3.256
    1C        C  416   3.939   4.414   3.379
    1C        C  417   4.002   4.383   3.501
    1C        C  418   3.814   4.480   3.622
    1C        C  419   3.942   4.421   3.623
    1C        C  420   3.744   4.509   3.741
    1C        C  421   3.810   4.485   3.864
    1C        C  422   3.611   4.542   3.988
    1C        C  423   3.749   4.514   3.988
    1C        C  424   3.539   4.550   4.110
    1C        C  425   3.611   4.541   4.231
    1C        C  426   3.402   4.558   4.360
    1C        C  427   3.543   4.556   4.355
    1C        C  428   3.329   4.555   4.481
    1C        C  429   3.404   4.568   4.600
    1C        C  430   3.197   4.519   4.724
    1C        C  431   3.335   4.554   4.722
    1C        C  432   3.129   4.494   4.847
    1C        C  433   3.207   4.492   4.963
    1C        C  434   4.385   4.120   2.050
    1C        C  435   4.443   3.993   2.050
    1C        C  436   4.302   4.161   2.160
    1C        C  437   4.335   4.098   2.283
    1C        C  438   4.183   4.252   2.401
    1C        C  439   4.281   4.150   2.402
    1C        C  440   4.123   4.298   2.521
    1C        C  441   4.176   4.249   2.643
    1C        C  442   4.004   4.374   2.765
    1C        C  443   4.122   4.297   2.764
    1C        C  444   3.942   4.406   2.888
    1C        C  445   3.999   4.366   3.011
    1C        C  446   3.810   4.468   3.130
    1C        C  447   3.940   4.412   3.131
    1C        C  448   3.745   4.493   3.253
    1C        C  449   3.811   4.473   3.377
    1C        C  450   3.609   4.533   3.498
    1C        C  451   3.746   4.502   3.499
    1C        C  452   3.539   4.545   3.621
    1C        C  453   3.608   4.545   3.744
    1C        C  454   3.397   4.546   3.866
    1C        C  455   3.538   4.551   3.867
    1C        C  456   3.331   4.541   3.991
    1C        C  457   3.398   4.548   4.115
    1C        C  458   3.194   4.509   4.236
    1C        C  459   3.332   4.539   4.239
    1C        C  460   3.126   4.492   4.359
    1C        C  461   3.192   4.518   4.481
    1C        C  462   3.000   4.434   4.603
    1C        C  463   3.128   4.492   4.604
    1C        C  464   2.935   4.401   4.724
    1C        C  465   2.997   4.438   4.846
    1C        C  466   2.804   4.339   4.960
    1C        C  467   2.912   4.427   4.961
    1C        C  468   4.122   4.283   2.043
    1C        C  469   4.186   4.244   2.161
    1C        C  470   4.006   4.372   2.278
    1C        C  471   4.124   4.293   2.280
    1C        C  472   3.940   4.403   2.399
    1C        C  473   4.003   4.372   2.522
    1C        C  474   3.814   4.470   2.641
    1C        C  475   3.943   4.412   2.643
    1C        C  476   3.747   4.492   2.764
    1C        C  477   3.814   4.466   2.886
    1C        C  478   3.606   4.518   3.011
    1C        C  479   3.744   4.487   3.007
    1C        C  480   3.534   4.529   3.132
    1C        C  481   3.607   4.522   3.253
    1C        C  482   3.398   4.540   3.377
    1C        C  483   3.539   4.540   3.376
    1C        C  484   3.326   4.536   3.499
    1C        C  485   3.398   4.548   3.620
    1C        C  486   3.192   4.506   3.745
    1C        C  487   3.328   4.543   3.743
    1C        C  488   3.130   4.476   3.869
    1C        C  489   3.196   4.499   3.991
    1C        C  490   3.001   4.421   4.117
    1C        C  491   3.127   4.485   4.114
    1C        C  492   2.940   4.388   4.241
    1C        C  493   2.998   4.431   4.362
    1C        C  494   2.831   4.301   4.484
    1C        C  495   2.935   4.396   4.483
    1C        C  496   2.780   4.254   4.607
    1C        C  497   2.822   4.315   4.728
    1C        C  498   2.669   4.164   4.848
    1C        C  499   2.752   4.279   4.845
    1C        C  500   2.594   4.119   4.957
    1C        C  501   4.002   4.353   2.041
    1C        C  502   3.811   4.461   2.153
    1C        C  503   3.940   4.404   2.157
    1C        C  504   3.742   4.475   2.276
    1C        C  505   3.808   4.452   2.398
    1C        C  506   3.606   4.514   2.521
    1C        C  507   3.744   4.487   2.520
    1C        C  508   3.537   4.522   2.643
    1C        C  509   3.609   4.520   2.765
    1C        C  510   3.398   4.531   2.886
    1C        C  511   3.540   4.534   2.888
    1C        C  512   3.325   4.530   3.007
    1C        C  513   3.393   4.537   3.130
    1C        C  514   3.191   4.490   3.254
    1C        C  515   3.327   4.527   3.255
    1C        C  516   3.125   4.473   3.378
    1C        C  517   3.189   4.501   3.501
    1C        C  518   3.000   4.412   3.628
    1C        C  519   3.124   4.479   3.624
    1C        C  520   2.944   4.373   3.752
    1C        C  521   3.002   4.415   3.873
    1C        C  522   2.837   4.284   3.998
    1C        C  523   2.944   4.376   3.996
    1C        C  524   2.789   4.237   4.122
    1C        C  525   2.834   4.295   4.243
    1C        C  526   2.693   4.135   4.366
    1C        C  527   2.784   4.243   4.364
    1C        C  528   2.653   4.077   4.489
    1C        C  529   2.695   4.141   4.608
    1C        C  530   2.589   3.960   4.729
    1C        C  531   2.646   4.090   4.730
    1C        C  532   2.547   3.900   4.851
    1C        C  533   2.531   3.994   4.958
    1C        C  534   3.615   4.556   2.039
    1C        C  535   3.746   4.506   2.038
    1C        C  536   3.536   4.533   2.156
    1C        C  537   3.605   4.511   2.279
    1C        C  538   3.392   4.523   2.402
    1C        C  539   3.533   4.524   2.400
    1C        C  540   3.322   4.516   2.525
    1C        C  541   3.395   4.530   2.644
    1C        C  542   3.188   4.484   2.766
    1C        C  543   3.325   4.520   2.766
    1C        C  544   3.121   4.465   2.889
    1C        C  545   3.188   4.494   3.010
    1C        C  546   2.998   4.404   3.136
    1C        C  547   3.121   4.472   3.132
    1C        C  548   2.943   4.366   3.260
    1C        C  549   3.000   4.408   3.383
    1C        C  550   2.835   4.279   3.508
    1C        C  551   2.940   4.373   3.506
    1C        C  552   2.779   4.235   3.630
    1C        C  553   2.834   4.284   3.750
    1C        C  554   2.706   4.119   3.877
    1C        C  555   2.790   4.233   3.874
    1C        C  556   2.669   4.060   4.000
    1C        C  557   2.701   4.126   4.120
    1C        C  558   2.601   3.943   4.247
    1C        C  559   2.660   4.072   4.244
    1C        C  560   2.573   3.878   4.369
    1C        C  561   2.594   3.949   4.489
    1C        C  562   2.529   3.749   4.613
    1C        C  563   2.562   3.887   4.612
    1C        C  564   2.519   3.680   4.736
    1C        C  565   2.524   3.759   4.855
    1C        C  566   2.532   3.546   4.978
    1C        C  567   2.528   3.685   4.974
    1C        C  568   3.326   4.484   2.042
    1C        C  569   3.394   4.520   2.159
    1C        C  570   3.185   4.474   2.280
    1C        C  571   3.321   4.516   2.280
    1C        C  572   3.116   4.459   2.402
    1C        C  573   3.183   4.487   2.523
    1C        C  574   2.987   4.409   2.648
    1C        C  575   3.116   4.468   2.646
    1C        C  576   2.933   4.364   2.770
    1C        C  577   2.997   4.397   2.891
    1C        C  578   2.829   4.272   3.017
    1C        C  579   2.938   4.362   3.015
    1C        C  580   2.786   4.221   3.141
    1C        C  581   2.836   4.274   3.263
    1C        C  582   2.698   4.116   3.387
    1C        C  583   2.787   4.226   3.386
    1C        C  584   2.662   4.057   3.510
    1C        C  585   2.698   4.119   3.632
    1C        C  586   2.595   3.937   3.758
    1C        C  587   2.662   4.061   3.756
    1C        C  588   2.569   3.872   3.881
    1C        C  589   2.605   3.934   4.003
    1C        C  590   2.537   3.737   4.128
    1C        C  591   2.574   3.874   4.127
    1C        C  592   2.526   3.670   4.251
    1C        C  593   2.533   3.743   4.372
    1C        C  594   2.510   3.533   4.497
    1C        C  595   2.517   3.674   4.495
    1C        C  596   2.512   3.464   4.620
    1C        C  597   2.516   3.538   4.740
    1C        C  598   2.529   3.326   4.860
    1C        C  599   2.525   3.467   4.862
    1C        C  600   2.540   3.250   4.977
    1C        C  601   3.195   4.439   2.042
    1C        C  602   2.986   4.385   2.156
    1C        C  603   3.119   4.437   2.160
    1C        C  604   2.927   4.357   2.282
    1C        C  605   2.988   4.399   2.402
    1C        C  606   2.820   4.276   2.530
    1C        C  607   2.927   4.369   2.526
    1C        C  608   2.771   4.223   2.651
    1C        C  609   2.825   4.273   2.772
    1C        C  610   2.690   4.112   2.896
    1C        C  611   2.774   4.225   2.895
    1C        C  612   2.651   4.058   3.021
    1C        C  613   2.694   4.114   3.143
    1C        C  614   2.593   3.930   3.265
    1C        C  615   2.654   4.058   3.266
    1C        C  616   2.573   3.867   3.390
    1C        C  617   2.598   3.931   3.513
    1C        C  618   2.533   3.733   3.640
    1C        C  619   2.567   3.870   3.637
    1C        C  620   2.516   3.663   3.762
    1C        C  621   2.527   3.737   3.882
    1C        C  622   2.509   3.528   4.010
    1C        C  623   2.518   3.669   4.005
    1C        C  624   2.511   3.455   4.131
    1C        C  625   2.518   3.529   4.251
    1C        C  626   2.542   3.323   4.376
    1C        C  627   2.514   3.461   4.375
    1C        C  628   2.564   3.256   4.499
    1C        C  629   2.540   3.325   4.619
    1C        C  630   2.598   3.120   4.742
    1C        C  631   2.549   3.253   4.741
    1C        C  632   2.614   3.048   4.863
    1C        C  633   2.562   3.111   4.980
    1C        C  634   2.779   4.307   2.058
    1C        C  635   2.888   4.396   2.052
    1C        C  636   2.748   4.230   2.170
    1C        C  637   2.813   4.272   2.289
    1C        C  638   2.681   4.108   2.412
    1C        C  639   2.765   4.222   2.412
    1C        C  640   2.641   4.050   2.535
    1C        C  641   2.683   4.113   2.654
    1C        C  642   2.584   3.924   2.777
    1C        C  643   2.648   4.050   2.776
    1C        C  644   2.562   3.860   2.901
    1C        C  645   2.591   3.930   3.020
    1C        C  646   2.529   3.728   3.148
    1C        C  647   2.569   3.863   3.142
    1C        C  648   2.515   3.661   3.271
    1C        C  649   2.531   3.732   3.393
    1C        C  650   2.509   3.524   3.520
    1C        C  651   2.519   3.665   3.517
    1C        C  652   2.510   3.454   3.643
    1C        C  653   2.501   3.523   3.766
    1C        C  654   2.521   3.314   3.891
    1C        C  655   2.504   3.454   3.889
    1C        C  656   2.539   3.243   4.012
    1C        C  657   2.527   3.315   4.133
    1C        C  658   2.587   3.113   4.256
    1C        C  659   2.547   3.248   4.256
    1C        C  660   2.630   3.054   4.377
    1C        C  661   2.607   3.121   4.500
    1C        C  662   2.716   2.940   4.626
    1C        C  663   2.634   3.055   4.622
    1C        C  664   2.759   2.881   4.746
    1C        C  665   2.699   2.932   4.865
    1C        C  666   2.748   2.874   4.983
    1C        C  667   2.674   4.025   2.055
    1C        C  668   2.683   4.105   2.170
    1C        C  669   2.594   3.912   2.292
    1C        C  670   2.645   4.044   2.292
    1C        C  671   2.563   3.848   2.414
    1C        C  672   2.584   3.921   2.533
    1C        C  673   2.519   3.720   2.658
    1C        C  674   2.560   3.855   2.656
    1C        C  675   2.508   3.653   2.782
    1C        C  676   2.524   3.724   2.903
    1C        C  677   2.509   3.515   3.031
    1C        C  678   2.516   3.656   3.027
    1C        C  679   2.506   3.446   3.154
    1C        C  680   2.510   3.520   3.274
    1C        C  681   2.536   3.313   3.401
    1C        C  682   2.512   3.452   3.398
    1C        C  683   2.557   3.247   3.524
    1C        C  684   2.535   3.315   3.647
    1C        C  685   2.604   3.117   3.769
    1C        C  686   2.550   3.248   3.770
    1C        C  687   2.635   3.054   3.892
    1C        C  688   2.595   3.113   4.015
    1C        C  689   2.708   2.934   4.137
    1C        C  690   2.621   3.045   4.136
    1C        C  691   2.758   2.883   4.260
    1C        C  692   2.712   2.939   4.381
    1C        C  693   2.754   2.882   4.503
    1C        C  694   2.633   3.891   2.056
    1C        C  695   2.529   3.704   2.178
    1C        C  696   2.580   3.836   2.174
    1C        C  697   2.506   3.637   2.300
    1C        C  698   2.525   3.712   2.418
    1C        C  699   2.489   3.504   2.544
    1C        C  700   2.503   3.644   2.540
    1C        C  701   2.503   3.435   2.667
    1C        C  702   2.505   3.512   2.786
    1C        C  703   2.527   3.303   2.914
    1C        C  704   2.510   3.443   2.910
    1C        C  705   2.547   3.235   3.037
    1C        C  706   2.528   3.306   3.157
    1C        C  707   2.597   3.109   3.279
    1C        C  708   2.543   3.240   3.281
    1C        C  709   2.635   3.051   3.402
    1C        C  710   2.608   3.116   3.524
    1C        C  711   2.716   2.936   3.647
    1C        C  712   2.633   3.051   3.647
    1C        C  713   2.757   2.884   3.772
    1C        C  714   2.716   2.939   3.896
    1C        C  715   2.756   2.878   4.017
    1C        C  716   2.451   3.500   2.063
    1C        C  717   2.490   3.635   2.063
    1C        C  718   2.461   3.421   2.182
    1C        C  719   2.476   3.498   2.301
    1C        C  720   2.511   3.290   2.428
    1C        C  721   2.485   3.429   2.424
    1C        C  722   2.531   3.222   2.549
    1C        C  723   2.524   3.296   2.670
    1C        C  724   2.594   3.099   2.793
    1C        C  725   2.543   3.231   2.794
    1C        C  726   2.627   3.038   2.916
    1C        C  727   2.595   3.102   3.038
    1C        C  728   2.712   2.925   3.161
    1C        C  729   2.630   3.040   3.160
    1C        C  730   2.754   2.872   3.285
    1C        C  731   2.711   2.932   3.406
    1C        C  732   2.760   2.878   3.527
    1C        C  733   2.488   3.198   2.076
    1C        C  734   2.485   3.280   2.190
    1C        C  735   2.589   3.088   2.307
    1C        C  736   2.523   3.214   2.310
    1C        C  737   2.618   3.025   2.430
    1C        C  738   2.589   3.093   2.550
    1C        C  739   2.696   2.911   2.671
    1C        C  740   2.621   3.030   2.673
    1C        C  741   2.747   2.860   2.793
    1C        C  742   2.704   2.919   2.914
    1C        C  743   2.751   2.869   3.037
    1C        C  744   2.550   3.074   2.077
    1C        C  745   2.683   2.894   2.188
    1C        C  746   2.612   3.016   2.188
    1C        C  747   2.731   2.841   2.310
    1C        C  748   2.694   2.906   2.430
    1C        C  749   2.744   2.853   2.551
    1C        C  750   2.736   2.840   2.070
    1C        C  751   3.660   2.305   1.990
    1C        O  752   3.652   2.189   2.039
    1C        O  753   3.644   2.310   1.851
    1C        C  754   4.615   3.058   1.970
    1C        O  755   4.598   3.088   1.849
    1C        O  756   4.747   3.046   2.016
    1C        C  757   4.460   4.224   1.976
    1C        O  758   4.578   4.259   2.003
    1C        O  759   4.440   4.230   1.837
    1C        C  760   3.580   4.646   1.927
    1C        O  761   3.555   4.769   1.935
    1C        O  762   3.585   4.601   1.794
    1C        C  763   2.874   4.497   1.945
    1C        O  764   2.915   4.482   1.827
    1C        O  765   2.820   4.624   1.969
    1C        C  766   2.378   3.460   1.941
    1C        O  767   2.450   3.433   1.841
    1C        O  768   2.246   3.505   1.928
    1C        C  769   4.693   3.581   5.052
    1C        O  770   4.681   3.597   5.177
    1C        O  771   4.826   3.615   5.026
    1C        C  772   4.269   4.455   5.041
    1C        O  773   4.292   4.394   5.149
    1C        O  774   4.346   4.571   5.028
    1C        C  775   4.142   2.529   5.072
    1C        O  776   4.241   2.458   5.041
    1C        O  777   4.157   2.576   5.204
    1C        C  778   2.897   4.555   5.034
    1C        O  779   2.793   4.621   5.006
    1C        O  780   2.924   4.559   5.171
    1C        C  781   2.476   3.048   5.083
    1C        O  782   2.382   2.971   5.049
    1C        O  783   2.514   3.030   5.215
    1C        C  784   2.399   4.010   5.024
    1C        O  785   2.287   4.029   4.970
    1C        O  786   2.391   3.949   5.150
    1C        C  787   2.958   2.413   2.012
    1C        O  788   2.885   2.431   1.912
    1C        O  789   2.924   2.289   2.065
    1C        C  790   3.184   2.360   5.046
    1C        O  791   3.135   2.258   4.991
    1C        O  792   3.204   2.358   5.184
    1C        H  793   4.266   3.035   5.050
    1C        H  794   4.198   2.810   5.080
    1C        H  795   4.532   3.124   5.044
    1C        H  796   4.507   3.368   5.070
    1C        H  797   4.594   3.826   5.031
    1C        H  798   4.422   3.975   5.057
    1C        H  799   4.263   4.158   5.047
    1C        H  800   4.045   4.559   5.010
    1C        H  801   3.826   4.601   5.035
    1C        H  802   3.598   4.669   5.016
    1C        H  803   3.406   4.475   5.033
    1C        H  804   3.161   4.513   5.058
    1C        H  805   3.886   2.498   5.075
    1C        H  806   3.679   2.499   5.075
    1C        H  807   3.037   2.594   5.075
    1C        H  808   3.445   2.497   5.079
    1C        H  809   2.888   2.747   5.080
    1C        H  810   2.727   2.916   5.079
    1C        H  811   2.557   3.303   5.068
    1C        H  812   2.548   3.503   5.075
    1C        H  813   2.504   3.737   5.064
    1C        H  814   2.599   4.179   5.045
    1C        H  815   2.766   4.308   5.056
    1C        H  816   2.688   2.865   1.978
    1C        H  817   2.827   2.670   1.986
    1C        H  818   3.208   2.426   1.988
    1C        H  819   3.434   2.481   1.982
    1C        H  820   3.836   2.552   1.974
    1C        H  821   4.083   2.585   1.984
    1C        H  822   4.216   2.763   1.966
    1C        H  823   4.348   2.945   1.974
    1C        H  824   4.621   3.302   1.984
    1C        H  825   4.496   3.506   1.966
    1C        H  826   4.561   3.746   1.970
    1C        H  827   3.812   4.539   1.961
    1C        H  828   3.934   4.325   1.963
    1C        H  829   4.185   4.280   1.956
    1C        H  830   4.499   3.964   1.964
    1C        H  831   2.674   3.830   1.979
    1C        H  832   2.737   4.047   1.971
    1C        H  833   2.708   4.307   1.978
    1C        H  834   3.375   4.472   1.948
    1C        H  835   3.170   4.365   1.969
    1C        H  836   2.555   3.021   1.984
    1C        H  837   2.432   3.225   1.989
    1C        H  838   2.462   3.692   1.977
    2V3OU   H29  839   2.808   3.551   3.711
    2V3OU   C27  840   2.792   3.507   3.813
    2V3OU   H27  841   2.735   3.575   3.881
    2V3OU   H28  842   2.737   3.410   3.797
    2V3OU   O11  843   2.914   3.474   3.880
    2V3OU   C15  844   2.928   3.399   3.995
    2V3OU   C13  845   3.057   3.373   4.047
    2V3OU   C14  846   3.079   3.268   4.137
    2V3OU   C16  847   2.981   3.182   4.184
    2V3OU    H6  848   2.997   3.104   4.261
    2V3OU   C12  849   3.216   3.236   4.186
    2V3OU    O2  850   3.236   3.131   4.250
    2V3OU   C10  851   3.327   3.310   4.123
    2V3OU    C8  852   3.457   3.269   4.148
    2V3OU   O10  853   3.489   3.157   4.218
    2V3OU   H26  854   3.408   3.123   4.259
    2V3OU    C6  855   3.564   3.347   4.094
    2V3OU    C5  856   3.537   3.464   4.023
    2V3OU    C4  857   3.705   3.299   4.101
    2V3OU    H4  858   3.727   3.230   4.187
    2V3OU    H5  859   3.713   3.229   4.013
    2V3OU    C2  860   3.821   3.399   4.097
    2V3OU    O6  861   3.810   3.474   4.219
    2V3OU   H21  862   3.760   3.555   4.201
    2V3OU    C3  863   3.784   3.496   3.984
    2V3OU    H2  864   3.863   3.573   3.970
    2V3OU    H3  865   3.780   3.433   3.891
    2V3OU   C25  866   3.952   3.325   4.073
    2V3OU    O7  867   4.001   3.291   3.965
    2V3OU   C26  868   4.035   3.290   4.196
    2V3OU   H22  869   4.071   3.382   4.248
    2V3OU   H23  870   4.122   3.225   4.167
    2V3OU    O8  871   3.966   3.212   4.292
    2V3OU   H24  872   3.921   3.271   4.353
    2V3OU    C1  873   3.647   3.562   3.996
    2V3OU    H1  874   3.627   3.619   3.901
    2V3OU    O3  875   3.659   3.656   4.103
    2V3OU   C19  876   3.617   3.791   4.079
    2V3OU    H9  877   3.518   3.800   4.025
    2V3OU    O4  878   3.712   3.841   3.987
    2V3OU   C20  879   3.841   3.877   4.037
    2V3OU   H10  880   3.903   3.784   4.054
    2V3OU   C24  881   3.612   3.859   4.216
    2V3OU   H16  882   3.548   3.798   4.285
    2V3OU   H17  883   3.564   3.958   4.197
    2V3OU   C23  884   3.754   3.877   4.272
    2V3OU   H15  885   3.797   3.772   4.278
    2V3OU    N1  886   3.735   3.952   4.394
    2V3OU   H19  887   3.806   3.928   4.461
    2V3OU   H20  888   3.644   3.942   4.435
    2V3OU   C21  889   3.847   3.951   4.171
    2V3OU   H11  890   3.953   3.934   4.208
    2V3OU    O5  891   3.829   4.091   4.186
    2V3OU   H18  892   3.790   4.106   4.274
    2V3OU   C22  893   3.913   3.949   3.924
    2V3OU   H12  894   3.866   4.048   3.903
    2V3OU   H13  895   3.903   3.892   3.828
    2V3OU   H14  896   4.022   3.951   3.946
    2V3OU   C11  897   3.163   3.471   4.022
    2V3OU    O1  898   3.135   3.591   4.001
    2V3OU    C9  899   3.302   3.423   4.042
    2V3OU    C7  900   3.403   3.504   3.991
    2V3OU    O9  901   3.384   3.610   3.905
    2V3OU   H25  902   3.289   3.624   3.918
    2V3OU   C17  903   2.831   3.319   4.058
    2V3OU    H7  904   2.733   3.356   4.028
    2V3OU   C18  905   2.851   3.216   4.149
    2V3OU    H8  906   2.790   3.176   4.231
    3SOL     OW  907   2.808   4.268   5.604
    3SOL    HW1  908   2.816   4.330   5.526
    3SOL    HW2  909   2.713   4.264   5.635
    4SOL     OW  910   6.714   0.068   6.740
    4SOL    HW1  911   6.693   7.005   6.698
    4SOL    HW2  912   6.652   0.138   6.704
    5SOL     OW  913   4.934   1.488   2.773
    5SOL    HW1  914   4.942   1.390   2.755
    5SOL    HW2  915   4.874   1.530   2.704
    6SOL     OW  916   5.002   2.186   3.074
    6SOL    HW1  917   4.959   2.114   3.128
    6SOL    HW2  918   5.071   2.146   3.013
    7SOL     OW  919   0.885   3.910   4.205
    7SOL    HW1  920   0.855   3.829   4.255
    7SOL    HW2  921   0.814   3.980   4.209
    8SOL     OW  922   3.108   1.971   5.684
    8SOL    HW1  923   3.145   2.053   5.640
    8SOL    HW2  924   3.037   1.931   5.626
    9SOL     OW  925   6.267   1.504   5.959
    9SOL    HW1  926   6.172   1.477   5.975
    9SOL    HW2  927   6.325   1.423   5.961
   10SOL     OW  928   3.614   5.007   4.199
   10SOL    HW1  929   3.704   4.969   4.175
   10SOL    HW2  930   3.557   5.009   4.117
   11SOL     OW  931   1.889   1.113   0.029
   11SOL    HW1  932   1.847   1.023   0.033
   11SOL    HW2  933   1.822   1.182   0.055
   12SOL     OW  934   2.662   4.632   4.117
   12SOL    HW1  935   2.714   4.636   4.032
   12SOL    HW2  936   2.578   4.580   4.102
   13SOL     OW  937   3.518   6.203   2.882
   13SOL    HW1  938   3.431   6.197   2.931
   13SOL    HW2  939   3.501   6.201   2.784
   14SOL     OW  940   4.179   4.285   6.480
   14SOL    HW1  941   4.084   4.271   6.449
   14SOL    HW2  942   4.229   4.335   6.409
   15SOL     OW  943   0.763   6.551   6.231
   15SOL    HW1  944   0.777   6.461   6.190
   15SOL    HW2  945   0.713   6.609   6.166
   16SOL     OW  946   5.822   2.497   6.108
   16SOL    HW1  947   5.730   2.490   6.068
   16SOL    HW2  948   5.827   2.579   6.166
   17SOL     OW  949   5.306   0.554   6.460
   17SOL    HW1  950   5.216   0.525   6.492
   17SOL    HW2  951   5.357   0.474   6.428
   18SOL     OW  952   3.784   1.268   5.082
   18SOL    HW1  953   3.788   1.363   5.049
   18SOL    HW2  954   3.810   1.265   5.178
   19SOL     OW  955   0.574   2.307   2.807
   19SOL    HW1  956   0.502   2.279   2.870
   19SOL    HW2  957   0.645   2.356   2.857
   20SOL     OW  958   5.472   2.148   5.309
   20SOL    HW1  959   5.442   2.172   5.217
   20SOL    HW2  960   5.474   2.049   5.320
   21SOL     OW  961   3.036   0.443   2.922
   21SOL    HW1  962   3.096   0.364   2.902
   21SOL    HW2  963   2.941   0.412   2.928
   22SOL     OW  964   1.040   6.222   6.158
   22SOL    HW1  965   1.063   6.228   6.255
   22SOL    HW2  966   1.103   6.159   6.112
   23SOL     OW  967   3.988   5.588   2.337
   23SOL    HW1  968   3.939   5.548   2.259
   23SOL    HW2  969   4.048   5.519   2.378
   24SOL     OW  970   3.737   7.016   2.355
   24SOL    HW1  971   3.651   0.007   2.306
   24SOL    HW2  972   3.752   6.918   2.366
   25SOL     OW  973   2.653   0.100   4.166
   25SOL    HW1  974   2.718   0.128   4.236
   25SOL    HW2  975   2.696   0.032   4.106
   26SOL     OW  976   0.535   2.069   6.941
   26SOL    HW1  977   0.608   2.136   6.949
   26SOL    HW2  978   0.556   2.004   6.867
   27SOL     OW  979   1.317   1.424   2.044
   27SOL    HW1  980   1.349   1.512   2.011
   27SOL    HW2  981   1.384   1.384   2.106
   28SOL     OW  982   0.756   0.961   4.745
   28SOL    HW1  983   0.671   0.913   4.724
   28SOL    HW2  984   0.805   0.912   4.818
   29SOL     OW  985   6.270   1.026   1.283
   29SOL    HW1  986   6.234   0.939   1.318
   29SOL    HW2  987   6.195   1.080   1.245
   30SOL     OW  988   3.372   0.503   5.124
   30SOL    HW1  989   3.334   0.576   5.182
   30SOL    HW2  990   3.471   0.502   5.132
   31SOL     OW  991   0.478   2.227   5.470
   31SOL    HW1  992   0.548   2.207   5.539
   31SOL    HW2  993   0.486   2.322   5.441
   32SOL     OW  994   1.471   1.746   2.436
   32SOL    HW1  995   1.434   1.837   2.450
   32SOL    HW2  996   1.541   1.727   2.505
   33SOL     OW  997   0.803   4.073   5.226
   33SOL    HW1  998   0.856   4.000   5.184
   33SOL    HW2  999   0.711   4.075   5.186
   34SOL     OW 1000   2.454   5.815   4.978
   34SOL    HW1 1001   2.423   5.895   5.030
   34SOL    HW2 1002   2.530   5.842   4.919
   35SOL     OW 1003   4.811   1.668   5.201
   35SOL    HW1 1004   4.815   1.621   5.290
   35SOL    HW2 1005   4.725   1.718   5.195
   36SOL     OW 1006   5.320   1.328   3.740
   36SOL    HW1 1007   5.347   1.374   3.655
   36SOL    HW2 1008   5.395   1.334   3.806
   37SOL     OW 1009   2.021   1.679   4.515
   37SOL    HW1 1010   2.042   1.777   4.512
   37SOL    HW2 1011   1.988   1.649   4.425
   38SOL     OW 1012   2.207   4.062   1.703
   38SOL    HW1 1013   2.272   4.111   1.760
   38SOL    HW2 1014   2.120   4.051   1.752
   39SOL     OW 1015   6.566   4.871   6.345
   39SOL    HW1 1016   6.527   4.790   6.389
   39SOL    HW2 1017   6.639   4.843   6.283
   40SOL     OW 1018   3.234   1.307   6.491
   40SOL    HW1 1019   3.237   1.322   6.590
   40SOL    HW2 1020   3.227   1.209   6.472
   41SOL     OW 1021   6.387   3.864   2.676
   41SOL    HW1 1022   6.389   3.955   2.719
   41SOL    HW2 1023   6.334   3.801   2.733
   42SOL     OW 1024   3.469   6.261   4.139
   42SOL    HW1 1025   3.512   6.224   4.222
   42SOL    HW2 1026   3.476   6.361   4.140
   43SOL     OW 1027   4.113   0.150   5.545
   43SOL    HW1 1028   4.165   0.235   5.556
   43SOL    HW2 1029   4.032   0.168   5.489
   44SOL     OW 1030   6.050   2.817   4.908
   44SOL    HW1 1031   6.060   2.849   5.002
   44SOL    HW2 1032   6.014   2.890   4.851
   45SOL     OW 1033   4.252   5.522   1.321
   45SOL    HW1 1034   4.257   5.616   1.286
   45SOL    HW2 1035   4.211   5.463   1.252
   46SOL     OW 1036   0.148   2.733   3.979
   46SOL    HW1 1037   0.150   2.671   4.057
   46SOL    HW2 1038   0.208   2.698   3.907
   47SOL     OW 1039   5.128   3.835   1.485
   47SOL    HW1 1040   5.070   3.897   1.538
   47SOL    HW2 1041   5.118   3.855   1.388
   48SOL     OW 1042   0.187   2.263   6.367
   48SOL    HW1 1043   0.122   2.299   6.300
   48SOL    HW2 1044   0.243   2.338   6.402
   49SOL     OW 1045   5.308   2.911   1.524
   49SOL    HW1 1046   5.396   2.953   1.544
   49SOL    HW2 1047   5.306   2.879   1.429
   50SOL     OW 1048   6.104   1.951   5.604
   50SOL    HW1 1049   6.126   1.959   5.701
   50SOL    HW2 1050   6.025   2.010   5.583
   51SOL     OW 1051   2.209   6.249   2.772
   51SOL    HW1 1052   2.220   6.230   2.674
   51SOL    HW2 1053   2.167   6.169   2.816
   52SOL     OW 1054   5.201   2.638   1.944
   52SOL    HW1 1055   5.148   2.619   2.027
   52SOL    HW2 1056   5.144   2.622   1.864
   53SOL     OW 1057   4.977   7.012   3.577
   53SOL    HW1 1058   5.057   7.010   3.516
   53SOL    HW2 1059   4.910   6.944   3.546
   54SOL     OW 1060   5.349   6.728   0.108
   54SOL    HW1 1061   5.299   6.642   0.124
   54SOL    HW2 1062   5.440   6.707   0.073
   55SOL     OW 1063   2.763   2.324   5.595
   55SOL    HW1 1064   2.728   2.380   5.519
   55SOL    HW2 1065   2.860   2.343   5.608
   56SOL     OW 1066   1.212   1.980   1.230
   56SOL    HW1 1067   1.147   1.929   1.287
   56SOL    HW2 1068   1.302   1.938   1.238
   57SOL     OW 1069   3.767   1.352   0.021
   57SOL    HW1 1070   3.824   1.432   0.039
   57SOL    HW2 1071   3.795   1.277   0.080
   58SOL     OW 1072   0.582   0.280   6.027
   58SOL    HW1 1073   0.489   0.307   6.050
   58SOL    HW2 1074   0.631   0.359   5.990
   59SOL     OW 1075   6.380   3.669   6.353
   59SOL    HW1 1076   6.378   3.647   6.450
   59SOL    HW2 1077   6.375   3.584   6.300
   60SOL     OW 1078   5.351   1.734   3.708
   60SOL    HW1 1079   5.407   1.706   3.786
   60SOL    HW2 1080   5.259   1.756   3.740
   61SOL     OW 1081   0.072   1.074   4.246
   61SOL    HW1 1082   0.021   1.013   4.307
   61SOL    HW2 1083   0.113   1.021   4.172
   62SOL     OW 1084   1.445   1.495   1.220
   62SOL    HW1 1085   1.524   1.502   1.159
   62SOL    HW2 1086   1.423   1.585   1.256
   63SOL     OW 1087   3.855   0.695   4.409
   63SOL    HW1 1088   3.917   0.660   4.479
   63SOL    HW2 1089   3.859   0.794   4.406
   64SOL     OW 1090   0.576   3.423   6.550
   64SOL    HW1 1091   0.657   3.391   6.500
   64SOL    HW2 1092   0.521   3.481   6.491
   65SOL     OW 1093   1.269   6.609   5.792
   65SOL    HW1 1094   1.233   6.545   5.859
   65SOL    HW2 1095   1.205   6.615   5.715
   66SOL     OW 1096   3.445   0.311   3.002
   66SOL    HW1 1097   3.464   0.308   3.100
   66SOL    HW2 1098   3.519   0.267   2.952
   67SOL     OW 1099   0.192   2.651   6.221
   67SOL    HW1 1100   0.216   2.591   6.297
   67SOL    HW2 1101   0.191   2.745   6.252
   68SOL     OW 1102   6.695   1.645   6.307
   68SOL    HW1 1103   6.603   1.676   6.332
   68SOL    HW2 1104   6.698   1.545   6.309
   69SOL     OW 1105   1.877   3.345   5.903
   69SOL    HW1 1106   1.949   3.354   5.971
   69SOL    HW2 1107   1.828   3.259   5.917
   70SOL     OW 1108   5.156   4.989   5.013
   70SOL    HW1 1109   5.167   4.897   4.976
   70SOL    HW2 1110   5.147   5.054   4.938
   71SOL     OW 1111   4.682   1.547   3.535
   71SOL    HW1 1112   4.696   1.597   3.620
   71SOL    HW2 1113   4.771   1.523   3.495
   72SOL     OW 1114   0.734   1.038   3.096
   72SOL    HW1 1115   0.641   1.067   3.075
   72SOL    HW2 1116   0.731   0.959   3.158
   73SOL     OW 1117   2.982   0.314   0.673
   73SOL    HW1 1118   2.949   0.394   0.724
   73SOL    HW2 1119   2.988   0.236   0.735
   74SOL     OW 1120   2.513   1.675   6.554
   74SOL    HW1 1121   2.556   1.618   6.624
   74SOL    HW2 1122   2.566   1.671   6.470
   75SOL     OW 1123   3.740   0.990   1.619
   75SOL    HW1 1124   3.742   0.967   1.522
   75SOL    HW2 1125   3.820   0.951   1.665
   76SOL     OW 1126   2.010   4.336   5.899
   76SOL    HW1 1127   1.971   4.243   5.904
   76SOL    HW2 1128   1.939   4.402   5.922
   77SOL     OW 1129   2.301   5.845   3.585
   77SOL    HW1 1130   2.385   5.893   3.610
   77SOL    HW2 1131   2.270   5.790   3.662
   78SOL     OW 1132   4.439   1.329   1.185
   78SOL    HW1 1133   4.474   1.329   1.091
   78SOL    HW2 1134   4.442   1.237   1.222
   79SOL     OW 1135   2.449   6.052   2.153
   79SOL    HW1 1136   2.447   6.152   2.144
   79SOL    HW2 1137   2.490   6.012   2.071
   80SOL     OW 1138   4.666   1.789   4.866
   80SOL    HW1 1139   4.694   1.884   4.853
   80SOL    HW2 1140   4.647   1.773   4.963
   81SOL     OW 1141   1.653   0.042   0.577
   81SOL    HW1 1142   1.701   6.979   0.570
   81SOL    HW2 1143   1.674   0.098   0.496
   82SOL     OW 1144   0.435   6.123   1.771
   82SOL    HW1 1145   0.508   6.124   1.840
   82SOL    HW2 1146   0.429   6.213   1.728
   83SOL     OW 1147   0.217   1.545   6.195
   83SOL    HW1 1148   0.265   1.486   6.259
   83SOL    HW2 1149   0.145   1.494   6.150
   84SOL     OW 1150   6.275   3.945   2.979
   84SOL    HW1 1151   6.273   4.012   2.905
   84SOL    HW2 1152   6.261   3.853   2.943
   85SOL     OW 1153   1.925   0.323   3.367
   85SOL    HW1 1154   1.832   0.356   3.378
   85SOL    HW2 1155   1.966   0.365   3.286
   86SOL     OW 1156   6.428   0.837   6.527
   86SOL    HW1 1157   6.399   0.922   6.572
   86SOL    HW2 1158   6.474   0.778   6.594
   87SOL     OW 1159   4.008   4.100   0.841
   87SOL    HW1 1160   4.084   4.164   0.850
   87SOL    HW2 1161   3.922   4.148   0.856
   88SOL     OW 1162   3.045   2.092   6.216
   88SOL    HW1 1163   3.094   2.162   6.268
   88SOL    HW2 1164   3.095   2.072   6.132
   89SOL     OW 1165   3.015   3.816   1.382
   89SOL    HW1 1166   2.963   3.808   1.297
   89SOL    HW2 1167   3.030   3.912   1.403
   90SOL     OW 1168   4.755   4.660   2.277
   90SOL    HW1 1169   4.712   4.578   2.239
   90SOL    HW2 1170   4.685   4.730   2.292
   91SOL     OW 1171   6.097   5.401   6.597
   91SOL    HW1 1172   6.081   5.355   6.510
   91SOL    HW2 1173   6.195   5.413   6.611
   92SOL     OW 1174   5.213   3.519   1.304
   92SOL    HW1 1175   5.127   3.544   1.260
   92SOL    HW2 1176   5.212   3.422   1.326
   93SOL     OW 1177   3.053   3.742   0.698
   93SOL    HW1 1178   2.956   3.766   0.707
   93SOL    HW2 1179   3.105   3.823   0.672
   94SOL     OW 1180   2.367   6.187   0.883
   94SOL    HW1 1181   2.457   6.202   0.925
   94SOL    HW2 1182   2.378   6.165   0.787
   95SOL     OW 1183   1.257   0.830   3.697
   95SOL    HW1 1184   1.239   0.812   3.600
   95SOL    HW2 1185   1.330   0.899   3.704
   96SOL     OW 1186   4.539   5.900   6.758
   96SOL    HW1 1187   4.530   5.802   6.773
   96SOL    HW2 1188   4.607   5.937   6.822
   97SOL     OW 1189   2.094   4.426   5.028
   97SOL    HW1 1190   2.065   4.459   4.938
   97SOL    HW2 1191   2.170   4.483   5.061
   98SOL     OW 1192   1.092   2.382   0.925
   98SOL    HW1 1193   1.152   2.461   0.938
   98SOL    HW2 1194   1.042   2.391   0.839
   99SOL     OW 1195   3.674   4.054   3.156
   99SOL    HW1 1196   3.771   4.036   3.173
   99SOL    HW2 1197   3.632   4.091   3.239
  100SOL     OW 1198   6.371   0.176   4.343
  100SOL    HW1 1199   6.302   0.116   4.385
  100SOL    HW2 1200   6.331   0.266   4.326
  101SOL     OW 1201   0.692   5.490   2.081
  101SOL    HW1 1202   0.686   5.580   2.122
  101SOL    HW2 1203   0.603   5.444   2.088
  102SOL     OW 1204   2.827   6.144   2.343
  102SOL    HW1 1205   2.823   6.230   2.394
  102SOL    HW2 1206   2.777   6.154   2.257
  103SOL     OW 1207   1.645   1.583   2.295
  103SOL    HW1 1208   1.555   1.620   2.317
  103SOL    HW2 1209   1.633   1.493   2.251
  104SOL     OW 1210   1.631   5.141   2.331
  104SOL    HW1 1211   1.691   5.218   2.310
  104SOL    HW2 1212   1.685   5.057   2.336
  105SOL     OW 1213   5.030   1.391   6.397
  105SOL    HW1 1214   5.038   1.428   6.490
  105SOL    HW2 1215   5.118   1.396   6.351
  106SOL     OW 1216   4.787   5.040   1.630
  106SOL    HW1 1217   4.843   4.998   1.701
  106SOL    HW2 1218   4.778   4.977   1.553
  107SOL     OW 1219   6.306   0.717   6.793
  107SOL    HW1 1220   6.245   0.748   6.720
  107SOL    HW2 1221   6.263   0.733   6.882
  108SOL     OW 1222   3.164   6.913   5.372
  108SOL    HW1 1223   3.261   6.899   5.351
  108SOL    HW2 1224   3.155   6.943   5.467
  109SOL     OW 1225   2.840   0.729   2.462
  109SOL    HW1 1226   2.885   0.766   2.544
  109SOL    HW2 1227   2.760   0.675   2.489
  110SOL     OW 1228   2.739   5.301   4.650
  110SOL    HW1 1229   2.670   5.371   4.664
  110SOL    HW2 1230   2.742   5.240   4.729
  111SOL     OW 1231   0.581   1.691   2.516
  111SOL    HW1 1232   0.522   1.702   2.435
  111SOL    HW2 1233   0.578   1.775   2.570
  112SOL     OW 1234   4.927   6.710   6.522
  112SOL    HW1 1235   4.854   6.775   6.502
  112SOL    HW2 1236   4.999   6.754   6.576
  113SOL     OW 1237   6.871   5.942   2.655
  113SOL    HW1 1238   6.831   5.853   2.634
  113SOL    HW2 1239   6.825   6.013   2.602
  114SOL     OW 1240   1.021   5.109   2.775
  114SOL    HW1 1241   0.982   5.201   2.779
  114SOL    HW2 1242   1.082   5.101   2.697
  115SOL     OW 1243   5.671   1.042   3.455
  115SOL    HW1 1244   5.770   1.056   3.455
  115SOL    HW2 1245   5.626   1.114   3.508
  116SOL     OW 1246   7.005   6.187   1.243
  116SOL    HW1 1247   6.952   6.132   1.308
  116SOL    HW2 1248   0.039   6.250   1.293
  117SOL     OW 1249   2.143   0.719   0.309
  117SOL    HW1 1250   2.201   0.766   0.375
  117SOL    HW2 1251   2.075   0.783   0.273
  118SOL     OW 1252   1.569   1.401   3.705
  118SOL    HW1 1253   1.549   1.410   3.803
  118SOL    HW2 1254   1.591   1.491   3.667
  119SOL     OW 1255   0.273   6.525   6.769
  119SOL    HW1 1256   0.252   6.537   6.672
  119SOL    HW2 1257   0.356   6.576   6.793
  120SOL     OW 1258   4.610   0.363   4.690
  120SOL    HW1 1259   4.644   0.447   4.733
  120SOL    HW2 1260   4.566   0.385   4.603
  121SOL     OW 1261   1.963   3.968   0.316
  121SOL    HW1 1262   1.953   3.933   0.409
  121SOL    HW2 1263   2.050   3.937   0.279
  122SOL     OW 1264   1.802   3.602   0.558
  122SOL    HW1 1265   1.854   3.520   0.580
  122SOL    HW2 1266   1.718   3.576   0.510
  123SOL     OW 1267   1.085   1.061   1.380
  123SOL    HW1 1268   1.137   1.015   1.308
  123SOL    HW2 1269   1.145   1.120   1.434
  124SOL     OW 1270   3.214   2.007   0.507
  124SOL    HW1 1271   3.130   1.969   0.469
  124SOL    HW2 1272   3.218   2.105   0.487
  125SOL     OW 1273   3.757   2.796   0.290
  125SOL    HW1 1274   3.697   2.765   0.363
  125SOL    HW2 1275   3.852   2.794   0.321
  126SOL     OW 1276   2.941   3.423   3.225
  126SOL    HW1 1277   2.917   3.491   3.156
  126SOL    HW2 1278   2.954   3.334   3.180
  127SOL     OW 1279   6.680   6.161   5.757
  127SOL    HW1 1280   6.758   6.108   5.725
  127SOL    HW2 1281   6.690   6.256   5.727
  128SOL     OW 1282   5.097   2.988   2.569
  128SOL    HW1 1283   5.171   3.009   2.505
  128SOL    HW2 1284   5.110   3.040   2.653
  129SOL     OW 1285   2.864   4.480   1.002
  129SOL    HW1 1286   2.944   4.530   0.968
  129SOL    HW2 1287   2.825   4.426   0.927
  130SOL     OW 1288   6.364   0.644   4.840
  130SOL    HW1 1289   6.336   0.713   4.906
  130SOL    HW2 1290   6.457   0.614   4.861
  131SOL     OW 1291   5.642   0.594   4.439
  131SOL    HW1 1292   5.554   0.612   4.484
  131SOL    HW2 1293   5.692   0.524   4.489
  132SOL     OW 1294   3.577   3.295   1.326
  132SOL    HW1 1295   3.660   3.329   1.370
  132SOL    HW2 1296   3.581   3.195   1.323
  133SOL     OW 1297   5.352   1.212   3.430
  133SOL    HW1 1298   5.261   1.194   3.469
  133SOL    HW2 1299   5.371   1.144   3.359
  134SOL     OW 1300   0.451   0.852   2.236
  134SOL    HW1 1301   0.482   0.794   2.312
  134SOL    HW2 1302   0.458   0.948   2.262
  135SOL     OW 1303   5.221   3.286   4.297
  135SOL    HW1 1304   5.245   3.189   4.301
  135SOL    HW2 1305   5.122   3.295   4.281
  136SOL     OW 1306   2.554   6.362   4.545
  136SOL    HW1 1307   2.486   6.294   4.518
  136SOL    HW2 1308   2.611   6.385   4.467
  137SOL     OW 1309   4.283   0.936   4.190
  137SOL    HW1 1310   4.323   1.025   4.213
  137SOL    HW2 1311   4.184   0.941   4.199
  138SOL     OW 1312   0.788   4.995   3.443
  138SOL    HW1 1313   0.738   5.067   3.491
  138SOL    HW2 1314   0.779   5.008   3.344
  139SOL     OW 1315   2.450   5.622   6.699
  139SOL    HW1 1316   2.372   5.561   6.683
  139SOL    HW2 1317   2.443   5.701   6.638
  140SOL     OW 1318   1.914   6.450   2.672
  140SOL    HW1 1319   1.822   6.484   2.651
  140SOL    HW2 1320   1.908   6.354   2.699
  141SOL     OW 1321   6.645   3.734   6.726
  141SOL    HW1 1322   6.630   3.635   6.727
  141SOL    HW2 1323   6.721   3.757   6.788
  142SOL     OW 1324   2.016   3.913   1.365
  142SOL    HW1 1325   2.085   3.853   1.406
  142SOL    HW2 1326   2.047   4.008   1.373
  143SOL     OW 1327   5.773   6.185   0.958
  143SOL    HW1 1328   5.717   6.211   1.037
  143SOL    HW2 1329   5.857   6.141   0.990
  144SOL     OW 1330   2.956   4.813   3.588
  144SOL    HW1 1331   2.989   4.817   3.493
  144SOL    HW2 1332   2.913   4.900   3.612
  145SOL     OW 1333   1.106   4.958   2.349
  145SOL    HW1 1334   1.181   4.939   2.285
  145SOL    HW2 1335   1.023   4.911   2.318
  146SOL     OW 1336   5.344   0.901   5.417
  146SOL    HW1 1337   5.314   0.879   5.510
  146SOL    HW2 1338   5.265   0.897   5.355
  147SOL     OW 1339   5.402   1.337   4.934
  147SOL    HW1 1340   5.352   1.394   4.869
  147SOL    HW2 1341   5.499   1.365   4.934
  148SOL     OW 1342   1.150   5.248   1.500
  148SOL    HW1 1343   1.172   5.169   1.442
  148SOL    HW2 1344   1.160   5.332   1.447
  149SOL     OW 1345   3.076   2.345   5.415
  149SOL    HW1 1346   3.125   2.348   5.327
  149SOL    HW2 1347   3.125   2.284   5.478
  150SOL     OW 1348   4.366   0.775   5.933
  150SOL    HW1 1349   4.305   0.801   5.859
  150SOL    HW2 1350   4.410   0.857   5.971
  151SOL     OW 1351   4.360   0.583   1.628
  151SOL    HW1 1352   4.449   0.630   1.627
  151SOL    HW2 1353   4.375   0.484   1.636
  152SOL     OW 1354   6.946   1.424   0.445
  152SOL    HW1 1355   7.018   1.421   0.376
  152SOL    HW2 1356   6.985   1.406   0.536
  153SOL     OW 1357   3.033   0.656   3.687
  153SOL    HW1 1358   3.059   0.733   3.744
  153SOL    HW2 1359   3.031   0.572   3.742
  154SOL     OW 1360   6.742   2.500   0.186
  154SOL    HW1 1361   6.689   2.437   0.129
  154SOL    HW2 1362   6.730   2.476   0.283
  155SOL     OW 1363   0.434   0.234   1.784
  155SOL    HW1 1364   0.525   0.252   1.821
  155SOL    HW2 1365   0.423   0.136   1.768
  156SOL     OW 1366   6.241   1.747   0.620
  156SOL    HW1 1367   6.213   1.736   0.715
  156SOL    HW2 1368   6.186   1.688   0.561
  157SOL     OW 1369   5.790   2.972   0.096
  157SOL    HW1 1370   5.836   3.029   0.164
  157SOL    HW2 1371   5.749   3.030   0.026
  158SOL     OW 1372   1.633   2.372   1.679
  158SOL    HW1 1373   1.733   2.384   1.675
  158SOL    HW2 1374   1.591   2.457   1.710
  159SOL     OW 1375   4.275   4.540   1.245
  159SOL    HW1 1376   4.343   4.501   1.183
  159SOL    HW2 1377   4.183   4.522   1.210
  160SOL     OW 1378   6.380   0.293   1.621
  160SOL    HW1 1379   6.459   0.331   1.573
  160SOL    HW2 1380   6.330   0.366   1.666
  161SOL     OW 1381   0.852   6.835   1.119
  161SOL    HW1 1382   0.755   6.853   1.103
  161SOL    HW2 1383   0.890   6.907   1.178
  162SOL     OW 1384   2.841   6.589   0.244
  162SOL    HW1 1385   2.761   6.591   0.305
  162SOL    HW2 1386   2.864   6.494   0.223
  163SOL     OW 1387   0.288   5.200   3.097
  163SOL    HW1 1388   0.245   5.200   3.187
  163SOL    HW2 1389   0.282   5.108   3.057
  164SOL     OW 1390   0.951   1.986   2.866
  164SOL    HW1 1391   0.945   1.888   2.885
  164SOL    HW2 1392   0.916   2.005   2.774
  165SOL     OW 1393   6.420   5.575   1.968
  165SOL    HW1 1394   6.483   5.633   2.019
  165SOL    HW2 1395   6.413   5.609   1.874
  166SOL     OW 1396   6.651   3.664   1.680
  166SOL    HW1 1397   6.711   3.670   1.760
  166SOL    HW2 1398   6.564   3.622   1.707
  167SOL     OW 1399   5.437   1.593   6.846
  167SOL    HW1 1400   5.344   1.577   6.877
  167SOL    HW2 1401   5.446   1.688   6.816
  168SOL     OW 1402   3.676   2.568   1.243
  168SOL    HW1 1403   3.653   2.512   1.323
  168SOL    HW2 1404   3.654   2.664   1.262
  169SOL     OW 1405   6.095   2.949   6.938
  169SOL    HW1 1406   6.056   2.876   6.995
  169SOL    HW2 1407   6.132   3.020   6.997
  170SOL     OW 1408   0.332   5.754   3.549
  170SOL    HW1 1409   0.304   5.773   3.644
  170SOL    HW2 1410   0.276   5.807   3.487
  171SOL     OW 1411   1.748   3.644   6.680
  171SOL    HW1 1412   1.685   3.668   6.607
  171SOL    HW2 1413   1.752   3.545   6.691
  172SOL     OW 1414   6.141   2.812   2.421
  172SOL    HW1 1415   6.073   2.877   2.388
  172SOL    HW2 1416   6.098   2.724   2.437
  173SOL     OW 1417   5.864   1.466   4.281
  173SOL    HW1 1418   5.915   1.485   4.364
  173SOL    HW2 1419   5.861   1.368   4.265
  174SOL     OW 1420   5.356   5.329   4.795
  174SOL    HW1 1421   5.434   5.280   4.835
  174SOL    HW2 1422   5.294   5.263   4.753
  175SOL     OW 1423   2.910   0.306   1.188
  175SOL    HW1 1424   2.991   0.315   1.246
  175SOL    HW2 1425   2.873   0.213   1.197
  176SOL     OW 1426   4.698   4.182   3.335
  176SOL    HW1 1427   4.795   4.171   3.356
  176SOL    HW2 1428   4.647   4.105   3.373
  177SOL     OW 1429   5.299   2.350   5.436
  177SOL    HW1 1430   5.266   2.358   5.530
  177SOL    HW2 1431   5.374   2.285   5.432
  178SOL     OW 1432   3.073   4.881   4.240
  178SOL    HW1 1433   3.104   4.972   4.267
  178SOL    HW2 1434   3.044   4.830   4.321
  179SOL     OW 1435   4.033   6.352   0.082
  179SOL    HW1 1436   4.070   6.437   0.045
  179SOL    HW2 1437   4.045   6.352   0.182
  180SOL     OW 1438   2.379   6.587   0.222
  180SOL    HW1 1439   2.466   6.543   0.200
  180SOL    HW2 1440   2.304   6.522   0.208
  181SOL     OW 1441   3.184   2.456   5.754
  181SOL    HW1 1442   3.257   2.505   5.801
  181SOL    HW2 1443   3.223   2.396   5.684
  182SOL     OW 1444   4.584   3.138   6.755
  182SOL    HW1 1445   4.578   3.163   6.851
  182SOL    HW2 1446   4.541   3.048   6.741
  183SOL     OW 1447   4.169   1.878   3.771
  183SOL    HW1 1448   4.154   1.829   3.856
  183SOL    HW2 1449   4.084   1.922   3.743
  184SOL     OW 1450   1.079   6.909   3.157
  184SOL    HW1 1451   1.040   6.817   3.159
  184SOL    HW2 1452   1.113   6.932   3.249
  185SOL     OW 1453   1.153   1.498   3.871
  185SOL    HW1 1454   1.190   1.435   3.939
  185SOL    HW2 1455   1.053   1.490   3.871
  186SOL     OW 1456   5.423   6.659   4.069
  186SOL    HW1 1457   5.422   6.594   4.145
  186SOL    HW2 1458   5.335   6.655   4.021
  187SOL     OW 1459   4.548   5.941   2.239
  187SOL    HW1 1460   4.530   5.843   2.230
  187SOL    HW2 1461   4.506   5.990   2.162
  188SOL     OW 1462   1.047   1.926   3.131
  188SOL    HW1 1463   1.059   1.965   3.040
  188SOL    HW2 1464   0.953   1.895   3.143
  189SOL     OW 1465   0.189   4.619   6.412
  189SOL    HW1 1466   0.151   4.623   6.504
  189SOL    HW2 1467   0.193   4.524   6.381
  190SOL     OW 1468   5.667   4.915   6.942
  190SOL    HW1 1469   5.676   4.825   6.899
  190SOL    HW2 1470   5.690   4.907   0.014
  191SOL     OW 1471   6.665   1.501   5.689
  191SOL    HW1 1472   6.676   1.452   5.602
  191SOL    HW2 1473   6.568   1.517   5.705
  192SOL     OW 1474   0.621   4.807   1.363
  192SOL    HW1 1475   0.594   4.892   1.319
  192SOL    HW2 1476   0.606   4.730   1.301
  193SOL     OW 1477   4.711   4.812   5.458
  193SOL    HW1 1478   4.785   4.805   5.525
  193SOL    HW2 1479   4.748   4.841   5.370
  194SOL     OW 1480   4.366   6.962   1.929
  194SOL    HW1 1481   4.405   6.902   1.859
  194SOL    HW2 1482   4.368   0.032   1.897
  195SOL     OW 1483   2.338   0.720   3.763
  195SOL    HW1 1484   2.361   0.779   3.687
  195SOL    HW2 1485   2.412   0.722   3.831
  196SOL     OW 1486   3.293   0.255   7.011
  196SOL    HW1 1487   3.391   0.257   0.003
  196SOL    HW2 1488   3.272   0.309   6.929
  197SOL     OW 1489   3.053   5.763   6.958
  197SOL    HW1 1490   2.989   5.739   0.007
  197SOL    HW2 1491   3.078   5.681   6.907
  198SOL     OW 1492   4.267   6.445   0.904
  198SOL    HW1 1493   4.203   6.435   0.828
  198SOL    HW2 1494   4.298   6.540   0.909
  199SOL     OW 1495   6.603   0.950   2.776
  199SOL    HW1 1496   6.628   0.880   2.708
  199SOL    HW2 1497   6.669   1.025   2.773
  200SOL     OW 1498   0.685   3.431   2.413
  200SOL    HW1 1499   0.640   3.346   2.438
  200SOL    HW2 1500   0.649   3.506   2.469
  201SOL     OW 1501   3.148   6.480   5.744
  201SOL    HW1 1502   3.214   6.428   5.797
  201SOL    HW2 1503   3.061   6.483   5.793
  202SOL     OW 1504   5.153   0.379   5.140
  202SOL    HW1 1505   5.063   0.357   5.101
  202SOL    HW2 1506   5.141   0.445   5.214
  203SOL     OW 1507   4.660   2.473   5.610
  203SOL    HW1 1508   4.622   2.566   5.612
  203SOL    HW2 1509   4.600   2.412   5.662
  204SOL     OW 1510   0.686   0.223   6.755
  204SOL    HW1 1511   0.687   0.322   6.766
  204SOL    HW2 1512   0.707   0.179   6.843
  205SOL     OW 1513   0.734   1.550   1.621
  205SOL    HW1 1514   0.701   1.589   1.707
  205SOL    HW2 1515   0.663   1.560   1.551
  206SOL     OW 1516   0.138   5.042   2.044
  206SOL    HW1 1517   0.183   5.013   2.128
  206SOL    HW2 1518   0.152   5.140   2.030
  207SOL     OW 1519   4.077   0.662   5.190
  207SOL    HW1 1520   4.076   0.762   5.200
  207SOL    HW2 1521   3.993   0.624   5.228
  208SOL     OW 1522   5.476   4.093   5.312
  208SOL    HW1 1523   5.415   4.148   5.370
  208SOL    HW2 1524   5.479   4.133   5.220
  209SOL     OW 1525   0.634   5.592   5.611
  209SOL    HW1 1526   0.667   5.671   5.663
  209SOL    HW2 1527   0.545   5.614   5.571
  210SOL     OW 1528   4.167   2.126   2.384
  210SOL    HW1 1529   4.114   2.115   2.468
  210SOL    HW2 1530   4.235   2.053   2.377
  211SOL     OW 1531   1.022   6.684   3.501
  211SOL    HW1 1532   1.021   6.737   3.416
  211SOL    HW2 1533   0.988   6.591   3.483
  212SOL     OW 1534   1.978   4.930   1.809
  212SOL    HW1 1535   1.914   5.003   1.831
  212SOL    HW2 1536   1.934   4.864   1.748
  213SOL     OW 1537   4.243   0.724   0.081
  213SOL    HW1 1538   4.202   0.657   0.143
  213SOL    HW2 1539   4.210   0.708   7.012
  214SOL     OW 1540   1.926   5.882   2.627
  214SOL    HW1 1541   2.010   5.935   2.627
  214SOL    HW2 1542   1.933   5.806   2.562
  215SOL     OW 1543   3.618   4.138   2.311
  215SOL    HW1 1544   3.579   4.210   2.369
  215SOL    HW2 1545   3.545   4.091   2.262
  216SOL     OW 1546   1.589   6.975   4.632
  216SOL    HW1 1547   1.638   6.915   4.568
  216SOL    HW2 1548   1.655   0.009   4.679
  217SOL     OW 1549   2.010   2.742   4.777
  217SOL    HW1 1550   2.016   2.656   4.726
  217SOL    HW2 1551   2.101   2.774   4.801
  218SOL     OW 1552   1.171   2.693   5.101
  218SOL    HW1 1553   1.150   2.649   5.014
  218SOL    HW2 1554   1.270   2.707   5.107
  219SOL     OW 1555   3.851   4.669   5.796
  219SOL    HW1 1556   3.905   4.596   5.754
  219SOL    HW2 1557   3.818   4.638   5.885
  220SOL     OW 1558   3.430   5.078   0.072
  220SOL    HW1 1559   3.470   5.138   0.003
  220SOL    HW2 1560   3.503   5.037   0.127
  221SOL     OW 1561   5.772   4.193   2.453
  221SOL    HW1 1562   5.850   4.252   2.477
  221SOL    HW2 1563   5.767   4.116   2.516
  222SOL     OW 1564   1.624   4.949   5.343
  222SOL    HW1 1565   1.705   4.899   5.376
  222SOL    HW2 1566   1.563   4.886   5.295
  223SOL     OW 1567   0.596   3.339   0.799
  223SOL    HW1 1568   0.594   3.348   0.699
  223SOL    HW2 1569   0.600   3.242   0.824
  224SOL     OW 1570   2.967   2.263   3.902
  224SOL    HW1 1571   2.899   2.333   3.881
  224SOL    HW2 1572   2.963   2.240   3.999
  225SOL     OW 1573   5.362   1.347   6.576
  225SOL    HW1 1574   5.273   1.301   6.577
  225SOL    HW2 1575   5.357   1.428   6.518
  226SOL     OW 1576   0.759   6.327   6.801
  226SOL    HW1 1577   0.810   6.397   6.751
  226SOL    HW2 1578   0.661   6.345   6.793
  227SOL     OW 1579   1.140   4.432   3.011
  227SOL    HW1 1580   1.043   4.408   3.019
  227SOL    HW2 1581   1.150   4.531   3.011
  228SOL     OW 1582   2.989   0.217   3.807
  228SOL    HW1 1583   2.897   0.216   3.767
  228SOL    HW2 1584   3.023   0.310   3.809
  229SOL     OW 1585   6.399   5.722   0.960
  229SOL    HW1 1586   6.373   5.655   1.029
  229SOL    HW2 1587   6.498   5.727   0.954
  230SOL     OW 1588   2.768   4.744   3.325
  230SOL    HW1 1589   2.729   4.746   3.417
  230SOL    HW2 1590   2.699   4.713   3.260
  231SOL     OW 1591   6.501   2.559   5.948
  231SOL    HW1 1592   6.405   2.582   5.935
  231SOL    HW2 1593   6.512   2.460   5.951
  232SOL     OW 1594   0.712   4.258   6.138
  232SOL    HW1 1595   0.780   4.255   6.065
  232SOL    HW2 1596   0.700   4.353   6.168
  233SOL     OW 1597   2.388   1.088   4.580
  233SOL    HW1 1598   2.385   1.178   4.535
  233SOL    HW2 1599   2.466   1.085   4.643
  234SOL     OW 1600   2.643   5.355   5.454
  234SOL    HW1 1601   2.688   5.281   5.505
  234SOL    HW2 1602   2.701   5.382   5.378
  235SOL     OW 1603   3.641   2.817   2.266
  235SOL    HW1 1604   3.659   2.776   2.176
  235SOL    HW2 1605   3.545   2.844   2.272
  236SOL     OW 1606   5.722   3.368   6.689
  236SOL    HW1 1607   5.793   3.377   6.620
  236SOL    HW2 1608   5.708   3.271   6.712
  237SOL     OW 1609   0.391   6.609   0.767
  237SOL    HW1 1610   0.311   6.565   0.726
  237SOL    HW2 1611   0.373   6.706   0.780
  238SOL     OW 1612   6.773   2.893   0.693
  238SOL    HW1 1613   6.848   2.913   0.755
  238SOL    HW2 1614   6.809   2.858   0.607
  239SOL     OW 1615   6.636   4.650   0.136
  239SOL    HW1 1616   6.627   4.610   0.045
  239SOL    HW2 1617   6.547   4.646   0.183
  240SOL     OW 1618   0.303   2.965   6.020
  240SOL    HW1 1619   0.261   2.885   5.977
  240SOL    HW2 1620   0.249   2.992   6.100
  241SOL     OW 1621   0.664   0.485   4.013
  241SOL    HW1 1622   0.607   0.442   4.083
  241SOL    HW2 1623   0.612   0.491   3.927
  242SOL     OW 1624   1.127   2.332   6.234
  242SOL    HW1 1625   1.191   2.368   6.166
  242SOL    HW2 1626   1.129   2.389   6.315
  243SOL     OW 1627   4.457   0.295   5.811
  243SOL    HW1 1628   4.409   0.261   5.892
  243SOL    HW2 1629   4.468   0.394   5.818
  244SOL     OW 1630   4.749   2.699   4.155
  244SOL    HW1 1631   4.668   2.711   4.213
  244SOL    HW2 1632   4.824   2.664   4.211
  245SOL     OW 1633   6.880   2.684   4.370
  245SOL    HW1 1634   6.906   2.777   4.398
  245SOL    HW2 1635   6.860   2.684   4.273
  246SOL     OW 1636   5.397   3.531   3.674
  246SOL    HW1 1637   5.424   3.586   3.595
  246SOL    HW2 1638   5.444   3.564   3.756
  247SOL     OW 1639   2.837   1.427   2.881
  247SOL    HW1 1640   2.886   1.362   2.939
  247SOL    HW2 1641   2.821   1.511   2.932
  248SOL     OW 1642   4.655   2.376   4.265
  248SOL    HW1 1643   4.696   2.437   4.333
  248SOL    HW2 1644   4.728   2.334   4.211
  249SOL     OW 1645   3.439   6.897   4.849
  249SOL    HW1 1646   3.352   6.908   4.898
  249SOL    HW2 1647   3.423   6.904   4.751
  250SOL     OW 1648   5.392   1.737   5.777
  250SOL    HW1 1649   5.296   1.711   5.768
  250SOL    HW2 1650   5.445   1.697   5.703
  251SOL     OW 1651   4.532   3.541   6.073
  251SOL    HW1 1652   4.524   3.589   6.160
  251SOL    HW2 1653   4.592   3.592   6.012
  252SOL     OW 1654   6.979   1.159   6.135
  252SOL    HW1 1655   7.017   1.250   6.118
  252SOL    HW2 1656   6.907   1.167   6.205
  253SOL     OW 1657   2.673   4.541   0.225
  253SOL    HW1 1658   2.744   4.602   0.191
  253SOL    HW2 1659   2.657   4.468   0.159
  254SOL     OW 1660   6.238   2.484   3.691
  254SOL    HW1 1661   6.220   2.572   3.734
  254SOL    HW2 1662   6.286   2.425   3.756
  255SOL     OW 1663   2.915   1.880   4.168
  255SOL    HW1 1664   2.998   1.826   4.176
  255SOL    HW2 1665   2.859   1.867   4.251
  256SOL     OW 1666   6.858   4.832   0.163
  256SOL    HW1 1667   6.854   4.880   0.251
  256SOL    HW2 1668   6.778   4.774   0.152
  257SOL     OW 1669   3.224   5.544   5.317
  257SOL    HW1 1670   3.211   5.488   5.235
  257SOL    HW2 1671   3.148   5.529   5.380
  258SOL     OW 1672   5.274   3.554   4.908
  258SOL    HW1 1673   5.331   3.582   4.832
  258SOL    HW2 1674   5.265   3.630   4.973
  259SOL     OW 1675   1.631   2.984   2.891
  259SOL    HW1 1676   1.581   2.907   2.930
  259SOL    HW2 1677   1.568   3.045   2.843
  260SOL     OW 1678   4.695   0.178   0.726
  260SOL    HW1 1679   4.641   0.189   0.809
  260SOL    HW2 1680   4.658   0.103   0.671
  261SOL     OW 1681   0.700   3.610   1.174
  261SOL    HW1 1682   0.659   3.539   1.118
  261SOL    HW2 1683   0.630   3.653   1.231
  262SOL     OW 1684   0.774   4.301   2.265
  262SOL    HW1 1685   0.696   4.239   2.272
  262SOL    HW2 1686   0.753   4.375   2.202
  263SOL     OW 1687   0.098   1.909   4.398
  263SOL    HW1 1688   0.145   1.835   4.446
  263SOL    HW2 1689   0.166   1.968   4.354
  264SOL     OW 1690   6.688   3.488   5.574
  264SOL    HW1 1691   6.663   3.557   5.641
  264SOL    HW2 1692   6.683   3.527   5.482
  265SOL     OW 1693   5.250   3.934   3.332
  265SOL    HW1 1694   5.259   3.909   3.429
  265SOL    HW2 1695   5.340   3.927   3.288
  266SOL     OW 1696   3.404   2.229   6.743
  266SOL    HW1 1697   3.371   2.190   6.657
  266SOL    HW2 1698   3.434   2.323   6.729
  267SOL     OW 1699   1.198   3.067   0.083
  267SOL    HW1 1700   1.103   3.083   0.055
  267SOL    HW2 1701   1.204   2.977   0.126
  268SOL     OW 1702   4.810   5.266   4.851
  268SOL    HW1 1703   4.719   5.272   4.811
  268SOL    HW2 1704   4.806   5.290   4.948
  269SOL     OW 1705   1.911   2.078   6.631
  269SOL    HW1 1706   1.929   2.176   6.632
  269SOL    HW2 1707   1.963   2.035   6.557
  270SOL     OW 1708   4.996   0.909   2.332
  270SOL    HW1 1709   4.950   0.829   2.369
  270SOL    HW2 1710   5.090   0.885   2.307
  271SOL     OW 1711   2.035   1.930   0.860
  271SOL    HW1 1712   2.049   2.003   0.927
  271SOL    HW2 1713   1.945   1.888   0.875
  272SOL     OW 1714   4.019   5.558   4.026
  272SOL    HW1 1715   4.109   5.591   4.055
  272SOL    HW2 1716   3.953   5.632   4.035
  273SOL     OW 1717   1.257   5.605   5.151
  273SOL    HW1 1718   1.289   5.695   5.181
  273SOL    HW2 1719   1.313   5.573   5.074
  274SOL     OW 1720   5.065   2.728   3.596
  274SOL    HW1 1721   5.035   2.698   3.505
  274SOL    HW2 1722   4.992   2.781   3.640
  275SOL     OW 1723   0.705   5.186   6.280
  275SOL    HW1 1724   0.716   5.089   6.257
  275SOL    HW2 1725   0.621   5.220   6.238
  276SOL     OW 1726   6.402   5.579   4.076
  276SOL    HW1 1727   6.352   5.649   4.125
  276SOL    HW2 1728   6.351   5.493   4.080
  277SOL     OW 1729   2.830   0.714   5.976
  277SOL    HW1 1730   2.735   0.692   6.000
  277SOL    HW2 1731   2.869   0.774   6.045
  278SOL     OW 1732   5.431   3.536   2.406
  278SOL    HW1 1733   5.461   3.497   2.319
  278SOL    HW2 1734   5.473   3.486   2.482
  279SOL     OW 1735   6.442   3.128   3.860
  279SOL    HW1 1736   6.455   3.187   3.780
  279SOL    HW2 1737   6.524   3.074   3.875
  280SOL     OW 1738   4.651   6.728   3.987
  280SOL    HW1 1739   4.554   6.705   3.993
  280SOL    HW2 1740   4.663   6.826   4.002
  281SOL     OW 1741   3.256   5.232   3.665
  281SOL    HW1 1742   3.314   5.309   3.640
  281SOL    HW2 1743   3.305   5.173   3.729
  282SOL     OW 1744   3.856   2.268   5.455
  282SOL    HW1 1745   3.761   2.296   5.466
  282SOL    HW2 1746   3.894   2.243   5.544
  283SOL     OW 1747   6.139   6.583   5.194
  283SOL    HW1 1748   6.147   6.486   5.219
  283SOL    HW2 1749   6.088   6.592   5.109
  284SOL     OW 1750   0.484   4.450   4.332
  284SOL    HW1 1751   0.435   4.407   4.256
  284SOL    HW2 1752   0.455   4.546   4.339
  285SOL     OW 1753   5.321   6.254   0.212
  285SOL    HW1 1754   5.235   6.206   0.230
  285SOL    HW2 1755   5.332   6.329   0.277
  286SOL     OW 1756   3.844   4.872   5.625
  286SOL    HW1 1757   3.827   4.800   5.693
  286SOL    HW2 1758   3.903   4.942   5.665
  287SOL     OW 1759   1.512   5.626   6.264
  287SOL    HW1 1760   1.532   5.539   6.219
  287SOL    HW2 1761   1.512   5.613   6.363
  288SOL     OW 1762   4.180   0.714   1.108
  288SOL    HW1 1763   4.170   0.807   1.073
  288SOL    HW2 1764   4.154   0.712   1.204
  289SOL     OW 1765   1.380   5.567   5.854
  289SOL    HW1 1766   1.419   5.475   5.855
  289SOL    HW2 1767   1.451   5.634   5.876
  290SOL     OW 1768   4.417   0.391   3.286
  290SOL    HW1 1769   4.512   0.361   3.284
  290SOL    HW2 1770   4.414   0.491   3.283
  291SOL     OW 1771   4.137   1.143   3.750
  291SOL    HW1 1772   4.041   1.137   3.723
  291SOL    HW2 1773   4.144   1.141   3.849
  292SOL     OW 1774   4.062   0.826   3.434
  292SOL    HW1 1775   4.138   0.875   3.392
  292SOL    HW2 1776   4.039   0.746   3.378
  293SOL     OW 1777   4.485   6.037   1.631
  293SOL    HW1 1778   4.419   6.066   1.562
  293SOL    HW2 1779   4.519   6.117   1.681
  294SOL     OW 1780   5.974   6.134   6.151
  294SOL    HW1 1781   5.956   6.122   6.249
  294SOL    HW2 1782   6.071   6.149   6.137
  295SOL     OW 1783   1.454   2.604   5.748
  295SOL    HW1 1784   1.358   2.609   5.720
  295SOL    HW2 1785   1.502   2.540   5.688
  296SOL     OW 1786   6.377   2.186   1.246
  296SOL    HW1 1787   6.284   2.176   1.210
  296SOL    HW2 1788   6.442   2.159   1.176
  297SOL     OW 1789   4.444   4.888   3.566
  297SOL    HW1 1790   4.417   4.805   3.615
  297SOL    HW2 1791   4.492   4.863   3.482
  298SOL     OW 1792   4.006   0.732   0.496
  298SOL    HW1 1793   3.994   0.650   0.553
  298SOL    HW2 1794   4.080   0.788   0.533
  299SOL     OW 1795   3.704   1.792   0.040
  299SOL    HW1 1796   3.731   1.724   6.998
  299SOL    HW2 1797   3.610   1.821   0.022
  300SOL     OW 1798   3.649   0.949   2.607
  300SOL    HW1 1799   3.677   1.025   2.548
  300SOL    HW2 1800   3.578   0.895   2.560
  301SOL     OW 1801   5.076   0.668   1.567
  301SOL    HW1 1802   5.155   0.717   1.602
  301SOL    HW2 1803   4.992   0.716   1.593
  302SOL     OW 1804   0.614   0.243   2.120
  302SOL    HW1 1805   0.596   0.314   2.188
  302SOL    HW2 1806   0.652   0.285   2.037
  303SOL     OW 1807   5.757   5.934   1.562
  303SOL    HW1 1808   5.758   6.031   1.584
  303SOL    HW2 1809   5.719   5.883   1.639
  304SOL     OW 1810   2.136   6.326   6.148
  304SOL    HW1 1811   2.173   6.343   6.057
  304SOL    HW2 1812   2.210   6.332   6.216
  305SOL     OW 1813   1.426   3.119   0.602
  305SOL    HW1 1814   1.379   3.031   0.607
  305SOL    HW2 1815   1.372   3.189   0.650
  306SOL     OW 1816   0.336   1.037   2.762
  306SOL    HW1 1817   0.430   1.039   2.725
  306SOL    HW2 1818   0.279   0.980   2.703
  307SOL     OW 1819   3.501   3.994   0.498
  307SOL    HW1 1820   3.528   4.057   0.571
  307SOL    HW2 1821   3.434   3.929   0.534
  308SOL     OW 1822   5.985   2.806   4.163
  308SOL    HW1 1823   6.027   2.755   4.238
  308SOL    HW2 1824   5.997   2.756   4.077
  309SOL     OW 1825   1.589   6.301   0.453
  309SOL    HW1 1826   1.642   6.338   0.376
  309SOL    HW2 1827   1.558   6.377   0.511
  310SOL     OW 1828   5.770   6.307   4.002
  310SOL    HW1 1829   5.711   6.335   3.926
  310SOL    HW2 1830   5.853   6.264   3.966
  311SOL     OW 1831   2.444   4.471   2.219
  311SOL    HW1 1832   2.405   4.390   2.262
  311SOL    HW2 1833   2.526   4.499   2.268
  312SOL     OW 1834   4.068   2.220   4.452
  312SOL    HW1 1835   4.077   2.236   4.550
  312SOL    HW2 1836   3.985   2.266   4.419
  313SOL     OW 1837   2.918   3.723   2.786
  313SOL    HW1 1838   2.958   3.815   2.792
  313SOL    HW2 1839   2.934   3.674   2.872
  314SOL     OW 1840   2.065   4.972   5.113
  314SOL    HW1 1841   1.969   4.949   5.131
  314SOL    HW2 1842   2.103   4.907   5.048
  315SOL     OW 1843   0.498   1.838   3.591
  315SOL    HW1 1844   0.546   1.786   3.661
  315SOL    HW2 1845   0.514   1.936   3.606
  316SOL     OW 1846   4.194   1.206   4.557
  316SOL    HW1 1847   4.164   1.223   4.651
  316SOL    HW2 1848   4.294   1.204   4.554
  317SOL     OW 1849   1.196   1.434   1.643
  317SOL    HW1 1850   1.109   1.470   1.611
  317SOL    HW2 1851   1.234   1.494   1.713
  318SOL     OW 1852   5.808   0.576   6.380
  318SOL    HW1 1853   5.797   0.662   6.329
  318SOL    HW2 1854   5.724   0.522   6.371
  319SOL     OW 1855   6.630   2.091   3.277
  319SOL    HW1 1856   6.553   2.142   3.239
  319SOL    HW2 1857   6.600   2.041   3.358
  320SOL     OW 1858   6.226   3.185   0.222
  320SOL    HW1 1859   6.297   3.132   0.268
  320SOL    HW2 1860   6.258   3.213   0.132
  321SOL     OW 1861   4.108   2.252   0.919
  321SOL    HW1 1862   4.178   2.315   0.951
  321SOL    HW2 1863   4.146   2.160   0.914
  322SOL     OW 1864   3.895   2.951   4.345
  322SOL    HW1 1865   3.935   2.903   4.423
  322SOL    HW2 1866   3.926   3.046   4.345
  323SOL     OW 1867   1.338   2.338   4.487
  323SOL    HW1 1868   1.402   2.344   4.564
  323SOL    HW2 1869   1.390   2.344   4.401
  324SOL     OW 1870   2.145   6.947   3.574
  324SOL    HW1 1871   2.114   6.929   3.668
  324SOL    HW2 1872   2.176   0.017   3.567
  325SOL     OW 1873   1.264   4.140   2.487
  325SOL    HW1 1874   1.328   4.063   2.481
  325SOL    HW2 1875   1.171   4.107   2.468
  326SOL     OW 1876   1.053   4.198   5.419
  326SOL    HW1 1877   1.089   4.256   5.345
  326SOL    HW2 1878   0.968   4.156   5.389
  327SOL     OW 1879   2.616   4.628   2.411
  327SOL    HW1 1880   2.533   4.683   2.403
  327SOL    HW2 1881   2.605   4.562   2.485
  328SOL     OW 1882   1.724   5.027   1.225
  328SOL    HW1 1883   1.771   5.009   1.311
  328SOL    HW2 1884   1.683   5.118   1.227
  329SOL     OW 1885   2.357   3.695   5.868
  329SOL    HW1 1886   2.383   3.630   5.798
  329SOL    HW2 1887   2.310   3.773   5.826
  330SOL     OW 1888   3.559   6.443   0.302
  330SOL    HW1 1889   3.585   6.497   0.382
  330SOL    HW2 1890   3.599   6.484   0.220
  331SOL     OW 1891   5.818   5.147   1.085
  331SOL    HW1 1892   5.804   5.244   1.105
  331SOL    HW2 1893   5.771   5.125   0.999
  332SOL     OW 1894   5.769   1.904   3.888
  332SOL    HW1 1895   5.763   1.857   3.799
  332SOL    HW2 1896   5.684   1.888   3.939
  333SOL     OW 1897   4.424   0.953   5.331
  333SOL    HW1 1898   4.382   1.024   5.387
  333SOL    HW2 1899   4.482   0.996   5.261
  334SOL     OW 1900   3.739   2.386   0.857
  334SOL    HW1 1901   3.732   2.337   0.770
  334SOL    HW2 1902   3.773   2.324   0.928
  335SOL     OW 1903   4.238   0.453   6.632
  335SOL    HW1 1904   4.325   0.482   6.672
  335SOL    HW2 1905   4.254   0.421   6.538
  336SOL     OW 1906   3.011   1.151   2.976
  336SOL    HW1 1907   3.084   1.108   3.029
  336SOL    HW2 1908   3.034   1.149   2.879
  337SOL     OW 1909   1.287   2.400   6.039
  337SOL    HW1 1910   1.375   2.442   6.059
  337SOL    HW2 1911   1.276   2.392   5.940
  338SOL     OW 1912   3.541   3.128   1.625
  338SOL    HW1 1913   3.493   3.059   1.679
  338SOL    HW2 1914   3.635   3.098   1.608
  339SOL     OW 1915   4.554   5.461   4.609
  339SOL    HW1 1916   4.474   5.516   4.584
  339SOL    HW2 1917   4.637   5.516   4.596
  340SOL     OW 1918   4.965   3.332   5.010
  340SOL    HW1 1919   4.953   3.431   5.007
  340SOL    HW2 1920   5.061   3.308   4.997
  341SOL     OW 1921   5.226   6.868   4.213
  341SOL    HW1 1922   5.198   6.868   4.117
  341SOL    HW2 1923   5.325   6.879   4.219
  342SOL     OW 1924   4.636   2.962   0.414
  342SOL    HW1 1925   4.695   3.042   0.404
  342SOL    HW2 1926   4.544   2.983   0.380
  343SOL     OW 1927   0.114   6.527   2.469
  343SOL    HW1 1928   0.100   6.573   2.557
  343SOL    HW2 1929   0.211   6.507   2.457
  344SOL     OW 1930   0.952   2.444   2.025
  344SOL    HW1 1931   0.953   2.358   1.975
  344SOL    HW2 1932   0.861   2.459   2.063
  345SOL     OW 1933   6.219   2.059   4.032
  345SOL    HW1 1934   6.141   2.000   4.009
  345SOL    HW2 1935   6.275   2.015   4.102
  346SOL     OW 1936   1.532   0.248   2.645
  346SOL    HW1 1937   1.483   0.172   2.602
  346SOL    HW2 1938   1.626   0.221   2.663
  347SOL     OW 1939   2.962   5.635   0.161
  347SOL    HW1 1940   2.964   5.563   0.092
  347SOL    HW2 1941   2.905   5.607   0.238
  348SOL     OW 1942   4.825   4.880   3.241
  348SOL    HW1 1943   4.905   4.927   3.204
  348SOL    HW2 1944   4.749   4.945   3.251
  349SOL     OW 1945   6.660   4.739   2.097
  349SOL    HW1 1946   6.612   4.675   2.158
  349SOL    HW2 1947   6.755   4.748   2.127
  350SOL     OW 1948   2.955   3.384   0.941
  350SOL    HW1 1949   2.921   3.401   1.034
  350SOL    HW2 1950   2.964   3.285   0.927
  351SOL     OW 1951   2.500   3.425   0.702
  351SOL    HW1 1952   2.548   3.506   0.668
  351SOL    HW2 1953   2.566   3.361   0.742
  352SOL     OW 1954   3.691   6.692   3.405
  352SOL    HW1 1955   3.717   6.598   3.383
  352SOL    HW2 1956   3.592   6.698   3.414
  353SOL     OW 1957   2.943   0.347   6.421
  353SOL    HW1 1958   3.031   0.395   6.424
  353SOL    HW2 1959   2.956   0.252   6.448
  354SOL     OW 1960   4.732   2.642   1.342
  354SOL    HW1 1961   4.830   2.648   1.360
  354SOL    HW2 1962   4.695   2.559   1.385
  355SOL     OW 1963   1.817   3.850   2.499
  355SOL    HW1 1964   1.758   3.871   2.421
  355SOL    HW2 1965   1.823   3.751   2.510
  356SOL     OW 1966   2.466   1.141   5.375
  356SOL    HW1 1967   2.498   1.121   5.283
  356SOL    HW2 1968   2.540   1.125   5.441
  357SOL     OW 1969   6.352   6.138   4.784
  357SOL    HW1 1970   6.252   6.147   4.789
  357SOL    HW2 1971   6.379   6.124   4.689
  358SOL     OW 1972   4.752   6.674   0.444
  358SOL    HW1 1973   4.754   6.760   0.494
  358SOL    HW2 1974   4.842   6.630   0.449
  359SOL     OW 1975   3.116   1.021   2.025
  359SOL    HW1 1976   3.069   0.947   2.073
  359SOL    HW2 1977   3.204   1.038   2.069
  360SOL     OW 1978   1.728   3.588   4.755
  360SOL    HW1 1979   1.683   3.677   4.764
  360SOL    HW2 1980   1.693   3.541   4.675
  361SOL     OW 1981   6.386   5.686   2.995
  361SOL    HW1 1982   6.349   5.763   3.046
  361SOL    HW2 1983   6.427   5.718   2.910
  362SOL     OW 1984   3.419   2.908   1.753
  362SOL    HW1 1985   3.329   2.906   1.796
  362SOL    HW2 1986   3.436   2.819   1.709
  363SOL     OW 1987   5.296   4.733   2.915
  363SOL    HW1 1988   5.309   4.782   3.000
  363SOL    HW2 1989   5.244   4.789   2.851
  364SOL     OW 1990   6.925   5.047   7.024
  364SOL    HW1 1991   6.952   5.123   0.058
  364SOL    HW2 1992   6.913   4.965   0.056
  365SOL     OW 1993   4.561   0.167   0.961
  365SOL    HW1 1994   4.523   0.257   0.981
  365SOL    HW2 1995   4.613   0.134   1.041
  366SOL     OW 1996   6.223   2.367   6.487
  366SOL    HW1 1997   6.196   2.456   6.450
  366SOL    HW2 1998   6.302   2.332   6.436
  367SOL     OW 1999   5.872   2.561   6.399
  367SOL    HW1 2000   5.902   2.603   6.485
  367SOL    HW2 2001   5.951   2.518   6.355
  368SOL     OW 2002   0.014   2.522   5.468
  368SOL    HW1 2003   0.094   2.486   5.515
  368SOL    HW2 2004   0.019   2.498   5.371
  369SOL     OW 2005   5.896   4.845   3.254
  369SOL    HW1 2006   5.989   4.841   3.218
  369SOL    HW2 2007   5.837   4.782   3.203
  370SOL     OW 2008   0.882   2.226   4.098
  370SOL    HW1 2009   0.859   2.321   4.078
  370SOL    HW2 2010   0.975   2.220   4.133
  371SOL     OW 2011   1.791   4.533   6.481
  371SOL    HW1 2012   1.756   4.470   6.550
  371SOL    HW2 2013   1.866   4.489   6.431
  372SOL     OW 2014   2.011   6.559   5.859
  372SOL    HW1 2015   1.927   6.513   5.889
  372SOL    HW2 2016   1.993   6.657   5.851
  373SOL     OW 2017   5.565   6.219   5.713
  373SOL    HW1 2018   5.554   6.280   5.634
  373SOL    HW2 2019   5.540   6.268   5.796
  374SOL     OW 2020   2.702   2.414   3.299
  374SOL    HW1 2021   2.654   2.428   3.385
  374SOL    HW2 2022   2.791   2.372   3.317
  375SOL     OW 2023   0.916   4.449   4.190
  375SOL    HW1 2024   0.875   4.529   4.234
  375SOL    HW2 2025   0.944   4.383   4.260
  376SOL     OW 2026   1.431   1.392   5.197
  376SOL    HW1 2027   1.366   1.431   5.132
  376SOL    HW2 2028   1.523   1.392   5.157
  377SOL     OW 2029   1.746   1.930   0.016
  377SOL    HW1 2030   1.833   1.955   6.999
  377SOL    HW2 2031   1.755   1.930   0.115
  378SOL     OW 2032   4.017   1.675   1.054
  378SOL    HW1 2033   4.091   1.649   0.992
  378SOL    HW2 2034   4.052   1.739   1.123
  379SOL     OW 2035   5.454   2.692   0.128
  379SOL    HW1 2036   5.380   2.640   0.171
  379SOL    HW2 2037   5.505   2.742   0.198
  380SOL     OW 2038   3.227   1.386   1.269
  380SOL    HW1 2039   3.189   1.335   1.346
  380SOL    HW2 2040   3.326   1.398   1.283
  381SOL     OW 2041   1.634   3.884   3.670
  381SOL    HW1 2042   1.692   3.803   3.678
  381SOL    HW2 2043   1.671   3.944   3.599
  382SOL     OW 2044   5.988   1.156   0.418
  382SOL    HW1 2045   5.906   1.145   0.360
  382SOL    HW2 2046   5.990   1.084   0.486
  383SOL     OW 2047   3.779   3.212   0.103
  383SOL    HW1 2048   3.793   3.113   0.098
  383SOL    HW2 2049   3.796   3.252   0.014
  384SOL     OW 2050   6.838   5.620   4.834
  384SOL    HW1 2051   6.826   5.556   4.910
  384SOL    HW2 2052   6.935   5.623   4.808
  385SOL     OW 2053   3.068   5.187   5.522
  385SOL    HW1 2054   3.115   5.124   5.584
  385SOL    HW2 2055   3.134   5.228   5.460
  386SOL     OW 2056   3.006   6.620   4.340
  386SOL    HW1 2057   3.083   6.665   4.295
  386SOL    HW2 2058   3.022   6.614   4.438
  387SOL     OW 2059   0.615   5.327   2.676
  387SOL    HW1 2060   0.586   5.271   2.599
  387SOL    HW2 2061   0.589   5.422   2.660
  388SOL     OW 2062   2.193   2.156   6.376
  388SOL    HW1 2063   2.096   2.162   6.351
  388SOL    HW2 2064   2.249   2.167   6.294
  389SOL     OW 2065   3.666   3.748   2.614
  389SOL    HW1 2066   3.754   3.744   2.663
  389SOL    HW2 2067   3.593   3.768   2.679
  390SOL     OW 2068   2.658   1.204   3.440
  390SOL    HW1 2069   2.560   1.203   3.424
  390SOL    HW2 2070   2.678   1.251   3.526
  391SOL     OW 2071   2.323   2.147   5.882
  391SOL    HW1 2072   2.244   2.151   5.821
  391SOL    HW2 2073   2.391   2.215   5.852
  392SOL     OW 2074   1.660   4.417   0.749
  392SOL    HW1 2075   1.679   4.445   0.843
  392SOL    HW2 2076   1.743   4.384   0.706
  393SOL     OW 2077   0.602   4.570   6.767
  393SOL    HW1 2078   0.547   4.550   6.686
  393SOL    HW2 2079   0.680   4.627   6.741
  394SOL     OW 2080   0.077   0.899   7.002
  394SOL    HW1 2081   0.084   0.886   6.903
  394SOL    HW2 2082   7.024   0.846   0.013
  395SOL     OW 2083   4.932   3.571   3.312
  395SOL    HW1 2084   4.947   3.653   3.367
  395SOL    HW2 2085   4.950   3.489   3.368
  396SOL     OW 2086   4.113   3.633   2.498
  396SOL    HW1 2087   4.084   3.711   2.553
  396SOL    HW2 2088   4.033   3.596   2.449
  397SOL     OW 2089   4.717   2.051   5.498
  397SOL    HW1 2090   4.772   2.129   5.467
  397SOL    HW2 2091   4.626   2.056   5.456
  398SOL     OW 2092   0.839   6.253   2.597
  398SOL    HW1 2093   0.860   6.158   2.620
  398SOL    HW2 2094   0.873   6.313   2.669
  399SOL     OW 2095   5.370   6.108   2.814
  399SOL    HW1 2096   5.311   6.130   2.891
  399SOL    HW2 2097   5.321   6.125   2.728
  400SOL     OW 2098   6.255   6.725   5.780
  400SOL    HW1 2099   6.299   6.812   5.758
  400SOL    HW2 2100   6.157   6.740   5.792
  401SOL     OW 2101   5.169   1.096   5.615
  401SOL    HW1 2102   5.105   1.108   5.691
  401SOL    HW2 2103   5.249   1.045   5.648
  402SOL     OW 2104   5.691   0.580   3.257
  402SOL    HW1 2105   5.677   0.560   3.160
  402SOL    HW2 2106   5.745   0.663   3.267
  403SOL     OW 2107   4.651   1.832   4.358
  403SOL    HW1 2108   4.585   1.865   4.425
  403SOL    HW2 2109   4.695   1.749   4.391
  404SOL     OW 2110   1.420   6.108   3.930
  404SOL    HW1 2111   1.359   6.111   4.009
  404SOL    HW2 2112   1.464   6.018   3.924
  405SOL     OW 2113   1.850   3.626   1.961
  405SOL    HW1 2114   1.928   3.611   2.021
  405SOL    HW2 2115   1.881   3.666   1.875
  406SOL     OW 2116   1.137   4.277   4.377
  406SOL    HW1 2117   1.219   4.228   4.348
  406SOL    HW2 2118   1.096   4.230   4.456
  407SOL     OW 2119   2.166   0.594   3.423
  407SOL    HW1 2120   2.226   0.526   3.381
  407SOL    HW2 2121   2.193   0.608   3.518
  408SOL     OW 2122   0.934   2.206   3.220
  408SOL    HW1 2123   0.951   2.112   3.248
  408SOL    HW2 2124   0.841   2.233   3.246
  409SOL     OW 2125   6.756   2.501   0.737
  409SOL    HW1 2126   6.760   2.556   0.821
  409SOL    HW2 2127   6.712   2.413   0.757
  410SOL     OW 2128   1.346   0.194   0.921
  410SOL    HW1 2129   1.361   0.281   0.874
  410SOL    HW2 2130   1.281   0.139   0.868
  411SOL     OW 2131   5.201   6.883   0.273
  411SOL    HW1 2132   5.114   6.919   0.242
  411SOL    HW2 2133   5.252   6.847   0.194
  412SOL     OW 2134   5.227   6.593   3.839
  412SOL    HW1 2135   5.166   6.670   3.857
  412SOL    HW2 2136   5.318   6.627   3.815
  413SOL     OW 2137   5.684   5.175   2.127
  413SOL    HW1 2138   5.606   5.166   2.189
  413SOL    HW2 2139   5.764   5.129   2.166
  414SOL     OW 2140   4.004   5.476   3.423
  414SOL    HW1 2141   4.070   5.483   3.498
  414SOL    HW2 2142   3.914   5.507   3.455
  415SOL     OW 2143   1.217   5.940   6.607
  415SOL    HW1 2144   1.263   5.937   6.518
  415SOL    HW2 2145   1.118   5.944   6.594
  416SOL     OW 2146   4.998   5.613   3.888
  416SOL    HW1 2147   4.947   5.601   3.973
  416SOL    HW2 2148   5.096   5.614   3.907
  417SOL     OW 2149   2.561   5.159   0.371
  417SOL    HW1 2150   2.495   5.144   0.445
  417SOL    HW2 2151   2.513   5.160   0.284
  418SOL     OW 2152   4.243   5.801   1.211
  418SOL    HW1 2153   4.176   5.875   1.222
  418SOL    HW2 2154   4.335   5.839   1.205
  419SOL     OW 2155   1.435   0.181   1.172
  419SOL    HW1 2156   1.497   0.256   1.195
  419SOL    HW2 2157   1.394   0.199   1.082
  420SOL     OW 2158   5.995   1.737   6.922
  420SOL    HW1 2159   6.014   1.685   7.006
  420SOL    HW2 2160   5.971   1.673   6.848
  421SOL     OW 2161   0.160   4.386   6.256
  421SOL    HW1 2162   0.181   4.293   6.226
  421SOL    HW2 2163   0.083   4.422   6.203
  422SOL     OW 2164   5.389   4.355   0.246
  422SOL    HW1 2165   5.355   4.446   0.270
  422SOL    HW2 2166   5.394   4.298   0.328
  423SOL     OW 2167   1.103   2.441   6.939
  423SOL    HW1 2168   1.193   2.407   6.963
  423SOL    HW2 2169   1.070   2.393   6.858
  424SOL     OW 2170   2.387   3.729   0.602
  424SOL    HW1 2171   2.320   3.678   0.548
  424SOL    HW2 2172   2.340   3.782   0.673
  425SOL     OW 2173   5.763   1.310   2.571
  425SOL    HW1 2174   5.738   1.271   2.660
  425SOL    HW2 2175   5.742   1.408   2.570
  426SOL     OW 2176   4.449   2.349   3.783
  426SOL    HW1 2177   4.413   2.265   3.743
  426SOL    HW2 2178   4.525   2.326   3.845
  427SOL     OW 2179   4.982   5.554   2.955
  427SOL    HW1 2180   5.023   5.514   2.873
  427SOL    HW2 2181   4.890   5.518   2.968
  428SOL     OW 2182   4.208   0.468   4.264
  428SOL    HW1 2183   4.189   0.558   4.304
  428SOL    HW2 2184   4.279   0.422   4.317
  429SOL     OW 2185   1.771   3.332   1.080
  429SOL    HW1 2186   1.830   3.260   1.117
  429SOL    HW2 2187   1.683   3.292   1.054
  430SOL     OW 2188   6.733   0.326   5.368
  430SOL    HW1 2189   6.813   0.285   5.412
  430SOL    HW2 2190   6.692   0.260   5.305
  431SOL     OW 2191   3.282   6.967   0.472
  431SOL    HW1 2192   3.184   6.979   0.488
  431SOL    HW2 2193   3.313   0.012   0.407
  432SOL     OW 2194   6.661   1.759   1.481
  432SOL    HW1 2195   6.704   1.849   1.479
  432SOL    HW2 2196   6.585   1.757   1.416
  433SOL     OW 2197   2.950   6.533   5.048
  433SOL    HW1 2198   2.964   6.441   5.012
  433SOL    HW2 2199   2.853   6.546   5.070
  434SOL     OW 2200   3.280   6.025   2.101
  434SOL    HW1 2201   3.345   6.024   2.025
  434SOL    HW2 2202   3.263   6.119   2.129
  435SOL     OW 2203   5.214   2.408   6.133
  435SOL    HW1 2204   5.123   2.374   6.112
  435SOL    HW2 2205   5.264   2.426   6.049
  436SOL     OW 2206   3.320   6.349   0.994
  436SOL    HW1 2207   3.364   6.344   0.905
  436SOL    HW2 2208   3.224   6.374   0.983
  437SOL     OW 2209   1.103   0.525   6.826
  437SOL    HW1 2210   1.053   0.559   6.906
  437SOL    HW2 2211   1.069   0.433   6.802
  438SOL     OW 2212   2.139   3.727   2.543
  438SOL    HW1 2213   2.069   3.685   2.601
  438SOL    HW2 2214   2.202   3.657   2.511
  439SOL     OW 2215   6.143   4.413   3.102
  439SOL    HW1 2216   6.081   4.404   3.024
  439SOL    HW2 2217   6.129   4.336   3.165
  440SOL     OW 2218   1.778   1.318   5.082
  440SOL    HW1 2219   1.775   1.405   5.132
  440SOL    HW2 2220   1.786   1.243   5.147
  441SOL     OW 2221   0.785   2.696   4.308
  441SOL    HW1 2222   0.706   2.656   4.353
  441SOL    HW2 2223   0.852   2.725   4.377
  442SOL     OW 2224   2.952   4.719   6.117
  442SOL    HW1 2225   3.043   4.762   6.115
  442SOL    HW2 2226   2.930   4.694   6.211
  443SOL     OW 2227   5.977   4.512   4.585
  443SOL    HW1 2228   5.930   4.568   4.654
  443SOL    HW2 2229   5.915   4.496   4.508
  444SOL     OW 2230   5.175   1.682   6.001
  444SOL    HW1 2231   5.233   1.604   5.979
  444SOL    HW2 2232   5.131   1.716   5.918
  445SOL     OW 2233   0.617   5.146   3.095
  445SOL    HW1 2234   0.662   5.062   3.063
  445SOL    HW2 2235   0.677   5.224   3.079
  446SOL     OW 2236   4.036   4.791   3.175
  446SOL    HW1 2237   3.968   4.789   3.102
  446SOL    HW2 2238   4.077   4.700   3.185
  447SOL     OW 2239   0.638   2.928   6.127
  447SOL    HW1 2240   0.645   2.977   6.214
  447SOL    HW2 2241   0.570   2.855   6.135
  448SOL     OW 2242   2.059   0.784   3.729
  448SOL    HW1 2243   2.141   0.737   3.759
  448SOL    HW2 2244   1.978   0.742   3.770
  449SOL     OW 2245   4.146   1.183   4.049
  449SOL    HW1 2246   4.187   1.249   4.112
  449SOL    HW2 2247   4.092   1.117   4.102
  450SOL     OW 2248   1.426   5.909   3.621
  450SOL    HW1 2249   1.347   5.854   3.647
  450SOL    HW2 2250   1.395   5.997   3.586
  451SOL     OW 2251   1.878   1.366   3.807
  451SOL    HW1 2252   1.874   1.301   3.731
  451SOL    HW2 2253   1.903   1.456   3.772
  452SOL     OW 2254   6.072   6.148   0.993
  452SOL    HW1 2255   6.172   6.149   0.991
  452SOL    HW2 2256   6.041   6.117   1.083
  453SOL     OW 2257   4.168   1.130   5.847
  453SOL    HW1 2258   4.106   1.205   5.870
  453SOL    HW2 2259   4.115   1.051   5.815
  454SOL     OW 2260   0.048   4.615   6.673
  454SOL    HW1 2261   6.995   4.619   6.736
  454SOL    HW2 2262   0.131   4.644   6.719
  455SOL     OW 2263   6.218   2.647   3.143
  455SOL    HW1 2264   6.198   2.664   3.240
  455SOL    HW2 2265   6.247   2.553   3.131
  456SOL     OW 2266   5.684   6.737   4.001
  456SOL    HW1 2267   5.603   6.679   3.995
  456SOL    HW2 2268   5.705   6.776   3.911
  457SOL     OW 2269   2.258   2.961   4.049
  457SOL    HW1 2270   2.204   3.034   4.006
  457SOL    HW2 2271   2.240   2.960   4.147
  458SOL     OW 2272   4.376   5.456   3.587
  458SOL    HW1 2273   4.287   5.470   3.629
  458SOL    HW2 2274   4.384   5.515   3.506
  459SOL     OW 2275   1.886   7.005   5.094
  459SOL    HW1 2276   1.924   6.912   5.098
  459SOL    HW2 2277   1.877   0.008   4.999
  460SOL     OW 2278   1.667   0.433   3.377
  460SOL    HW1 2279   1.693   0.497   3.304
  460SOL    HW2 2280   1.582   0.387   3.351
  461SOL     OW 2281   6.745   0.079   6.301
  461SOL    HW1 2282   6.761   7.008   6.325
  461SOL    HW2 2283   6.812   0.136   6.349
  462SOL     OW 2284   3.312   3.123   6.271
  462SOL    HW1 2285   3.267   3.181   6.203
  462SOL    HW2 2286   3.362   3.180   6.336
  463SOL     OW 2287   6.853   5.691   3.249
  463SOL    HW1 2288   6.783   5.762   3.242
  463SOL    HW2 2289   6.850   5.651   3.341
  464SOL     OW 2290   2.529   2.000   5.176
  464SOL    HW1 2291   2.454   1.986   5.111
  464SOL    HW2 2292   2.534   2.096   5.201
  465SOL     OW 2293   0.701   2.208   5.655
  465SOL    HW1 2294   0.740   2.300   5.655
  465SOL    HW2 2295   0.759   2.147   5.709
  466SOL     OW 2296   0.676   5.721   2.783
  466SOL    HW1 2297   0.676   5.803   2.726
  466SOL    HW2 2298   0.630   5.740   2.869
  467SOL     OW 2299   1.552   1.078   0.589
  467SOL    HW1 2300   1.463   1.100   0.549
  467SOL    HW2 2301   1.589   0.997   0.543
  468SOL     OW 2302   3.409   0.276   6.577
  468SOL    HW1 2303   3.449   0.299   6.665
  468SOL    HW2 2304   3.423   0.179   6.558
  469SOL     OW 2305   2.538   3.187   6.393
  469SOL    HW1 2306   2.553   3.161   6.297
  469SOL    HW2 2307   2.518   3.285   6.398
  470SOL     OW 2308   4.151   6.864   2.052
  470SOL    HW1 2309   4.223   6.884   1.985
  470SOL    HW2 2310   4.094   6.945   2.064
  471SOL     OW 2311   2.135   2.455   4.033
  471SOL    HW1 2312   2.087   2.502   4.107
  471SOL    HW2 2313   2.189   2.379   4.071
  472SOL     OW 2314   5.499   3.225   6.437
  472SOL    HW1 2315   5.556   3.283   6.379
  472SOL    HW2 2316   5.458   3.153   6.381
  473SOL     OW 2317   0.942   2.960   3.172
  473SOL    HW1 2318   0.976   2.935   3.262
  473SOL    HW2 2319   0.967   3.055   3.152
  474SOL     OW 2320   5.252   5.988   4.322
  474SOL    HW1 2321   5.280   5.923   4.392
  474SOL    HW2 2322   5.331   6.018   4.269
  475SOL     OW 2323   5.825   0.932   6.127
  475SOL    HW1 2324   5.735   0.944   6.170
  475SOL    HW2 2325   5.896   0.968   6.188
  476SOL     OW 2326   0.233   3.881   3.279
  476SOL    HW1 2327   0.154   3.888   3.340
  476SOL    HW2 2328   0.298   3.954   3.300
  477SOL     OW 2329   1.308   5.236   3.789
  477SOL    HW1 2330   1.268   5.146   3.771
  477SOL    HW2 2331   1.403   5.226   3.818
  478SOL     OW 2332   3.050   6.450   2.032
  478SOL    HW1 2333   2.959   6.470   1.996
  478SOL    HW2 2334   3.119   6.486   1.970
  479SOL     OW 2335   4.230   1.937   5.808
  479SOL    HW1 2336   4.158   1.945   5.877
  479SOL    HW2 2337   4.250   2.027   5.769
  480SOL     OW 2338   2.151   1.080   7.000
  480SOL    HW1 2339   2.057   1.096   0.006
  480SOL    HW2 2340   2.157   0.991   6.955
  481SOL     OW 2341   1.726   6.847   0.272
  481SOL    HW1 2342   1.711   6.818   0.367
  481SOL    HW2 2343   1.686   6.937   0.258
  482SOL     OW 2344   4.500   4.839   2.332
  482SOL    HW1 2345   4.431   4.820   2.262
  482SOL    HW2 2346   4.530   4.934   2.325
  483SOL     OW 2347   6.685   1.716   2.099
  483SOL    HW1 2348   6.645   1.802   2.069
  483SOL    HW2 2349   6.713   1.662   2.020
  484SOL     OW 2350   2.018   3.615   4.751
  484SOL    HW1 2351   2.041   3.522   4.721
  484SOL    HW2 2352   1.934   3.612   4.805
  485SOL     OW 2353   3.328   5.513   2.498
  485SOL    HW1 2354   3.368   5.466   2.577
  485SOL    HW2 2355   3.302   5.445   2.429
  486SOL     OW 2356   6.524   1.281   0.339
  486SOL    HW1 2357   6.492   1.347   0.407
  486SOL    HW2 2358   6.581   1.328   0.272
  487SOL     OW 2359   0.978   0.626   1.413
  487SOL    HW1 2360   0.926   0.711   1.406
  487SOL    HW2 2361   0.983   0.598   1.509
  488SOL     OW 2362   1.159   1.392   2.250
  488SOL    HW1 2363   1.204   1.404   2.162
  488SOL    HW2 2364   1.177   1.471   2.308
  489SOL     OW 2365   3.843   6.171   6.010
  489SOL    HW1 2366   3.821   6.148   5.915
  489SOL    HW2 2367   3.762   6.160   6.067
  490SOL     OW 2368   6.060   6.003   2.786
  490SOL    HW1 2369   6.003   6.083   2.806
  490SOL    HW2 2370   6.011   5.920   2.812
  491SOL     OW 2371   0.783   3.146   2.715
  491SOL    HW1 2372   0.831   3.233   2.728
  491SOL    HW2 2373   0.830   3.074   2.766
  492SOL     OW 2374   1.894   0.288   4.860
  492SOL    HW1 2375   1.812   0.240   4.890
  492SOL    HW2 2376   1.969   0.269   4.924
  493SOL     OW 2377   5.056   5.675   5.558
  493SOL    HW1 2378   5.094   5.718   5.476
  493SOL    HW2 2379   5.001   5.742   5.608
  494SOL     OW 2380   0.269   6.506   6.476
  494SOL    HW1 2381   0.364   6.484   6.457
  494SOL    HW2 2382   0.241   6.586   6.422
  495SOL     OW 2383   4.713   5.918   3.303
  495SOL    HW1 2384   4.739   5.972   3.382
  495SOL    HW2 2385   4.794   5.871   3.267
  496SOL     OW 2386   5.531   3.956   1.768
  496SOL    HW1 2387   5.565   4.016   1.841
  496SOL    HW2 2388   5.442   3.989   1.737
  497SOL     OW 2389   2.839   1.361   4.817
  497SOL    HW1 2390   2.799   1.437   4.868
  497SOL    HW2 2391   2.923   1.331   4.864
  498SOL     OW 2392   1.749   4.060   1.403
  498SOL    HW1 2393   1.777   4.043   1.308
  498SOL    HW2 2394   1.785   3.988   1.462
  499SOL     OW 2395   2.063   6.622   4.840
  499SOL    HW1 2396   1.998   6.698   4.849
  499SOL    HW2 2397   2.025   6.542   4.886
  500SOL     OW 2398   0.698   3.197   4.414
  500SOL    HW1 2399   0.790   3.215   4.379
  500SOL    HW2 2400   0.660   3.282   4.451
  501SOL     OW 2401   3.452   5.518   1.115
  501SOL    HW1 2402   3.424   5.538   1.209
  501SOL    HW2 2403   3.473   5.604   1.068
  502SOL     OW 2404   0.324   3.969   0.165
  502SOL    HW1 2405   0.413   4.014   0.160
  502SOL    HW2 2406   0.334   3.873   0.138
  503SOL     OW 2407   6.923   5.311   6.928
  503SOL    HW1 2408   6.971   5.225   6.944
  503SOL    HW2 2409   6.831   5.293   6.895
  504SOL     OW 2410   1.044   5.237   2.316
  504SOL    HW1 2411   1.107   5.276   2.383
  504SOL    HW2 2412   1.060   5.139   2.307
  505SOL     OW 2413   3.045   5.907   5.253
  505SOL    HW1 2414   3.005   5.983   5.202
  505SOL    HW2 2415   3.001   5.821   5.226
  506SOL     OW 2416   2.494   4.856   4.091
  506SOL    HW1 2417   2.539   4.776   4.133
  506SOL    HW2 2418   2.555   4.935   4.097
  507SOL     OW 2419   3.428   6.519   3.043
  507SOL    HW1 2420   3.376   6.555   3.121
  507SOL    HW2 2421   3.366   6.498   2.968
  508SOL     OW 2422   0.283   4.000   2.416
  508SOL    HW1 2423   0.279   3.904   2.387
  508SOL    HW2 2424   0.314   4.005   2.511
  509SOL     OW 2425   3.383   1.447   1.623
  509SOL    HW1 2426   3.354   1.486   1.536
  509SOL    HW2 2427   3.478   1.472   1.641
  510SOL     OW 2428   6.394   4.893   0.299
  510SOL    HW1 2429   6.351   4.905   0.210
  510SOL    HW2 2430   6.475   4.952   0.305
  511SOL     OW 2431   0.841   1.638   5.429
  511SOL    HW1 2432   0.883   1.728   5.431
  511SOL    HW2 2433   0.749   1.644   5.391
  512SOL     OW 2434   0.044   3.247   0.111
  512SOL    HW1 2435   0.118   3.198   0.064
  512SOL    HW2 2436   0.055   3.236   0.210
  513SOL     OW 2437   6.216   6.790   3.609
  513SOL    HW1 2438   6.258   6.797   3.699
  513SOL    HW2 2439   6.132   6.844   3.607
  514SOL     OW 2440   6.650   2.067   3.859
  514SOL    HW1 2441   6.666   1.972   3.833
  514SOL    HW2 2442   6.566   2.100   3.815
  515SOL     OW 2443   1.209   0.900   6.400
  515SOL    HW1 2444   1.110   0.887   6.391
  515SOL    HW2 2445   1.244   0.841   6.473
  516SOL     OW 2446   2.578   4.655   1.820
  516SOL    HW1 2447   2.525   4.578   1.857
  516SOL    HW2 2448   2.670   4.653   1.858
  517SOL     OW 2449   4.257   5.934   1.759
  517SOL    HW1 2450   4.228   5.849   1.716
  517SOL    HW2 2451   4.346   5.961   1.723
  518SOL     OW 2452   2.933   2.297   3.365
  518SOL    HW1 2453   2.965   2.202   3.357
  518SOL    HW2 2454   3.013   2.358   3.372
  519SOL     OW 2455   0.325   0.272   4.749
  519SOL    HW1 2456   0.374   0.197   4.705
  519SOL    HW2 2457   0.385   0.352   4.754
  520SOL     OW 2458   6.742   3.961   0.968
  520SOL    HW1 2459   6.694   3.996   1.048
  520SOL    HW2 2460   6.750   3.861   0.974
  521SOL     OW 2461   6.297   4.463   4.725
  521SOL    HW1 2462   6.327   4.485   4.633
  521SOL    HW2 2463   6.241   4.380   4.723
  522SOL     OW 2464   3.496   3.198   4.514
  522SOL    HW1 2465   3.508   3.099   4.508
  522SOL    HW2 2466   3.500   3.226   4.610
  523SOL     OW 2467   0.149   5.134   1.438
  523SOL    HW1 2468   0.199   5.059   1.481
  523SOL    HW2 2469   0.060   5.144   1.482
  524SOL     OW 2470   0.348   1.468   1.674
  524SOL    HW1 2471   0.374   1.374   1.653
  524SOL    HW2 2472   0.251   1.471   1.699
  525SOL     OW 2473   2.265   3.228   5.551
  525SOL    HW1 2474   2.342   3.221   5.487
  525SOL    HW2 2475   2.274   3.159   5.622
  526SOL     OW 2476   3.981   6.653   3.930
  526SOL    HW1 2477   4.028   6.735   3.896
  526SOL    HW2 2478   3.965   6.663   4.028
  527SOL     OW 2479   6.307   2.497   0.136
  527SOL    HW1 2480   6.342   2.443   0.060
  527SOL    HW2 2481   6.299   2.593   0.108
  528SOL     OW 2482   0.728   1.661   3.613
  528SOL    HW1 2483   0.738   1.561   3.615
  528SOL    HW2 2484   0.676   1.687   3.532
  529SOL     OW 2485   1.920   6.919   3.779
  529SOL    HW1 2486   1.834   6.953   3.742
  529SOL    HW2 2487   1.909   6.825   3.809
  530SOL     OW 2488   3.294   3.384   4.468
  530SOL    HW1 2489   3.367   3.316   4.468
  530SOL    HW2 2490   3.270   3.408   4.562
  531SOL     OW 2491   0.588   1.203   3.440
  531SOL    HW1 2492   0.548   1.112   3.450
  531SOL    HW2 2493   0.522   1.272   3.471
  532SOL     OW 2494   1.341   2.729   6.916
  532SOL    HW1 2495   1.309   2.635   6.911
  532SOL    HW2 2496   1.398   2.741   6.998
  533SOL     OW 2497   4.219   6.880   4.050
  533SOL    HW1 2498   4.234   6.913   4.143
  533SOL    HW2 2499   4.284   6.807   4.030
  534SOL     OW 2500   5.330   6.439   2.537
  534SOL    HW1 2501   5.415   6.402   2.500
  534SOL    HW2 2502   5.271   6.468   2.461
  535SOL     OW 2503   0.969   3.494   4.446
  535SOL    HW1 2504   0.927   3.559   4.383
  535SOL    HW2 2505   1.034   3.543   4.504
  536SOL     OW 2506   6.898   5.126   1.316
  536SOL    HW1 2507   6.967   5.063   1.281
  536SOL    HW2 2508   6.914   5.217   1.277
  537SOL     OW 2509   3.012   6.559   4.593
  537SOL    HW1 2510   2.920   6.582   4.623
  537SOL    HW2 2511   3.079   6.588   4.662
  538SOL     OW 2512   1.341   4.423   3.210
  538SOL    HW1 2513   1.367   4.507   3.256
  538SOL    HW2 2514   1.254   4.436   3.162
  539SOL     OW 2515   1.573   5.842   0.986
  539SOL    HW1 2516   1.500   5.816   0.923
  539SOL    HW2 2517   1.661   5.840   0.938
  540SOL     OW 2518   0.945   0.244   3.136
  540SOL    HW1 2519   0.970   0.167   3.078
  540SOL    HW2 2520   0.891   0.310   3.083
  541SOL     OW 2521   4.767   5.759   4.093
  541SOL    HW1 2522   4.759   5.849   4.051
  541SOL    HW2 2523   4.693   5.700   4.060
  542SOL     OW 2524   6.649   6.854   6.593
  542SOL    HW1 2525   6.595   6.930   6.556
  542SOL    HW2 2526   6.738   6.852   6.547
  543SOL     OW 2527   1.274   4.033   5.440
  543SOL    HW1 2528   1.193   4.089   5.424
  543SOL    HW2 2529   1.270   3.995   5.533
  544SOL     OW 2530   3.164   4.013   0.550
  544SOL    HW1 2531   3.095   4.027   0.621
  544SOL    HW2 2532   3.134   4.056   0.465
  545SOL     OW 2533   2.728   1.063   2.337
  545SOL    HW1 2534   2.677   1.147   2.358
  545SOL    HW2 2535   2.680   0.985   2.376
  546SOL     OW 2536   2.109   2.724   0.601
  546SOL    HW1 2537   2.058   2.786   0.660
  546SOL    HW2 2538   2.184   2.683   0.653
  547SOL     OW 2539   3.273   0.981   0.119
  547SOL    HW1 2540   3.221   0.903   0.085
  547SOL    HW2 2541   3.329   0.952   0.197
  548SOL     OW 2542   3.612   2.911   2.609
  548SOL    HW1 2543   3.690   2.908   2.547
  548SOL    HW2 2544   3.528   2.886   2.560
  549SOL     OW 2545   4.767   3.194   0.398
  549SOL    HW1 2546   4.725   3.265   0.340
  549SOL    HW2 2547   4.849   3.231   0.441
  550SOL     OW 2548   6.787   5.167   3.776
  550SOL    HW1 2549   6.885   5.176   3.759
  550SOL    HW2 2550   6.737   5.188   3.693
  551SOL     OW 2551   0.945   0.535   2.064
  551SOL    HW1 2552   1.019   0.600   2.084
  551SOL    HW2 2553   0.983   0.454   2.020
  552SOL     OW 2554   4.883   4.196   0.367
  552SOL    HW1 2555   4.791   4.177   0.332
  552SOL    HW2 2556   4.918   4.114   0.413
  553SOL     OW 2557   1.698   6.228   2.161
  553SOL    HW1 2558   1.778   6.282   2.135
  553SOL    HW2 2559   1.620   6.289   2.178
  554SOL     OW 2560   5.590   0.126   5.772
  554SOL    HW1 2561   5.575   0.050   5.835
  554SOL    HW2 2562   5.658   0.100   5.704
  555SOL     OW 2563   1.258   5.026   3.190
  555SOL    HW1 2564   1.310   5.015   3.275
  555SOL    HW2 2565   1.270   4.944   3.133
  556SOL     OW 2566   5.419   2.115   3.879
  556SOL    HW1 2567   5.418   2.111   3.779
  556SOL    HW2 2568   5.460   2.202   3.908
  557SOL     OW 2569   0.640   4.657   0.322
  557SOL    HW1 2570   0.604   4.567   0.299
  557SOL    HW2 2571   0.738   4.649   0.345
  558SOL     OW 2572   3.114   3.585   4.394
  558SOL    HW1 2573   3.064   3.564   4.478
  558SOL    HW2 2574   3.185   3.516   4.381
  559SOL     OW 2575   6.501   5.571   6.854
  559SOL    HW1 2576   6.590   5.540   6.888
  559SOL    HW2 2577   6.456   5.626   6.924
  560SOL     OW 2578   4.646   4.140   6.934
  560SOL    HW1 2579   4.577   4.211   6.919
  560SOL    HW2 2580   4.655   4.122   0.007
  561SOL     OW 2581   6.385   1.629   0.354
  561SOL    HW1 2582   6.285   1.634   0.352
  561SOL    HW2 2583   6.417   1.638   0.449
  562SOL     OW 2584   5.590   0.992   5.819
  562SOL    HW1 2585   5.556   0.899   5.835
  562SOL    HW2 2586   5.689   0.991   5.812
  563SOL     OW 2587   1.985   0.571   3.226
  563SOL    HW1 2588   2.017   0.630   3.152
  563SOL    HW2 2589   2.045   0.582   3.306
  564SOL     OW 2590   2.657   2.477   6.687
  564SOL    HW1 2591   2.577   2.427   6.720
  564SOL    HW2 2592   2.693   2.535   6.760
  565SOL     OW 2593   3.601   2.620   5.754
  565SOL    HW1 2594   3.629   2.686   5.823
  565SOL    HW2 2595   3.501   2.612   5.755
  566SOL     OW 2596   6.318   5.212   4.363
  566SOL    HW1 2597   6.264   5.296   4.366
  566SOL    HW2 2598   6.380   5.209   4.441
  567SOL     OW 2599   3.854   3.361   2.264
  567SOL    HW1 2600   3.900   3.449   2.277
  567SOL    HW2 2601   3.915   3.287   2.294
  568SOL     OW 2602   4.181   1.695   0.222
  568SOL    HW1 2603   4.144   1.668   0.133
  568SOL    HW2 2604   4.213   1.614   0.271
  569SOL     OW 2605   1.238   3.779   6.370
  569SOL    HW1 2606   1.324   3.733   6.349
  569SOL    HW2 2607   1.253   3.846   6.442
  570SOL     OW 2608   3.011   6.322   6.870
  570SOL    HW1 2609   3.030   6.264   6.791
  570SOL    HW2 2610   2.912   6.320   6.889
  571SOL     OW 2611   3.302   0.306   2.547
  571SOL    HW1 2612   3.214   0.312   2.593
  571SOL    HW2 2613   3.302   0.229   2.484
  572SOL     OW 2614   2.781   4.659   5.541
  572SOL    HW1 2615   2.860   4.598   5.545
  572SOL    HW2 2616   2.772   4.697   5.449
  573SOL     OW 2617   5.591   1.473   6.022
  573SOL    HW1 2618   5.620   1.379   6.008
  573SOL    HW2 2619   5.498   1.485   5.989
  574SOL     OW 2620   3.555   2.117   4.468
  574SOL    HW1 2621   3.474   2.066   4.441
  574SOL    HW2 2622   3.607   2.144   4.387
  575SOL     OW 2623   5.629   3.868   0.240
  575SOL    HW1 2624   5.623   3.939   0.171
  575SOL    HW2 2625   5.544   3.864   0.293
  576SOL     OW 2626   1.000   2.452   2.822
  576SOL    HW1 2627   1.012   2.359   2.855
  576SOL    HW2 2628   1.069   2.512   2.863
  577SOL     OW 2629   2.078   1.610   2.565
  577SOL    HW1 2630   1.996   1.667   2.559
  577SOL    HW2 2631   2.145   1.642   2.498
  578SOL     OW 2632   6.157   5.075   3.264
  578SOL    HW1 2633   6.205   4.998   3.221
  578SOL    HW2 2634   6.214   5.157   3.257
  579SOL     OW 2635   1.546   3.088   2.107
  579SOL    HW1 2636   1.615   3.142   2.154
  579SOL    HW2 2637   1.545   3.111   2.010
  580SOL     OW 2638   6.571   4.758   6.673
  580SOL    HW1 2639   6.540   4.714   6.758
  580SOL    HW2 2640   6.499   4.754   6.605
  581SOL     OW 2641   2.999   3.189   2.888
  581SOL    HW1 2642   2.986   3.135   2.805
  581SOL    HW2 2643   3.023   3.283   2.863
  582SOL     OW 2644   5.378   5.625   2.687
  582SOL    HW1 2645   5.369   5.531   2.721
  582SOL    HW2 2646   5.443   5.627   2.611
  583SOL     OW 2647   2.828   5.259   5.901
  583SOL    HW1 2648   2.728   5.260   5.904
  583SOL    HW2 2649   2.864   5.201   5.974
  584SOL     OW 2650   1.959   3.830   6.576
  584SOL    HW1 2651   1.900   3.754   6.606
  584SOL    HW2 2652   2.042   3.793   6.535
  585SOL     OW 2653   5.777   3.082   6.194
  585SOL    HW1 2654   5.822   3.044   6.275
  585SOL    HW2 2655   5.690   3.034   6.178
  586SOL     OW 2656   4.017   1.726   6.533
  586SOL    HW1 2657   4.113   1.751   6.548
  586SOL    HW2 2658   3.987   1.667   6.608
  587SOL     OW 2659   3.086   1.594   5.199
  587SOL    HW1 2660   3.104   1.619   5.103
  587SOL    HW2 2661   3.172   1.572   5.244
  588SOL     OW 2662   2.417   4.695   0.846
  588SOL    HW1 2663   2.479   4.719   0.921
  588SOL    HW2 2664   2.339   4.644   0.882
  589SOL     OW 2665   2.978   5.155   1.379
  589SOL    HW1 2666   2.920   5.233   1.355
  589SOL    HW2 2667   3.030   5.126   1.300
  590SOL     OW 2668   5.306   2.759   2.269
  590SOL    HW1 2669   5.285   2.851   2.238
  590SOL    HW2 2670   5.227   2.700   2.255
  591SOL     OW 2671   3.981   6.121   3.627
  591SOL    HW1 2672   4.066   6.119   3.680
  591SOL    HW2 2673   3.933   6.206   3.645
  592SOL     OW 2674   3.293   0.037   1.460
  592SOL    HW1 2675   3.260   0.128   1.484
  592SOL    HW2 2676   3.280   7.000   1.538
  593SOL     OW 2677   4.283   2.168   3.454
  593SOL    HW1 2678   4.373   2.127   3.470
  593SOL    HW2 2679   4.293   2.266   3.442
  594SOL     OW 2680   5.134   2.170   6.340
  594SOL    HW1 2681   5.149   2.109   6.262
  594SOL    HW2 2682   5.198   2.246   6.336
  595SOL     OW 2683   5.670   0.445   3.765
  595SOL    HW1 2684   5.755   0.497   3.771
  595SOL    HW2 2685   5.668   0.394   3.680
  596SOL     OW 2686   1.577   4.375   2.796
  596SOL    HW1 2687   1.532   4.308   2.855
  596SOL    HW2 2688   1.667   4.341   2.769
  597SOL     OW 2689   3.766   0.021   6.583
  597SOL    HW1 2690   3.828   0.081   6.532
  597SOL    HW2 2691   3.680   0.012   6.533
  598SOL     OW 2692   3.165   3.821   6.442
  598SOL    HW1 2693   3.174   3.754   6.516
  598SOL    HW2 2694   3.206   3.908   6.472
  599SOL     OW 2695   2.138   6.575   2.555
  599SOL    HW1 2696   2.047   6.535   2.565
  599SOL    HW2 2697   2.201   6.508   2.516
  600SOL     OW 2698   0.585   0.334   1.220
  600SOL    HW1 2699   0.558   0.246   1.258
  600SOL    HW2 2700   0.684   0.336   1.206
  601SOL     OW 2701   2.886   6.177   4.040
  601SOL    HW1 2702   2.966   6.140   3.994
  601SOL    HW2 2703   2.913   6.216   4.128
  602SOL     OW 2704   1.855   2.795   6.383
  602SOL    HW1 2705   1.881   2.728   6.313
  602SOL    HW2 2706   1.781   2.852   6.348
  603SOL     OW 2707   3.929   1.832   3.461
  603SOL    HW1 2708   3.867   1.900   3.422
  603SOL    HW2 2709   4.011   1.825   3.405
  604SOL     OW 2710   0.933   3.579   1.581
  604SOL    HW1 2711   0.863   3.630   1.631
  604SOL    HW2 2712   1.024   3.613   1.604
  605SOL     OW 2713   6.292   6.063   2.382
  605SOL    HW1 2714   6.236   6.005   2.323
  605SOL    HW2 2715   6.255   6.156   2.383
  606SOL     OW 2716   4.875   0.710   6.568
  606SOL    HW1 2717   4.944   0.637   6.575
  606SOL    HW2 2718   4.920   0.797   6.549
  607SOL     OW 2719   5.486   1.170   5.380
  607SOL    HW1 2720   5.581   1.153   5.404
  607SOL    HW2 2721   5.432   1.087   5.396
  608SOL     OW 2722   3.805   6.120   6.792
  608SOL    HW1 2723   3.723   6.096   6.741
  608SOL    HW2 2724   3.875   6.051   6.777
  609SOL     OW 2725   3.952   3.139   3.725
  609SOL    HW1 2726   3.982   3.155   3.819
  609SOL    HW2 2727   3.883   3.067   3.723
  610SOL     OW 2728   5.057   2.317   2.294
  610SOL    HW1 2729   5.022   2.352   2.381
  610SOL    HW2 2730   5.009   2.232   2.271
  611SOL     OW 2731   2.258   0.428   6.741
  611SOL    HW1 2732   2.159   0.425   6.759
  611SOL    HW2 2733   2.283   0.519   6.709
  612SOL     OW 2734   4.031   6.560   6.202
  612SOL    HW1 2735   4.095   6.623   6.158
  612SOL    HW2 2736   3.969   6.612   6.261
  613SOL     OW 2737   4.362   6.867   5.929
  613SOL    HW1 2738   4.444   6.876   5.985
  613SOL    HW2 2739   4.388   6.845   5.835
  614SOL     OW 2740   5.622   4.112   1.360
  614SOL    HW1 2741   5.645   4.087   1.266
  614SOL    HW2 2742   5.592   4.031   1.409
  615SOL     OW 2743   0.527   1.878   0.851
  615SOL    HW1 2744   0.561   1.913   0.764
  615SOL    HW2 2745   0.550   1.781   0.860
  616SOL     OW 2746   0.381   2.320   3.635
  616SOL    HW1 2747   0.449   2.391   3.619
  616SOL    HW2 2748   0.294   2.362   3.660
  617SOL     OW 2749   6.908   3.836   6.752
  617SOL    HW1 2750   6.983   3.783   6.790
  617SOL    HW2 2751   6.874   3.791   6.669
  618SOL     OW 2752   0.247   3.441   6.794
  618SOL    HW1 2753   0.330   3.495   6.803
  618SOL    HW2 2754   0.269   3.344   6.801
  619SOL     OW 2755   5.032   0.207   6.400
  619SOL    HW1 2756   5.047   0.129   6.462
  619SOL    HW2 2757   4.937   0.207   6.369
  620SOL     OW 2758   4.942   2.370   1.513
  620SOL    HW1 2759   4.877   2.306   1.555
  620SOL    HW2 2760   4.965   2.441   1.578
  621SOL     OW 2761   2.289   7.006   6.032
  621SOL    HW1 2762   2.362   0.050   6.031
  621SOL    HW2 2763   2.213   0.014   6.087
  622SOL     OW 2764   0.903   1.699   4.848
  622SOL    HW1 2765   0.870   1.605   4.839
  622SOL    HW2 2766   0.885   1.732   4.941
  623SOL     OW 2767   1.182   6.244   5.829
  623SOL    HW1 2768   1.265   6.256   5.774
  623SOL    HW2 2769   1.166   6.325   5.884
  624SOL     OW 2770   6.896   1.030   0.452
  624SOL    HW1 2771   6.797   1.029   0.442
  624SOL    HW2 2772   6.938   1.048   0.363
  625SOL     OW 2773   2.123   2.065   1.151
  625SOL    HW1 2774   2.171   2.140   1.107
  625SOL    HW2 2775   2.031   2.096   1.178
  626SOL     OW 2776   0.441   5.871   3.270
  626SOL    HW1 2777   0.372   5.931   3.230
  626SOL    HW2 2778   0.479   5.915   3.351
  627SOL     OW 2779   6.354   6.403   0.753
  627SOL    HW1 2780   6.390   6.309   0.751
  627SOL    HW2 2781   6.255   6.401   0.765
  628SOL     OW 2782   5.321   5.263   5.561
  628SOL    HW1 2783   5.274   5.180   5.533
  628SOL    HW2 2784   5.414   5.264   5.523
  629SOL     OW 2785   0.608   0.488   6.351
  629SOL    HW1 2786   0.559   0.563   6.307
  629SOL    HW2 2787   0.543   0.417   6.379
  630SOL     OW 2788   0.329   1.663   0.392
  630SOL    HW1 2789   0.424   1.672   0.361
  630SOL    HW2 2790   0.323   1.595   0.465
  631SOL     OW 2791   4.048   0.907   5.542
  631SOL    HW1 2792   4.102   0.912   5.458
  631SOL    HW2 2793   3.951   0.900   5.519
  632SOL     OW 2794   4.797   2.051   1.515
  632SOL    HW1 2795   4.791   2.121   1.444
  632SOL    HW2 2796   4.886   2.007   1.511
  633SOL     OW 2797   2.931   3.886   6.928
  633SOL    HW1 2798   2.902   3.948   6.855
  633SOL    HW2 2799   2.928   3.792   6.895
  634SOL     OW 2800   3.292   4.055   2.985
  634SOL    HW1 2801   3.382   4.094   2.964
  634SOL    HW2 2802   3.289   4.031   3.082
  635SOL     OW 2803   4.807   5.960   0.883
  635SOL    HW1 2804   4.735   5.920   0.940
  635SOL    HW2 2805   4.767   6.030   0.823
  636SOL     OW 2806   3.047   6.651   6.131
  636SOL    HW1 2807   2.994   6.568   6.111
  636SOL    HW2 2808   2.989   6.717   6.179
  637SOL     OW 2809   0.417   2.848   3.383
  637SOL    HW1 2810   0.460   2.929   3.343
  637SOL    HW2 2811   0.480   2.770   3.377
  638SOL     OW 2812   5.679   3.401   4.075
  638SOL    HW1 2813   5.691   3.313   4.029
  638SOL    HW2 2814   5.611   3.392   4.147
  639SOL     OW 2815   4.936   3.349   2.867
  639SOL    HW1 2816   4.967   3.443   2.851
  639SOL    HW2 2817   4.885   3.317   2.786
  640SOL     OW 2818   0.318   5.240   4.213
  640SOL    HW1 2819   0.311   5.340   4.207
  640SOL    HW2 2820   0.229   5.201   4.236
  641SOL     OW 2821   0.447   4.744   4.843
  641SOL    HW1 2822   0.360   4.751   4.891
  641SOL    HW2 2823   0.521   4.778   4.901
  642SOL     OW 2824   0.284   3.034   4.013
  642SOL    HW1 2825   0.269   2.961   3.946
  642SOL    HW2 2826   0.363   3.089   3.985
  643SOL     OW 2827   6.277   0.252   6.338
  643SOL    HW1 2828   6.240   0.337   6.299
  643SOL    HW2 2829   6.277   0.259   6.438
  644SOL     OW 2830   1.370   6.971   4.451
  644SOL    HW1 2831   1.437   6.953   4.523
  644SOL    HW2 2832   1.278   6.952   4.485
  645SOL     OW 2833   4.310   0.004   5.102
  645SOL    HW1 2834   4.321   0.101   5.126
  645SOL    HW2 2835   4.216   7.013   5.070
  646SOL     OW 2836   3.620   1.106   4.817
  646SOL    HW1 2837   3.682   1.156   4.756
  646SOL    HW2 2838   3.593   1.166   4.893
  647SOL     OW 2839   5.104   2.282   4.887
  647SOL    HW1 2840   5.174   2.310   4.822
  647SOL    HW2 2841   5.017   2.323   4.862
  648SOL     OW 2842   0.654   4.159   4.177
  648SOL    HW1 2843   0.689   4.188   4.266
  648SOL    HW2 2844   0.555   4.144   4.183
  649SOL     OW 2845   2.401   3.923   1.159
  649SOL    HW1 2846   2.402   3.939   1.258
  649SOL    HW2 2847   2.323   3.970   1.118
  650SOL     OW 2848   6.673   4.386   1.217
  650SOL    HW1 2849   6.637   4.298   1.185
  650SOL    HW2 2850   6.644   4.458   1.155
  651SOL     OW 2851   1.768   0.002   5.989
  651SOL    HW1 2852   1.725   0.027   5.902
  651SOL    HW2 2853   1.729   0.057   6.062
  652SOL     OW 2854   4.874   7.019   3.242
  652SOL    HW1 2855   4.845   7.007   3.147
  652SOL    HW2 2856   4.824   6.955   3.300
  653SOL     OW 2857   1.068   5.808   6.987
  653SOL    HW1 2858   1.074   5.855   0.050
  653SOL    HW2 2859   1.128   5.728   6.988
  654SOL     OW 2860   0.973   6.229   0.251
  654SOL    HW1 2861   1.068   6.198   0.255
  654SOL    HW2 2862   0.941   6.227   0.157
  655SOL     OW 2863   0.078   5.623   1.359
  655SOL    HW1 2864   0.002   5.593   1.415
  655SOL    HW2 2865   0.045   5.685   1.288
  656SOL     OW 2866   2.768   6.018   0.613
  656SOL    HW1 2867   2.771   6.079   0.693
  656SOL    HW2 2868   2.745   6.071   0.532
  657SOL     OW 2869   3.580   3.767   1.310
  657SOL    HW1 2870   3.531   3.718   1.382
  657SOL    HW2 2871   3.636   3.703   1.258
  658SOL     OW 2872   1.572   3.411   6.138
  658SOL    HW1 2873   1.550   3.416   6.040
  658SOL    HW2 2874   1.665   3.444   6.153
  659SOL     OW 2875   2.483   6.114   4.465
  659SOL    HW1 2876   2.481   6.045   4.537
  659SOL    HW2 2877   2.564   6.101   4.408
  660SOL     OW 2878   5.796   3.638   2.873
  660SOL    HW1 2879   5.857   3.639   2.794
  660SOL    HW2 2880   5.750   3.727   2.881
  661SOL     OW 2881   4.971   3.794   3.919
  661SOL    HW1 2882   4.989   3.789   3.820
  661SOL    HW2 2883   4.982   3.703   3.959
  662SOL     OW 2884   4.222   0.418   5.604
  662SOL    HW1 2885   4.306   0.473   5.604
  662SOL    HW2 2886   4.196   0.398   5.698
  663SOL     OW 2887   1.323   3.817   0.379
  663SOL    HW1 2888   1.412   3.844   0.416
  663SOL    HW2 2889   1.306   3.721   0.400
  664SOL     OW 2890   1.195   5.659   6.117
  664SOL    HW1 2891   1.209   5.581   6.178
  664SOL    HW2 2892   1.263   5.657   6.044
  665SOL     OW 2893   4.567   5.101   1.186
  665SOL    HW1 2894   4.657   5.143   1.176
  665SOL    HW2 2895   4.531   5.120   1.278
  666SOL     OW 2896   4.121   2.166   2.096
  666SOL    HW1 2897   4.128   2.163   2.195
  666SOL    HW2 2898   4.024   2.163   2.069
  667SOL     OW 2899   6.603   4.136   3.611
  667SOL    HW1 2900   6.657   4.153   3.529
  667SOL    HW2 2901   6.589   4.222   3.660
  668SOL     OW 2902   4.947   5.763   6.995
  668SOL    HW1 2903   4.945   5.751   6.896
  668SOL    HW2 2904   4.943   5.674   0.016
  669SOL     OW 2905   2.962   5.902   2.770
  669SOL    HW1 2906   2.987   5.860   2.683
  669SOL    HW2 2907   2.946   5.832   2.839
  670SOL     OW 2908   2.680   3.153   1.647
  670SOL    HW1 2909   2.706   3.072   1.700
  670SOL    HW2 2910   2.735   3.157   1.564
  671SOL     OW 2911   2.311   5.864   6.611
  671SOL    HW1 2912   2.213   5.848   6.596
  671SOL    HW2 2913   2.342   5.939   6.552
  672SOL     OW 2914   0.736   4.800   1.753
  672SOL    HW1 2915   0.829   4.788   1.718
  672SOL    HW2 2916   0.736   4.871   1.824
  673SOL     OW 2917   6.142   0.374   1.411
  673SOL    HW1 2918   6.072   0.409   1.473
  673SOL    HW2 2919   6.146   0.274   1.419
  674SOL     OW 2920   6.429   3.920   4.795
  674SOL    HW1 2921   6.422   3.821   4.808
  674SOL    HW2 2922   6.402   3.942   4.701
  675SOL     OW 2923   6.879   1.315   5.113
  675SOL    HW1 2924   6.901   1.359   5.025
  675SOL    HW2 2925   6.844   1.223   5.095
  676SOL     OW 2926   3.639   5.378   2.593
  676SOL    HW1 2927   3.572   5.414   2.658
  676SOL    HW2 2928   3.717   5.340   2.642
  677SOL     OW 2929   6.364   1.673   6.646
  677SOL    HW1 2930   6.432   1.746   6.632
  677SOL    HW2 2931   6.398   1.588   6.605
  678SOL     OW 2932   1.108   1.736   5.256
  678SOL    HW1 2933   1.185   1.712   5.197
  678SOL    HW2 2934   1.141   1.755   5.348
  679SOL     OW 2935   4.739   0.946   3.996
  679SOL    HW1 2936   4.814   0.974   3.936
  679SOL    HW2 2937   4.652   0.952   3.946
  680SOL     OW 2938   5.209   5.628   6.080
  680SOL    HW1 2939   5.133   5.650   6.018
  680SOL    HW2 2940   5.294   5.622   6.028
  681SOL     OW 2941   5.626   6.683   1.341
  681SOL    HW1 2942   5.569   6.615   1.387
  681SOL    HW2 2943   5.687   6.727   1.407
  682SOL     OW 2944   1.395   6.920   7.010
  682SOL    HW1 2945   1.429   6.980   0.059
  682SOL    HW2 2946   1.399   6.825   0.016
  683SOL     OW 2947   3.746   1.632   6.853
  683SOL    HW1 2948   3.671   1.625   6.788
  683SOL    HW2 2949   3.831   1.601   6.811
  684SOL     OW 2950   5.826   1.097   6.999
  684SOL    HW1 2951   5.800   1.192   7.013
  684SOL    HW2 2952   5.925   1.088   7.004
  685SOL     OW 2953   4.876   0.608   5.132
  685SOL    HW1 2954   4.801   0.674   5.128
  685SOL    HW2 2955   4.923   0.606   5.044
  686SOL     OW 2956   5.922   2.828   3.346
  686SOL    HW1 2957   5.985   2.759   3.382
  686SOL    HW2 2958   5.881   2.795   3.260
  687SOL     OW 2959   7.008   2.455   4.452
  687SOL    HW1 2960   6.993   2.446   4.551
  687SOL    HW2 2961   6.978   2.545   4.422
  688SOL     OW 2962   1.895   3.066   0.153
  688SOL    HW1 2963   1.882   3.159   0.119
  688SOL    HW2 2964   1.846   3.002   0.094
  689SOL     OW 2965   0.292   4.360   5.464
  689SOL    HW1 2966   0.372   4.385   5.519
  689SOL    HW2 2967   0.209   4.377   5.517
  690SOL     OW 2968   0.817   3.863   3.599
  690SOL    HW1 2969   0.912   3.836   3.617
  690SOL    HW2 2970   0.767   3.785   3.561
  691SOL     OW 2971   2.629   1.296   6.559
  691SOL    HW1 2972   2.634   1.196   6.563
  691SOL    HW2 2973   2.567   1.322   6.485
  692SOL     OW 2974   3.953   6.593   3.052
  692SOL    HW1 2975   3.855   6.577   3.041
  692SOL    HW2 2976   4.004   6.510   3.030
  693SOL     OW 2977   6.558   1.595   3.000
  693SOL    HW1 2978   6.485   1.638   3.053
  693SOL    HW2 2979   6.636   1.658   2.994
  694SOL     OW 2980   3.488   6.807   2.777
  694SOL    HW1 2981   3.552   6.875   2.813
  694SOL    HW2 2982   3.538   6.736   2.728
  695SOL     OW 2983   4.467   4.676   5.771
  695SOL    HW1 2984   4.467   4.754   5.708
  695SOL    HW2 2985   4.560   4.643   5.785
  696SOL     OW 2986   2.956   5.333   2.076
  696SOL    HW1 2987   2.912   5.379   2.153
  696SOL    HW2 2988   3.032   5.390   2.042
  697SOL     OW 2989   1.626   2.846   4.663
  697SOL    HW1 2990   1.723   2.825   4.670
  697SOL    HW2 2991   1.601   2.858   4.567
  698SOL     OW 2992   5.478   0.040   6.756
  698SOL    HW1 2993   5.552   0.046   6.822
  698SOL    HW2 2994   5.513   0.000   6.670
  699SOL     OW 2995   1.147   3.895   0.151
  699SOL    HW1 2996   1.112   3.803   0.167
  699SOL    HW2 2997   1.230   3.909   0.206
  700SOL     OW 2998   2.841   1.305   4.135
  700SOL    HW1 2999   2.850   1.241   4.211
  700SOL    HW2 3000   2.881   1.265   4.053
  701SOL     OW 3001   0.032   4.432   5.542
  701SOL    HW1 3002   7.017   4.343   5.518
  701SOL    HW2 3003   0.023   4.447   5.640
  702SOL     OW 3004   6.214   6.405   6.094
  702SOL    HW1 3005   6.166   6.376   6.012
  702SOL    HW2 3006   6.220   6.328   6.158
  703SOL     OW 3007   4.235   3.565   6.349
  703SOL    HW1 3008   4.169   3.538   6.279
  703SOL    HW2 3009   4.324   3.523   6.329
  704SOL     OW 3010   1.931   1.632   6.551
  704SOL    HW1 3011   1.972   1.552   6.507
  704SOL    HW2 3012   1.986   1.660   6.630
  705SOL     OW 3013   5.344   6.948   3.320
  705SOL    HW1 3014   5.297   6.877   3.374
  705SOL    HW2 3015   5.419   6.986   3.373
  706SOL     OW 3016   4.247   2.096   4.049
  706SOL    HW1 3017   4.162   2.045   4.044
  706SOL    HW2 3018   4.321   2.044   4.007
  707SOL     OW 3019   4.555   6.900   2.613
  707SOL    HW1 3020   4.554   6.927   2.517
  707SOL    HW2 3021   4.469   6.854   2.636
  708SOL     OW 3022   4.079   0.366   1.407
  708SOL    HW1 3023   4.003   0.417   1.367
  708SOL    HW2 3024   4.084   0.275   1.366
  709SOL     OW 3025   1.274   5.510   0.356
  709SOL    HW1 3026   1.321   5.557   0.282
  709SOL    HW2 3027   1.287   5.411   0.348
  710SOL     OW 3028   3.666   3.288   2.018
  710SOL    HW1 3029   3.743   3.316   2.075
  710SOL    HW2 3030   3.590   3.258   2.076
  711SOL     OW 3031   6.924   1.866   5.751
  711SOL    HW1 3032   6.897   1.962   5.756
  711SOL    HW2 3033   6.873   1.813   5.818
  712SOL     OW 3034   3.368   3.809   0.630
  712SOL    HW1 3035   3.283   3.843   0.591
  712SOL    HW2 3036   3.353   3.779   0.724
  713SOL     OW 3037   3.485   2.903   0.095
  713SOL    HW1 3038   3.531   2.949   0.171
  713SOL    HW2 3039   3.462   2.809   0.123
  714SOL     OW 3040   6.481   5.013   4.866
  714SOL    HW1 3041   6.568   5.050   4.834
  714SOL    HW2 3042   6.415   5.012   4.790
  715SOL     OW 3043   5.390   6.417   0.549
  715SOL    HW1 3044   5.342   6.431   0.462
  715SOL    HW2 3045   5.458   6.345   0.537
  716SOL     OW 3046   1.043   6.343   0.852
  716SOL    HW1 3047   0.955   6.297   0.837
  716SOL    HW2 3048   1.114   6.295   0.801
  717SOL     OW 3049   5.812   5.005   6.533
  717SOL    HW1 3050   5.797   5.086   6.589
  717SOL    HW2 3051   5.888   5.022   6.470
  718SOL     OW 3052   4.917   2.410   5.603
  718SOL    HW1 3053   4.972   2.434   5.683
  718SOL    HW2 3054   4.826   2.449   5.614
  719SOL     OW 3055   6.585   2.249   0.752
  719SOL    HW1 3056   6.496   2.237   0.798
  719SOL    HW2 3057   6.630   2.160   0.743
  720SOL     OW 3058   3.643   1.053   6.430
  720SOL    HW1 3059   3.686   0.968   6.399
  720SOL    HW2 3060   3.572   1.032   6.497
  721SOL     OW 3061   2.117   0.494   4.315
  721SOL    HW1 3062   2.068   0.425   4.261
  721SOL    HW2 3063   2.210   0.505   4.279
  722SOL     OW 3064   2.183   0.006   4.952
  722SOL    HW1 3065   2.174   0.105   4.942
  722SOL    HW2 3066   2.126   6.985   4.883
  723SOL     OW 3067   1.819   3.504   3.351
  723SOL    HW1 3068   1.771   3.585   3.384
  723SOL    HW2 3069   1.847   3.448   3.429
  724SOL     OW 3070   1.457   2.460   4.952
  724SOL    HW1 3071   1.392   2.396   4.993
  724SOL    HW2 3072   1.472   2.537   5.014
  725SOL     OW 3073   3.385   5.609   0.615
  725SOL    HW1 3074   3.358   5.527   0.566
  725SOL    HW2 3075   3.478   5.598   0.651
  726SOL     OW 3076   4.065   4.868   0.670
  726SOL    HW1 3077   4.005   4.788   0.665
  726SOL    HW2 3078   4.147   4.851   0.616
  727SOL     OW 3079   5.089   5.382   6.141
  727SOL    HW1 3080   5.025   5.334   6.082
  727SOL    HW2 3081   5.121   5.465   6.096
  728SOL     OW 3082   6.864   3.181   4.502
  728SOL    HW1 3083   6.940   3.232   4.543
  728SOL    HW2 3084   6.777   3.224   4.528
  729SOL     OW 3085   1.656   1.803   0.312
  729SOL    HW1 3086   1.686   1.750   0.391
  729SOL    HW2 3087   1.595   1.877   0.342
  730SOL     OW 3088   5.200   1.137   2.924
  730SOL    HW1 3089   5.209   1.095   2.834
  730SOL    HW2 3090   5.166   1.069   2.989
  731SOL     OW 3091   6.069   4.379   5.926
  731SOL    HW1 3092   6.000   4.417   5.864
  731SOL    HW2 3093   6.060   4.279   5.926
  732SOL     OW 3094   0.534   2.945   1.207
  732SOL    HW1 3095   0.569   2.904   1.291
  732SOL    HW2 3096   0.588   2.913   1.129
  733SOL     OW 3097   5.518   5.287   5.274
  733SOL    HW1 3098   5.560   5.336   5.198
  733SOL    HW2 3099   5.503   5.350   5.350
  734SOL     OW 3100   6.363   4.421   2.696
  734SOL    HW1 3101   6.413   4.391   2.614
  734SOL    HW2 3102   6.394   4.512   2.722
  735SOL     OW 3103   4.181   2.653   0.248
  735SOL    HW1 3104   4.273   2.654   0.208
  735SOL    HW2 3105   4.117   2.611   0.184
  736SOL     OW 3106   0.218   0.120   2.912
  736SOL    HW1 3107   0.252   0.213   2.898
  736SOL    HW2 3108   0.135   0.106   2.858
  737SOL     OW 3109   4.734   2.181   6.495
  737SOL    HW1 3110   4.722   2.255   6.562
  737SOL    HW2 3111   4.812   2.125   6.521
  738SOL     OW 3112   2.250   3.989   2.390
  738SOL    HW1 3113   2.333   3.932   2.393
  738SOL    HW2 3114   2.270   4.073   2.340
  739SOL     OW 3115   3.727   0.329   4.872
  739SOL    HW1 3116   3.665   0.267   4.823
  739SOL    HW2 3117   3.737   0.299   4.967
  740SOL     OW 3118   4.538   6.778   0.244
  740SOL    HW1 3119   4.551   6.727   0.329
  740SOL    HW2 3120   4.477   6.728   0.184
  741SOL     OW 3121   2.136   6.003   2.839
  741SOL    HW1 3122   2.194   5.952   2.776
  741SOL    HW2 3123   2.109   5.945   2.916
  742SOL     OW 3124   1.712   6.610   1.310
  742SOL    HW1 3125   1.712   6.689   1.250
  742SOL    HW2 3126   1.680   6.636   1.401
  743SOL     OW 3127   0.603   4.455   4.644
  743SOL    HW1 3128   0.584   4.441   4.547
  743SOL    HW2 3129   0.597   4.553   4.665
  744SOL     OW 3130   5.678   7.012   6.517
  744SOL    HW1 3131   5.638   0.078   6.526
  744SOL    HW2 3132   5.685   6.987   6.420
  745SOL     OW 3133   1.093   5.133   4.191
  745SOL    HW1 3134   1.050   5.216   4.228
  745SOL    HW2 3135   1.063   5.120   4.096
  746SOL     OW 3136   0.752   5.471   6.063
  746SOL    HW1 3137   0.702   5.397   6.108
  746SOL    HW2 3138   0.823   5.432   6.004
  747SOL     OW 3139   4.363   6.748   4.957
  747SOL    HW1 3140   4.263   6.741   4.964
  747SOL    HW2 3141   4.389   6.844   4.954
  748SOL     OW 3142   3.210   4.856   2.262
  748SOL    HW1 3143   3.130   4.817   2.216
  748SOL    HW2 3144   3.286   4.863   2.197
  749SOL     OW 3145   6.381   4.450   4.996
  749SOL    HW1 3146   6.362   4.462   4.898
  749SOL    HW2 3147   6.310   4.391   5.036
  750SOL     OW 3148   1.990   2.589   1.224
  750SOL    HW1 3149   1.917   2.650   1.255
  750SOL    HW2 3150   2.029   2.541   1.303
  751SOL     OW 3151   4.208   2.932   5.770
  751SOL    HW1 3152   4.128   2.903   5.718
  751SOL    HW2 3153   4.203   2.894   5.863
  752SOL     OW 3154   3.499   1.743   2.113
  752SOL    HW1 3155   3.518   1.746   2.015
  752SOL    HW2 3156   3.566   1.801   2.161
  753SOL     OW 3157   1.537   2.873   4.406
  753SOL    HW1 3158   1.528   2.935   4.328
  753SOL    HW2 3159   1.539   2.779   4.373
  754SOL     OW 3160   5.529   2.947   6.167
  754SOL    HW1 3161   5.437   2.960   6.203
  754SOL    HW2 3162   5.527   2.879   6.093
  755SOL     OW 3163   1.620   5.032   5.678
  755SOL    HW1 3164   1.716   5.047   5.656
  755SOL    HW2 3165   1.563   5.101   5.633
  756SOL     OW 3166   3.333   0.362   1.620
  756SOL    HW1 3167   3.240   0.391   1.645
  756SOL    HW2 3168   3.397   0.437   1.639
  757SOL     OW 3169   0.652   0.168   3.443
  757SOL    HW1 3170   0.718   0.101   3.478
  757SOL    HW2 3171   0.561   0.125   3.440
  758SOL     OW 3172   3.980   0.022   2.137
  758SOL    HW1 3173   3.910   0.019   2.065
  758SOL    HW2 3174   3.940   0.059   2.221
  759SOL     OW 3175   0.678   0.994   0.753
  759SOL    HW1 3176   0.673   0.908   0.701
  759SOL    HW2 3177   0.712   0.975   0.845
  760SOL     OW 3178   4.862   0.283   5.713
  760SOL    HW1 3179   4.847   0.380   5.729
  760SOL    HW2 3180   4.945   0.254   5.762
  761SOL     OW 3181   5.670   3.312   5.266
  761SOL    HW1 3182   5.583   3.302   5.315
  761SOL    HW2 3183   5.744   3.271   5.320
  762SOL     OW 3184   2.146   0.245   4.617
  762SOL    HW1 3185   2.093   0.216   4.537
  762SOL    HW2 3186   2.159   0.344   4.615
  763SOL     OW 3187   4.354   4.611   6.760
  763SOL    HW1 3188   4.277   4.548   6.746
  763SOL    HW2 3189   4.439   4.565   6.737
  764SOL     OW 3190   4.502   0.734   3.884
  764SOL    HW1 3191   4.416   0.783   3.895
  764SOL    HW2 3192   4.547   0.724   3.973
  765SOL     OW 3193   1.167   6.119   1.162
  765SOL    HW1 3194   1.174   6.088   1.068
  765SOL    HW2 3195   1.254   6.159   1.191
  766SOL     OW 3196   1.918   3.666   6.938
  766SOL    HW1 3197   1.879   3.593   6.995
  766SOL    HW2 3198   1.846   3.731   6.912
  767SOL     OW 3199   5.786   5.749   2.219
  767SOL    HW1 3200   5.746   5.806   2.290
  767SOL    HW2 3201   5.774   5.652   2.243
  768SOL     OW 3202   1.547   6.470   1.512
  768SOL    HW1 3203   1.486   6.402   1.553
  768SOL    HW2 3204   1.505   6.508   1.429
  769SOL     OW 3205   3.464   0.733   4.260
  769SOL    HW1 3206   3.424   0.723   4.352
  769SOL    HW2 3207   3.409   0.797   4.207
  770SOL     OW 3208   2.113   3.726   3.192
  770SOL    HW1 3209   2.141   3.630   3.193
  770SOL    HW2 3210   2.015   3.732   3.173
  771SOL     OW 3211   1.981   5.403   2.116
  771SOL    HW1 3212   1.909   5.454   2.068
  771SOL    HW2 3213   2.025   5.339   2.053
  772SOL     OW 3214   6.313   5.280   0.651
  772SOL    HW1 3215   6.408   5.271   0.682
  772SOL    HW2 3216   6.263   5.340   0.714
  773SOL     OW 3217   0.280   3.943   4.009
  773SOL    HW1 3218   0.302   3.939   3.912
  773SOL    HW2 3219   0.327   4.020   4.052
  774SOL     OW 3220   1.434   1.993   1.532
  774SOL    HW1 3221   1.457   2.088   1.508
  774SOL    HW2 3222   1.437   1.982   1.631
  775SOL     OW 3223   1.026   2.231   2.968
  775SOL    HW1 3224   0.981   2.244   3.057
  775SOL    HW2 3225   1.017   2.136   2.940
  776SOL     OW 3226   0.722   0.113   5.610
  776SOL    HW1 3227   0.716   0.086   5.706
  776SOL    HW2 3228   0.758   0.037   5.555
  777SOL     OW 3229   2.950   5.063   0.992
  777SOL    HW1 3230   2.940   5.154   0.952
  777SOL    HW2 3231   3.021   5.064   1.062
  778SOL     OW 3232   3.331   1.451   2.824
  778SOL    HW1 3233   3.320   1.481   2.730
  778SOL    HW2 3234   3.323   1.351   2.829
  779SOL     OW 3235   0.334   2.284   2.947
  779SOL    HW1 3236   0.264   2.263   2.879
  779SOL    HW2 3237   0.319   2.228   3.029
  780SOL     OW 3238   5.798   3.873   3.924
  780SOL    HW1 3239   5.854   3.872   3.841
  780SOL    HW2 3240   5.854   3.846   4.002
  781SOL     OW 3241   5.141   1.437   0.173
  781SOL    HW1 3242   5.103   1.520   0.213
  781SOL    HW2 3243   5.094   1.357   0.210
  782SOL     OW 3244   1.684   3.832   6.845
  782SOL    HW1 3245   1.679   3.915   6.790
  782SOL    HW2 3246   1.705   3.754   6.787
  783SOL     OW 3247   4.096   4.900   1.236
  783SOL    HW1 3248   4.022   4.863   1.292
  783SOL    HW2 3249   4.136   4.980   1.282
  784SOL     OW 3250   5.031   6.462   6.950
  784SOL    HW1 3251   5.052   6.367   6.973
  784SOL    HW2 3252   5.007   6.468   6.853
  785SOL     OW 3253   0.392   2.957   2.979
  785SOL    HW1 3254   0.444   2.958   2.893
  785SOL    HW2 3255   0.404   2.868   3.024
  786SOL     OW 3256   0.958   0.672   1.064
  786SOL    HW1 3257   1.041   0.695   1.013
  786SOL    HW2 3258   0.978   0.671   1.162
  787SOL     OW 3259   2.987   0.905   6.589
  787SOL    HW1 3260   3.009   0.985   6.646
  787SOL    HW2 3261   2.998   0.822   6.644
  788SOL     OW 3262   3.362   2.605   5.875
  788SOL    HW1 3263   3.345   2.697   5.840
  788SOL    HW2 3264   3.424   2.610   5.953
  789SOL     OW 3265   5.312   3.741   1.165
  789SOL    HW1 3266   5.282   3.654   1.123
  789SOL    HW2 3267   5.356   3.722   1.252
  790SOL     OW 3268   2.600   0.716   4.157
  790SOL    HW1 3269   2.576   0.765   4.074
  790SOL    HW2 3270   2.669   0.647   4.137
  791SOL     OW 3271   3.793   6.155   3.324
  791SOL    HW1 3272   3.773   6.168   3.226
  791SOL    HW2 3273   3.708   6.135   3.373
  792SOL     OW 3274   0.452   0.563   1.266
  792SOL    HW1 3275   0.511   0.624   1.318
  792SOL    HW2 3276   0.499   0.476   1.251
  793SOL     OW 3277   5.291   5.760   3.115
  793SOL    HW1 3278   5.254   5.836   3.167
  793SOL    HW2 3279   5.284   5.780   3.017
  794SOL     OW 3280   2.926   4.024   5.496
  794SOL    HW1 3281   2.841   3.972   5.496
  794SOL    HW2 3282   2.910   4.113   5.538
  795SOL     OW 3283   3.880   6.796   4.795
  795SOL    HW1 3284   3.973   6.798   4.757
  795SOL    HW2 3285   3.827   6.872   4.758
  796SOL     OW 3286   1.139   1.937   6.320
  796SOL    HW1 3287   1.208   1.994   6.278
  796SOL    HW2 3288   1.057   1.991   6.338
  797SOL     OW 3289   5.033   2.820   1.659
  797SOL    HW1 3290   4.957   2.864   1.611
  797SOL    HW2 3291   5.120   2.860   1.628
  798SOL     OW 3292   5.027   6.752   2.034
  798SOL    HW1 3293   5.023   6.851   2.020
  798SOL    HW2 3294   4.964   6.726   2.107
  799SOL     OW 3295   6.317   1.165   5.340
  799SOL    HW1 3296   6.336   1.197   5.432
  799SOL    HW2 3297   6.248   1.224   5.297
  800SOL     OW 3298   5.149   1.915   2.613
  800SOL    HW1 3299   5.071   1.857   2.591
  800SOL    HW2 3300   5.175   1.901   2.709
  801SOL     OW 3301   2.039   3.278   4.340
  801SOL    HW1 3302   2.089   3.356   4.301
  801SOL    HW2 3303   1.990   3.231   4.267
  802SOL     OW 3304   4.638   0.610   0.526
  802SOL    HW1 3305   4.630   0.510   0.531
  802SOL    HW2 3306   4.549   0.649   0.504
  803SOL     OW 3307   0.062   6.334   5.024
  803SOL    HW1 3308   0.138   6.398   5.032
  803SOL    HW2 3309   0.087   6.247   5.068
  804SOL     OW 3310   5.557   5.952   0.293
  804SOL    HW1 3311   5.647   5.909   0.290
  804SOL    HW2 3312   5.490   5.887   0.329
  805SOL     OW 3313   3.514   1.344   5.691
  805SOL    HW1 3314   3.550   1.253   5.710
  805SOL    HW2 3315   3.452   1.339   5.613
  806SOL     OW 3316   5.181   1.106   3.903
  806SOL    HW1 3317   5.220   1.187   3.860
  806SOL    HW2 3318   5.081   1.111   3.899
  807SOL     OW 3319   0.894   1.934   4.669
  807SOL    HW1 3320   0.909   1.854   4.726
  807SOL    HW2 3321   0.809   1.979   4.696
  808SOL     OW 3322   4.762   2.873   6.063
  808SOL    HW1 3323   4.773   2.817   5.980
  808SOL    HW2 3324   4.836   2.851   6.127
  809SOL     OW 3325   0.488   4.987   1.649
  809SOL    HW1 3326   0.546   5.049   1.702
  809SOL    HW2 3327   0.537   4.901   1.633
  810SOL     OW 3328   3.390   3.014   0.896
  810SOL    HW1 3329   3.354   2.958   0.822
  810SOL    HW2 3330   3.316   3.065   0.939
  811SOL     OW 3331   4.046   5.648   4.451
  811SOL    HW1 3332   4.039   5.712   4.374
  811SOL    HW2 3333   4.105   5.572   4.425
  812SOL     OW 3334   0.456   1.846   1.501
  812SOL    HW1 3335   0.368   1.893   1.493
  812SOL    HW2 3336   0.471   1.819   1.596
  813SOL     OW 3337   3.444   5.623   5.037
  813SOL    HW1 3338   3.457   5.693   4.968
  813SOL    HW2 3339   3.509   5.637   5.112
  814SOL     OW 3340   5.955   6.275   2.855
  814SOL    HW1 3341   5.919   6.366   2.876
  814SOL    HW2 3342   5.881   6.208   2.857
  815SOL     OW 3343   0.739   3.792   2.922
  815SOL    HW1 3344   0.742   3.696   2.951
  815SOL    HW2 3345   0.761   3.798   2.825
  816SOL     OW 3346   6.334   6.785   0.431
  816SOL    HW1 3347   6.407   6.854   0.435
  816SOL    HW2 3348   6.262   6.817   0.369
  817SOL     OW 3349   2.194   3.717   1.466
  817SOL    HW1 3350   2.280   3.666   1.468
  817SOL    HW2 3351   2.117   3.654   1.476
  818SOL     OW 3352   6.490   2.641   1.474
  818SOL    HW1 3353   6.546   2.631   1.556
  818SOL    HW2 3354   6.404   2.685   1.498
  819SOL     OW 3355   5.333   2.966   3.073
  819SOL    HW1 3356   5.409   2.999   3.016
  819SOL    HW2 3357   5.281   2.898   3.023
  820SOL     OW 3358   2.505   3.071   5.648
  820SOL    HW1 3359   2.509   3.000   5.718
  820SOL    HW2 3360   2.597   3.102   5.626
  821SOL     OW 3361   1.812   4.136   6.990
  821SOL    HW1 3362   1.780   4.097   6.903
  821SOL    HW2 3363   1.766   4.090   0.041
  822SOL     OW 3364   1.828   4.186   4.579
  822SOL    HW1 3365   1.877   4.204   4.664
  822SOL    HW2 3366   1.745   4.242   4.575
  823SOL     OW 3367   4.883   4.094   5.948
  823SOL    HW1 3368   4.980   4.098   5.922
  823SOL    HW2 3369   4.866   4.008   5.996
  824SOL     OW 3370   5.290   1.234   5.168
  824SOL    HW1 3371   5.365   1.218   5.232
  824SOL    HW2 3372   5.323   1.291   5.092
  825SOL     OW 3373   1.473   4.212   0.816
  825SOL    HW1 3374   1.423   4.292   0.850
  825SOL    HW2 3375   1.560   4.242   0.777
  826SOL     OW 3376   5.039   3.192   5.986
  826SOL    HW1 3377   5.111   3.205   6.054
  826SOL    HW2 3378   5.070   3.129   5.915
  827SOL     OW 3379   3.315   4.625   6.323
  827SOL    HW1 3380   3.240   4.679   6.285
  827SOL    HW2 3381   3.280   4.537   6.356
  828SOL     OW 3382   5.327   6.269   5.902
  828SOL    HW1 3383   5.235   6.306   5.917
  828SOL    HW2 3384   5.395   6.332   5.939
  829SOL     OW 3385   3.006   3.433   3.580
  829SOL    HW1 3386   3.034   3.427   3.676
  829SOL    HW2 3387   3.009   3.342   3.539
  830SOL     OW 3388   4.699   4.795   0.007
  830SOL    HW1 3389   4.651   4.710   0.033
  830SOL    HW2 3390   4.668   4.823   6.941
  831SOL     OW 3391   5.519   1.123   6.456
  831SOL    HW1 3392   5.466   1.193   6.503
  831SOL    HW2 3393   5.568   1.067   6.524
  832SOL     OW 3394   2.706   0.384   1.408
  832SOL    HW1 3395   2.737   0.325   1.333
  832SOL    HW2 3396   2.761   0.467   1.409
  833SOL     OW 3397   0.612   4.030   6.379
  833SOL    HW1 3398   0.547   3.994   6.313
  833SOL    HW2 3399   0.589   4.124   6.402
  834SOL     OW 3400   2.814   3.839   1.175
  834SOL    HW1 3401   2.883   3.798   1.116
  834SOL    HW2 3402   2.730   3.785   1.171
  835SOL     OW 3403   3.354   0.686   4.485
  835SOL    HW1 3404   3.263   0.646   4.498
  835SOL    HW2 3405   3.411   0.666   4.564
  836SOL     OW 3406   3.749   6.614   6.579
  836SOL    HW1 3407   3.699   6.616   6.665
  836SOL    HW2 3408   3.731   6.527   6.532
  837SOL     OW 3409   5.454   6.397   7.008
  837SOL    HW1 3410   5.406   6.424   6.924
  837SOL    HW2 3411   5.388   6.360   0.049
  838SOL     OW 3412   2.019   0.075   4.000
  838SOL    HW1 3413   1.978   0.022   3.926
  838SOL    HW2 3414   1.962   0.156   4.019
  839SOL     OW 3415   2.667   2.237   2.077
  839SOL    HW1 3416   2.653   2.175   2.154
  839SOL    HW2 3417   2.764   2.255   2.066
  840SOL     OW 3418   5.729   0.037   6.897
  840SOL    HW1 3419   5.785   0.037   6.980
  840SOL    HW2 3420   5.748   6.978   6.845
  841SOL     OW 3421   4.326   5.163   0.563
  841SOL    HW1 3422   4.413   5.183   0.519
  841SOL    HW2 3423   4.270   5.107   0.503
  842SOL     OW 3424   4.539   5.875   4.729
  842SOL    HW1 3425   4.452   5.828   4.720
  842SOL    HW2 3426   4.593   5.834   4.803
  843SOL     OW 3427   2.376   1.948   6.849
  843SOL    HW1 3428   2.373   1.860   6.802
  843SOL    HW2 3429   2.467   1.961   6.890
  844SOL     OW 3430   5.893   0.061   1.269
  844SOL    HW1 3431   5.821   0.126   1.244
  844SOL    HW2 3432   5.931   0.087   1.358
  845SOL     OW 3433   5.699   4.294   5.367
  845SOL    HW1 3434   5.736   4.243   5.290
  845SOL    HW2 3435   5.603   4.268   5.381
  846SOL     OW 3436   2.427   1.578   0.214
  846SOL    HW1 3437   2.427   1.486   0.254
  846SOL    HW2 3438   2.371   1.639   0.269
  847SOL     OW 3439   1.136   4.286   0.601
  847SOL    HW1 3440   1.105   4.274   0.507
  847SOL    HW2 3441   1.219   4.342   0.602
  848SOL     OW 3442   5.847   0.869   6.624
  848SOL    HW1 3443   5.754   0.907   6.616
  848SOL    HW2 3444   5.854   0.815   6.707
  849SOL     OW 3445   0.773   4.584   5.824
  849SOL    HW1 3446   0.746   4.587   5.921
  849SOL    HW2 3447   0.873   4.585   5.818
  850SOL     OW 3448   5.820   1.165   4.120
  850SOL    HW1 3449   5.836   1.067   4.107
  850SOL    HW2 3450   5.846   1.215   4.037
  851SOL     OW 3451   0.507   0.994   1.818
  851SOL    HW1 3452   0.523   1.024   1.912
  851SOL    HW2 3453   0.491   0.895   1.817
  852SOL     OW 3454   1.240   2.583   0.261
  852SOL    HW1 3455   1.330   2.538   0.256
  852SOL    HW2 3456   1.200   2.567   0.351
  853SOL     OW 3457   1.981   4.474   2.502
  853SOL    HW1 3458   1.949   4.507   2.590
  853SOL    HW2 3459   1.914   4.410   2.464
  854SOL     OW 3460   4.512   6.224   2.018
  854SOL    HW1 3461   4.420   6.185   2.025
  854SOL    HW2 3462   4.544   6.251   2.109
  855SOL     OW 3463   6.996   0.307   1.202
  855SOL    HW1 3464   7.008   0.393   1.252
  855SOL    HW2 3465   7.000   0.325   1.104
  856SOL     OW 3466   1.497   1.918   5.055
  856SOL    HW1 3467   1.438   1.964   5.122
  856SOL    HW2 3468   1.591   1.914   5.091
  857SOL     OW 3469   6.150   4.379   2.103
  857SOL    HW1 3470   6.197   4.391   2.190
  857SOL    HW2 3471   6.120   4.284   2.094
  858SOL     OW 3472   2.523   4.288   1.197
  858SOL    HW1 3473   2.589   4.214   1.181
  858SOL    HW2 3474   2.437   4.266   1.152
  859SOL     OW 3475   4.788   5.657   6.617
  859SOL    HW1 3476   4.807   5.755   6.617
  859SOL    HW2 3477   4.755   5.630   6.527
  860SOL     OW 3478   4.220   4.059   0.466
  860SOL    HW1 3479   4.205   4.076   0.369
  860SOL    HW2 3480   4.278   4.131   0.504
  861SOL     OW 3481   2.735   0.608   4.502
  861SOL    HW1 3482   2.715   0.626   4.598
  861SOL    HW2 3483   2.653   0.571   4.458
  862SOL     OW 3484   0.405   4.015   5.732
  862SOL    HW1 3485   0.463   3.949   5.780
  862SOL    HW2 3486   0.427   4.108   5.763
  863SOL     OW 3487   0.428   0.438   0.451
  863SOL    HW1 3488   0.334   0.410   0.431
  863SOL    HW2 3489   0.444   0.434   0.550
  864SOL     OW 3490   4.995   4.488   3.769
  864SOL    HW1 3491   4.987   4.560   3.700
  864SOL    HW2 3492   5.080   4.438   3.756
  865SOL     OW 3493   1.988   6.662   5.460
  865SOL    HW1 3494   1.982   6.571   5.499
  865SOL    HW2 3495   1.965   6.658   5.363
  866SOL     OW 3496   2.149   2.811   1.982
  866SOL    HW1 3497   2.082   2.750   2.024
  866SOL    HW2 3498   2.115   2.845   1.895
  867SOL     OW 3499   3.837   2.880   0.893
  867SOL    HW1 3500   3.743   2.881   0.928
  867SOL    HW2 3501   3.867   2.786   0.878
  868SOL     OW 3502   6.068   6.813   1.326
  868SOL    HW1 3503   6.042   6.727   1.371
  868SOL    HW2 3504   5.985   6.861   1.297
  869SOL     OW 3505   6.711   5.300   3.560
  869SOL    HW1 3506   6.742   5.381   3.609
  869SOL    HW2 3507   6.615   5.311   3.534
  870SOL     OW 3508   5.382   3.873   0.350
  870SOL    HW1 3509   5.320   3.924   0.290
  870SOL    HW2 3510   5.377   3.910   0.443
  871SOL     OW 3511   5.422   3.893   2.903
  871SOL    HW1 3512   5.519   3.884   2.884
  871SOL    HW2 3513   5.372   3.818   2.859
  872SOL     OW 3514   5.940   4.487   4.134
  872SOL    HW1 3515   5.887   4.517   4.213
  872SOL    HW2 3516   6.031   4.527   4.137
  873SOL     OW 3517   5.856   6.900   3.807
  873SOL    HW1 3518   5.850   6.993   3.845
  873SOL    HW2 3519   5.895   6.839   3.875
  874SOL     OW 3520   0.940   4.936   4.833
  874SOL    HW1 3521   1.027   4.953   4.786
  874SOL    HW2 3522   0.889   5.022   4.839
  875SOL     OW 3523   3.992   2.707   0.535
  875SOL    HW1 3524   4.078   2.658   0.546
  875SOL    HW2 3525   3.923   2.671   0.598
  876SOL     OW 3526   0.562   6.083   3.500
  876SOL    HW1 3527   0.573   5.988   3.529
  876SOL    HW2 3528   0.556   6.142   3.580
  877SOL     OW 3529   3.262   4.462   0.734
  877SOL    HW1 3530   3.295   4.374   0.699
  877SOL    HW2 3531   3.339   4.526   0.740
  878SOL     OW 3532   4.551   6.209   5.361
  878SOL    HW1 3533   4.499   6.194   5.278
  878SOL    HW2 3534   4.489   6.223   5.438
  879SOL     OW 3535   2.981   2.061   1.944
  879SOL    HW1 3536   3.065   2.025   1.984
  879SOL    HW2 3537   2.959   2.149   1.988
  880SOL     OW 3538   2.903   4.644   6.378
  880SOL    HW1 3539   2.889   4.691   6.465
  880SOL    HW2 3540   2.884   4.546   6.389
  881SOL     OW 3541   4.546   4.596   5.355
  881SOL    HW1 3542   4.604   4.520   5.386
  881SOL    HW2 3543   4.567   4.677   5.409
  882SOL     OW 3544   1.432   1.658   4.202
  882SOL    HW1 3545   1.334   1.653   4.219
  882SOL    HW2 3546   1.479   1.679   4.288
  883SOL     OW 3547   5.097   5.338   5.741
  883SOL    HW1 3548   5.160   5.345   5.664
  883SOL    HW2 3549   5.126   5.264   5.802
  884SOL     OW 3550   7.003   3.277   0.687
  884SOL    HW1 3551   7.010   3.342   0.612
  884SOL    HW2 3552   6.910   3.279   0.724
  885SOL     OW 3553   4.774   6.032   6.862
  885SOL    HW1 3554   4.742   6.124   6.838
  885SOL    HW2 3555   4.860   6.013   6.815
  886SOL     OW 3556   3.213   0.192   1.145
  886SOL    HW1 3557   3.283   0.121   1.131
  886SOL    HW2 3558   3.146   0.187   1.070
  887SOL     OW 3559   4.399   0.344   4.480
  887SOL    HW1 3560   4.460   0.268   4.459
  887SOL    HW2 3561   4.313   0.307   4.516
  888SOL     OW 3562   6.144   6.902   3.200
  888SOL    HW1 3563   6.119   6.808   3.222
  888SOL    HW2 3564   6.208   6.936   3.269
  889SOL     OW 3565   1.699   6.558   5.295
  889SOL    HW1 3566   1.675   6.651   5.268
  889SOL    HW2 3567   1.795   6.540   5.271
  890SOL     OW 3568   2.658   5.242   2.346
  890SOL    HW1 3569   2.668   5.146   2.319
  890SOL    HW2 3570   2.645   5.248   2.445
  891SOL     OW 3571   5.905   3.826   1.658
  891SOL    HW1 3572   5.940   3.803   1.749
  891SOL    HW2 3573   5.902   3.926   1.648
  892SOL     OW 3574   4.291   3.836   0.291
  892SOL    HW1 3575   4.308   3.795   0.381
  892SOL    HW2 3576   4.244   3.924   0.303
  893SOL     OW 3577   2.098   1.102   2.165
  893SOL    HW1 3578   2.067   1.195   2.148
  893SOL    HW2 3579   2.157   1.072   2.090
  894SOL     OW 3580   1.928   2.871   4.353
  894SOL    HW1 3581   1.859   2.882   4.282
  894SOL    HW2 3582   2.010   2.923   4.330
  895SOL     OW 3583   2.060   5.561   4.589
  895SOL    HW1 3584   2.072   5.519   4.499
  895SOL    HW2 3585   2.054   5.660   4.579
  896SOL     OW 3586   5.310   6.910   2.419
  896SOL    HW1 3587   5.342   6.898   2.325
  896SOL    HW2 3588   5.210   6.914   2.420
  897SOL     OW 3589   5.560   0.752   0.065
  897SOL    HW1 3590   5.537   0.698   7.008
  897SOL    HW2 3591   5.653   0.787   0.057
  898SOL     OW 3592   3.906   5.623   2.760
  898SOL    HW1 3593   3.814   5.591   2.783
  898SOL    HW2 3594   3.949   5.664   2.841
  899SOL     OW 3595   0.192   5.158   0.019
  899SOL    HW1 3596   0.287   5.189   0.014
  899SOL    HW2 3597   0.142   5.216   0.084
  900SOL     OW 3598   5.123   6.431   1.498
  900SOL    HW1 3599   5.126   6.340   1.539
  900SOL    HW2 3600   5.028   6.464   1.499
  901SOL     OW 3601   0.768   1.253   5.312
  901SOL    HW1 3602   0.783   1.211   5.222
  901SOL    HW2 3603   0.852   1.296   5.343
  902SOL     OW 3604   0.073   2.088   6.560
  902SOL    HW1 3605   0.138   2.012   6.570
  902SOL    HW2 3606   0.116   2.162   6.507
  903SOL     OW 3607   6.958   4.063   6.590
  903SOL    HW1 3608   6.926   3.989   6.648
  903SOL    HW2 3609   6.984   4.142   6.647
  904SOL     OW 3610   1.388   1.906   4.075
  904SOL    HW1 3611   1.342   1.977   4.127
  904SOL    HW2 3612   1.410   1.829   4.135
  905SOL     OW 3613   4.358   3.116   5.926
  905SOL    HW1 3614   4.290   3.078   5.863
  905SOL    HW2 3615   4.450   3.088   5.897
  906SOL     OW 3616   0.073   3.823   6.363
  906SOL    HW1 3617   0.128   3.826   6.447
  906SOL    HW2 3618   0.071   3.913   6.321
  907SOL     OW 3619   5.496   3.087   3.550
  907SOL    HW1 3620   5.467   3.106   3.456
  907SOL    HW2 3621   5.595   3.101   3.557
  908SOL     OW 3622   1.833   6.540   3.264
  908SOL    HW1 3623   1.770   6.524   3.340
  908SOL    HW2 3624   1.920   6.576   3.300
  909SOL     OW 3625   2.016   6.582   1.377
  909SOL    HW1 3626   1.916   6.585   1.376
  909SOL    HW2 3627   2.046   6.513   1.443
  910SOL     OW 3628   2.536   0.244   0.699
  910SOL    HW1 3629   2.616   0.266   0.644
  910SOL    HW2 3630   2.459   0.301   0.671
  911SOL     OW 3631   6.949   5.775   1.175
  911SOL    HW1 3632   6.861   5.814   1.203
  911SOL    HW2 3633   6.933   5.693   1.120
  912SOL     OW 3634   6.455   1.311   4.876
  912SOL    HW1 3635   6.423   1.260   4.796
  912SOL    HW2 3636   6.390   1.385   4.896
  913SOL     OW 3637   2.272   0.222   2.932
  913SOL    HW1 3638   2.325   0.282   2.872
  913SOL    HW2 3639   2.334   0.168   2.989
  914SOL     OW 3640   2.826   5.336   5.178
  914SOL    HW1 3641   2.868   5.246   5.171
  914SOL    HW2 3642   2.833   5.384   5.090
  915SOL     OW 3643   1.328   3.279   0.224
  915SOL    HW1 3644   1.425   3.260   0.237
  915SOL    HW2 3645   1.288   3.210   0.163
  916SOL     OW 3646   1.379   2.700   2.358
  916SOL    HW1 3647   1.361   2.621   2.417
  916SOL    HW2 3648   1.437   2.673   2.282
  917SOL     OW 3649   5.200   0.450   1.532
  917SOL    HW1 3650   5.128   0.383   1.515
  917SOL    HW2 3651   5.159   0.540   1.545
  918SOL     OW 3652   2.642   5.952   6.977
  918SOL    HW1 3653   2.692   5.980   0.035
  918SOL    HW2 3654   2.683   5.997   6.897
  919SOL     OW 3655   6.825   5.677   2.632
  919SOL    HW1 3656   6.900   5.652   2.693
  919SOL    HW2 3657   6.752   5.608   2.639
  920SOL     OW 3658   1.484   0.056   3.316
  920SOL    HW1 3659   1.571   0.029   3.274
  920SOL    HW2 3660   1.408   0.032   3.255
  921SOL     OW 3661   5.140   4.668   4.243
  921SOL    HW1 3662   5.132   4.632   4.336
  921SOL    HW2 3663   5.116   4.598   4.177
  922SOL     OW 3664   3.490   3.113   6.932
  922SOL    HW1 3665   3.470   3.022   6.968
  922SOL    HW2 3666   3.521   3.172   7.006
  923SOL     OW 3667   3.074   4.969   6.690
  923SOL    HW1 3668   3.032   4.949   6.778
  923SOL    HW2 3669   3.130   4.892   6.661
  924SOL     OW 3670   6.094   2.803   1.851
  924SOL    HW1 3671   5.994   2.814   1.851
  924SOL    HW2 3672   6.116   2.706   1.842
  925SOL     OW 3673   6.409   1.688   5.531
  925SOL    HW1 3674   6.340   1.696   5.603
  925SOL    HW2 3675   6.485   1.750   5.551
  926SOL     OW 3676   6.081   1.387   0.292
  926SOL    HW1 3677   6.020   1.319   0.330
  926SOL    HW2 3678   6.109   1.452   0.363
  927SOL     OW 3679   5.239   4.346   3.729
  927SOL    HW1 3680   5.225   4.261   3.678
  927SOL    HW2 3681   5.334   4.375   3.722
  928SOL     OW 3682   1.854   0.429   0.488
  928SOL    HW1 3683   1.895   0.400   0.574
  928SOL    HW2 3684   1.926   0.454   0.423
  929SOL     OW 3685   0.354   1.536   0.622
  929SOL    HW1 3686   0.328   1.624   0.662
  929SOL    HW2 3687   0.286   1.467   0.648
  930SOL     OW 3688   5.733   5.897   4.716
  930SOL    HW1 3689   5.810   5.959   4.698
  930SOL    HW2 3690   5.747   5.812   4.666
  931SOL     OW 3691   6.418   3.529   3.302
  931SOL    HW1 3692   6.343   3.517   3.368
  931SOL    HW2 3693   6.486   3.591   3.339
  932SOL     OW 3694   2.111   0.127   1.527
  932SOL    HW1 3695   2.032   0.091   1.575
  932SOL    HW2 3696   2.087   0.144   1.431
  933SOL     OW 3697   0.246   5.760   2.596
  933SOL    HW1 3698   0.294   5.783   2.680
  933SOL    HW2 3699   0.248   5.839   2.534
  934SOL     OW 3700   2.064   0.783   4.490
  934SOL    HW1 3701   2.087   0.705   4.432
  934SOL    HW2 3702   1.972   0.772   4.526
  935SOL     OW 3703   5.287   3.798   5.102
  935SOL    HW1 3704   5.255   3.892   5.112
  935SOL    HW2 3705   5.310   3.762   5.193
  936SOL     OW 3706   1.375   0.785   6.224
  936SOL    HW1 3707   1.461   0.770   6.272
  936SOL    HW2 3708   1.305   0.813   6.289
  937SOL     OW 3709   4.934   2.021   5.176
  937SOL    HW1 3710   4.942   1.935   5.227
  937SOL    HW2 3711   5.011   2.080   5.199
  938SOL     OW 3712   0.159   5.031   6.349
  938SOL    HW1 3713   0.181   5.001   6.442
  938SOL    HW2 3714   0.242   5.033   6.295
  939SOL     OW 3715   4.951   1.670   4.953
  939SOL    HW1 3716   4.961   1.586   4.899
  939SOL    HW2 3717   4.921   1.647   5.045
  940SOL     OW 3718   0.487   2.960   2.694
  940SOL    HW1 3719   0.442   2.933   2.610
  940SOL    HW2 3720   0.578   2.918   2.698
  941SOL     OW 3721   6.465   0.577   4.412
  941SOL    HW1 3722   6.421   0.545   4.328
  941SOL    HW2 3723   6.432   0.523   4.489
  942SOL     OW 3724   5.148   0.906   4.203
  942SOL    HW1 3725   5.149   1.000   4.237
  942SOL    HW2 3726   5.231   0.889   4.149
  943SOL     OW 3727   1.353   2.996   3.623
  943SOL    HW1 3728   1.421   3.041   3.680
  943SOL    HW2 3729   1.319   3.061   3.554
  944SOL     OW 3730   6.068   3.425   6.145
  944SOL    HW1 3731   6.021   3.510   6.166
  944SOL    HW2 3732   6.057   3.403   6.048
  945SOL     OW 3733   6.876   4.142   5.926
  945SOL    HW1 3734   6.868   4.175   6.020
  945SOL    HW2 3735   6.943   4.067   5.923
  946SOL     OW 3736   4.952   2.780   6.224
  946SOL    HW1 3737   4.934   2.758   6.320
  946SOL    HW2 3738   5.041   2.744   6.197
  947SOL     OW 3739   3.102   3.100   4.792
  947SOL    HW1 3740   3.082   3.183   4.843
  947SOL    HW2 3741   3.107   3.023   4.855
  948SOL     OW 3742   4.658   0.785   0.736
  948SOL    HW1 3743   4.676   0.754   0.829
  948SOL    HW2 3744   4.638   0.705   0.678
  949SOL     OW 3745   0.111   6.277   6.520
  949SOL    HW1 3746   0.142   6.197   6.469
  949SOL    HW2 3747   0.162   6.358   6.491
  950SOL     OW 3748   4.146   5.353   2.050
  950SOL    HW1 3749   4.119   5.277   1.992
  950SOL    HW2 3750   4.245   5.365   2.047
  951SOL     OW 3751   1.528   0.621   2.157
  951SOL    HW1 3752   1.455   0.683   2.185
  951SOL    HW2 3753   1.611   0.640   2.210
  952SOL     OW 3754   5.814   1.607   2.239
  952SOL    HW1 3755   5.776   1.562   2.320
  952SOL    HW2 3756   5.893   1.555   2.207
  953SOL     OW 3757   5.392   5.744   5.252
  953SOL    HW1 3758   5.383   5.645   5.266
  953SOL    HW2 3759   5.302   5.787   5.259
  954SOL     OW 3760   5.094   5.713   0.511
  954SOL    HW1 3761   5.037   5.697   0.430
  954SOL    HW2 3762   5.038   5.751   0.584
  955SOL     OW 3763   6.962   4.946   3.307
  955SOL    HW1 3764   6.932   4.993   3.223
  955SOL    HW2 3765   7.002   5.013   3.369
  956SOL     OW 3766   0.912   2.303   2.512
  956SOL    HW1 3767   0.812   2.315   2.510
  956SOL    HW2 3768   0.956   2.392   2.512
  957SOL     OW 3769   1.303   5.004   4.566
  957SOL    HW1 3770   1.380   5.012   4.630
  957SOL    HW2 3771   1.270   4.910   4.566
  958SOL     OW 3772   4.680   2.666   1.845
  958SOL    HW1 3773   4.623   2.588   1.819
  958SOL    HW2 3774   4.657   2.745   1.789
  959SOL     OW 3775   2.709   4.626   2.864
  959SOL    HW1 3776   2.614   4.601   2.885
  959SOL    HW2 3777   2.712   4.678   2.779
  960SOL     OW 3778   0.214   5.770   3.820
  960SOL    HW1 3779   0.126   5.737   3.787
  960SOL    HW2 3780   0.201   5.853   3.873
  961SOL     OW 3781   5.110   0.108   3.281
  961SOL    HW1 3782   5.190   0.047   3.280
  961SOL    HW2 3783   5.027   0.054   3.274
  962SOL     OW 3784   1.769   1.273   4.528
  962SOL    HW1 3785   1.719   1.350   4.489
  962SOL    HW2 3786   1.807   1.300   4.617
  963SOL     OW 3787   6.436   1.270   5.970
  963SOL    HW1 3788   6.492   1.213   5.911
  963SOL    HW2 3789   6.425   1.225   6.059
  964SOL     OW 3790   6.531   3.637   0.627
  964SOL    HW1 3791   6.496   3.662   0.537
  964SOL    HW2 3792   6.486   3.553   0.658
  965SOL     OW 3793   5.756   1.833   1.255
  965SOL    HW1 3794   5.801   1.790   1.334
  965SOL    HW2 3795   5.793   1.926   1.243
  966SOL     OW 3796   5.591   1.569   2.430
  966SOL    HW1 3797   5.554   1.662   2.424
  966SOL    HW2 3798   5.520   1.507   2.463
  967SOL     OW 3799   2.297   5.386   1.462
  967SOL    HW1 3800   2.236   5.373   1.540
  967SOL    HW2 3801   2.298   5.304   1.405
  968SOL     OW 3802   4.620   2.541   2.303
  968SOL    HW1 3803   4.621   2.590   2.216
  968SOL    HW2 3804   4.655   2.601   2.375
  969SOL     OW 3805   4.276   5.970   6.748
  969SOL    HW1 3806   4.220   6.045   6.783
  969SOL    HW2 3807   4.373   5.991   6.762
  970SOL     OW 3808   4.840   1.034   4.903
  970SOL    HW1 3809   4.875   1.119   4.942
  970SOL    HW2 3810   4.912   0.990   4.849
  971SOL     OW 3811   0.413   1.819   3.143
  971SOL    HW1 3812   0.372   1.829   3.234
  971SOL    HW2 3813   0.482   1.890   3.130
  972SOL     OW 3814   5.955   3.950   1.303
  972SOL    HW1 3815   5.884   3.880   1.308
  972SOL    HW2 3816   5.981   3.978   1.396
  973SOL     OW 3817   6.712   4.140   0.235
  973SOL    HW1 3818   6.707   4.054   0.184
  973SOL    HW2 3819   6.624   4.187   0.229
  974SOL     OW 3820   4.457   0.314   2.631
  974SOL    HW1 3821   4.383   0.291   2.694
  974SOL    HW2 3822   4.536   0.346   2.683
  975SOL     OW 3823   2.100   5.939   5.966
  975SOL    HW1 3824   2.022   5.912   5.912
  975SOL    HW2 3825   2.070   5.997   6.042
  976SOL     OW 3826   6.257   3.070   2.382
  976SOL    HW1 3827   6.203   3.149   2.352
  976SOL    HW2 3828   6.205   2.986   2.367
  977SOL     OW 3829   2.171   0.901   3.997
  977SOL    HW1 3830   2.123   0.886   3.910
  977SOL    HW2 3831   2.262   0.940   3.979
  978SOL     OW 3832   4.282   4.277   5.576
  978SOL    HW1 3833   4.313   4.208   5.642
  978SOL    HW2 3834   4.301   4.244   5.483
  979SOL     OW 3835   0.102   1.709   1.582
  979SOL    HW1 3836   0.002   1.718   1.579
  979SOL    HW2 3837   0.129   1.628   1.530
  980SOL     OW 3838   4.569   2.330   4.018
  980SOL    HW1 3839   4.558   2.346   4.116
  980SOL    HW2 3840   4.553   2.234   3.998
  981SOL     OW 3841   1.559   1.345   4.905
  981SOL    HW1 3842   1.566   1.395   4.819
  981SOL    HW2 3843   1.649   1.336   4.947
  982SOL     OW 3844   2.506   2.023   3.373
  982SOL    HW1 3845   2.544   2.047   3.462
  982SOL    HW2 3846   2.555   1.944   3.336
  983SOL     OW 3847   5.633   2.242   3.653
  983SOL    HW1 3848   5.616   2.339   3.636
  983SOL    HW2 3849   5.556   2.189   3.618
  984SOL     OW 3850   3.052   1.578   3.649
  984SOL    HW1 3851   3.012   1.624   3.728
  984SOL    HW2 3852   3.083   1.486   3.675
  985SOL     OW 3853   4.930   4.887   6.476
  985SOL    HW1 3854   4.868   4.823   6.522
  985SOL    HW2 3855   5.012   4.900   6.532
  986SOL     OW 3856   5.249   4.580   0.267
  986SOL    HW1 3857   5.211   4.619   0.183
  986SOL    HW2 3858   5.185   4.593   0.342
  987SOL     OW 3859   4.513   6.395   1.243
  987SOL    HW1 3860   4.413   6.395   1.235
  987SOL    HW2 3861   4.547   6.489   1.231
  988SOL     OW 3862   3.338   2.904   2.172
  988SOL    HW1 3863   3.239   2.920   2.173
  988SOL    HW2 3864   3.363   2.850   2.092
  989SOL     OW 3865   6.409   1.277   5.581
  989SOL    HW1 3866   6.480   1.327   5.532
  989SOL    HW2 3867   6.376   1.331   5.658
  990SOL     OW 3868   4.495   0.993   2.006
  990SOL    HW1 3869   4.559   1.003   1.930
  990SOL    HW2 3870   4.518   1.058   2.079
  991SOL     OW 3871   1.994   2.497   5.285
  991SOL    HW1 3872   2.079   2.445   5.278
  991SOL    HW2 3873   2.014   2.595   5.289
  992SOL     OW 3874   0.836   3.854   1.165
  992SOL    HW1 3875   0.926   3.812   1.176
  992SOL    HW2 3876   0.766   3.783   1.169
  993SOL     OW 3877   1.320   4.589   2.169
  993SOL    HW1 3878   1.367   4.532   2.236
  993SOL    HW2 3879   1.331   4.549   2.078
  994SOL     OW 3880   3.243   3.752   2.704
  994SOL    HW1 3881   3.333   3.742   2.748
  994SOL    HW2 3882   3.227   3.673   2.644
  995SOL     OW 3883   3.215   2.714   6.111
  995SOL    HW1 3884   3.240   2.771   6.189
  995SOL    HW2 3885   3.151   2.764   6.053
  996SOL     OW 3886   2.049   4.525   4.755
  996SOL    HW1 3887   2.091   4.534   4.665
  996SOL    HW2 3888   2.024   4.615   4.790
  997SOL     OW 3889   6.918   0.698   2.299
  997SOL    HW1 3890   6.837   0.757   2.301
  997SOL    HW2 3891   6.988   0.739   2.240
  998SOL     OW 3892   4.739   6.337   4.017
  998SOL    HW1 3893   4.672   6.411   4.025
  998SOL    HW2 3894   4.830   6.376   4.002
  999SOL     OW 3895   5.513   5.275   1.857
  999SOL    HW1 3896   5.578   5.349   1.878
  999SOL    HW2 3897   5.521   5.204   1.927
 1000SOL     OW 3898   1.377   0.971   2.348
 1000SOL    HW1 3899   1.344   1.052   2.396
 1000SOL    HW2 3900   1.424   0.999   2.265
 1001SOL     OW 3901   5.761   6.841   0.686
 1001SOL    HW1 3902   5.832   6.817   0.751
 1001SOL    HW2 3903   5.703   6.762   0.668
 1002SOL     OW 3904   6.024   2.262   6.698
 1002SOL    HW1 3905   6.099   2.223   6.645
 1002SOL    HW2 3906   5.978   2.189   6.749
 1003SOL     OW 3907   2.068   6.344   1.569
 1003SOL    HW1 3908   1.986   6.298   1.534
 1003SOL    HW2 3909   2.069   6.341   1.668
 1004SOL     OW 3910   0.304   0.396   1.465
 1004SOL    HW1 3911   0.330   0.472   1.405
 1004SOL    HW2 3912   0.241   0.428   1.535
 1005SOL     OW 3913   0.675   1.517   2.706
 1005SOL    HW1 3914   0.606   1.520   2.778
 1005SOL    HW2 3915   0.648   1.578   2.631
 1006SOL     OW 3916   1.652   5.565   1.488
 1006SOL    HW1 3917   1.666   5.510   1.570
 1006SOL    HW2 3918   1.655   5.663   1.512
 1007SOL     OW 3919   5.220   0.386   4.228
 1007SOL    HW1 3920   5.283   0.395   4.305
 1007SOL    HW2 3921   5.128   0.366   4.262
 1008SOL     OW 3922   2.438   3.278   5.328
 1008SOL    HW1 3923   2.358   3.255   5.273
 1008SOL    HW2 3924   2.520   3.239   5.285
 1009SOL     OW 3925   0.211   6.394   4.570
 1009SOL    HW1 3926   0.260   6.474   4.536
 1009SOL    HW2 3927   0.251   6.311   4.532
 1010SOL     OW 3928   3.482   2.204   6.239
 1010SOL    HW1 3929   3.419   2.221   6.315
 1010SOL    HW2 3930   3.456   2.260   6.161
 1011SOL     OW 3931   2.422   5.538   2.779
 1011SOL    HW1 3932   2.502   5.588   2.812
 1011SOL    HW2 3933   2.452   5.462   2.721
 1012SOL     OW 3934   6.542   0.079   0.370
 1012SOL    HW1 3935   6.638   0.105   0.371
 1012SOL    HW2 3936   6.496   0.118   0.450
 1013SOL     OW 3937   0.672   1.111   6.293
 1013SOL    HW1 3938   0.603   1.168   6.249
 1013SOL    HW2 3939   0.747   1.168   6.325
 1014SOL     OW 3940   4.817   5.924   6.574
 1014SOL    HW1 3941   4.905   5.950   6.536
 1014SOL    HW2 3942   4.746   5.986   6.541
 1015SOL     OW 3943   2.269   6.595   5.734
 1015SOL    HW1 3944   2.171   6.588   5.754
 1015SOL    HW2 3945   2.312   6.505   5.746
 1016SOL     OW 3946   3.362   3.417   0.442
 1016SOL    HW1 3947   3.367   3.412   0.542
 1016SOL    HW2 3948   3.452   3.399   0.404
 1017SOL     OW 3949   4.430   2.998   1.201
 1017SOL    HW1 3950   4.420   3.046   1.114
 1017SOL    HW2 3951   4.347   2.946   1.220
 1018SOL     OW 3952   1.538   3.290   4.252
 1018SOL    HW1 3953   1.594   3.344   4.189
 1018SOL    HW2 3954   1.573   3.303   4.345
 1019SOL     OW 3955   0.675   0.494   6.838
 1019SOL    HW1 3956   0.684   0.556   6.759
 1019SOL    HW2 3957   0.588   0.511   6.884
 1020SOL     OW 3958   0.866   6.551   1.163
 1020SOL    HW1 3959   0.827   6.639   1.189
 1020SOL    HW2 3960   0.959   6.564   1.129
 1021SOL     OW 3961   5.834   1.359   1.334
 1021SOL    HW1 3962   5.804   1.365   1.429
 1021SOL    HW2 3963   5.919   1.410   1.322
 1022SOL     OW 3964   3.931   4.290   6.370
 1022SOL    HW1 3965   3.864   4.248   6.309
 1022SOL    HW2 3966   3.884   4.350   6.434
 1023SOL     OW 3967   0.470   6.742   1.850
 1023SOL    HW1 3968   0.489   6.745   1.948
 1023SOL    HW2 3969   0.397   6.676   1.831
 1024SOL     OW 3970   5.651   3.867   4.173
 1024SOL    HW1 3971   5.661   3.964   4.153
 1024SOL    HW2 3972   5.574   3.829   4.120
 1025SOL     OW 3973   3.600   3.599   0.644
 1025SOL    HW1 3974   3.579   3.693   0.618
 1025SOL    HW2 3975   3.518   3.543   0.635
 1026SOL     OW 3976   1.993   2.553   1.761
 1026SOL    HW1 3977   1.940   2.544   1.846
 1026SOL    HW2 3978   2.057   2.477   1.753
 1027SOL     OW 3979   2.842   5.974   1.010
 1027SOL    HW1 3980   2.888   6.031   1.078
 1027SOL    HW2 3981   2.902   5.899   0.983
 1028SOL     OW 3982   3.901   5.806   0.385
 1028SOL    HW1 3983   3.946   5.848   0.306
 1028SOL    HW2 3984   3.837   5.737   0.353
 1029SOL     OW 3985   1.341   0.435   6.968
 1029SOL    HW1 3986   1.298   0.456   6.880
 1029SOL    HW2 3987   1.358   0.337   6.975
 1030SOL     OW 3988   3.677   4.124   1.600
 1030SOL    HW1 3989   3.678   4.213   1.645
 1030SOL    HW2 3990   3.583   4.101   1.573
 1031SOL     OW 3991   5.438   5.350   0.902
 1031SOL    HW1 3992   5.511   5.406   0.942
 1031SOL    HW2 3993   5.458   5.253   0.918
 1032SOL     OW 3994   1.787   1.777   4.628
 1032SOL    HW1 3995   1.764   1.857   4.574
 1032SOL    HW2 3996   1.852   1.719   4.578
 1033SOL     OW 3997   1.393   6.550   1.001
 1033SOL    HW1 3998   1.463   6.614   0.968
 1033SOL    HW2 3999   1.393   6.468   0.943
 1034SOL     OW 4000   0.812   5.834   5.148
 1034SOL    HW1 4001   0.732   5.852   5.206
 1034SOL    HW2 4002   0.888   5.807   5.206
 1035SOL     OW 4003   1.485   0.717   3.887
 1035SOL    HW1 4004   1.581   0.694   3.871
 1035SOL    HW2 4005   1.427   0.662   3.826
 1036SOL     OW 4006   2.953   0.586   1.928
 1036SOL    HW1 4007   2.879   0.518   1.928
 1036SOL    HW2 4008   2.926   0.664   1.870
 1037SOL     OW 4009   1.908   0.707   1.172
 1037SOL    HW1 4010   1.983   0.771   1.159
 1037SOL    HW2 4011   1.939   0.629   1.227
 1038SOL     OW 4012   1.190   1.175   5.553
 1038SOL    HW1 4013   1.154   1.154   5.462
 1038SOL    HW2 4014   1.149   1.113   5.619
 1039SOL     OW 4015   3.088   3.199   5.831
 1039SOL    HW1 4016   3.149   3.279   5.830
 1039SOL    HW2 4017   3.044   3.189   5.742
 1040SOL     OW 4018   4.718   2.682   2.515
 1040SOL    HW1 4019   4.751   2.776   2.508
 1040SOL    HW2 4020   4.722   2.653   2.611
 1041SOL     OW 4021   6.503   6.849   4.121
 1041SOL    HW1 4022   6.459   6.808   4.040
 1041SOL    HW2 4023   6.445   6.832   4.201
 1042SOL     OW 4024   3.725   4.902   2.140
 1042SOL    HW1 4025   3.734   4.914   2.238
 1042SOL    HW2 4026   3.643   4.848   2.120
 1043SOL     OW 4027   4.363   1.572   5.229
 1043SOL    HW1 4028   4.277   1.609   5.263
 1043SOL    HW2 4029   4.375   1.479   5.263
 1044SOL     OW 4030   4.831   4.184   1.961
 1044SOL    HW1 4031   4.880   4.267   1.987
 1044SOL    HW2 4032   4.736   4.191   1.991
 1045SOL     OW 4033   2.903   6.339   2.756
 1045SOL    HW1 4034   2.941   6.251   2.728
 1045SOL    HW2 4035   2.905   6.345   2.856
 1046SOL     OW 4036   1.550   6.542   0.560
 1046SOL    HW1 4037   1.614   6.561   0.633
 1046SOL    HW2 4038   1.533   6.625   0.507
 1047SOL     OW 4039   0.930   6.193   2.318
 1047SOL    HW1 4040   0.964   6.247   2.240
 1047SOL    HW2 4041   0.851   6.238   2.358
 1048SOL     OW 4042   4.932   5.927   5.920
 1048SOL    HW1 4043   4.894   6.017   5.897
 1048SOL    HW2 4044   4.859   5.859   5.917
 1049SOL     OW 4045   6.555   4.787   4.348
 1049SOL    HW1 4046   6.633   4.835   4.308
 1049SOL    HW2 4047   6.540   4.821   4.441
 1050SOL     OW 4048   3.232   5.455   0.413
 1050SOL    HW1 4049   3.139   5.421   0.427
 1050SOL    HW2 4050   3.238   5.503   0.326
 1051SOL     OW 4051   2.892   5.351   0.999
 1051SOL    HW1 4052   2.976   5.402   0.979
 1051SOL    HW2 4053   2.815   5.394   0.952
 1052SOL     OW 4054   3.939   0.128   4.394
 1052SOL    HW1 4055   3.962   0.206   4.335
 1052SOL    HW2 4056   3.923   0.162   4.487
 1053SOL     OW 4057   5.271   5.174   3.130
 1053SOL    HW1 4058   5.302   5.220   3.213
 1053SOL    HW2 4059   5.175   5.198   3.114
 1054SOL     OW 4060   2.517   4.007   5.803
 1054SOL    HW1 4061   2.460   3.962   5.734
 1054SOL    HW2 4062   2.594   3.948   5.826
 1055SOL     OW 4063   6.038   6.647   4.244
 1055SOL    HW1 4064   6.015   6.614   4.335
 1055SOL    HW2 4065   6.060   6.570   4.185
 1056SOL     OW 4066   1.504   5.323   5.903
 1056SOL    HW1 4067   1.441   5.246   5.902
 1056SOL    HW2 4068   1.568   5.316   5.826
 1057SOL     OW 4069   3.602   3.199   2.659
 1057SOL    HW1 4070   3.569   3.108   2.634
 1057SOL    HW2 4071   3.615   3.253   2.577
 1058SOL     OW 4072   5.047   1.244   2.084
 1058SOL    HW1 4073   5.142   1.275   2.076
 1058SOL    HW2 4074   4.986   1.314   2.047
 1059SOL     OW 4075   2.239   6.996   1.023
 1059SOL    HW1 4076   2.216   6.902   0.997
 1059SOL    HW2 4077   2.318   6.996   1.084
 1060SOL     OW 4078   0.193   3.429   4.374
 1060SOL    HW1 4079   0.127   3.389   4.311
 1060SOL    HW2 4080   0.259   3.360   4.402
 1061SOL     OW 4081   5.099   3.839   1.858
 1061SOL    HW1 4082   5.178   3.811   1.911
 1061SOL    HW2 4083   5.030   3.878   1.919
 1062SOL     OW 4084   6.065   4.988   5.638
 1062SOL    HW1 4085   5.987   5.050   5.630
 1062SOL    HW2 4086   6.144   5.029   5.592
 1063SOL     OW 4087   1.211   4.598   1.546
 1063SOL    HW1 4088   1.200   4.521   1.483
 1063SOL    HW2 4089   1.267   4.669   1.503
 1064SOL     OW 4090   1.641   4.071   1.966
 1064SOL    HW1 4091   1.557   4.092   2.017
 1064SOL    HW2 4092   1.619   4.059   1.870
 1065SOL     OW 4093   4.499   0.624   4.550
 1065SOL    HW1 4094   4.524   0.720   4.535
 1065SOL    HW2 4095   4.523   0.570   4.470
 1066SOL     OW 4096   4.954   0.767   4.313
 1066SOL    HW1 4097   5.027   0.816   4.266
 1066SOL    HW2 4098   4.881   0.747   4.248
 1067SOL     OW 4099   1.320   2.996   6.864
 1067SOL    HW1 4100   1.305   3.030   6.956
 1067SOL    HW2 4101   1.334   2.897   6.867
 1068SOL     OW 4102   4.910   4.476   2.398
 1068SOL    HW1 4103   4.849   4.411   2.445
 1068SOL    HW2 4104   4.855   4.550   2.359
 1069SOL     OW 4105   5.041   4.681   1.127
 1069SOL    HW1 4106   4.947   4.712   1.144
 1069SOL    HW2 4107   5.092   4.682   1.213
 1070SOL     OW 4108   1.442   1.206   1.212
 1070SOL    HW1 4109   1.392   1.217   1.298
 1070SOL    HW2 4110   1.458   1.296   1.172
 1071SOL     OW 4111   3.103   6.466   3.906
 1071SOL    HW1 4112   3.082   6.384   3.853
 1071SOL    HW2 4113   3.039   6.474   3.983
 1072SOL     OW 4114   1.547   6.115   0.969
 1072SOL    HW1 4115   1.562   6.021   1.002
 1072SOL    HW2 4116   1.621   6.140   0.907
 1073SOL     OW 4117   3.201   6.463   2.872
 1073SOL    HW1 4118   3.143   6.382   2.880
 1073SOL    HW2 4119   3.260   6.454   2.792
 1074SOL     OW 4120   2.344   5.120   0.568
 1074SOL    HW1 4121   2.356   5.026   0.599
 1074SOL    HW2 4122   2.302   5.174   0.642
 1075SOL     OW 4123   4.469   6.095   3.872
 1075SOL    HW1 4124   4.416   6.093   3.957
 1075SOL    HW2 4125   4.521   6.010   3.863
 1076SOL     OW 4126   0.087   4.913   5.379
 1076SOL    HW1 4127   0.038   4.829   5.402
 1076SOL    HW2 4128   0.182   4.891   5.359
 1077SOL     OW 4129   5.767   0.482   0.528
 1077SOL    HW1 4130   5.684   0.469   0.582
 1077SOL    HW2 4131   5.753   0.444   0.436
 1078SOL     OW 4132   1.266   1.037   2.989
 1078SOL    HW1 4133   1.204   1.097   3.039
 1078SOL    HW2 4134   1.275   1.068   2.895
 1079SOL     OW 4135   1.645   5.988   2.296
 1079SOL    HW1 4136   1.660   6.074   2.247
 1079SOL    HW2 4137   1.725   5.967   2.352
 1080SOL     OW 4138   1.873   4.956   3.667
 1080SOL    HW1 4139   1.965   4.971   3.630
 1080SOL    HW2 4140   1.851   5.029   3.732
 1081SOL     OW 4141   0.298   6.618   6.047
 1081SOL    HW1 4142   0.383   6.601   5.998
 1081SOL    HW2 4143   0.222   6.622   5.982
 1082SOL     OW 4144   3.095   0.968   5.944
 1082SOL    HW1 4145   3.046   0.968   6.031
 1082SOL    HW2 4146   3.033   0.998   5.871
 1083SOL     OW 4147   4.029   4.012   1.215
 1083SOL    HW1 4148   3.983   4.078   1.274
 1083SOL    HW2 4149   3.991   4.018   1.123
 1084SOL     OW 4150   6.639   6.208   0.432
 1084SOL    HW1 4151   6.689   6.230   0.349
 1084SOL    HW2 4152   6.602   6.292   0.472
 1085SOL     OW 4153   1.407   4.335   3.524
 1085SOL    HW1 4154   1.413   4.388   3.438
 1085SOL    HW2 4155   1.313   4.335   3.556
 1086SOL     OW 4156   6.940   5.622   2.333
 1086SOL    HW1 4157   7.024   5.571   2.351
 1086SOL    HW2 4158   6.915   5.676   2.413
 1087SOL     OW 4159   6.258   2.574   5.893
 1087SOL    HW1 4160   6.194   2.538   5.825
 1087SOL    HW2 4161   6.210   2.586   5.980
 1088SOL     OW 4162   6.085   4.907   3.496
 1088SOL    HW1 4163   6.085   4.975   3.424
 1088SOL    HW2 4164   6.025   4.936   3.570
 1089SOL     OW 4165   1.247   0.393   4.573
 1089SOL    HW1 4166   1.215   0.411   4.480
 1089SOL    HW2 4167   1.283   0.300   4.579
 1090SOL     OW 4168   2.575   1.819   3.139
 1090SOL    HW1 4169   2.649   1.780   3.194
 1090SOL    HW2 4170   2.596   1.810   3.042
 1091SOL     OW 4171   1.846   2.930   4.977
 1091SOL    HW1 4172   1.942   2.960   4.981
 1091SOL    HW2 4173   1.834   2.866   4.902
 1092SOL     OW 4174   1.902   3.431   0.814
 1092SOL    HW1 4175   1.928   3.513   0.865
 1092SOL    HW2 4176   1.805   3.411   0.830
 1093SOL     OW 4177   2.095   2.139   2.471
 1093SOL    HW1 4178   2.043   2.173   2.549
 1093SOL    HW2 4179   2.193   2.142   2.492
 1094SOL     OW 4180   1.022   6.191   3.311
 1094SOL    HW1 4181   1.061   6.109   3.353
 1094SOL    HW2 4182   1.092   6.236   3.255
 1095SOL     OW 4183   0.209   2.345   5.545
 1095SOL    HW1 4184   0.291   2.392   5.577
 1095SOL    HW2 4185   0.230   2.296   5.461
 1096SOL     OW 4186   3.336   4.478   1.592
 1096SOL    HW1 4187   3.403   4.489   1.665
 1096SOL    HW2 4188   3.354   4.392   1.544
 1097SOL     OW 4189   1.454   4.374   4.007
 1097SOL    HW1 4190   1.494   4.342   3.921
 1097SOL    HW2 4191   1.527   4.402   4.069
 1098SOL     OW 4192   5.500   3.185   0.695
 1098SOL    HW1 4193   5.535   3.138   0.776
 1098SOL    HW2 4194   5.562   3.171   0.618
 1099SOL     OW 4195   3.896   1.554   4.766
 1099SOL    HW1 4196   3.870   1.649   4.748
 1099SOL    HW2 4197   3.969   1.551   4.834
 1100SOL     OW 4198   2.905   1.977   7.003
 1100SOL    HW1 4199   2.926   2.072   6.980
 1100SOL    HW2 4200   2.924   1.962   0.076
 1101SOL     OW 4201   6.012   2.538   0.708
 1101SOL    HW1 4202   6.078   2.504   0.775
 1101SOL    HW2 4203   6.051   2.530   0.616
 1102SOL     OW 4204   1.072   5.596   3.525
 1102SOL    HW1 4205   1.150   5.640   3.570
 1102SOL    HW2 4206   1.072   5.498   3.547
 1103SOL     OW 4207   2.972   1.602   0.797
 1103SOL    HW1 4208   3.050   1.608   0.734
 1103SOL    HW2 4209   2.924   1.515   0.782
 1104SOL     OW 4210   2.307   3.327   5.848
 1104SOL    HW1 4211   2.376   3.334   5.777
 1104SOL    HW2 4212   2.258   3.414   5.857
 1105SOL     OW 4213   5.453   3.652   4.747
 1105SOL    HW1 4214   5.448   3.750   4.766
 1105SOL    HW2 4215   5.543   3.630   4.710
 1106SOL     OW 4216   0.725   1.937   0.206
 1106SOL    HW1 4217   0.775   1.918   0.291
 1106SOL    HW2 4218   0.631   1.963   0.227
 1107SOL     OW 4219   0.885   0.532   6.184
 1107SOL    HW1 4220   0.853   0.449   6.137
 1107SOL    HW2 4221   0.828   0.550   6.264
 1108SOL     OW 4222   2.581   0.667   6.045
 1108SOL    HW1 4223   2.530   0.595   5.998
 1108SOL    HW2 4224   2.529   0.698   6.125
 1109SOL     OW 4225   4.371   6.130   4.858
 1109SOL    HW1 4226   4.431   6.053   4.833
 1109SOL    HW2 4227   4.318   6.106   4.940
 1110SOL     OW 4228   2.964   1.497   2.611
 1110SOL    HW1 4229   2.999   1.421   2.556
 1110SOL    HW2 4230   2.893   1.462   2.673
 1111SOL     OW 4231   5.258   5.669   0.197
 1111SOL    HW1 4232   5.288   5.733   0.268
 1111SOL    HW2 4233   5.334   5.649   0.136
 1112SOL     OW 4234   5.971   1.480   2.725
 1112SOL    HW1 4235   5.933   1.557   2.674
 1112SOL    HW2 4236   5.956   1.395   2.674
 1113SOL     OW 4237   6.728   3.471   2.603
 1113SOL    HW1 4238   6.780   3.489   2.687
 1113SOL    HW2 4239   6.651   3.534   2.597
 1114SOL     OW 4240   4.168   0.872   6.560
 1114SOL    HW1 4241   4.195   0.856   6.655
 1114SOL    HW2 4242   4.118   0.958   6.553
 1115SOL     OW 4243   4.381   2.924   0.066
 1115SOL    HW1 4244   4.407   2.832   0.098
 1115SOL    HW2 4245   4.282   2.930   0.059
 1116SOL     OW 4246   5.749   5.748   5.004
 1116SOL    HW1 4247   5.715   5.816   5.068
 1116SOL    HW2 4248   5.743   5.783   4.910
 1117SOL     OW 4249   1.962   3.189   1.397
 1117SOL    HW1 4250   1.955   3.134   1.313
 1117SOL    HW2 4251   1.985   3.283   1.373
 1118SOL     OW 4252   2.171   4.483   1.743
 1118SOL    HW1 4253   2.159   4.387   1.766
 1118SOL    HW2 4254   2.105   4.510   1.673
 1119SOL     OW 4255   4.117   4.251   1.552
 1119SOL    HW1 4256   4.052   4.205   1.492
 1119SOL    HW2 4257   4.073   4.332   1.593
 1120SOL     OW 4258   5.440   6.615   5.347
 1120SOL    HW1 4259   5.527   6.664   5.338
 1120SOL    HW2 4260   5.364   6.680   5.341
 1121SOL     OW 4261   5.089   4.123   2.266
 1121SOL    HW1 4262   5.143   4.051   2.222
 1121SOL    HW2 4263   5.124   4.140   2.358
 1122SOL     OW 4264   4.803   3.444   6.212
 1122SOL    HW1 4265   4.708   3.440   6.182
 1122SOL    HW2 4266   4.806   3.463   6.310
 1123SOL     OW 4267   5.587   1.566   2.760
 1123SOL    HW1 4268   5.538   1.648   2.789
 1123SOL    HW2 4269   5.625   1.521   2.841
 1124SOL     OW 4270   6.131   4.546   5.518
 1124SOL    HW1 4271   6.074   4.624   5.493
 1124SOL    HW2 4272   6.107   4.467   5.461
 1125SOL     OW 4273   2.956   1.905   4.655
 1125SOL    HW1 4274   2.978   1.929   4.750
 1125SOL    HW2 4275   2.986   1.811   4.637
 1126SOL     OW 4276   5.568   6.641   0.583
 1126SOL    HW1 4277   5.565   6.684   0.493
 1126SOL    HW2 4278   5.516   6.555   0.581
 1127SOL     OW 4279   4.561   5.647   5.241
 1127SOL    HW1 4280   4.659   5.655   5.256
 1127SOL    HW2 4281   4.544   5.613   5.148
 1128SOL     OW 4282   5.317   2.145   5.035
 1128SOL    HW1 4283   5.388   2.135   4.967
 1128SOL    HW2 4284   5.233   2.180   4.992
 1129SOL     OW 4285   3.565   0.369   6.783
 1129SOL    HW1 4286   3.631   0.430   6.738
 1129SOL    HW2 4287   3.613   0.290   6.822
 1130SOL     OW 4288   1.386   4.411   0.987
 1130SOL    HW1 4289   1.463   4.471   0.967
 1130SOL    HW2 4290   1.376   4.402   1.086
 1131SOL     OW 4291   0.510   6.234   5.983
 1131SOL    HW1 4292   0.522   6.321   6.032
 1131SOL    HW2 4293   0.424   6.191   6.011
 1132SOL     OW 4294   4.907   0.110   0.180
 1132SOL    HW1 4295   4.857   0.048   0.242
 1132SOL    HW2 4296   4.849   0.188   0.158
 1133SOL     OW 4297   0.615   1.260   0.735
 1133SOL    HW1 4298   0.634   1.164   0.756
 1133SOL    HW2 4299   0.533   1.267   0.679
 1134SOL     OW 4300   5.005   1.968   1.016
 1134SOL    HW1 4301   4.925   2.023   0.991
 1134SOL    HW2 4302   4.979   1.900   1.084
 1135SOL     OW 4303   2.886   1.403   2.135
 1135SOL    HW1 4304   2.814   1.388   2.068
 1135SOL    HW2 4305   2.907   1.317   2.181
 1136SOL     OW 4306   3.487   4.973   4.694
 1136SOL    HW1 4307   3.471   5.070   4.713
 1136SOL    HW2 4308   3.528   4.930   4.774
 1137SOL     OW 4309   1.271   2.239   6.646
 1137SOL    HW1 4310   1.233   2.178   6.716
 1137SOL    HW2 4311   1.339   2.189   6.591
 1138SOL     OW 4312   0.555   0.972   6.510
 1138SOL    HW1 4313   0.589   1.024   6.432
 1138SOL    HW2 4314   0.543   1.033   6.588
 1139SOL     OW 4315   2.906   5.721   1.404
 1139SOL    HW1 4316   2.966   5.742   1.481
 1139SOL    HW2 4317   2.961   5.701   1.323
 1140SOL     OW 4318   3.450   0.884   2.086
 1140SOL    HW1 4319   3.448   0.902   1.987
 1140SOL    HW2 4320   3.544   0.864   2.114
 1141SOL     OW 4321   6.472   6.363   6.423
 1141SOL    HW1 4322   6.563   6.377   6.461
 1141SOL    HW2 4323   6.406   6.423   6.469
 1142SOL     OW 4324   4.263   0.858   4.500
 1142SOL    HW1 4325   4.195   0.785   4.500
 1142SOL    HW2 4326   4.303   0.867   4.409
 1143SOL     OW 4327   2.332   2.822   2.611
 1143SOL    HW1 4328   2.429   2.839   2.593
 1143SOL    HW2 4329   2.295   2.896   2.667
 1144SOL     OW 4330   6.407   4.542   5.480
 1144SOL    HW1 4331   6.406   4.562   5.382
 1144SOL    HW2 4332   6.314   4.524   5.511
 1145SOL     OW 4333   0.313   5.034   2.439
 1145SOL    HW1 4334   0.269   5.114   2.398
 1145SOL    HW2 4335   0.406   5.058   2.467
 1146SOL     OW 4336   5.216   0.788   1.308
 1146SOL    HW1 4337   5.191   0.723   1.380
 1146SOL    HW2 4338   5.178   0.757   1.221
 1147SOL     OW 4339   1.795   4.649   0.834
 1147SOL    HW1 4340   1.851   4.728   0.861
 1147SOL    HW2 4341   1.807   4.632   0.736
 1148SOL     OW 4342   4.405   6.911   6.693
 1148SOL    HW1 4343   4.464   6.956   6.626
 1148SOL    HW2 4344   4.455   6.836   6.736
 1149SOL     OW 4345   6.161   3.663   3.518
 1149SOL    HW1 4346   6.191   3.757   3.501
 1149SOL    HW2 4347   6.142   3.652   3.616
 1150SOL     OW 4348   2.084   4.300   0.902
 1150SOL    HW1 4349   2.017   4.283   0.974
 1150SOL    HW2 4350   2.037   4.327   0.818
 1151SOL     OW 4351   4.671   5.328   0.093
 1151SOL    HW1 4352   4.648   5.232   0.112
 1151SOL    HW2 4353   4.604   5.387   0.138
 1152SOL     OW 4354   0.687   5.844   5.724
 1152SOL    HW1 4355   0.677   5.943   5.720
 1152SOL    HW2 4356   0.675   5.813   5.818
 1153SOL     OW 4357   2.068   0.238   1.874
 1153SOL    HW1 4358   2.081   0.288   1.959
 1153SOL    HW2 4359   2.093   0.296   1.796
 1154SOL     OW 4360   0.799   4.109   1.958
 1154SOL    HW1 4361   0.763   4.195   1.922
 1154SOL    HW2 4362   0.726   4.042   1.963
 1155SOL     OW 4363   2.861   4.687   0.115
 1155SOL    HW1 4364   2.877   4.652   0.023
 1155SOL    HW2 4365   2.937   4.746   0.142
 1156SOL     OW 4366   1.824   0.689   4.604
 1156SOL    HW1 4367   1.754   0.626   4.570
 1156SOL    HW2 4368   1.781   0.765   4.652
 1157SOL     OW 4369   6.299   0.818   5.042
 1157SOL    HW1 4370   6.314   0.916   5.059
 1157SOL    HW2 4371   6.294   0.769   5.129
 1158SOL     OW 4372   0.305   5.387   5.739
 1158SOL    HW1 4373   0.401   5.384   5.709
 1158SOL    HW2 4374   0.285   5.304   5.791
 1159SOL     OW 4375   5.427   0.152   3.157
 1159SOL    HW1 4376   5.526   0.153   3.145
 1159SOL    HW2 4377   5.398   0.059   3.183
 1160SOL     OW 4378   3.879   3.987   1.686
 1160SOL    HW1 4379   3.942   3.971   1.610
 1160SOL    HW2 4380   3.797   4.034   1.652
 1161SOL     OW 4381   5.140   0.400   6.214
 1161SOL    HW1 4382   5.139   0.344   6.297
 1161SOL    HW2 4383   5.097   0.350   6.139
 1162SOL     OW 4384   3.473   2.437   0.465
 1162SOL    HW1 4385   3.484   2.512   0.399
 1162SOL    HW2 4386   3.559   2.386   0.472
 1163SOL     OW 4387   6.102   3.440   1.929
 1163SOL    HW1 4388   6.184   3.383   1.929
 1163SOL    HW2 4389   6.025   3.388   1.894
 1164SOL     OW 4390   5.430   2.499   4.366
 1164SOL    HW1 4391   5.358   2.551   4.320
 1164SOL    HW2 4392   5.498   2.470   4.299
 1165SOL     OW 4393   1.907   4.516   4.341
 1165SOL    HW1 4394   1.985   4.509   4.403
 1165SOL    HW2 4395   1.882   4.425   4.308
 1166SOL     OW 4396   3.931   1.238   0.258
 1166SOL    HW1 4397   3.883   1.295   0.324
 1166SOL    HW2 4398   4.004   1.188   0.305
 1167SOL     OW 4399   3.435   7.024   6.503
 1167SOL    HW1 4400   3.378   6.948   6.533
 1167SOL    HW2 4401   3.499   6.992   6.433
 1168SOL     OW 4402   0.006   1.136   3.361
 1168SOL    HW1 4403   6.973   1.178   3.431
 1168SOL    HW2 4404   7.003   1.040   3.347
 1169SOL     OW 4405   6.169   3.118   6.721
 1169SOL    HW1 4406   6.164   3.047   6.791
 1169SOL    HW2 4407   6.224   3.085   6.644
 1170SOL     OW 4408   4.735   0.851   1.879
 1170SOL    HW1 4409   4.702   0.778   1.938
 1170SOL    HW2 4410   4.798   0.910   1.929
 1171SOL     OW 4411   2.373   6.455   6.870
 1171SOL    HW1 4412   2.279   6.458   6.905
 1171SOL    HW2 4413   2.393   6.539   6.820
 1172SOL     OW 4414   3.840   3.971   2.846
 1172SOL    HW1 4415   3.848   4.028   2.928
 1172SOL    HW2 4416   3.760   3.999   2.793
 1173SOL     OW 4417   3.200   6.970   5.654
 1173SOL    HW1 4418   3.135   6.905   5.694
 1173SOL    HW2 4419   3.193   0.033   5.701
 1174SOL     OW 4420   3.232   4.483   0.456
 1174SOL    HW1 4421   3.296   4.414   0.490
 1174SOL    HW2 4422   3.237   4.565   0.512
 1175SOL     OW 4423   4.459   3.417   6.361
 1175SOL    HW1 4424   4.418   3.353   6.296
 1175SOL    HW2 4425   4.481   3.369   6.446
 1176SOL     OW 4426   5.832   4.517   0.782
 1176SOL    HW1 4427   5.839   4.609   0.820
 1176SOL    HW2 4428   5.907   4.461   0.817
 1177SOL     OW 4429   0.138   1.490   5.816
 1177SOL    HW1 4430   0.229   1.459   5.785
 1177SOL    HW2 4431   0.084   1.518   5.736
 1178SOL     OW 4432   3.631   3.023   1.293
 1178SOL    HW1 4433   3.673   3.021   1.384
 1178SOL    HW2 4434   3.701   3.042   1.224
 1179SOL     OW 4435   2.961   5.191   0.107
 1179SOL    HW1 4436   2.926   5.261   0.045
 1179SOL    HW2 4437   2.889   5.162   0.170
 1180SOL     OW 4438   3.067   6.698   3.713
 1180SOL    HW1 4439   3.041   6.744   3.798
 1180SOL    HW2 4440   3.078   6.600   3.731
 1181SOL     OW 4441   0.006   2.848   4.784
 1181SOL    HW1 4442   6.952   2.787   4.782
 1181SOL    HW2 4443   0.087   2.800   4.748
 1182SOL     OW 4444   1.875   5.608   3.322
 1182SOL    HW1 4445   1.893   5.700   3.288
 1182SOL    HW2 4446   1.789   5.574   3.284
 1183SOL     OW 4447   3.527   5.924   1.467
 1183SOL    HW1 4448   3.568   5.855   1.408
 1183SOL    HW2 4449   3.534   5.894   1.563
 1184SOL     OW 4450   4.319   1.146   5.485
 1184SOL    HW1 4451   4.373   1.157   5.569
 1184SOL    HW2 4452   4.224   1.126   5.509
 1185SOL     OW 4453   1.720   0.217   0.370
 1185SOL    HW1 4454   1.712   0.301   0.423
 1185SOL    HW2 4455   1.805   0.217   0.317
 1186SOL     OW 4456   6.163   6.646   6.197
 1186SOL    HW1 4457   6.233   6.667   6.264
 1186SOL    HW2 4458   6.178   6.554   6.161
 1187SOL     OW 4459   5.132   5.856   5.351
 1187SOL    HW1 4460   5.179   5.918   5.414
 1187SOL    HW2 4461   5.092   5.908   5.276
 1188SOL     OW 4462   3.387   5.969   6.657
 1188SOL    HW1 4463   3.427   5.878   6.644
 1188SOL    HW2 4464   3.312   5.964   6.723
 1189SOL     OW 4465   5.429   0.428   2.038
 1189SOL    HW1 4466   5.521   0.393   2.021
 1189SOL    HW2 4467   5.405   0.496   1.968
 1190SOL     OW 4468   3.867   4.877   4.183
 1190SOL    HW1 4469   3.895   4.938   4.110
 1190SOL    HW2 4470   3.920   4.792   4.178
 1191SOL     OW 4471   4.338   6.357   5.209
 1191SOL    HW1 4472   4.272   6.364   5.284
 1191SOL    HW2 4473   4.359   6.449   5.175
 1192SOL     OW 4474   5.172   5.261   2.760
 1192SOL    HW1 4475   5.110   5.249   2.838
 1192SOL    HW2 4476   5.247   5.194   2.766
 1193SOL     OW 4477   0.123   0.225   4.944
 1193SOL    HW1 4478   0.036   0.229   4.894
 1193SOL    HW2 4479   0.198   0.239   4.881
 1194SOL     OW 4480   7.012   1.359   1.038
 1194SOL    HW1 4481   0.057   1.405   0.983
 1194SOL    HW2 4482   0.020   1.348   1.131
 1195SOL     OW 4483   6.161   3.165   1.668
 1195SOL    HW1 4484   6.075   3.116   1.653
 1195SOL    HW2 4485   6.234   3.100   1.683
 1196SOL     OW 4486   0.252   4.202   1.716
 1196SOL    HW1 4487   0.255   4.218   1.617
 1196SOL    HW2 4488   0.224   4.107   1.733
 1197SOL     OW 4489   4.294   6.720   4.655
 1197SOL    HW1 4490   4.322   6.696   4.748
 1197SOL    HW2 4491   4.374   6.753   4.604
 1198SOL     OW 4492   1.907   3.104   3.115
 1198SOL    HW1 4493   1.916   3.010   3.081
 1198SOL    HW2 4494   1.983   3.125   3.176
 1199SOL     OW 4495   3.289   3.144   3.390
 1199SOL    HW1 4496   3.356   3.135   3.316
 1199SOL    HW2 4497   3.288   3.060   3.444
 1200SOL     OW 4498   3.603   4.126   4.744
 1200SOL    HW1 4499   3.664   4.192   4.700
 1200SOL    HW2 4500   3.562   4.067   4.675
 1201SOL     OW 4501   0.461   1.504   4.173
 1201SOL    HW1 4502   0.428   1.566   4.244
 1201SOL    HW2 4503   0.467   1.411   4.211
 1202SOL     OW 4504   5.686   1.237   6.258
 1202SOL    HW1 4505   5.717   1.332   6.266
 1202SOL    HW2 4506   5.608   1.223   6.318
 1203SOL     OW 4507   6.412   6.380   1.509
 1203SOL    HW1 4508   6.382   6.440   1.583
 1203SOL    HW2 4509   6.488   6.423   1.461
 1204SOL     OW 4510   4.116   1.572   1.480
 1204SOL    HW1 4511   4.051   1.496   1.470
 1204SOL    HW2 4512   4.197   1.554   1.426
 1205SOL     OW 4513   4.407   3.188   6.202
 1205SOL    HW1 4514   4.499   3.213   6.172
 1205SOL    HW2 4515   4.368   3.123   6.137
 1206SOL     OW 4516   1.042   2.340   4.551
 1206SOL    HW1 4517   1.126   2.341   4.496
 1206SOL    HW2 4518   1.039   2.257   4.606
 1207SOL     OW 4519   0.348   6.606   0.219
 1207SOL    HW1 4520   0.284   6.636   0.149
 1207SOL    HW2 4521   0.421   6.673   0.228
 1208SOL     OW 4522   3.364   4.068   2.597
 1208SOL    HW1 4523   3.330   4.003   2.529
 1208SOL    HW2 4524   3.286   4.116   2.638
 1209SOL     OW 4525   5.576   6.885   4.978
 1209SOL    HW1 4526   5.515   6.807   4.993
 1209SOL    HW2 4527   5.633   6.868   4.898
 1210SOL     OW 4528   4.568   6.790   3.663
 1210SOL    HW1 4529   4.484   6.787   3.608
 1210SOL    HW2 4530   4.549   6.838   3.748
 1211SOL     OW 4531   1.505   3.030   3.346
 1211SOL    HW1 4532   1.547   3.068   3.263
 1211SOL    HW2 4533   1.491   3.103   3.412
 1212SOL     OW 4534   6.941   1.258   5.611
 1212SOL    HW1 4535   6.859   1.307   5.639
 1212SOL    HW2 4536   6.983   1.214   5.691
 1213SOL     OW 4537   5.590   2.971   4.223
 1213SOL    HW1 4538   5.634   2.888   4.188
 1213SOL    HW2 4539   5.657   3.023   4.276
 1214SOL     OW 4540   1.267   2.680   5.392
 1214SOL    HW1 4541   1.197   2.738   5.351
 1214SOL    HW2 4542   1.354   2.730   5.397
 1215SOL     OW 4543   1.774   5.368   2.291
 1215SOL    HW1 4544   1.844   5.383   2.221
 1215SOL    HW2 4545   1.800   5.413   2.376
 1216SOL     OW 4546   0.013   0.683   0.813
 1216SOL    HW1 4547   0.021   0.677   0.714
 1216SOL    HW2 4548   0.049   0.771   0.845
 1217SOL     OW 4549   3.166   5.664   1.586
 1217SOL    HW1 4550   3.257   5.627   1.608
 1217SOL    HW2 4551   3.102   5.589   1.571
 1218SOL     OW 4552   0.313   3.602   5.215
 1218SOL    HW1 4553   0.323   3.543   5.295
 1218SOL    HW2 4554   0.304   3.698   5.244
 1219SOL     OW 4555   4.684   5.428   1.941
 1219SOL    HW1 4556   4.748   5.372   1.993
 1219SOL    HW2 4557   4.734   5.502   1.896
 1220SOL     OW 4558   5.997   3.955   3.038
 1220SOL    HW1 4559   5.970   3.861   3.062
 1220SOL    HW2 4560   6.096   3.958   3.026
 1221SOL     OW 4561   6.171   3.955   6.052
 1221SOL    HW1 4562   6.077   3.952   6.087
 1221SOL    HW2 4563   6.220   3.874   6.082
 1222SOL     OW 4564   0.210   0.659   0.145
 1222SOL    HW1 4565   0.167   0.747   0.127
 1222SOL    HW2 4566   0.151   0.603   0.203
 1223SOL     OW 4567   4.627   1.049   0.654
 1223SOL    HW1 4568   4.692   1.058   0.578
 1223SOL    HW2 4569   4.629   0.956   0.689
 1224SOL     OW 4570   3.035   5.455   6.947
 1224SOL    HW1 4571   3.043   5.417   6.856
 1224SOL    HW2 4572   3.112   5.423   7.003
 1225SOL     OW 4573   3.929   2.481   1.175
 1225SOL    HW1 4574   3.951   2.393   1.132
 1225SOL    HW2 4575   3.831   2.485   1.193
 1226SOL     OW 4576   4.810   6.276   0.725
 1226SOL    HW1 4577   4.821   6.310   0.632
 1226SOL    HW2 4578   4.744   6.201   0.726
 1227SOL     OW 4579   5.580   4.937   6.427
 1227SOL    HW1 4580   5.668   4.963   6.466
 1227SOL    HW2 4581   5.575   4.837   6.419
 1228SOL     OW 4582   3.834   2.630   0.762
 1228SOL    HW1 4583   3.745   2.648   0.720
 1228SOL    HW2 4584   3.837   2.536   0.796
 1229SOL     OW 4585   1.772   6.005   1.241
 1229SOL    HW1 4586   1.686   5.960   1.265
 1229SOL    HW2 4587   1.832   5.940   1.195
 1230SOL     OW 4588   5.254   5.499   2.325
 1230SOL    HW1 4589   5.210   5.542   2.403
 1230SOL    HW2 4590   5.271   5.402   2.345
 1231SOL     OW 4591   1.341   2.008   5.816
 1231SOL    HW1 4592   1.320   2.072   5.741
 1231SOL    HW2 4593   1.394   2.055   5.886
 1232SOL     OW 4594   5.760   1.096   5.428
 1232SOL    HW1 4595   5.779   1.138   5.517
 1232SOL    HW2 4596   5.750   1.168   5.359
 1233SOL     OW 4597   1.019   5.924   3.661
 1233SOL    HW1 4598   0.963   5.925   3.578
 1233SOL    HW2 4599   0.963   5.948   3.740
 1234SOL     OW 4600   6.399   2.695   5.646
 1234SOL    HW1 4601   6.441   2.606   5.628
 1234SOL    HW2 4602   6.343   2.689   5.728
 1235SOL     OW 4603   6.248   4.381   1.287
 1235SOL    HW1 4604   6.265   4.395   1.190
 1235SOL    HW2 4605   6.335   4.369   1.335
 1236SOL     OW 4606   4.356   1.447   1.971
 1236SOL    HW1 4607   4.400   1.466   2.059
 1236SOL    HW2 4608   4.413   1.385   1.918
 1237SOL     OW 4609   1.507   5.684   4.742
 1237SOL    HW1 4610   1.523   5.780   4.763
 1237SOL    HW2 4611   1.468   5.676   4.650
 1238SOL     OW 4612   0.740   0.276   4.903
 1238SOL    HW1 4613   0.724   0.367   4.942
 1238SOL    HW2 4614   0.836   0.267   4.877
 1239SOL     OW 4615   6.649   6.476   5.604
 1239SOL    HW1 4616   6.690   6.560   5.569
 1239SOL    HW2 4617   6.700   6.445   5.684
 1240SOL     OW 4618   6.088   5.333   1.983
 1240SOL    HW1 4619   6.061   5.407   1.923
 1240SOL    HW2 4620   6.170   5.360   2.035
 1241SOL     OW 4621   6.332   4.831   5.048
 1241SOL    HW1 4622   6.397   4.884   4.993
 1241SOL    HW2 4623   6.277   4.773   4.987
 1242SOL     OW 4624   2.030   3.320   0.535
 1242SOL    HW1 4625   2.000   3.353   0.624
 1242SOL    HW2 4626   2.129   3.306   0.536
 1243SOL     OW 4627   0.163   1.299   4.406
 1243SOL    HW1 4628   0.098   1.361   4.363
 1243SOL    HW2 4629   0.139   1.205   4.382
 1244SOL     OW 4630   5.268   6.804   5.294
 1244SOL    HW1 4631   5.171   6.786   5.312
 1244SOL    HW2 4632   5.276   6.871   5.220
 1245SOL     OW 4633   5.923   5.204   0.234
 1245SOL    HW1 4634   5.874   5.156   0.162
 1245SOL    HW2 4635   5.893   5.171   0.324
 1246SOL     OW 4636   3.297   1.004   2.303
 1246SOL    HW1 4637   3.343   0.946   2.236
 1246SOL    HW2 4638   3.305   1.100   2.275
 1247SOL     OW 4639   5.644   0.104   5.138
 1247SOL    HW1 4640   5.625   0.096   5.236
 1247SOL    HW2 4641   5.609   0.023   5.091
 1248SOL     OW 4642   1.312   6.731   3.597
 1248SOL    HW1 4643   1.329   6.716   3.500
 1248SOL    HW2 4644   1.214   6.746   3.612
 1249SOL     OW 4645   0.378   3.641   1.771
 1249SOL    HW1 4646   0.286   3.677   1.755
 1249SOL    HW2 4647   0.404   3.582   1.695
 1250SOL     OW 4648   6.259   4.184   3.974
 1250SOL    HW1 4649   6.213   4.266   3.941
 1250SOL    HW2 4650   6.204   4.103   3.951
 1251SOL     OW 4651   2.519   0.913   2.529
 1251SOL    HW1 4652   2.564   0.983   2.584
 1251SOL    HW2 4653   2.421   0.932   2.524
 1252SOL     OW 4654   3.990   4.704   6.918
 1252SOL    HW1 4655   4.034   4.644   6.986
 1252SOL    HW2 4656   4.057   4.769   6.883
 1253SOL     OW 4657   2.495   0.145   1.851
 1253SOL    HW1 4658   2.521   0.075   1.785
 1253SOL    HW2 4659   2.463   0.227   1.803
 1254SOL     OW 4660   6.841   2.941   3.200
 1254SOL    HW1 4661   6.756   2.984   3.170
 1254SOL    HW2 4662   6.878   2.885   3.126
 1255SOL     OW 4663   6.118   2.658   6.099
 1255SOL    HW1 4664   6.032   2.622   6.064
 1255SOL    HW2 4665   6.103   2.750   6.137
 1256SOL     OW 4666   0.305   6.428   3.885
 1256SOL    HW1 4667   0.216   6.474   3.890
 1256SOL    HW2 4668   0.290   6.331   3.864
 1257SOL     OW 4669   0.118   5.174   4.429
 1257SOL    HW1 4670   0.161   5.114   4.497
 1257SOL    HW2 4671   0.020   5.179   4.447
 1258SOL     OW 4672   2.351   4.938   2.962
 1258SOL    HW1 4673   2.423   4.950   2.893
 1258SOL    HW2 4674   2.261   4.949   2.919
 1259SOL     OW 4675   3.644   6.283   5.229
 1259SOL    HW1 4676   3.652   6.213   5.300
 1259SOL    HW2 4677   3.591   6.247   5.152
 1260SOL     OW 4678   2.956   1.264   1.219
 1260SOL    HW1 4679   2.893   1.235   1.147
 1260SOL    HW2 4680   3.048   1.273   1.181
 1261SOL     OW 4681   0.217   4.316   0.200
 1261SOL    HW1 4682   0.302   4.264   0.209
 1261SOL    HW2 4683   0.237   4.412   0.181
 1262SOL     OW 4684   4.898   5.778   1.632
 1262SOL    HW1 4685   4.864   5.846   1.567
 1262SOL    HW2 4686   4.942   5.703   1.581
 1263SOL     OW 4687   6.432   1.250   1.396
 1263SOL    HW1 4688   6.385   1.170   1.358
 1263SOL    HW2 4689   6.508   1.220   1.454
 1264SOL     OW 4690   0.550   3.839   1.604
 1264SOL    HW1 4691   0.623   3.779   1.637
 1264SOL    HW2 4692   0.589   3.926   1.574
 1265SOL     OW 4693   6.521   5.271   3.858
 1265SOL    HW1 4694   6.616   5.297   3.873
 1265SOL    HW2 4695   6.517   5.177   3.824
 1266SOL     OW 4696   1.776   1.131   3.946
 1266SOL    HW1 4697   1.683   1.163   3.932
 1266SOL    HW2 4698   1.840   1.194   3.901
 1267SOL     OW 4699   5.736   6.413   0.813
 1267SOL    HW1 4700   5.732   6.329   0.867
 1267SOL    HW2 4701   5.669   6.479   0.849
 1268SOL     OW 4702   4.644   2.206   0.149
 1268SOL    HW1 4703   4.666   2.126   0.206
 1268SOL    HW2 4704   4.664   2.290   0.199
 1269SOL     OW 4705   6.468   6.039   5.631
 1269SOL    HW1 4706   6.556   6.066   5.670
 1269SOL    HW2 4707   6.468   6.057   5.533
 1270SOL     OW 4708   2.138   3.082   4.722
 1270SOL    HW1 4709   2.077   3.051   4.649
 1270SOL    HW2 4710   2.227   3.037   4.712
 1271SOL     OW 4711   3.540   1.888   3.666
 1271SOL    HW1 4712   3.624   1.842   3.638
 1271SOL    HW2 4713   3.493   1.832   3.735
 1272SOL     OW 4714   6.210   5.597   0.681
 1272SOL    HW1 4715   6.262   5.681   0.696
 1272SOL    HW2 4716   6.195   5.584   0.582
 1273SOL     OW 4717   1.116   4.460   0.343
 1273SOL    HW1 4718   1.113   4.506   0.255
 1273SOL    HW2 4719   1.139   4.364   0.330
 1274SOL     OW 4720   6.338   2.952   1.363
 1274SOL    HW1 4721   6.333   2.939   1.264
 1274SOL    HW2 4722   6.428   2.987   1.388
 1275SOL     OW 4723   3.812   0.026   4.185
 1275SOL    HW1 4724   3.886   0.029   4.117
 1275SOL    HW2 4725   3.849   0.047   4.275
 1276SOL     OW 4726   0.118   0.654   4.405
 1276SOL    HW1 4727   0.098   0.605   4.321
 1276SOL    HW2 4728   0.042   0.715   4.428
 1277SOL     OW 4729   1.214   6.961   5.601
 1277SOL    HW1 4730   1.225   6.976   5.699
 1277SOL    HW2 4731   1.295   6.913   5.565
 1278SOL     OW 4732   1.377   0.523   4.991
 1278SOL    HW1 4733   1.420   0.551   5.077
 1278SOL    HW2 4734   1.286   0.486   5.009
 1279SOL     OW 4735   3.553   5.196   6.863
 1279SOL    HW1 4736   3.652   5.194   6.878
 1279SOL    HW2 4737   3.528   5.126   6.796
 1280SOL     OW 4738   3.759   5.691   4.038
 1280SOL    HW1 4739   3.701   5.764   4.003
 1280SOL    HW2 4740   3.724   5.602   4.006
 1281SOL     OW 4741   0.935   5.641   2.729
 1281SOL    HW1 4742   0.966   5.698   2.653
 1281SOL    HW2 4743   0.836   5.647   2.737
 1282SOL     OW 4744   0.086   0.777   6.417
 1282SOL    HW1 4745   0.171   0.825   6.395
 1282SOL    HW2 4746   0.036   0.756   6.333
 1283SOL     OW 4747   5.506   3.208   5.039
 1283SOL    HW1 4748   5.580   3.219   5.105
 1283SOL    HW2 4749   5.530   3.253   4.954
 1284SOL     OW 4750   4.313   2.346   2.007
 1284SOL    HW1 4751   4.325   2.373   2.102
 1284SOL    HW2 4752   4.249   2.269   2.002
 1285SOL     OW 4753   4.909   3.440   5.972
 1285SOL    HW1 4754   4.892   3.441   6.071
 1285SOL    HW2 4755   4.989   3.383   5.952
 1286SOL     OW 4756   5.115   4.045   2.774
 1286SOL    HW1 4757   5.139   3.961   2.820
 1286SOL    HW2 4758   5.147   4.123   2.827
 1287SOL     OW 4759   4.554   3.905   5.417
 1287SOL    HW1 4760   4.624   3.915   5.347
 1287SOL    HW2 4761   4.469   3.948   5.386
 1288SOL     OW 4762   6.070   3.571   0.283
 1288SOL    HW1 4763   5.995   3.519   0.324
 1288SOL    HW2 4764   6.157   3.531   0.312
 1289SOL     OW 4765   0.062   5.981   1.050
 1289SOL    HW1 4766   0.005   5.901   1.073
 1289SOL    HW2 4767   0.038   6.057   1.110
 1290SOL     OW 4768   1.098   0.246   6.760
 1290SOL    HW1 4769   1.075   0.182   6.833
 1290SOL    HW2 4770   1.171   0.208   6.703
 1291SOL     OW 4771   0.027   3.404   5.746
 1291SOL    HW1 4772   7.008   3.386   5.834
 1291SOL    HW2 4773   6.982   3.403   5.674
 1292SOL     OW 4774   5.948   5.892   2.499
 1292SOL    HW1 4775   6.019   5.923   2.562
 1292SOL    HW2 4776   5.990   5.862   2.413
 1293SOL     OW 4777   1.316   1.561   6.558
 1293SOL    HW1 4778   1.390   1.574   6.492
 1293SOL    HW2 4779   1.252   1.493   6.522
 1294SOL     OW 4780   1.729   3.536   0.078
 1294SOL    HW1 4781   1.629   3.537   0.086
 1294SOL    HW2 4782   1.767   3.612   0.131
 1295SOL     OW 4783   7.010   3.867   2.586
 1295SOL    HW1 4784   6.988   3.811   2.666
 1295SOL    HW2 4785   6.961   3.832   2.506
 1296SOL     OW 4786   3.475   0.063   5.924
 1296SOL    HW1 4787   3.400   0.126   5.946
 1296SOL    HW2 4788   3.516   0.029   6.009
 1297SOL     OW 4789   5.864   0.674   6.824
 1297SOL    HW1 4790   5.940   0.612   6.804
 1297SOL    HW2 4791   5.777   0.630   6.802
 1298SOL     OW 4792   6.482   4.652   3.335
 1298SOL    HW1 4793   6.519   4.718   3.270
 1298SOL    HW2 4794   6.415   4.593   3.288
 1299SOL     OW 4795   0.204   4.205   2.884
 1299SOL    HW1 4796   0.135   4.277   2.887
 1299SOL    HW2 4797   0.293   4.242   2.911
 1300SOL     OW 4798   3.737   4.111   2.055
 1300SOL    HW1 4799   3.692   4.136   2.141
 1300SOL    HW2 4800   3.828   4.151   2.052
 1301SOL     OW 4801   0.337   5.616   1.855
 1301SOL    HW1 4802   0.427   5.648   1.826
 1301SOL    HW2 4803   0.347   5.542   1.921
 1302SOL     OW 4804   3.424   0.021   5.282
 1302SOL    HW1 4805   3.399   0.106   5.328
 1302SOL    HW2 4806   3.426   0.036   5.183
 1303SOL     OW 4807   4.718   1.809   1.386
 1303SOL    HW1 4808   4.727   1.892   1.442
 1303SOL    HW2 4809   4.683   1.734   1.444
 1304SOL     OW 4810   1.179   1.176   6.661
 1304SOL    HW1 4811   1.166   1.233   6.742
 1304SOL    HW2 4812   1.214   1.232   6.586
 1305SOL     OW 4813   4.820   3.455   6.893
 1305SOL    HW1 4814   4.874   3.534   6.923
 1305SOL    HW2 4815   4.723   3.475   6.903
 1306SOL     OW 4816   0.770   3.938   5.654
 1306SOL    HW1 4817   0.726   4.007   5.597
 1306SOL    HW2 4818   0.845   3.980   5.705
 1307SOL     OW 4819   1.505   2.984   4.994
 1307SOL    HW1 4820   1.601   2.998   4.971
 1307SOL    HW2 4821   1.452   3.064   4.966
 1308SOL     OW 4822   4.022   5.395   5.029
 1308SOL    HW1 4823   3.961   5.326   5.067
 1308SOL    HW2 4824   4.095   5.351   4.977
 1309SOL     OW 4825   5.375   3.075   5.607
 1309SOL    HW1 4826   5.360   3.161   5.657
 1309SOL    HW2 4827   5.314   3.072   5.528
 1310SOL     OW 4828   0.183   4.027   5.098
 1310SOL    HW1 4829   0.188   4.121   5.064
 1310SOL    HW2 4830   0.265   3.977   5.070
 1311SOL     OW 4831   0.025   0.674   3.860
 1311SOL    HW1 4832   0.121   0.698   3.844
 1311SOL    HW2 4833   0.004   0.587   3.816
 1312SOL     OW 4834   1.003   0.178   6.413
 1312SOL    HW1 4835   1.004   0.194   6.314
 1312SOL    HW2 4836   0.989   0.264   6.461
 1313SOL     OW 4837   1.449   4.704   4.233
 1313SOL    HW1 4838   1.396   4.644   4.172
 1313SOL    HW2 4839   1.393   4.783   4.258
 1314SOL     OW 4840   3.680   1.552   5.502
 1314SOL    HW1 4841   3.685   1.470   5.559
 1314SOL    HW2 4842   3.620   1.619   5.545
 1315SOL     OW 4843   0.430   0.943   0.464
 1315SOL    HW1 4844   0.473   0.976   0.380
 1315SOL    HW2 4845   0.422   0.843   0.460
 1316SOL     OW 4846   2.746   6.553   4.681
 1316SOL    HW1 4847   2.709   6.629   4.628
 1316SOL    HW2 4848   2.700   6.468   4.655
 1317SOL     OW 4849   1.182   3.942   4.139
 1317SOL    HW1 4850   1.086   3.932   4.165
 1317SOL    HW2 4851   1.236   3.872   4.187
 1318SOL     OW 4852   0.401   1.176   0.587
 1318SOL    HW1 4853   0.417   1.243   0.515
 1318SOL    HW2 4854   0.408   1.083   0.550
 1319SOL     OW 4855   6.967   0.743   0.453
 1319SOL    HW1 4856   6.884   0.688   0.454
 1319SOL    HW2 4857   6.944   0.839   0.469
 1320SOL     OW 4858   5.721   4.201   0.400
 1320SOL    HW1 4859   5.755   4.291   0.429
 1320SOL    HW2 4860   5.696   4.206   0.303
 1321SOL     OW 4861   4.593   2.090   6.286
 1321SOL    HW1 4862   4.642   2.012   6.246
 1321SOL    HW2 4863   4.638   2.118   6.371
 1322SOL     OW 4864   4.402   0.596   3.663
 1322SOL    HW1 4865   4.448   0.517   3.623
 1322SOL    HW2 4866   4.451   0.626   3.745
 1323SOL     OW 4867   5.386   1.999   4.733
 1323SOL    HW1 4868   5.447   1.971   4.659
 1323SOL    HW2 4869   5.439   2.034   4.809
 1324SOL     OW 4870   0.953   2.633   0.561
 1324SOL    HW1 4871   0.867   2.617   0.609
 1324SOL    HW2 4872   0.999   2.713   0.600
 1325SOL     OW 4873   1.600   6.909   2.180
 1325SOL    HW1 4874   1.603   6.845   2.257
 1325SOL    HW2 4875   1.645   6.994   2.206
 1326SOL     OW 4876   4.827   2.935   4.992
 1326SOL    HW1 4877   4.831   3.019   4.938
 1326SOL    HW2 4878   4.847   2.856   4.933
 1327SOL     OW 4879   2.357   4.835   2.085
 1327SOL    HW1 4880   2.446   4.789   2.090
 1327SOL    HW2 4881   2.295   4.779   2.030
 1328SOL     OW 4882   1.454   2.626   0.774
 1328SOL    HW1 4883   1.532   2.623   0.712
 1328SOL    HW2 4884   1.435   2.534   0.809
 1329SOL     OW 4885   0.919   2.350   0.683
 1329SOL    HW1 4886   0.823   2.375   0.695
 1329SOL    HW2 4887   0.941   2.347   0.585
 1330SOL     OW 4888   6.725   1.297   1.762
 1330SOL    HW1 4889   6.676   1.229   1.708
 1330SOL    HW2 4890   6.724   1.385   1.715
 1331SOL     OW 4891   5.195   2.289   3.287
 1331SOL    HW1 4892   5.234   2.210   3.334
 1331SOL    HW2 4893   5.124   2.259   3.223
 1332SOL     OW 4894   3.135   0.151   0.183
 1332SOL    HW1 4895   3.161   0.054   0.177
 1332SOL    HW2 4896   3.209   0.207   0.146
 1333SOL     OW 4897   3.141   3.452   6.337
 1333SOL    HW1 4898   3.212   3.494   6.393
 1333SOL    HW2 4899   3.177   3.433   6.245
 1334SOL     OW 4900   6.976   2.357   5.056
 1334SOL    HW1 4901   6.904   2.395   4.998
 1334SOL    HW2 4902   6.937   2.290   5.118
 1335SOL     OW 4903   2.520   0.725   3.100
 1335SOL    HW1 4904   2.557   0.652   3.043
 1335SOL    HW2 4905   2.574   0.808   3.086
 1336SOL     OW 4906   1.887   0.961   6.784
 1336SOL    HW1 4907   1.807   0.905   6.805
 1336SOL    HW2 4908   1.874   1.053   6.821
 1337SOL     OW 4909   1.426   1.073   5.038
 1337SOL    HW1 4910   1.407   1.146   4.973
 1337SOL    HW2 4911   1.489   1.007   4.997
 1338SOL     OW 4912   5.233   2.677   6.185
 1338SOL    HW1 4913   5.306   2.703   6.250
 1338SOL    HW2 4914   5.218   2.578   6.191
 1339SOL     OW 4915   0.178   0.332   0.106
 1339SOL    HW1 4916   0.264   0.360   0.063
 1339SOL    HW2 4917   0.107   0.327   0.036
 1340SOL     OW 4918   0.364   1.823   1.998
 1340SOL    HW1 4919   0.331   1.876   2.077
 1340SOL    HW2 4920   0.285   1.794   1.943
 1341SOL     OW 4921   4.772   0.922   5.830
 1341SOL    HW1 4922   4.706   0.898   5.759
 1341SOL    HW2 4923   4.852   0.862   5.823
 1342SOL     OW 4924   1.433   4.771   5.965
 1342SOL    HW1 4925   1.342   4.803   5.992
 1342SOL    HW2 4926   1.439   4.672   5.979
 1343SOL     OW 4927   4.218   5.933   2.552
 1343SOL    HW1 4928   4.158   5.853   2.547
 1343SOL    HW2 4929   4.202   5.982   2.637
 1344SOL     OW 4930   6.870   4.357   3.865
 1344SOL    HW1 4931   6.907   4.271   3.901
 1344SOL    HW2 4932   6.885   4.360   3.766
 1345SOL     OW 4933   2.134   1.484   3.367
 1345SOL    HW1 4934   2.135   1.478   3.267
 1345SOL    HW2 4935   2.219   1.526   3.399
 1346SOL     OW 4936   1.067   6.976   3.426
 1346SOL    HW1 4937   1.149   6.964   3.483
 1346SOL    HW2 4938   1.052   0.049   3.411
 1347SOL     OW 4939   6.214   6.330   4.497
 1347SOL    HW1 4940   6.262   6.418   4.492
 1347SOL    HW2 4941   6.115   6.346   4.498
 1348SOL     OW 4942   5.336   4.921   3.132
 1348SOL    HW1 4943   5.317   5.020   3.131
 1348SOL    HW2 4944   5.430   4.905   3.103
 1349SOL     OW 4945   4.988   2.067   6.540
 1349SOL    HW1 4946   5.026   2.096   6.453
 1349SOL    HW2 4947   5.058   2.072   6.611
 1350SOL     OW 4948   4.470   4.107   6.265
 1350SOL    HW1 4949   4.507   4.186   6.216
 1350SOL    HW2 4950   4.371   4.104   6.253
 1351SOL     OW 4951   6.892   2.225   2.953
 1351SOL    HW1 4952   6.826   2.274   3.009
 1351SOL    HW2 4953   6.858   2.133   2.934
 1352SOL     OW 4954   0.064   0.270   3.546
 1352SOL    HW1 4955   0.071   0.185   3.495
 1352SOL    HW2 4956   0.149   0.322   3.536
 1353SOL     OW 4957   6.279   4.552   5.759
 1353SOL    HW1 4958   6.214   4.532   5.833
 1353SOL    HW2 4959   6.231   4.553   5.671
 1354SOL     OW 4960   0.825   1.649   0.360
 1354SOL    HW1 4961   0.855   1.730   0.409
 1354SOL    HW2 4962   0.739   1.616   0.399
 1355SOL     OW 4963   6.073   2.310   5.423
 1355SOL    HW1 4964   6.037   2.374   5.356
 1355SOL    HW2 4965   6.173   2.312   5.421
 1356SOL     OW 4966   3.335   3.003   3.725
 1356SOL    HW1 4967   3.334   2.932   3.655
 1356SOL    HW2 4968   3.418   3.058   3.716
 1357SOL     OW 4969   1.997   4.630   5.364
 1357SOL    HW1 4970   1.997   4.535   5.332
 1357SOL    HW2 4971   2.090   4.664   5.367
 1358SOL     OW 4972   4.238   1.530   5.767
 1358SOL    HW1 4973   4.226   1.494   5.860
 1358SOL    HW2 4974   4.153   1.518   5.715
 1359SOL     OW 4975   0.299   4.707   1.479
 1359SOL    HW1 4976   0.319   4.715   1.381
 1359SOL    HW2 4977   0.278   4.797   1.516
 1360SOL     OW 4978   4.046   3.814   1.897
 1360SOL    HW1 4979   4.004   3.893   1.852
 1360SOL    HW2 4980   4.016   3.811   1.992
 1361SOL     OW 4981   0.412   5.678   5.508
 1361SOL    HW1 4982   0.327   5.655   5.556
 1361SOL    HW2 4983   0.391   5.697   5.412
 1362SOL     OW 4984   3.159   4.028   3.873
 1362SOL    HW1 4985   3.199   4.092   3.938
 1362SOL    HW2 4986   3.112   3.955   3.922
 1363SOL     OW 4987   6.101   5.930   3.493
 1363SOL    HW1 4988   6.094   5.847   3.437
 1363SOL    HW2 4989   6.046   5.918   3.577
 1364SOL     OW 4990   0.265   2.243   0.068
 1364SOL    HW1 4991   0.196   2.261   0.138
 1364SOL    HW2 4992   0.249   2.154   0.026
 1365SOL     OW 4993   0.996   3.137   5.546
 1365SOL    HW1 4994   0.910   3.141   5.598
 1365SOL    HW2 4995   1.040   3.227   5.547
 1366SOL     OW 4996   1.342   4.304   0.141
 1366SOL    HW1 4997   1.281   4.349   0.075
 1366SOL    HW2 4998   1.427   4.356   0.149
 1367SOL     OW 4999   1.385   5.565   2.565
 1367SOL    HW1 5000   1.478   5.600   2.552
 1367SOL    HW2 5001   1.377   5.523   2.655
 1368SOL     OW 5002   6.759   6.925   3.373
 1368SOL    HW1 5003   6.677   6.924   3.316
 1368SOL    HW2 5004   6.839   6.939   3.314
 1369SOL     OW 5005   1.952   0.333   2.329
 1369SOL    HW1 5006   2.020   0.338   2.402
 1369SOL    HW2 5007   1.861   0.349   2.368
 1370SOL     OW 5008   5.062   1.499   3.974
 1370SOL    HW1 5009   5.069   1.443   4.056
 1370SOL    HW2 5010   4.993   1.461   3.913
 1371SOL     OW 5011   5.605   1.430   4.701
 1371SOL    HW1 5012   5.649   1.499   4.644
 1371SOL    HW2 5013   5.574   1.354   4.643
 1372SOL     OW 5014   1.114   1.934   0.574
 1372SOL    HW1 5015   1.120   2.010   0.509
 1372SOL    HW2 5016   1.190   1.872   0.559
 1373SOL     OW 5017   4.427   2.108   0.526
 1373SOL    HW1 5018   4.347   2.050   0.535
 1373SOL    HW2 5019   4.467   2.095   0.435
 1374SOL     OW 5020   4.245   2.425   1.055
 1374SOL    HW1 5021   4.218   2.508   1.005
 1374SOL    HW2 5022   4.218   2.435   1.151
 1375SOL     OW 5023   6.947   6.895   6.183
 1375SOL    HW1 5024   6.984   6.969   6.128
 1375SOL    HW2 5025   6.925   6.817   6.124
 1376SOL     OW 5026   4.267   4.733   4.825
 1376SOL    HW1 5027   4.172   4.762   4.835
 1376SOL    HW2 5028   4.296   4.684   4.908
 1377SOL     OW 5029   1.024   3.787   3.730
 1377SOL    HW1 5030   1.110   3.824   3.765
 1377SOL    HW2 5031   0.957   3.782   3.804
 1378SOL     OW 5032   6.134   2.456   4.728
 1378SOL    HW1 5033   6.068   2.415   4.791
 1378SOL    HW2 5034   6.103   2.441   4.634
 1379SOL     OW 5035   4.463   6.208   3.310
 1379SOL    HW1 5036   4.435   6.160   3.393
 1379SOL    HW2 5037   4.394   6.194   3.239
 1380SOL     OW 5038   0.673   6.601   3.530
 1380SOL    HW1 5039   0.599   6.535   3.529
 1380SOL    HW2 5040   0.721   6.600   3.442
 1381SOL     OW 5041   5.840   1.657   0.404
 1381SOL    HW1 5042   5.797   1.584   0.351
 1381SOL    HW2 5043   5.772   1.727   0.425
 1382SOL     OW 5044   5.803   3.361   1.387
 1382SOL    HW1 5045   5.882   3.343   1.329
 1382SOL    HW2 5046   5.735   3.413   1.334
 1383SOL     OW 5047   1.024   0.572   1.668
 1383SOL    HW1 5048   0.932   0.550   1.700
 1383SOL    HW2 5049   1.057   0.653   1.715
 1384SOL     OW 5050   4.364   0.761   1.924
 1384SOL    HW1 5051   4.444   0.712   1.888
 1384SOL    HW2 5052   4.393   0.850   1.959
 1385SOL     OW 5053   2.569   5.060   3.561
 1385SOL    HW1 5054   2.599   5.056   3.656
 1385SOL    HW2 5055   2.641   5.099   3.504
 1386SOL     OW 5056   3.083   1.160   4.343
 1386SOL    HW1 5057   3.042   1.088   4.400
 1386SOL    HW2 5058   3.111   1.120   4.255
 1387SOL     OW 5059   3.865   5.244   2.676
 1387SOL    HW1 5060   3.939   5.302   2.640
 1387SOL    HW2 5061   3.856   5.162   2.620
 1388SOL     OW 5062   6.646   0.377   3.085
 1388SOL    HW1 5063   6.596   0.458   3.055
 1388SOL    HW2 5064   6.631   0.303   3.019
 1389SOL     OW 5065   6.549   0.851   3.987
 1389SOL    HW1 5066   6.620   0.901   4.038
 1389SOL    HW2 5067   6.459   0.885   4.013
 1390SOL     OW 5068   6.937   3.128   6.529
 1390SOL    HW1 5069   6.947   3.099   6.434
 1390SOL    HW2 5070   6.858   3.083   6.570
 1391SOL     OW 5071   6.008   6.604   4.943
 1391SOL    HW1 5072   6.099   6.598   4.903
 1391SOL    HW2 5073   5.967   6.692   4.921
 1392SOL     OW 5074   5.960   6.272   5.669
 1392SOL    HW1 5075   5.918   6.184   5.690
 1392SOL    HW2 5076   5.910   6.315   5.594
 1393SOL     OW 5077   6.874   4.206   6.191
 1393SOL    HW1 5078   6.964   4.177   6.224
 1393SOL    HW2 5079   6.858   4.301   6.216
 1394SOL     OW 5080   3.620   5.342   5.516
 1394SOL    HW1 5081   3.612   5.328   5.614
 1394SOL    HW2 5082   3.703   5.297   5.482
 1395SOL     OW 5083   2.147   4.765   4.962
 1395SOL    HW1 5084   2.169   4.800   4.871
 1395SOL    HW2 5085   2.224   4.711   4.997
 1396SOL     OW 5086   0.620   1.649   5.209
 1396SOL    HW1 5087   0.539   1.636   5.266
 1396SOL    HW2 5088   0.604   1.608   5.119
 1397SOL     OW 5089   0.495   6.920   4.613
 1397SOL    HW1 5090   0.490   6.913   4.513
 1397SOL    HW2 5091   0.533   6.836   4.651
 1398SOL     OW 5092   3.103   1.106   6.719
 1398SOL    HW1 5093   3.070   1.092   6.812
 1398SOL    HW2 5094   3.137   1.199   6.709
 1399SOL     OW 5095   3.961   5.248   0.998
 1399SOL    HW1 5096   4.034   5.311   1.026
 1399SOL    HW2 5097   3.999   5.180   0.936
 1400SOL     OW 5098   0.013   1.746   4.099
 1400SOL    HW1 5099   0.102   1.789   4.086
 1400SOL    HW2 5100   6.968   1.817   4.113
 1401SOL     OW 5101   6.380   0.411   4.640
 1401SOL    HW1 5102   6.436   0.335   4.672
 1401SOL    HW2 5103   6.354   0.469   4.718
 1402SOL     OW 5104   5.927   3.898   6.440
 1402SOL    HW1 5105   5.976   3.970   6.489
 1402SOL    HW2 5106   5.993   3.845   6.386
 1403SOL     OW 5107   2.283   2.005   1.395
 1403SOL    HW1 5108   2.239   2.033   1.310
 1403SOL    HW2 5109   2.214   1.991   1.465
 1404SOL     OW 5110   6.666   0.029   7.020
 1404SOL    HW1 5111   6.615   0.108   0.030
 1404SOL    HW2 5112   6.695   0.046   6.926
 1405SOL     OW 5113   2.282   3.470   0.886
 1405SOL    HW1 5114   2.369   3.459   0.839
 1405SOL    HW2 5115   2.251   3.381   0.921
 1406SOL     OW 5116   0.837   5.432   0.627
 1406SOL    HW1 5117   0.893   5.497   0.678
 1406SOL    HW2 5118   0.768   5.482   0.574
 1407SOL     OW 5119   0.454   3.838   2.709
 1407SOL    HW1 5120   0.364   3.882   2.715
 1407SOL    HW2 5121   0.525   3.908   2.704
 1408SOL     OW 5122   5.584   1.350   5.686
 1408SOL    HW1 5123   5.682   1.340   5.673
 1408SOL    HW2 5124   5.546   1.265   5.723
 1409SOL     OW 5125   6.966   0.388   5.095
 1409SOL    HW1 5126   0.023   0.428   5.054
 1409SOL    HW2 5127   6.914   0.338   5.025
 1410SOL     OW 5128   1.697   4.240   5.885
 1410SOL    HW1 5129   1.645   4.187   5.819
 1410SOL    HW2 5130   1.784   4.195   5.904
 1411SOL     OW 5131   3.782   0.034   0.556
 1411SOL    HW1 5132   3.866   7.007   0.571
 1411SOL    HW2 5133   3.724   7.009   0.491
 1412SOL     OW 5134   1.463   2.343   0.842
 1412SOL    HW1 5135   1.380   2.311   0.796
 1412SOL    HW2 5136   1.459   2.320   0.939
 1413SOL     OW 5137   1.984   1.747   5.006
 1413SOL    HW1 5138   1.911   1.789   5.060
 1413SOL    HW2 5139   2.066   1.739   5.062
 1414SOL     OW 5140   2.883   1.547   1.634
 1414SOL    HW1 5141   2.830   1.610   1.577
 1414SOL    HW2 5142   2.906   1.465   1.582
 1415SOL     OW 5143   2.088   1.114   4.602
 1415SOL    HW1 5144   1.998   1.118   4.646
 1415SOL    HW2 5145   2.122   1.206   4.587
 1416SOL     OW 5146   4.449   5.152   4.271
 1416SOL    HW1 5147   4.515   5.154   4.347
 1416SOL    HW2 5148   4.377   5.086   4.291
 1417SOL     OW 5149   3.269   2.267   0.514
 1417SOL    HW1 5150   3.202   2.313   0.572
 1417SOL    HW2 5151   3.342   2.331   0.491
 1418SOL     OW 5152   3.540   4.134   2.930
 1418SOL    HW1 5153   3.590   4.075   2.993
 1418SOL    HW2 5154   3.600   4.164   2.856
 1419SOL     OW 5155   2.865   5.461   3.296
 1419SOL    HW1 5156   2.928   5.393   3.333
 1419SOL    HW2 5157   2.896   5.553   3.322
 1420SOL     OW 5158   1.765   6.336   1.834
 1420SOL    HW1 5159   1.738   6.418   1.785
 1420SOL    HW2 5160   1.865   6.330   1.837
 1421SOL     OW 5161   2.492   4.959   3.220
 1421SOL    HW1 5162   2.483   4.918   3.129
 1421SOL    HW2 5163   2.413   5.018   3.238
 1422SOL     OW 5164   1.107   4.121   0.047
 1422SOL    HW1 5165   1.178   4.132   7.003
 1422SOL    HW2 5166   1.110   4.028   0.084
 1423SOL     OW 5167   5.132   6.845   3.930
 1423SOL    HW1 5168   5.039   6.816   3.905
 1423SOL    HW2 5169   5.152   6.933   3.886
 1424SOL     OW 5170   6.700   4.456   6.871
 1424SOL    HW1 5171   6.633   4.405   6.926
 1424SOL    HW2 5172   6.679   4.447   6.774
 1425SOL     OW 5173   2.101   5.621   5.231
 1425SOL    HW1 5174   2.128   5.639   5.136
 1425SOL    HW2 5175   2.102   5.523   5.247
 1426SOL     OW 5176   2.339   3.454   6.532
 1426SOL    HW1 5177   2.430   3.458   6.490
 1426SOL    HW2 5178   2.331   3.368   6.584
 1427SOL     OW 5179   6.904   0.112   3.823
 1427SOL    HW1 5180   6.928   0.207   3.801
 1427SOL    HW2 5181   6.848   0.074   3.749
 1428SOL     OW 5182   0.707   2.287   6.890
 1428SOL    HW1 5183   0.720   2.357   6.819
 1428SOL    HW2 5184   0.795   2.249   6.917
 1429SOL     OW 5185   4.681   1.430   0.213
 1429SOL    HW1 5186   4.646   1.362   0.277
 1429SOL    HW2 5187   4.607   1.492   0.186
 1430SOL     OW 5188   1.848   5.485   4.146
 1430SOL    HW1 5189   1.893   5.399   4.121
 1430SOL    HW2 5190   1.814   5.479   4.240
 1431SOL     OW 5191   3.231   2.060   6.899
 1431SOL    HW1 5192   3.311   2.106   6.860
 1431SOL    HW2 5193   3.240   2.059   6.999
 1432SOL     OW 5194   2.472   1.789   1.645
 1432SOL    HW1 5195   2.446   1.729   1.570
 1432SOL    HW2 5196   2.423   1.876   1.637
 1433SOL     OW 5197   4.745   0.198   5.493
 1433SOL    HW1 5198   4.787   0.221   5.581
 1433SOL    HW2 5199   4.698   0.111   5.501
 1434SOL     OW 5200   1.191   0.304   5.901
 1434SOL    HW1 5201   1.259   0.377   5.906
 1434SOL    HW2 5202   1.101   0.344   5.885
 1435SOL     OW 5203   6.972   6.726   3.261
 1435SOL    HW1 5204   7.006   6.779   3.184
 1435SOL    HW2 5205   6.904   6.660   3.229
 1436SOL     OW 5206   5.326   3.874   6.179
 1436SOL    HW1 5207   5.246   3.863   6.237
 1436SOL    HW2 5208   5.402   3.911   6.233
 1437SOL     OW 5209   2.921   2.223   5.190
 1437SOL    HW1 5210   2.987   2.230   5.115
 1437SOL    HW2 5211   2.951   2.282   5.265
 1438SOL     OW 5212   2.260   6.526   1.788
 1438SOL    HW1 5213   2.258   6.622   1.759
 1438SOL    HW2 5214   2.166   6.492   1.798
 1439SOL     OW 5215   6.746   5.328   0.954
 1439SOL    HW1 5216   6.818   5.383   0.997
 1439SOL    HW2 5217   6.748   5.235   0.992
 1440SOL     OW 5218   3.461   3.283   6.435
 1440SOL    HW1 5219   3.496   3.366   6.391
 1440SOL    HW2 5220   3.436   3.303   6.529
 1441SOL     OW 5221   6.449   1.022   3.486
 1441SOL    HW1 5222   6.498   1.027   3.573
 1441SOL    HW2 5223   6.471   0.935   3.441
 1442SOL     OW 5224   6.793   5.811   6.861
 1442SOL    HW1 5225   6.722   5.870   6.898
 1442SOL    HW2 5226   6.879   5.862   6.855
 1443SOL     OW 5227   0.634   2.864   4.059
 1443SOL    HW1 5228   0.648   2.962   4.045
 1443SOL    HW2 5229   0.618   2.846   4.155
 1444SOL     OW 5230   5.151   5.137   1.198
 1444SOL    HW1 5231   5.225   5.203   1.214
 1444SOL    HW2 5232   5.168   5.087   1.114
 1445SOL     OW 5233   0.587   3.198   2.499
 1445SOL    HW1 5234   0.494   3.209   2.533
 1445SOL    HW2 5235   0.649   3.182   2.576
 1446SOL     OW 5236   5.315   2.221   0.201
 1446SOL    HW1 5237   5.398   2.265   0.165
 1446SOL    HW2 5238   5.264   2.287   0.256
 1447SOL     OW 5239   5.898   6.878   4.948
 1447SOL    HW1 5240   5.869   6.829   5.030
 1447SOL    HW2 5241   5.943   6.964   4.974
 1448SOL     OW 5242   0.234   2.210   5.219
 1448SOL    HW1 5243   0.252   2.239   5.125
 1448SOL    HW2 5244   0.138   2.223   5.240
 1449SOL     OW 5245   1.083   1.378   6.880
 1449SOL    HW1 5246   1.001   1.435   6.881
 1449SOL    HW2 5247   1.117   1.366   6.974
 1450SOL     OW 5248   0.804   2.557   1.474
 1450SOL    HW1 5249   0.867   2.614   1.422
 1450SOL    HW2 5250   0.855   2.483   1.519
 1451SOL     OW 5251   1.500   7.006   1.942
 1451SOL    HW1 5252   1.564   6.979   2.014
 1451SOL    HW2 5253   1.462   6.924   1.899
 1452SOL     OW 5254   4.457   1.253   4.569
 1452SOL    HW1 5255   4.550   1.248   4.534
 1452SOL    HW2 5256   4.417   1.342   4.544
 1453SOL     OW 5257   6.950   3.405   5.391
 1453SOL    HW1 5258   6.881   3.472   5.417
 1453SOL    HW2 5259   7.023   3.449   5.339
 1454SOL     OW 5260   0.074   3.176   2.188
 1454SOL    HW1 5261   0.124   3.248   2.238
 1454SOL    HW2 5262   0.092   3.185   2.090
 1455SOL     OW 5263   1.272   0.806   1.251
 1455SOL    HW1 5264   1.322   0.734   1.202
 1455SOL    HW2 5265   1.212   0.855   1.187
 1456SOL     OW 5266   6.936   6.148   5.306
 1456SOL    HW1 5267   6.880   6.167   5.225
 1456SOL    HW2 5268   0.003   6.119   5.278
 1457SOL     OW 5269   0.898   6.942   1.691
 1457SOL    HW1 5270   0.967   6.897   1.634
 1457SOL    HW2 5271   0.853   6.874   1.750
 1458SOL     OW 5272   5.396   5.635   3.559
 1458SOL    HW1 5273   5.327   5.645   3.487
 1458SOL    HW2 5274   5.429   5.540   3.560
 1459SOL     OW 5275   3.026   5.959   5.704
 1459SOL    HW1 5276   3.016   5.898   5.625
 1459SOL    HW2 5277   2.966   5.929   5.778
 1460SOL     OW 5278   0.738   6.350   5.361
 1460SOL    HW1 5279   0.751   6.389   5.269
 1460SOL    HW2 5280   0.642   6.324   5.373
 1461SOL     OW 5281   6.161   4.814   3.113
 1461SOL    HW1 5282   6.186   4.879   3.041
 1461SOL    HW2 5283   6.236   4.750   3.127
 1462SOL     OW 5284   1.401   0.157   6.886
 1462SOL    HW1 5285   1.441   0.179   6.797
 1462SOL    HW2 5286   1.399   0.057   6.898
 1463SOL     OW 5287   0.009   5.486   6.703
 1463SOL    HW1 5288   7.004   5.452   6.793
 1463SOL    HW2 5289   0.068   5.417   6.660
 1464SOL     OW 5290   0.067   6.417   1.387
 1464SOL    HW1 5291   0.008   6.438   1.465
 1464SOL    HW2 5292   0.156   6.461   1.400
 1465SOL     OW 5293   1.430   0.892   3.410
 1465SOL    HW1 5294   1.500   0.835   3.452
 1465SOL    HW2 5295   1.464   0.929   3.324
 1466SOL     OW 5296   1.655   2.360   2.361
 1466SOL    HW1 5297   1.585   2.290   2.370
 1466SOL    HW2 5298   1.621   2.435   2.305
 1467SOL     OW 5299   1.748   1.438   2.494
 1467SOL    HW1 5300   1.845   1.417   2.485
 1467SOL    HW2 5301   1.728   1.524   2.446
 1468SOL     OW 5302   3.634   6.114   2.356
 1468SOL    HW1 5303   3.544   6.120   2.314
 1468SOL    HW2 5304   3.698   6.174   2.308
 1469SOL     OW 5305   0.460   1.706   1.756
 1469SOL    HW1 5306   0.432   1.613   1.731
 1469SOL    HW2 5307   0.410   1.735   1.837
 1470SOL     OW 5308   1.427   2.251   2.597
 1470SOL    HW1 5309   1.504   2.268   2.658
 1470SOL    HW2 5310   1.454   2.183   2.529
 1471SOL     OW 5311   0.323   0.202   1.039
 1471SOL    HW1 5312   0.332   0.202   1.139
 1471SOL    HW2 5313   0.410   0.229   0.998
 1472SOL     OW 5314   3.213   4.972   5.637
 1472SOL    HW1 5315   3.154   4.925   5.572
 1472SOL    HW2 5316   3.256   4.905   5.698
 1473SOL     OW 5317   3.950   5.802   5.261
 1473SOL    HW1 5318   3.966   5.821   5.164
 1473SOL    HW2 5319   4.015   5.853   5.317
 1474SOL     OW 5320   5.766   5.501   2.356
 1474SOL    HW1 5321   5.816   5.525   2.439
 1474SOL    HW2 5322   5.812   5.425   2.310
 1475SOL     OW 5323   5.951   0.275   1.878
 1475SOL    HW1 5324   5.995   0.335   1.946
 1475SOL    HW2 5325   5.950   0.181   1.912
 1476SOL     OW 5326   3.206   0.830   1.013
 1476SOL    HW1 5327   3.129   0.770   1.034
 1476SOL    HW2 5328   3.215   0.898   1.086
 1477SOL     OW 5329   3.212   6.833   6.026
 1477SOL    HW1 5330   3.152   6.785   6.090
 1477SOL    HW2 5331   3.180   6.815   5.932
 1478SOL     OW 5332   5.677   5.549   6.162
 1478SOL    HW1 5333   5.727   5.482   6.217
 1478SOL    HW2 5334   5.591   5.572   6.206
 1479SOL     OW 5335   1.255   2.258   0.694
 1479SOL    HW1 5336   1.254   2.225   0.599
 1479SOL    HW2 5337   1.222   2.185   0.754
 1480SOL     OW 5338   3.145   1.182   5.056
 1480SOL    HW1 5339   3.158   1.267   5.006
 1480SOL    HW2 5340   3.173   1.105   4.999
 1481SOL     OW 5341   6.340   3.446   6.191
 1481SOL    HW1 5342   6.364   3.352   6.214
 1481SOL    HW2 5343   6.242   3.452   6.173
 1482SOL     OW 5344   4.716   1.351   1.459
 1482SOL    HW1 5345   4.663   1.267   1.467
 1482SOL    HW2 5346   4.663   1.427   1.496
 1483SOL     OW 5347   5.144   2.279   6.745
 1483SOL    HW1 5348   5.127   2.360   6.688
 1483SOL    HW2 5349   5.064   2.262   6.803
 1484SOL     OW 5350   5.817   4.136   5.169
 1484SOL    HW1 5351   5.790   4.043   5.145
 1484SOL    HW2 5352   5.905   4.134   5.217
 1485SOL     OW 5353   3.582   1.588   3.490
 1485SOL    HW1 5354   3.613   1.574   3.396
 1485SOL    HW2 5355   3.504   1.650   3.491
 1486SOL     OW 5356   4.945   1.563   2.401
 1486SOL    HW1 5357   4.890   1.575   2.484
 1486SOL    HW2 5358   4.977   1.468   2.397
 1487SOL     OW 5359   6.752   2.090   6.355
 1487SOL    HW1 5360   6.796   2.119   6.439
 1487SOL    HW2 5361   6.697   2.165   6.318
 1488SOL     OW 5362   5.269   0.843   3.320
 1488SOL    HW1 5363   5.243   0.885   3.407
 1488SOL    HW2 5364   5.295   0.748   3.336
 1489SOL     OW 5365   4.321   4.821   5.253
 1489SOL    HW1 5366   4.320   4.879   5.335
 1489SOL    HW2 5367   4.372   4.867   5.181
 1490SOL     OW 5368   0.938   2.985   2.349
 1490SOL    HW1 5369   1.036   2.970   2.358
 1490SOL    HW2 5370   0.920   3.080   2.324
 1491SOL     OW 5371   6.496   3.977   2.431
 1491SOL    HW1 5372   6.480   3.930   2.517
 1491SOL    HW2 5373   6.592   4.003   2.424
 1492SOL     OW 5374   6.009   1.083   2.439
 1492SOL    HW1 5375   6.034   1.007   2.378
 1492SOL    HW2 5376   5.913   1.075   2.464
 1493SOL     OW 5377   3.602   6.780   5.416
 1493SOL    HW1 5378   3.545   6.812   5.340
 1493SOL    HW2 5379   3.698   6.784   5.389
 1494SOL     OW 5380   4.803   1.753   0.027
 1494SOL    HW1 5381   4.850   1.697   6.984
 1494SOL    HW2 5382   4.821   1.850   0.008
 1495SOL     OW 5383   6.430   3.345   5.574
 1495SOL    HW1 5384   6.421   3.259   5.623
 1495SOL    HW2 5385   6.513   3.392   5.604
 1496SOL     OW 5386   0.156   1.720   1.854
 1496SOL    HW1 5387   0.099   1.795   1.888
 1496SOL    HW2 5388   0.140   1.708   1.756
 1497SOL     OW 5389   6.055   3.487   2.975
 1497SOL    HW1 5390   6.034   3.585   2.975
 1497SOL    HW2 5391   6.044   3.451   2.882
 1498SOL     OW 5392   2.668   4.880   6.884
 1498SOL    HW1 5393   2.607   4.955   6.858
 1498SOL    HW2 5394   2.621   4.821   6.950
 1499SOL     OW 5395   0.487   2.591   6.083
 1499SOL    HW1 5396   0.440   2.552   6.003
 1499SOL    HW2 5397   0.421   2.639   6.140
 1500SOL     OW 5398   7.021   6.931   0.014
 1500SOL    HW1 5399   0.022   6.994   0.087
 1500SOL    HW2 5400   6.992   6.983   6.958
 1501SOL     OW 5401   5.580   2.154   6.535
 1501SOL    HW1 5402   5.614   2.210   6.459
 1501SOL    HW2 5403   5.657   2.106   6.578
 1502SOL     OW 5404   4.297   0.111   0.196
 1502SOL    HW1 5405   4.236   0.174   0.147
 1502SOL    HW2 5406   4.247   0.071   0.273
 1503SOL     OW 5407   0.745   3.671   1.749
 1503SOL    HW1 5408   0.718   3.741   1.816
 1503SOL    HW2 5409   0.756   3.583   1.796
 1504SOL     OW 5410   0.522   0.110   5.019
 1504SOL    HW1 5411   0.561   0.174   4.953
 1504SOL    HW2 5412   0.554   0.135   5.111
 1505SOL     OW 5413   5.050   0.203   4.799
 1505SOL    HW1 5414   5.002   0.279   4.842
 1505SOL    HW2 5415   5.122   0.239   4.739
 1506SOL     OW 5416   0.568   5.996   0.501
 1506SOL    HW1 5417   0.649   6.052   0.485
 1506SOL    HW2 5418   0.535   6.012   0.594
 1507SOL     OW 5419   0.986   1.968   5.771
 1507SOL    HW1 5420   0.895   1.946   5.808
 1507SOL    HW2 5421   1.029   2.039   5.827
 1508SOL     OW 5422   6.838   1.649   2.330
 1508SOL    HW1 5423   6.809   1.661   2.235
 1508SOL    HW2 5424   6.774   1.698   2.390
 1509SOL     OW 5425   3.963   1.534   5.685
 1509SOL    HW1 5426   3.899   1.595   5.733
 1509SOL    HW2 5427   3.915   1.450   5.660
 1510SOL     OW 5428   4.989   1.939   4.917
 1510SOL    HW1 5429   4.976   1.842   4.938
 1510SOL    HW2 5430   4.966   1.994   4.997
 1511SOL     OW 5431   3.836   2.958   3.040
 1511SOL    HW1 5432   3.855   2.967   3.137
 1511SOL    HW2 5433   3.874   3.037   2.991
 1512SOL     OW 5434   0.377   5.072   1.052
 1512SOL    HW1 5435   0.372   5.114   0.962
 1512SOL    HW2 5436   0.471   5.047   1.072
 1513SOL     OW 5437   3.727   0.772   4.671
 1513SOL    HW1 5438   3.664   0.704   4.707
 1513SOL    HW2 5439   3.695   0.804   4.582
 1514SOL     OW 5440   3.996   2.237   5.675
 1514SOL    HW1 5441   3.987   2.333   5.704
 1514SOL    HW2 5442   4.090   2.221   5.645
 1515SOL     OW 5443   6.053   2.087   2.947
 1515SOL    HW1 5444   6.085   1.993   2.941
 1515SOL    HW2 5445   5.994   2.108   2.869
 1516SOL     OW 5446   6.789   6.279   6.983
 1516SOL    HW1 5447   6.717   6.211   6.972
 1516SOL    HW2 5448   6.845   6.281   6.900
 1517SOL     OW 5449   4.703   6.145   3.121
 1517SOL    HW1 5450   4.702   6.051   3.156
 1517SOL    HW2 5451   4.634   6.199   3.168
 1518SOL     OW 5452   1.371   2.438   6.841
 1518SOL    HW1 5453   1.385   2.387   6.926
 1518SOL    HW2 5454   1.355   2.373   6.766
 1519SOL     OW 5455   6.981   5.387   1.242
 1519SOL    HW1 5456   6.893   5.418   1.277
 1519SOL    HW2 5457   0.030   5.439   1.287
 1520SOL     OW 5458   0.425   4.241   1.951
 1520SOL    HW1 5459   0.381   4.246   1.861
 1520SOL    HW2 5460   0.379   4.171   2.006
 1521SOL     OW 5461   1.617   4.125   6.166
 1521SOL    HW1 5462   1.657   4.054   6.110
 1521SOL    HW2 5463   1.683   4.154   6.236
 1522SOL     OW 5464   5.573   6.222   5.411
 1522SOL    HW1 5465   5.474   6.233   5.418
 1522SOL    HW2 5466   5.601   6.228   5.315
 1523SOL     OW 5467   5.157   6.181   1.040
 1523SOL    HW1 5468   5.204   6.196   0.953
 1523SOL    HW2 5469   5.092   6.105   1.029
 1524SOL     OW 5470   2.327   2.126   2.051
 1524SOL    HW1 5471   2.393   2.074   1.996
 1524SOL    HW2 5472   2.336   2.101   2.147
 1525SOL     OW 5473   0.143   2.613   0.555
 1525SOL    HW1 5474   0.082   2.536   0.537
 1525SOL    HW2 5475   0.145   2.673   0.475
 1526SOL     OW 5476   6.527   0.065   6.511
 1526SOL    HW1 5477   6.535   0.109   6.422
 1526SOL    HW2 5478   6.448   0.003   6.511
 1527SOL     OW 5479   4.331   0.684   5.333
 1527SOL    HW1 5480   4.346   0.783   5.341
 1527SOL    HW2 5481   4.244   0.667   5.288
 1528SOL     OW 5482   4.567   5.321   2.458
 1528SOL    HW1 5483   4.605   5.351   2.546
 1528SOL    HW2 5484   4.532   5.400   2.408
 1529SOL     OW 5485   3.931   0.920   6.957
 1529SOL    HW1 5486   3.899   0.828   6.935
 1529SOL    HW2 5487   3.852   0.979   6.975
 1530SOL     OW 5488   3.216   2.060   1.738
 1530SOL    HW1 5489   3.312   2.067   1.763
 1530SOL    HW2 5490   3.163   2.034   1.819
 1531SOL     OW 5491   4.408   0.623   5.661
 1531SOL    HW1 5492   4.472   0.623   5.739
 1531SOL    HW2 5493   4.452   0.583   5.581
 1532SOL     OW 5494   3.328   3.169   6.687
 1532SOL    HW1 5495   3.387   3.134   6.760
 1532SOL    HW2 5496   3.265   3.237   6.725
 1533SOL     OW 5497   5.469   4.033   6.778
 1533SOL    HW1 5498   5.465   4.130   6.753
 1533SOL    HW2 5499   5.439   4.021   6.873
 1534SOL     OW 5500   2.321   4.708   6.477
 1534SOL    HW1 5501   2.261   4.752   6.410
 1534SOL    HW2 5502   2.293   4.613   6.490
 1535SOL     OW 5503   4.792   6.645   4.215
 1535SOL    HW1 5504   4.731   6.645   4.136
 1535SOL    HW2 5505   4.870   6.584   4.197
 1536SOL     OW 5506   3.838   4.826   5.354
 1536SOL    HW1 5507   3.823   4.865   5.445
 1536SOL    HW2 5508   3.772   4.753   5.337
 1537SOL     OW 5509   4.906   6.340   3.220
 1537SOL    HW1 5510   4.889   6.262   3.161
 1537SOL    HW2 5511   4.823   6.361   3.272
 1538SOL     OW 5512   4.071   5.647   6.526
 1538SOL    HW1 5513   4.144   5.595   6.570
 1538SOL    HW2 5514   4.095   5.744   6.525
 1539SOL     OW 5515   4.773   3.922   1.281
 1539SOL    HW1 5516   4.773   3.862   1.360
 1539SOL    HW2 5517   4.825   3.880   1.207
 1540SOL     OW 5518   1.486   6.294   6.219
 1540SOL    HW1 5519   1.466   6.207   6.175
 1540SOL    HW2 5520   1.556   6.343   6.167
 1541SOL     OW 5521   3.671   2.895   3.385
 1541SOL    HW1 5522   3.723   2.953   3.448
 1541SOL    HW2 5523   3.725   2.878   3.303
 1542SOL     OW 5524   5.310   6.201   2.249
 1542SOL    HW1 5525   5.245   6.144   2.299
 1542SOL    HW2 5526   5.290   6.297   2.268
 1543SOL     OW 5527   3.506   4.985   5.362
 1543SOL    HW1 5528   3.518   4.890   5.390
 1543SOL    HW2 5529   3.578   5.010   5.297
 1544SOL     OW 5530   3.197   3.484   2.993
 1544SOL    HW1 5531   3.129   3.477   2.920
 1544SOL    HW2 5532   3.286   3.455   2.959
 1545SOL     OW 5533   4.971   0.740   3.674
 1545SOL    HW1 5534   4.893   0.705   3.726
 1545SOL    HW2 5535   4.980   0.687   3.590
 1546SOL     OW 5536   4.096   6.554   5.883
 1546SOL    HW1 5537   4.136   6.587   5.968
 1546SOL    HW2 5538   4.004   6.592   5.872
 1547SOL     OW 5539   1.883   3.360   2.718
 1547SOL    HW1 5540   1.790   3.323   2.726
 1547SOL    HW2 5541   1.937   3.301   2.658
 1548SOL     OW 5542   5.403   3.821   5.432
 1548SOL    HW1 5543   5.487   3.767   5.430
 1548SOL    HW2 5544   5.425   3.917   5.410
 1549SOL     OW 5545   4.691   1.369   2.494
 1549SOL    HW1 5546   4.739   1.283   2.509
 1549SOL    HW2 5547   4.683   1.419   2.580
 1550SOL     OW 5548   3.294   3.556   6.946
 1550SOL    HW1 5549   3.226   3.604   7.000
 1550SOL    HW2 5550   3.369   3.526   7.005
 1551SOL     OW 5551   2.018   4.806   6.062
 1551SOL    HW1 5552   2.073   4.733   6.104
 1551SOL    HW2 5553   2.077   4.883   6.039
 1552SOL     OW 5554   0.338   5.463   6.912
 1552SOL    HW1 5555   0.244   5.484   6.938
 1552SOL    HW2 5556   0.398   5.535   6.947
 1553SOL     OW 5557   0.132   1.674   5.336
 1553SOL    HW1 5558   0.096   1.581   5.323
 1553SOL    HW2 5559   0.121   1.701   5.431
 1554SOL     OW 5560   3.967   2.133   3.206
 1554SOL    HW1 5561   3.902   2.064   3.175
 1554SOL    HW2 5562   4.060   2.097   3.199
 1555SOL     OW 5563   5.132   2.470   0.047
 1555SOL    HW1 5564   5.167   2.505   0.134
 1555SOL    HW2 5565   5.172   2.523   6.996
 1556SOL     OW 5566   3.475   0.873   0.791
 1556SOL    HW1 5567   3.422   0.907   0.713
 1556SOL    HW2 5568   3.468   0.938   0.867
 1557SOL     OW 5569   2.415   1.326   6.357
 1557SOL    HW1 5570   2.452   1.352   6.268
 1557SOL    HW2 5571   2.349   1.252   6.345
 1558SOL     OW 5572   4.887   0.578   4.517
 1558SOL    HW1 5573   4.932   0.640   4.453
 1558SOL    HW2 5574   4.957   0.522   4.563
 1559SOL     OW 5575   0.714   2.648   6.989
 1559SOL    HW1 5576   0.634   2.655   6.930
 1559SOL    HW2 5577   0.688   2.606   0.051
 1560SOL     OW 5578   1.666   1.306   5.909
 1560SOL    HW1 5579   1.648   1.269   5.817
 1560SOL    HW2 5580   1.581   1.343   5.947
 1561SOL     OW 5581   6.044   6.423   4.079
 1561SOL    HW1 5582   5.946   6.429   4.097
 1561SOL    HW2 5583   6.062   6.351   4.012
 1562SOL     OW 5584   3.845   6.357   2.844
 1562SOL    HW1 5585   3.942   6.378   2.857
 1562SOL    HW2 5586   3.834   6.300   2.763
 1563SOL     OW 5587   1.825   0.750   6.189
 1563SOL    HW1 5588   1.873   0.819   6.134
 1563SOL    HW2 5589   1.840   0.660   6.149
 1564SOL     OW 5590   0.965   3.204   3.052
 1564SOL    HW1 5591   1.012   3.208   2.964
 1564SOL    HW2 5592   1.014   3.260   3.118
 1565SOL     OW 5593   4.540   4.825   4.753
 1565SOL    HW1 5594   4.580   4.853   4.666
 1565SOL    HW2 5595   4.441   4.821   4.745
 1566SOL     OW 5596   4.909   4.690   3.577
 1566SOL    HW1 5597   4.937   4.669   3.483
 1566SOL    HW2 5598   4.947   4.778   3.604
 1567SOL     OW 5599   5.602   5.262   0.222
 1567SOL    HW1 5600   5.641   5.204   0.293
 1567SOL    HW2 5601   5.660   5.257   0.140
 1568SOL     OW 5602   1.524   5.944   1.335
 1568SOL    HW1 5603   1.444   5.898   1.375
 1568SOL    HW2 5604   1.497   6.036   1.305
 1569SOL     OW 5605   4.117   6.545   3.691
 1569SOL    HW1 5606   4.120   6.492   3.775
 1569SOL    HW2 5607   4.053   6.622   3.702
 1570SOL     OW 5608   1.790   6.825   0.557
 1570SOL    HW1 5609   1.773   6.755   0.626
 1570SOL    HW2 5610   1.888   6.848   0.555
 1571SOL     OW 5611   5.630   1.604   1.856
 1571SOL    HW1 5612   5.683   1.528   1.818
 1571SOL    HW2 5613   5.617   1.590   1.954
 1572SOL     OW 5614   0.639   6.840   0.589
 1572SOL    HW1 5615   0.550   6.813   0.552
 1572SOL    HW2 5616   0.674   6.918   0.537
 1573SOL     OW 5617   5.958   3.829   1.933
 1573SOL    HW1 5618   5.912   3.741   1.948
 1573SOL    HW2 5619   5.931   3.893   2.005
 1574SOL     OW 5620   0.226   0.847   2.595
 1574SOL    HW1 5621   0.193   0.755   2.615
 1574SOL    HW2 5622   0.178   0.882   2.514
 1575SOL     OW 5623   3.154   1.632   0.598
 1575SOL    HW1 5624   3.206   1.615   0.515
 1575SOL    HW2 5625   3.188   1.715   0.643
 1576SOL     OW 5626   1.494   0.467   3.038
 1576SOL    HW1 5627   1.450   0.423   3.116
 1576SOL    HW2 5628   1.591   0.479   3.056
 1577SOL     OW 5629   2.815   0.859   5.215
 1577SOL    HW1 5630   2.795   0.825   5.123
 1577SOL    HW2 5631   2.903   0.821   5.246
 1578SOL     OW 5632   6.079   2.842   5.612
 1578SOL    HW1 5633   6.092   2.769   5.546
 1578SOL    HW2 5634   6.134   2.922   5.586
 1579SOL     OW 5635   0.513   1.688   2.202
 1579SOL    HW1 5636   0.573   1.623   2.156
 1579SOL    HW2 5637   0.470   1.748   2.134
 1580SOL     OW 5638   3.011   3.892   4.496
 1580SOL    HW1 5639   3.030   3.853   4.406
 1580SOL    HW2 5640   2.944   3.835   4.544
 1581SOL     OW 5641   0.682   3.812   4.548
 1581SOL    HW1 5642   0.663   3.909   4.531
 1581SOL    HW2 5643   0.615   3.776   4.613
 1582SOL     OW 5644   1.789   0.215   3.912
 1582SOL    HW1 5645   1.818   0.230   3.818
 1582SOL    HW2 5646   1.729   0.290   3.941
 1583SOL     OW 5647   1.096   4.604   3.468
 1583SOL    HW1 5648   1.175   4.659   3.496
 1583SOL    HW2 5649   1.064   4.635   3.379
 1584SOL     OW 5650   1.542   6.652   5.711
 1584SOL    HW1 5651   1.599   6.647   5.793
 1584SOL    HW2 5652   1.448   6.628   5.734
 1585SOL     OW 5653   5.851   1.211   3.699
 1585SOL    HW1 5654   5.768   1.267   3.707
 1585SOL    HW2 5655   5.928   1.270   3.676
 1586SOL     OW 5656   3.401   4.915   2.078
 1586SOL    HW1 5657   3.427   5.011   2.071
 1586SOL    HW2 5658   3.470   4.858   2.034
 1587SOL     OW 5659   3.391   5.400   6.128
 1587SOL    HW1 5660   3.476   5.428   6.173
 1587SOL    HW2 5661   3.354   5.320   6.175
 1588SOL     OW 5662   4.525   1.456   3.008
 1588SOL    HW1 5663   4.482   1.386   3.066
 1588SOL    HW2 5664   4.525   1.425   2.913
 1589SOL     OW 5665   5.920   3.351   1.645
 1589SOL    HW1 5666   5.869   3.338   1.560
 1589SOL    HW2 5667   6.013   3.316   1.633
 1590SOL     OW 5668   3.475   5.823   6.218
 1590SOL    HW1 5669   3.421   5.787   6.142
 1590SOL    HW2 5670   3.430   5.903   6.258
 1591SOL     OW 5671   6.290   4.983   2.655
 1591SOL    HW1 5672   6.268   4.959   2.560
 1591SOL    HW2 5673   6.382   5.023   2.658
 1592SOL     OW 5674   1.912   4.564   6.754
 1592SOL    HW1 5675   1.990   4.603   6.803
 1592SOL    HW2 5676   1.912   4.597   6.660
 1593SOL     OW 5677   1.505   6.423   4.441
 1593SOL    HW1 5678   1.455   6.472   4.370
 1593SOL    HW2 5679   1.503   6.325   4.423
 1594SOL     OW 5680   0.342   6.078   2.120
 1594SOL    HW1 5681   0.295   6.038   2.042
 1594SOL    HW2 5682   0.369   6.172   2.098
 1595SOL     OW 5683   1.443   5.594   0.581
 1595SOL    HW1 5684   1.507   5.521   0.604
 1595SOL    HW2 5685   1.381   5.564   0.508
 1596SOL     OW 5686   0.546   2.540   3.560
 1596SOL    HW1 5687   0.629   2.496   3.525
 1596SOL    HW2 5688   0.570   2.618   3.616
 1597SOL     OW 5689   1.725   6.860   6.820
 1597SOL    HW1 5690   1.743   6.839   6.723
 1597SOL    HW2 5691   1.677   6.784   6.862
 1598SOL     OW 5692   1.206   4.177   6.489
 1598SOL    HW1 5693   1.281   4.198   6.427
 1598SOL    HW2 5694   1.129   4.238   6.470
 1599SOL     OW 5695   4.685   4.497   5.818
 1599SOL    HW1 5696   4.759   4.494   5.751
 1599SOL    HW2 5697   4.623   4.420   5.802
 1600SOL     OW 5698   4.823   1.583   4.170
 1600SOL    HW1 5699   4.795   1.511   4.107
 1600SOL    HW2 5700   4.749   1.602   4.234
 1601SOL     OW 5701   0.353   4.382   4.820
 1601SOL    HW1 5702   0.347   4.356   4.724
 1601SOL    HW2 5703   0.438   4.433   4.836
 1602SOL     OW 5704   2.778   5.171   3.423
 1602SOL    HW1 5705   2.838   5.113   3.366
 1602SOL    HW2 5706   2.828   5.253   3.450
 1603SOL     OW 5707   0.212   5.971   2.386
 1603SOL    HW1 5708   0.159   6.041   2.433
 1603SOL    HW2 5709   0.248   6.008   2.300
 1604SOL     OW 5710   6.074   5.090   1.423
 1604SOL    HW1 5711   6.029   5.039   1.350
 1604SOL    HW2 5712   6.128   5.028   1.479
 1605SOL     OW 5713   6.850   6.073   1.469
 1605SOL    HW1 5714   6.760   6.032   1.455
 1605SOL    HW2 5715   6.893   6.033   1.549
 1606SOL     OW 5716   3.357   1.126   5.211
 1606SOL    HW1 5717   3.405   1.151   5.127
 1606SOL    HW2 5718   3.262   1.155   5.206
 1607SOL     OW 5719   4.429   1.064   1.273
 1607SOL    HW1 5720   4.453   1.054   1.369
 1607SOL    HW2 5721   4.336   1.029   1.258
 1608SOL     OW 5722   0.934   0.482   4.091
 1608SOL    HW1 5723   0.948   0.576   4.122
 1608SOL    HW2 5724   0.836   0.464   4.083
 1609SOL     OW 5725   3.608   0.292   0.910
 1609SOL    HW1 5726   3.651   0.211   0.872
 1609SOL    HW2 5727   3.541   0.328   0.845
 1610SOL     OW 5728   5.512   4.548   6.753
 1610SOL    HW1 5729   5.512   4.449   6.764
 1610SOL    HW2 5730   5.549   4.572   6.663
 1611SOL     OW 5731   2.430   3.974   1.435
 1611SOL    HW1 5732   2.355   3.962   1.500
 1611SOL    HW2 5733   2.493   3.897   1.442
 1612SOL     OW 5734   2.679   0.741   5.434
 1612SOL    HW1 5735   2.716   0.780   5.349
 1612SOL    HW2 5736   2.595   0.790   5.459
 1613SOL     OW 5737   1.908   5.253   1.808
 1613SOL    HW1 5738   1.844   5.304   1.750
 1613SOL    HW2 5739   1.863   5.229   1.894
 1614SOL     OW 5740   6.321   3.341   6.967
 1614SOL    HW1 5741   6.234   3.351   6.919
 1614SOL    HW2 5742   6.329   3.411   0.013
 1615SOL     OW 5743   6.344   4.699   1.078
 1615SOL    HW1 5744   6.298   4.638   1.012
 1615SOL    HW2 5745   6.276   4.756   1.124
 1616SOL     OW 5746   3.507   1.799   4.910
 1616SOL    HW1 5747   3.583   1.864   4.898
 1616SOL    HW2 5748   3.441   1.811   4.837
 1617SOL     OW 5749   5.989   0.538   2.621
 1617SOL    HW1 5750   6.044   0.454   2.618
 1617SOL    HW2 5751   6.047   0.614   2.651
 1618SOL     OW 5752   2.001   4.169   1.880
 1618SOL    HW1 5753   1.940   4.245   1.856
 1618SOL    HW2 5754   1.949   4.083   1.879
 1619SOL     OW 5755   1.190   2.887   2.394
 1619SOL    HW1 5756   1.206   2.898   2.492
 1619SOL    HW2 5757   1.253   2.819   2.357
 1620SOL     OW 5758   2.674   5.051   1.895
 1620SOL    HW1 5759   2.596   5.053   1.956
 1620SOL    HW2 5760   2.647   5.083   1.804
 1621SOL     OW 5761   0.692   1.164   0.013
 1621SOL    HW1 5762   0.723   1.170   6.942
 1621SOL    HW2 5763   0.746   1.095   0.061
 1622SOL     OW 5764   0.464   2.600   4.753
 1622SOL    HW1 5765   0.436   2.646   4.837
 1622SOL    HW2 5766   0.405   2.521   4.737
 1623SOL     OW 5767   2.123   3.471   5.512
 1623SOL    HW1 5768   2.048   3.441   5.452
 1623SOL    HW2 5769   2.184   3.393   5.529
 1624SOL     OW 5770   2.789   0.810   4.954
 1624SOL    HW1 5771   2.737   0.876   4.901
 1624SOL    HW2 5772   2.885   0.812   4.924
 1625SOL     OW 5773   1.193   5.648   1.611
 1625SOL    HW1 5774   1.246   5.606   1.685
 1625SOL    HW2 5775   1.220   5.607   1.524
 1626SOL     OW 5776   3.921   1.938   6.340
 1626SOL    HW1 5777   3.963   1.848   6.339
 1626SOL    HW2 5778   3.844   1.939   6.404
 1627SOL     OW 5779   6.934   3.101   3.920
 1627SOL    HW1 5780   6.952   3.053   3.835
 1627SOL    HW2 5781   7.013   3.158   3.944
 1628SOL     OW 5782   4.449   4.942   0.674
 1628SOL    HW1 5783   4.376   5.007   0.653
 1628SOL    HW2 5784   4.418   4.849   0.656
 1629SOL     OW 5785   2.980   1.197   3.928
 1629SOL    HW1 5786   3.033   1.236   3.853
 1629SOL    HW2 5787   2.938   1.111   3.897
 1630SOL     OW 5788   1.596   6.010   5.912
 1630SOL    HW1 5789   1.595   5.910   5.905
 1630SOL    HW2 5790   1.528   6.039   5.980
 1631SOL     OW 5791   0.304   2.498   6.452
 1631SOL    HW1 5792   0.276   2.540   6.538
 1631SOL    HW2 5793   0.404   2.490   6.451
 1632SOL     OW 5794   6.871   1.848   6.919
 1632SOL    HW1 5795   6.873   1.893   6.830
 1632SOL    HW2 5796   6.779   1.812   6.936
 1633SOL     OW 5797   5.127   2.998   4.447
 1633SOL    HW1 5798   5.211   2.945   4.453
 1633SOL    HW2 5799   5.130   3.073   4.512
 1634SOL     OW 5800   4.239   4.934   6.313
 1634SOL    HW1 5801   4.193   5.003   6.258
 1634SOL    HW2 5802   4.222   4.843   6.275
 1635SOL     OW 5803   6.979   5.940   5.962
 1635SOL    HW1 5804   7.011   5.853   5.922
 1635SOL    HW2 5805   6.992   5.938   6.061
 1636SOL     OW 5806   3.099   4.295   1.692
 1636SOL    HW1 5807   3.086   4.294   1.593
 1636SOL    HW2 5808   3.013   4.319   1.737
 1637SOL     OW 5809   0.660   0.108   2.979
 1637SOL    HW1 5810   0.633   0.118   2.884
 1637SOL    HW2 5811   0.759   0.094   2.985
 1638SOL     OW 5812   0.228   4.480   3.400
 1638SOL    HW1 5813   0.214   4.414   3.327
 1638SOL    HW2 5814   0.245   4.571   3.361
 1639SOL     OW 5815   4.984   6.456   2.923
 1639SOL    HW1 5816   5.076   6.451   2.884
 1639SOL    HW2 5817   4.950   6.363   2.939
 1640SOL     OW 5818   6.062   1.278   0.710
 1640SOL    HW1 5819   6.011   1.339   0.771
 1640SOL    HW2 5820   5.999   1.222   0.658
 1641SOL     OW 5821   4.994   2.531   4.274
 1641SOL    HW1 5822   5.029   2.492   4.360
 1641SOL    HW2 5823   5.004   2.463   4.201
 1642SOL     OW 5824   5.786   3.862   6.960
 1642SOL    HW1 5825   5.689   3.869   6.984
 1642SOL    HW2 5826   5.823   3.954   6.944
 1643SOL     OW 5827   2.626   5.097   4.090
 1643SOL    HW1 5828   2.610   5.183   4.041
 1643SOL    HW2 5829   2.599   5.108   4.186
 1644SOL     OW 5830   0.156   3.006   1.228
 1644SOL    HW1 5831   0.212   3.066   1.171
 1644SOL    HW2 5832   0.153   2.915   1.188
 1645SOL     OW 5833   3.389   5.868   5.963
 1645SOL    HW1 5834   3.369   5.902   5.871
 1645SOL    HW2 5835   3.331   5.788   5.982
 1646SOL     OW 5836   3.049   5.962   0.672
 1646SOL    HW1 5837   3.059   5.894   0.745
 1646SOL    HW2 5838   2.952   5.979   0.656
 1647SOL     OW 5839   6.529   2.757   4.739
 1647SOL    HW1 5840   6.440   2.717   4.758
 1647SOL    HW2 5841   6.525   2.856   4.749
 1648SOL     OW 5842   6.129   5.429   0.893
 1648SOL    HW1 5843   6.062   5.449   0.965
 1648SOL    HW2 5844   6.152   5.513   0.845
 1649SOL     OW 5845   3.563   0.228   4.689
 1649SOL    HW1 5846   3.555   0.135   4.653
 1649SOL    HW2 5847   3.624   0.282   4.630
 1650SOL     OW 5848   2.113   6.097   5.257
 1650SOL    HW1 5849   2.029   6.130   5.299
 1650SOL    HW2 5850   2.131   6.003   5.287
 1651SOL     OW 5851   0.438   1.422   1.228
 1651SOL    HW1 5852   0.418   1.491   1.297
 1651SOL    HW2 5853   0.529   1.384   1.245
 1652SOL     OW 5854   0.896   3.265   2.288
 1652SOL    HW1 5855   0.987   3.300   2.311
 1652SOL    HW2 5856   0.826   3.318   2.337
 1653SOL     OW 5857   0.939   7.022   1.277
 1653SOL    HW1 5858   1.021   0.040   1.239
 1653SOL    HW2 5859   0.884   0.067   1.323
 1654SOL     OW 5860   6.558   3.359   1.581
 1654SOL    HW1 5861   6.629   3.297   1.614
 1654SOL    HW2 5862   6.528   3.418   1.656
 1655SOL     OW 5863   6.660   2.547   5.278
 1655SOL    HW1 5864   6.644   2.521   5.373
 1655SOL    HW2 5865   6.576   2.533   5.226
 1656SOL     OW 5866   2.458   5.104   2.039
 1656SOL    HW1 5867   2.404   5.184   2.012
 1656SOL    HW2 5868   2.400   5.022   2.037
 1657SOL     OW 5869   6.616   0.601   3.939
 1657SOL    HW1 5870   6.590   0.698   3.944
 1657SOL    HW2 5871   6.692   0.584   4.003
 1658SOL     OW 5872   1.076   0.088   1.067
 1658SOL    HW1 5873   1.085   7.017   1.037
 1658SOL    HW2 5874   1.152   0.141   1.029
 1659SOL     OW 5875   3.578   0.784   6.147
 1659SOL    HW1 5876   3.513   0.736   6.089
 1659SOL    HW2 5877   3.671   0.766   6.116
 1660SOL     OW 5878   1.016   5.075   3.919
 1660SOL    HW1 5879   0.964   5.120   3.846
 1660SOL    HW2 5880   1.095   5.028   3.879
 1661SOL     OW 5881   3.056   1.124   1.739
 1661SOL    HW1 5882   3.059   1.105   1.838
 1661SOL    HW2 5883   3.012   1.047   1.692
 1662SOL     OW 5884   6.486   6.878   3.592
 1662SOL    HW1 5885   6.524   6.958   3.639
 1662SOL    HW2 5886   6.405   6.905   3.540
 1663SOL     OW 5887   4.337   6.997   2.997
 1663SOL    HW1 5888   4.383   7.024   3.082
 1663SOL    HW2 5889   4.250   6.954   3.019
 1664SOL     OW 5890   2.241   6.370   4.651
 1664SOL    HW1 5891   2.271   6.457   4.690
 1664SOL    HW2 5892   2.276   6.362   4.557
 1665SOL     OW 5893   0.551   1.386   3.213
 1665SOL    HW1 5894   0.620   1.401   3.142
 1665SOL    HW2 5895   0.584   1.318   3.278
 1666SOL     OW 5896   5.479   3.182   0.182
 1666SOL    HW1 5897   5.490   3.263   0.240
 1666SOL    HW2 5898   5.400   3.195   0.122
 1667SOL     OW 5899   6.629   6.553   1.432
 1667SOL    HW1 5900   6.695   6.565   1.506
 1667SOL    HW2 5901   6.571   6.635   1.425
 1668SOL     OW 5902   5.292   6.019   5.538
 1668SOL    HW1 5903   5.269   5.966   5.619
 1668SOL    HW2 5904   5.386   6.051   5.544
 1669SOL     OW 5905   0.048   5.651   6.229
 1669SOL    HW1 5906   0.143   5.665   6.202
 1669SOL    HW2 5907   0.004   5.740   6.244
 1670SOL     OW 5908   0.301   4.123   6.149
 1670SOL    HW1 5909   0.367   4.048   6.153
 1670SOL    HW2 5910   0.258   4.125   6.058
 1671SOL     OW 5911   4.862   2.403   0.983
 1671SOL    HW1 5912   4.788   2.468   0.968
 1671SOL    HW2 5913   4.904   2.418   1.072
 1672SOL     OW 5914   1.542   2.980   1.001
 1672SOL    HW1 5915   1.603   2.912   0.959
 1672SOL    HW2 5916   1.450   2.942   1.008
 1673SOL     OW 5917   0.094   2.354   3.745
 1673SOL    HW1 5918   0.073   2.422   3.675
 1673SOL    HW2 5919   0.030   2.277   3.737
 1674SOL     OW 5920   0.469   4.184   2.548
 1674SOL    HW1 5921   0.506   4.173   2.456
 1674SOL    HW2 5922   0.372   4.208   2.542
 1675SOL     OW 5923   4.103   0.869   6.123
 1675SOL    HW1 5924   4.202   0.878   6.134
 1675SOL    HW2 5925   4.084   0.792   6.062
 1676SOL     OW 5926   1.836   1.729   2.168
 1676SOL    HW1 5927   1.840   1.689   2.077
 1676SOL    HW2 5928   1.773   1.676   2.225
 1677SOL     OW 5929   3.773   3.027   5.241
 1677SOL    HW1 5930   3.772   2.945   5.299
 1677SOL    HW2 5931   3.748   3.002   5.148
 1678SOL     OW 5932   4.506   4.906   5.046
 1678SOL    HW1 5933   4.530   4.894   4.950
 1678SOL    HW2 5934   4.433   4.974   5.054
 1679SOL     OW 5935   2.212   2.907   5.228
 1679SOL    HW1 5936   2.246   2.944   5.315
 1679SOL    HW2 5937   2.278   2.927   5.156
 1680SOL     OW 5938   0.770   2.974   4.653
 1680SOL    HW1 5939   0.764   3.071   4.630
 1680SOL    HW2 5940   0.866   2.944   4.646
 1681SOL     OW 5941   6.472   5.640   0.155
 1681SOL    HW1 5942   6.508   5.629   0.248
 1681SOL    HW2 5943   6.390   5.696   0.157
 1682SOL     OW 5944   0.262   1.623   5.026
 1682SOL    HW1 5945   0.216   1.580   4.948
 1682SOL    HW2 5946   0.357   1.591   5.030
 1683SOL     OW 5947   4.272   5.609   1.002
 1683SOL    HW1 5948   4.238   5.684   1.059
 1683SOL    HW2 5949   4.243   5.623   0.907
 1684SOL     OW 5950   1.636   6.493   2.708
 1684SOL    HW1 5951   1.585   6.539   2.781
 1684SOL    HW2 5952   1.584   6.499   2.623
 1685SOL     OW 5953   2.275   1.222   5.699
 1685SOL    HW1 5954   2.221   1.138   5.711
 1685SOL    HW2 5955   2.267   1.254   5.604
 1686SOL     OW 5956   2.682   5.139   4.849
 1686SOL    HW1 5957   2.767   5.086   4.850
 1686SOL    HW2 5958   2.638   5.132   4.939
 1687SOL     OW 5959   2.322   3.179   0.969
 1687SOL    HW1 5960   2.302   3.177   1.067
 1687SOL    HW2 5961   2.278   3.102   0.924
 1688SOL     OW 5962   1.857   2.212   4.067
 1688SOL    HW1 5963   1.905   2.243   3.985
 1688SOL    HW2 5964   1.768   2.256   4.072
 1689SOL     OW 5965   5.107   0.733   2.055
 1689SOL    HW1 5966   5.156   0.784   2.125
 1689SOL    HW2 5967   5.008   0.738   2.072
 1690SOL     OW 5968   1.338   2.389   3.626
 1690SOL    HW1 5969   1.378   2.422   3.540
 1690SOL    HW2 5970   1.368   2.296   3.643
 1691SOL     OW 5971   5.807   4.240   3.230
 1691SOL    HW1 5972   5.813   4.320   3.290
 1691SOL    HW2 5973   5.835   4.266   3.137
 1692SOL     OW 5974   5.672   0.597   1.717
 1692SOL    HW1 5975   5.675   0.601   1.817
 1692SOL    HW2 5976   5.752   0.643   1.679
 1693SOL     OW 5977   0.462   2.410   2.118
 1693SOL    HW1 5978   0.453   2.481   2.048
 1693SOL    HW2 5979   0.487   2.453   2.206
 1694SOL     OW 5980   5.387   0.414   3.813
 1694SOL    HW1 5981   5.340   0.502   3.813
 1694SOL    HW2 5982   5.483   0.427   3.793
 1695SOL     OW 5983   3.111   1.446   6.295
 1695SOL    HW1 5984   3.134   1.401   6.209
 1695SOL    HW2 5985   3.146   1.391   6.372
 1696SOL     OW 5986   5.034   4.632   0.446
 1696SOL    HW1 5987   4.995   4.551   0.491
 1696SOL    HW2 5988   4.980   4.654   0.365
 1697SOL     OW 5989   5.250   6.485   1.827
 1697SOL    HW1 5990   5.278   6.396   1.790
 1697SOL    HW2 5991   5.174   6.520   1.773
 1698SOL     OW 5992   4.508   0.720   0.084
 1698SOL    HW1 5993   4.410   0.700   0.075
 1698SOL    HW2 5994   4.551   0.649   0.140
 1699SOL     OW 5995   2.860   1.373   0.701
 1699SOL    HW1 5996   2.853   1.274   0.691
 1699SOL    HW2 5997   2.828   1.417   0.617
 1700SOL     OW 5998   5.516   2.024   3.301
 1700SOL    HW1 5999   5.608   2.043   3.335
 1700SOL    HW2 6000   5.489   2.095   3.237
 1701SOL     OW 6001   5.590   4.595   5.527
 1701SOL    HW1 6002   5.542   4.582   5.440
 1701SOL    HW2 6003   5.613   4.506   5.566
 1702SOL     OW 6004   6.876   2.749   0.465
 1702SOL    HW1 6005   6.861   2.745   0.367
 1702SOL    HW2 6006   6.974   2.754   0.484
 1703SOL     OW 6007   3.497   3.155   2.187
 1703SOL    HW1 6008   3.407   3.182   2.220
 1703SOL    HW2 6009   3.494   3.061   2.154
 1704SOL     OW 6010   0.677   2.073   1.884
 1704SOL    HW1 6011   0.688   1.975   1.867
 1704SOL    HW2 6012   0.603   2.109   1.826
 1705SOL     OW 6013   3.628   2.137   1.273
 1705SOL    HW1 6014   3.606   2.101   1.363
 1705SOL    HW2 6015   3.714   2.097   1.241
 1706SOL     OW 6016   4.947   0.918   1.429
 1706SOL    HW1 6017   4.965   0.922   1.527
 1706SOL    HW2 6018   5.029   0.945   1.379
 1707SOL     OW 6019   4.780   1.642   2.626
 1707SOL    HW1 6020   4.834   1.715   2.669
 1707SOL    HW2 6021   4.684   1.667   2.625
 1708SOL     OW 6022   4.825   5.060   2.566
 1708SOL    HW1 6023   4.904   5.117   2.543
 1708SOL    HW2 6024   4.769   5.046   2.485
 1709SOL     OW 6025   2.678   5.591   1.289
 1709SOL    HW1 6026   2.645   5.569   1.381
 1709SOL    HW2 6027   2.767   5.637   1.296
 1710SOL     OW 6028   5.680   4.816   3.917
 1710SOL    HW1 6029   5.685   4.725   3.877
 1710SOL    HW2 6030   5.605   4.867   3.876
 1711SOL     OW 6031   1.290   4.930   4.287
 1711SOL    HW1 6032   1.283   4.962   4.381
 1711SOL    HW2 6033   1.211   4.963   4.235
 1712SOL     OW 6034   0.134   3.179   6.126
 1712SOL    HW1 6035   0.210   3.173   6.191
 1712SOL    HW2 6036   0.137   3.268   6.080
 1713SOL     OW 6037   3.906   2.157   1.535
 1713SOL    HW1 6038   3.873   2.251   1.545
 1713SOL    HW2 6039   3.925   2.118   1.625
 1714SOL     OW 6040   4.239   1.825   5.374
 1714SOL    HW1 6041   4.157   1.876   5.402
 1714SOL    HW2 6042   4.298   1.810   5.453
 1715SOL     OW 6043   0.074   4.447   2.591
 1715SOL    HW1 6044   0.109   4.467   2.500
 1715SOL    HW2 6045   0.123   4.503   2.659
 1716SOL     OW 6046   4.727   6.797   2.815
 1716SOL    HW1 6047   4.691   6.848   2.893
 1716SOL    HW2 6048   4.658   6.794   2.742
 1717SOL     OW 6049   2.414   6.048   6.190
 1717SOL    HW1 6050   2.370   6.031   6.101
 1717SOL    HW2 6051   2.479   6.124   6.181
 1718SOL     OW 6052   1.932   2.279   2.248
 1718SOL    HW1 6053   1.848   2.316   2.289
 1718SOL    HW2 6054   1.958   2.195   2.296
 1719SOL     OW 6055   1.849   4.422   1.309
 1719SOL    HW1 6056   1.855   4.368   1.393
 1719SOL    HW2 6057   1.902   4.378   1.236
 1720SOL     OW 6058   0.700   2.512   0.195
 1720SOL    HW1 6059   0.646   2.442   0.147
 1720SOL    HW2 6060   0.797   2.495   0.180
 1721SOL     OW 6061   1.295   6.847   1.882
 1721SOL    HW1 6062   1.250   6.758   1.874
 1721SOL    HW2 6063   1.227   6.916   1.909
 1722SOL     OW 6064   4.705   2.074   4.546
 1722SOL    HW1 6065   4.735   2.068   4.641
 1722SOL    HW2 6066   4.611   2.043   4.538
 1723SOL     OW 6067   0.051   2.903   2.312
 1723SOL    HW1 6068   0.066   2.999   2.288
 1723SOL    HW2 6069   6.979   2.880   2.301
 1724SOL     OW 6070   6.351   2.240   0.892
 1724SOL    HW1 6071   6.310   2.288   0.814
 1724SOL    HW2 6072   6.375   2.306   0.963
 1725SOL     OW 6073   2.378   4.796   6.915
 1725SOL    HW1 6074   2.423   4.783   7.004
 1725SOL    HW2 6075   2.280   4.786   6.927
 1726SOL     OW 6076   4.945   4.898   5.837
 1726SOL    HW1 6077   5.015   4.966   5.814
 1726SOL    HW2 6078   4.967   4.812   5.792
 1727SOL     OW 6079   3.789   3.308   4.466
 1727SOL    HW1 6080   3.780   3.403   4.436
 1727SOL    HW2 6081   3.699   3.266   4.471
 1728SOL     OW 6082   5.413   4.977   5.694
 1728SOL    HW1 6083   5.384   4.884   5.674
 1728SOL    HW2 6084   5.450   5.020   5.612
 1729SOL     OW 6085   1.771   3.778   3.397
 1729SOL    HW1 6086   1.751   3.872   3.424
 1729SOL    HW2 6087   1.800   3.777   3.301
 1730SOL     OW 6088   0.231   0.138   5.620
 1730SOL    HW1 6089   0.321   0.176   5.643
 1730SOL    HW2 6090   0.236   0.093   5.530
 1731SOL     OW 6091   6.962   4.747   2.218
 1731SOL    HW1 6092   6.939   4.659   2.259
 1731SOL    HW2 6093   6.971   4.816   2.291
 1732SOL     OW 6094   2.484   4.613   5.612
 1732SOL    HW1 6095   2.578   4.604   5.580
 1732SOL    HW2 6096   2.464   4.709   5.631
 1733SOL     OW 6097   1.440   4.094   2.200
 1733SOL    HW1 6098   1.378   4.016   2.191
 1733SOL    HW2 6099   1.389   4.175   2.229
 1734SOL     OW 6100   4.674   3.306   1.709
 1734SOL    HW1 6101   4.700   3.273   1.618
 1734SOL    HW2 6102   4.644   3.229   1.765
 1735SOL     OW 6103   5.356   5.906   1.586
 1735SOL    HW1 6104   5.312   5.888   1.674
 1735SOL    HW2 6105   5.449   5.940   1.602
 1736SOL     OW 6106   3.905   3.044   1.115
 1736SOL    HW1 6107   3.889   2.980   1.040
 1736SOL    HW2 6108   3.886   3.137   1.085
 1737SOL     OW 6109   2.378   1.147   4.182
 1737SOL    HW1 6110   2.438   1.218   4.218
 1737SOL    HW2 6111   2.304   1.129   4.247
 1738SOL     OW 6112   2.256   1.762   4.142
 1738SOL    HW1 6113   2.278   1.778   4.045
 1738SOL    HW2 6114   2.314   1.688   4.177
 1739SOL     OW 6115   5.651   2.383   5.302
 1739SOL    HW1 6116   5.589   2.304   5.299
 1739SOL    HW2 6117   5.670   2.413   5.208
 1740SOL     OW 6118   6.742   1.746   6.011
 1740SOL    HW1 6119   6.678   1.689   5.961
 1740SOL    HW2 6120   6.746   1.717   6.107
 1741SOL     OW 6121   1.764   0.765   3.753
 1741SOL    HW1 6122   1.722   0.713   3.679
 1741SOL    HW2 6123   1.725   0.856   3.757
 1742SOL     OW 6124   5.029   0.189   6.039
 1742SOL    HW1 6125   5.067   0.192   5.947
 1742SOL    HW2 6126   5.023   0.094   6.070
 1743SOL     OW 6127   1.378   2.418   2.049
 1743SOL    HW1 6128   1.301   2.398   2.109
 1743SOL    HW2 6129   1.356   2.497   1.991
 1744SOL     OW 6130   0.785   0.761   1.957
 1744SOL    HW1 6131   0.819   0.683   2.008
 1744SOL    HW2 6132   0.857   0.831   1.952
 1745SOL     OW 6133   5.988   0.402   3.525
 1745SOL    HW1 6134   6.034   0.319   3.495
 1745SOL    HW2 6135   6.028   0.481   3.479
 1746SOL     OW 6136   2.713   4.939   5.092
 1746SOL    HW1 6137   2.669   4.858   5.053
 1746SOL    HW2 6138   2.651   5.017   5.085
 1747SOL     OW 6139   5.941   1.611   2.983
 1747SOL    HW1 6140   5.954   1.558   2.899
 1747SOL    HW2 6141   5.870   1.679   2.968
 1748SOL     OW 6142   0.690   0.890   4.235
 1748SOL    HW1 6143   0.730   0.896   4.326
 1748SOL    HW2 6144   0.600   0.847   4.242
 1749SOL     OW 6145   2.716   0.013   4.918
 1749SOL    HW1 6146   2.704   0.092   4.979
 1749SOL    HW2 6147   2.632   6.983   4.918
 1750SOL     OW 6148   6.559   0.089   4.174
 1750SOL    HW1 6149   6.474   0.118   4.219
 1750SOL    HW2 6150   6.557   7.015   4.161
 1751SOL     OW 6151   4.059   6.116   4.876
 1751SOL    HW1 6152   3.998   6.186   4.839
 1751SOL    HW2 6153   4.131   6.160   4.929
 1752SOL     OW 6154   0.177   2.428   1.866
 1752SOL    HW1 6155   0.240   2.411   1.791
 1752SOL    HW2 6156   0.205   2.375   1.946
 1753SOL     OW 6157   0.635   2.295   0.718
 1753SOL    HW1 6158   0.683   2.266   0.801
 1753SOL    HW2 6159   0.544   2.330   0.743
 1754SOL     OW 6160   2.839   3.620   0.879
 1754SOL    HW1 6161   2.764   3.631   0.944
 1754SOL    HW2 6162   2.871   3.525   0.880
 1755SOL     OW 6163   6.169   5.829   1.923
 1755SOL    HW1 6164   6.112   5.814   1.842
 1755SOL    HW2 6165   6.259   5.863   1.894
 1756SOL     OW 6166   4.103   4.407   5.810
 1756SOL    HW1 6167   4.059   4.327   5.770
 1756SOL    HW2 6168   4.178   4.378   5.870
 1757SOL     OW 6169   2.305   4.879   4.735
 1757SOL    HW1 6170   2.330   4.976   4.731
 1757SOL    HW2 6171   2.388   4.824   4.737
 1758SOL     OW 6172   2.194   0.324   4.012
 1758SOL    HW1 6173   2.221   0.229   3.995
 1758SOL    HW2 6174   2.125   0.326   4.085
 1759SOL     OW 6175   2.260   5.124   6.437
 1759SOL    HW1 6176   2.224   5.207   6.395
 1759SOL    HW2 6177   2.294   5.145   6.529
 1760SOL     OW 6178   5.771   1.879   2.254
 1760SOL    HW1 6179   5.689   1.901   2.202
 1760SOL    HW2 6180   5.815   1.798   2.215
 1761SOL     OW 6181   0.129   0.074   0.196
 1761SOL    HW1 6182   0.101   0.093   0.290
 1761SOL    HW2 6183   0.157   0.159   0.151
 1762SOL     OW 6184   0.099   1.999   4.646
 1762SOL    HW1 6185   0.096   2.095   4.673
 1762SOL    HW2 6186   0.079   1.991   4.548
 1763SOL     OW 6187   1.543   3.626   3.493
 1763SOL    HW1 6188   1.624   3.684   3.485
 1763SOL    HW2 6189   1.462   3.678   3.466
 1764SOL     OW 6190   2.076   3.585   2.118
 1764SOL    HW1 6191   2.101   3.680   2.138
 1764SOL    HW2 6192   2.150   3.542   2.065
 1765SOL     OW 6193   4.200   1.619   0.842
 1765SOL    HW1 6194   4.220   1.548   0.775
 1765SOL    HW2 6195   4.285   1.657   0.877
 1766SOL     OW 6196   4.751   2.891   2.888
 1766SOL    HW1 6197   4.740   2.928   2.796
 1766SOL    HW2 6198   4.718   2.797   2.891
 1767SOL     OW 6199   7.016   3.739   2.833
 1767SOL    HW1 6200   6.938   3.729   2.895
 1767SOL    HW2 6201   0.053   3.809   2.868
 1768SOL     OW 6202   4.095   1.652   5.182
 1768SOL    HW1 6203   4.047   1.657   5.270
 1768SOL    HW2 6204   4.145   1.738   5.167
 1769SOL     OW 6205   4.391   2.923   5.537
 1769SOL    HW1 6206   4.342   2.906   5.622
 1769SOL    HW2 6207   4.421   3.018   5.534
 1770SOL     OW 6208   6.953   5.244   4.857
 1770SOL    HW1 6209   0.009   5.196   4.824
 1770SOL    HW2 6210   6.963   5.342   4.841
 1771SOL     OW 6211   2.568   5.157   6.973
 1771SOL    HW1 6212   2.519   5.178   6.888
 1771SOL    HW2 6213   2.620   5.238   7.002
 1772SOL     OW 6214   3.695   6.497   3.029
 1772SOL    HW1 6215   3.709   6.446   2.944
 1772SOL    HW2 6216   3.597   6.507   3.046
 1773SOL     OW 6217   3.228   4.045   6.577
 1773SOL    HW1 6218   3.128   4.039   6.585
 1773SOL    HW2 6219   3.266   4.083   6.661
 1774SOL     OW 6220   4.396   6.854   1.675
 1774SOL    HW1 6221   4.364   6.929   1.616
 1774SOL    HW2 6222   4.442   6.785   1.618
 1775SOL     OW 6223   1.437   5.330   4.184
 1775SOL    HW1 6224   1.481   5.251   4.226
 1775SOL    HW2 6225   1.398   5.389   4.256
 1776SOL     OW 6226   3.476   0.682   5.885
 1776SOL    HW1 6227   3.528   0.766   5.874
 1776SOL    HW2 6228   3.388   0.702   5.927
 1777SOL     OW 6229   3.259   5.310   5.740
 1777SOL    HW1 6230   3.293   5.257   5.662
 1777SOL    HW2 6231   3.299   5.402   5.738
 1778SOL     OW 6232   4.662   2.334   4.965
 1778SOL    HW1 6233   4.687   2.244   5.000
 1778SOL    HW2 6234   4.567   2.333   4.936
 1779SOL     OW 6235   5.255   1.511   4.744
 1779SOL    HW1 6236   5.246   1.595   4.797
 1779SOL    HW2 6237   5.314   1.527   4.665
 1780SOL     OW 6238   2.408   4.621   5.919
 1780SOL    HW1 6239   2.471   4.639   5.994
 1780SOL    HW2 6240   2.459   4.611   5.834
 1781SOL     OW 6241   4.177   5.227   3.813
 1781SOL    HW1 6242   4.257   5.229   3.873
 1781SOL    HW2 6243   4.162   5.134   3.779
 1782SOL     OW 6244   3.078   1.642   2.986
 1782SOL    HW1 6245   3.044   1.583   3.060
 1782SOL    HW2 6246   3.049   1.605   2.898
 1783SOL     OW 6247   1.836   3.199   6.421
 1783SOL    HW1 6248   1.848   3.101   6.404
 1783SOL    HW2 6249   1.742   3.218   6.448
 1784SOL     OW 6250   3.111   0.724   4.009
 1784SOL    HW1 6251   3.097   0.820   3.982
 1784SOL    HW2 6252   3.028   0.690   4.055
 1785SOL     OW 6253   5.211   6.300   3.750
 1785SOL    HW1 6254   5.247   6.289   3.657
 1785SOL    HW2 6255   5.222   6.394   3.779
 1786SOL     OW 6256   1.116   3.058   0.862
 1786SOL    HW1 6257   1.184   3.123   0.829
 1786SOL    HW2 6258   1.030   3.107   0.879
 1787SOL     OW 6259   2.179   1.025   4.331
 1787SOL    HW1 6260   2.082   1.050   4.333
 1787SOL    HW2 6261   2.193   0.953   4.263
 1788SOL     OW 6262   3.523   3.100   0.293
 1788SOL    HW1 6263   3.528   3.200   0.286
 1788SOL    HW2 6264   3.439   3.073   0.339
 1789SOL     OW 6265   6.445   2.437   2.176
 1789SOL    HW1 6266   6.362   2.393   2.141
 1789SOL    HW2 6267   6.435   2.536   2.171
 1790SOL     OW 6268   4.122   6.466   4.547
 1790SOL    HW1 6269   4.184   6.428   4.615
 1790SOL    HW2 6270   4.145   6.561   4.529
 1791SOL     OW 6271   0.367   1.720   4.303
 1791SOL    HW1 6272   0.311   1.712   4.385
 1791SOL    HW2 6273   0.441   1.785   4.318
 1792SOL     OW 6274   0.431   2.578   4.029
 1792SOL    HW1 6275   0.511   2.595   3.972
 1792SOL    HW2 6276   0.423   2.650   4.099
 1793SOL     OW 6277   6.692   0.298   3.440
 1793SOL    HW1 6278   6.689   0.395   3.462
 1793SOL    HW2 6279   6.603   0.268   3.407
 1794SOL     OW 6280   5.123   6.039   6.535
 1794SOL    HW1 6281   5.075   6.116   6.492
 1794SOL    HW2 6282   5.222   6.053   6.528
 1795SOL     OW 6283   0.500   3.819   2.215
 1795SOL    HW1 6284   0.565   3.783   2.282
 1795SOL    HW2 6285   0.412   3.772   2.225
 1796SOL     OW 6286   2.095   1.403   4.610
 1796SOL    HW1 6287   2.099   1.503   4.606
 1796SOL    HW2 6288   2.124   1.371   4.700
 1797SOL     OW 6289   1.108   1.141   6.272
 1797SOL    HW1 6290   1.151   1.077   6.336
 1797SOL    HW2 6291   1.108   1.100   6.180
 1798SOL     OW 6292   4.898   2.622   5.430
 1798SOL    HW1 6293   4.930   2.553   5.494
 1798SOL    HW2 6294   4.809   2.656   5.459
 1799SOL     OW 6295   6.682   1.668   6.652
 1799SOL    HW1 6296   6.705   1.647   6.747
 1799SOL    HW2 6297   6.724   1.755   6.627
 1800SOL     OW 6298   4.503   5.247   3.466
 1800SOL    HW1 6299   4.457   5.309   3.530
 1800SOL    HW2 6300   4.594   5.283   3.445
 1801SOL     OW 6301   1.020   1.100   2.182
 1801SOL    HW1 6302   1.021   1.152   2.267
 1801SOL    HW2 6303   1.059   1.155   2.108
 1802SOL     OW 6304   5.296   5.233   2.323
 1802SOL    HW1 6305   5.335   5.181   2.247
 1802SOL    HW2 6306   5.350   5.218   2.405
 1803SOL     OW 6307   6.795   5.700   0.656
 1803SOL    HW1 6308   6.736   5.765   0.608
 1803SOL    HW2 6309   6.866   5.749   0.706
 1804SOL     OW 6310   2.070   3.334   6.080
 1804SOL    HW1 6311   2.062   3.238   6.107
 1804SOL    HW2 6312   2.123   3.384   6.148
 1805SOL     OW 6313   0.255   3.904   5.339
 1805SOL    HW1 6314   0.330   3.966   5.359
 1805SOL    HW2 6315   0.184   3.953   5.288
 1806SOL     OW 6316   1.150   1.349   1.196
 1806SOL    HW1 6317   1.128   1.408   1.118
 1806SOL    HW2 6318   1.233   1.382   1.240
 1807SOL     OW 6319   5.291   2.136   6.023
 1807SOL    HW1 6320   5.262   2.047   6.058
 1807SOL    HW2 6321   5.377   2.162   6.067
 1808SOL     OW 6322   6.248   3.539   5.482
 1808SOL    HW1 6323   6.305   3.460   5.508
 1808SOL    HW2 6324   6.307   3.617   5.462
 1809SOL     OW 6325   2.159   3.006   4.318
 1809SOL    HW1 6326   2.203   2.971   4.401
 1809SOL    HW2 6327   2.135   3.102   4.331
 1810SOL     OW 6328   2.562   0.573   5.716
 1810SOL    HW1 6329   2.522   0.664   5.728
 1810SOL    HW2 6330   2.617   0.571   5.633
 1811SOL     OW 6331   4.252   4.906   3.317
 1811SOL    HW1 6332   4.164   4.887   3.274
 1811SOL    HW2 6333   4.242   4.983   3.379
 1812SOL     OW 6334   4.470   0.135   6.215
 1812SOL    HW1 6335   4.402   0.103   6.280
 1812SOL    HW2 6336   4.518   0.214   6.254
 1813SOL     OW 6337   4.113   4.661   1.456
 1813SOL    HW1 6338   4.164   4.648   1.371
 1813SOL    HW2 6339   4.174   4.642   1.534
 1814SOL     OW 6340   6.436   0.545   0.206
 1814SOL    HW1 6341   6.478   0.507   0.288
 1814SOL    HW2 6342   6.483   0.630   0.180
 1815SOL     OW 6343   6.638   2.028   1.674
 1815SOL    HW1 6344   6.637   1.967   1.754
 1815SOL    HW2 6345   6.545   2.041   1.641
 1816SOL     OW 6346   1.598   4.202   1.070
 1816SOL    HW1 6347   1.532   4.224   0.998
 1816SOL    HW2 6348   1.549   4.187   1.156
 1817SOL     OW 6349   3.158   6.360   3.173
 1817SOL    HW1 6350   3.157   6.455   3.204
 1817SOL    HW2 6351   3.126   6.301   3.247
 1818SOL     OW 6352   2.240   6.273   2.481
 1818SOL    HW1 6353   2.305   6.327   2.426
 1818SOL    HW2 6354   2.210   6.194   2.428
 1819SOL     OW 6355   0.734   5.660   1.382
 1819SOL    HW1 6356   0.709   5.615   1.467
 1819SOL    HW2 6357   0.701   5.755   1.384
 1820SOL     OW 6358   3.034   0.837   2.643
 1820SOL    HW1 6359   3.023   0.738   2.643
 1820SOL    HW2 6360   3.129   0.860   2.665
 1821SOL     OW 6361   2.685   0.449   1.824
 1821SOL    HW1 6362   2.606   0.392   1.802
 1821SOL    HW2 6363   2.658   0.545   1.825
 1822SOL     OW 6364   2.032   3.073   1.096
 1822SOL    HW1 6365   1.939   3.037   1.107
 1822SOL    HW2 6366   2.044   3.105   1.002
 1823SOL     OW 6367   2.568   5.908   2.967
 1823SOL    HW1 6368   2.655   5.958   2.964
 1823SOL    HW2 6369   2.499   5.963   3.012
 1824SOL     OW 6370   3.513   4.162   1.889
 1824SOL    HW1 6371   3.515   4.243   1.831
 1824SOL    HW2 6372   3.597   4.157   1.943
 1825SOL     OW 6373   1.188   2.696   3.921
 1825SOL    HW1 6374   1.208   2.600   3.938
 1825SOL    HW2 6375   1.134   2.733   3.996
 1826SOL     OW 6376   3.100   0.520   1.062
 1826SOL    HW1 6377   3.110   0.583   1.138
 1826SOL    HW2 6378   3.058   0.435   1.094
 1827SOL     OW 6379   0.378   5.787   1.571
 1827SOL    HW1 6380   0.436   5.787   1.652
 1827SOL    HW2 6381   0.351   5.692   1.550
 1828SOL     OW 6382   1.189   2.491   0.522
 1828SOL    HW1 6383   1.101   2.531   0.547
 1828SOL    HW2 6384   1.219   2.428   0.594
 1829SOL     OW 6385   2.860   0.819   3.126
 1829SOL    HW1 6386   2.929   0.809   3.055
 1829SOL    HW2 6387   2.792   0.887   3.098
 1830SOL     OW 6388   6.333   6.350   3.736
 1830SOL    HW1 6389   6.414   6.401   3.709
 1830SOL    HW2 6390   6.349   6.252   3.724
 1831SOL     OW 6391   6.203   0.359   2.588
 1831SOL    HW1 6392   6.256   0.307   2.656
 1831SOL    HW2 6393   6.265   0.421   2.539
 1832SOL     OW 6394   4.564   0.828   1.173
 1832SOL    HW1 6395   4.506   0.903   1.206
 1832SOL    HW2 6396   4.528   0.795   1.086
 1833SOL     OW 6397   5.561   0.661   0.329
 1833SOL    HW1 6398   5.652   0.695   0.355
 1833SOL    HW2 6399   5.542   0.686   0.235
 1834SOL     OW 6400   3.315   3.781   0.901
 1834SOL    HW1 6401   3.384   3.782   0.973
 1834SOL    HW2 6402   3.256   3.701   0.913
 1835SOL     OW 6403   0.162   4.531   2.323
 1835SOL    HW1 6404   0.222   4.611   2.326
 1835SOL    HW2 6405   0.150   4.501   2.228
 1836SOL     OW 6406   5.008   1.869   1.584
 1836SOL    HW1 6407   4.970   1.899   1.671
 1836SOL    HW2 6408   5.101   1.836   1.597
 1837SOL     OW 6409   1.137   0.446   5.054
 1837SOL    HW1 6410   1.065   0.456   5.123
 1837SOL    HW2 6411   1.103   0.388   4.980
 1838SOL     OW 6412   6.967   1.452   4.880
 1838SOL    HW1 6413   6.911   1.425   4.802
 1838SOL    HW2 6414   0.039   1.455   4.853
 1839SOL     OW 6415   6.202   2.457   5.153
 1839SOL    HW1 6416   6.127   2.523   5.163
 1839SOL    HW2 6417   6.166   2.372   5.114
 1840SOL     OW 6418   3.753   6.836   1.554
 1840SOL    HW1 6419   3.809   6.919   1.564
 1840SOL    HW2 6420   3.689   6.830   1.631
 1841SOL     OW 6421   2.632   0.964   3.034
 1841SOL    HW1 6422   2.578   1.025   3.092
 1841SOL    HW2 6423   2.625   0.995   2.939
 1842SOL     OW 6424   1.973   5.825   0.362
 1842SOL    HW1 6425   1.936   5.763   0.431
 1842SOL    HW2 6426   1.901   5.853   0.300
 1843SOL     OW 6427   6.073   2.260   3.354
 1843SOL    HW1 6428   6.018   2.337   3.387
 1843SOL    HW2 6429   6.073   2.188   3.423
 1844SOL     OW 6430   3.181   6.658   5.502
 1844SOL    HW1 6431   3.238   6.733   5.535
 1844SOL    HW2 6432   3.181   6.584   5.569
 1845SOL     OW 6433   2.593   0.246   4.539
 1845SOL    HW1 6434   2.572   0.332   4.586
 1845SOL    HW2 6435   2.691   0.230   4.542
 1846SOL     OW 6436   3.649   1.717   1.406
 1846SOL    HW1 6437   3.690   1.671   1.328
 1846SOL    HW2 6438   3.550   1.726   1.392
 1847SOL     OW 6439   1.408   1.008   6.695
 1847SOL    HW1 6440   1.430   1.019   6.793
 1847SOL    HW2 6441   1.328   1.064   6.673
 1848SOL     OW 6442   1.419   6.020   3.258
 1848SOL    HW1 6443   1.486   5.990   3.327
 1848SOL    HW2 6444   1.362   5.943   3.232
 1849SOL     OW 6445   3.936   2.759   1.207
 1849SOL    HW1 6446   3.872   2.828   1.241
 1849SOL    HW2 6447   3.894   2.669   1.212
 1850SOL     OW 6448   0.792   2.908   1.586
 1850SOL    HW1 6449   0.720   2.840   1.599
 1850SOL    HW2 6450   0.857   2.876   1.517
 1851SOL     OW 6451   0.180   2.618   0.212
 1851SOL    HW1 6452   0.238   2.645   0.135
 1851SOL    HW2 6453   0.088   2.654   0.199
 1852SOL     OW 6454   6.216   4.362   2.376
 1852SOL    HW1 6455   6.229   4.265   2.359
 1852SOL    HW2 6456   6.304   4.408   2.383
 1853SOL     OW 6457   0.131   2.263   2.776
 1853SOL    HW1 6458   0.047   2.236   2.822
 1853SOL    HW2 6459   0.112   2.338   2.712
 1854SOL     OW 6460   2.108   5.769   2.985
 1854SOL    HW1 6461   2.208   5.761   2.977
 1854SOL    HW2 6462   2.083   5.780   3.081
 1855SOL     OW 6463   5.121   2.787   5.315
 1855SOL    HW1 6464   5.052   2.737   5.367
 1855SOL    HW2 6465   5.132   2.879   5.354
 1856SOL     OW 6466   6.573   3.989   5.964
 1856SOL    HW1 6467   6.602   4.045   5.886
 1856SOL    HW2 6468   6.653   3.950   6.009
 1857SOL     OW 6469   4.803   1.935   6.026
 1857SOL    HW1 6470   4.727   1.990   5.991
 1857SOL    HW2 6471   4.889   1.985   6.012
 1858SOL     OW 6472   5.651   4.094   3.949
 1858SOL    HW1 6473   5.720   4.022   3.954
 1858SOL    HW2 6474   5.688   4.178   3.989
 1859SOL     OW 6475   5.635   2.544   3.109
 1859SOL    HW1 6476   5.711   2.510   3.165
 1859SOL    HW2 6477   5.557   2.483   3.116
 1860SOL     OW 6478   6.753   0.776   5.583
 1860SOL    HW1 6479   6.664   0.822   5.578
 1860SOL    HW2 6480   6.767   0.722   5.500
 1861SOL     OW 6481   6.300   6.615   2.389
 1861SOL    HW1 6482   6.230   6.676   2.351
 1861SOL    HW2 6483   6.294   6.614   2.489
 1862SOL     OW 6484   2.684   6.847   6.120
 1862SOL    HW1 6485   2.596   6.826   6.163
 1862SOL    HW2 6486   2.738   6.905   6.181
 1863SOL     OW 6487   0.797   2.771   3.645
 1863SOL    HW1 6488   0.844   2.713   3.579
 1863SOL    HW2 6489   0.762   2.853   3.598
 1864SOL     OW 6490   1.968   6.930   4.788
 1864SOL    HW1 6491   1.990   6.953   4.693
 1864SOL    HW2 6492   1.876   6.890   4.791
 1865SOL     OW 6493   3.498   6.498   6.658
 1865SOL    HW1 6494   3.506   6.558   6.579
 1865SOL    HW2 6495   3.413   6.518   6.707
 1866SOL     OW 6496   4.840   4.720   2.984
 1866SOL    HW1 6497   4.740   4.711   2.983
 1866SOL    HW2 6498   4.866   4.791   3.050
 1867SOL     OW 6499   0.586   3.961   0.555
 1867SOL    HW1 6500   0.558   3.870   0.525
 1867SOL    HW2 6501   0.587   3.965   0.654
 1868SOL     OW 6502   5.325   3.003   6.353
 1868SOL    HW1 6503   5.246   2.998   6.291
 1868SOL    HW2 6504   5.296   2.981   6.446
 1869SOL     OW 6505   5.901   3.510   5.523
 1869SOL    HW1 6506   5.957   3.571   5.467
 1869SOL    HW2 6507   5.944   3.420   5.527
 1870SOL     OW 6508   1.171   2.963   5.043
 1870SOL    HW1 6509   1.202   2.869   5.058
 1870SOL    HW2 6510   1.211   3.023   5.113
 1871SOL     OW 6511   0.972   0.418   6.591
 1871SOL    HW1 6512   0.988   0.341   6.652
 1871SOL    HW2 6513   1.057   0.468   6.577
 1872SOL     OW 6514   4.242   1.500   6.697
 1872SOL    HW1 6515   4.317   1.541   6.647
 1872SOL    HW2 6516   4.262   1.403   6.713
 1873SOL     OW 6517   5.015   0.939   6.519
 1873SOL    HW1 6518   5.082   0.948   6.593
 1873SOL    HW2 6519   4.967   1.026   6.507
 1874SOL     OW 6520   2.959   1.016   0.686
 1874SOL    HW1 6521   2.969   0.983   0.593
 1874SOL    HW2 6522   3.049   1.024   0.728
 1875SOL     OW 6523   6.962   0.683   0.139
 1875SOL    HW1 6524   6.907   0.629   0.075
 1875SOL    HW2 6525   6.902   0.721   0.210
 1876SOL     OW 6526   3.588   6.149   6.634
 1876SOL    HW1 6527   3.619   6.140   6.539
 1876SOL    HW2 6528   3.507   6.092   6.648
 1877SOL     OW 6529   1.038   1.381   3.459
 1877SOL    HW1 6530   1.098   1.339   3.391
 1877SOL    HW2 6531   0.981   1.311   3.502
 1878SOL     OW 6532   6.808   3.377   4.221
 1878SOL    HW1 6533   6.886   3.408   4.275
 1878SOL    HW2 6534   6.723   3.404   4.268
 1879SOL     OW 6535   1.912   5.648   3.606
 1879SOL    HW1 6536   1.872   5.649   3.514
 1879SOL    HW2 6537   1.979   5.575   3.612
 1880SOL     OW 6538   6.718   0.696   4.349
 1880SOL    HW1 6539   6.742   0.625   4.284
 1880SOL    HW2 6540   6.629   0.676   4.390
 1881SOL     OW 6541   6.821   3.247   2.938
 1881SOL    HW1 6542   6.848   3.239   2.842
 1881SOL    HW2 6543   6.775   3.164   2.967
 1882SOL     OW 6544   1.232   3.716   6.931
 1882SOL    HW1 6545   1.222   3.794   6.993
 1882SOL    HW2 6546   1.160   3.719   6.862
 1883SOL     OW 6547   1.391   2.113   3.682
 1883SOL    HW1 6548   1.451   2.075   3.611
 1883SOL    HW2 6549   1.312   2.054   3.695
 1884SOL     OW 6550   6.389   3.112   0.442
 1884SOL    HW1 6551   6.444   3.056   0.504
 1884SOL    HW2 6552   6.309   3.148   0.490
 1885SOL     OW 6553   1.017   1.690   6.049
 1885SOL    HW1 6554   1.063   1.646   6.126
 1885SOL    HW2 6555   1.086   1.728   5.986
 1886SOL     OW 6556   2.775   0.075   1.317
 1886SOL    HW1 6557   2.700   0.013   1.292
 1886SOL    HW2 6558   2.802   0.056   1.412
 1887SOL     OW 6559   1.427   6.076   5.329
 1887SOL    HW1 6560   1.422   6.049   5.425
 1887SOL    HW2 6561   1.436   6.175   5.322
 1888SOL     OW 6562   3.159   2.549   6.675
 1888SOL    HW1 6563   3.248   2.508   6.654
 1888SOL    HW2 6564   3.159   2.644   6.646
 1889SOL     OW 6565   6.914   3.060   6.261
 1889SOL    HW1 6566   6.949   3.085   6.171
 1889SOL    HW2 6567   6.866   2.972   6.255
 1890SOL     OW 6568   1.773   6.359   3.939
 1890SOL    HW1 6569   1.680   6.388   3.914
 1890SOL    HW2 6570   1.768   6.292   4.013
 1891SOL     OW 6571   5.860   2.360   2.651
 1891SOL    HW1 6572   5.807   2.400   2.726
 1891SOL    HW2 6573   5.956   2.385   2.661
 1892SOL     OW 6574   2.580   1.150   1.125
 1892SOL    HW1 6575   2.645   1.175   1.054
 1892SOL    HW2 6576   2.519   1.227   1.144
 1893SOL     OW 6577   3.773   2.664   6.862
 1893SOL    HW1 6578   3.830   2.744   6.843
 1893SOL    HW2 6579   3.824   2.581   6.839
 1894SOL     OW 6580   3.981   3.583   3.616
 1894SOL    HW1 6581   3.889   3.578   3.576
 1894SOL    HW2 6582   4.026   3.667   3.585
 1895SOL     OW 6583   5.472   0.792   1.907
 1895SOL    HW1 6584   5.538   0.729   1.950
 1895SOL    HW2 6585   5.380   0.753   1.913
 1896SOL     OW 6586   6.238   0.475   1.761
 1896SOL    HW1 6587   6.139   0.462   1.751
 1896SOL    HW2 6588   6.266   0.450   1.853
 1897SOL     OW 6589   1.583   4.247   1.708
 1897SOL    HW1 6590   1.493   4.289   1.716
 1897SOL    HW2 6591   1.574   4.148   1.706
 1898SOL     OW 6592   2.490   4.898   2.427
 1898SOL    HW1 6593   2.471   4.981   2.478
 1898SOL    HW2 6594   2.549   4.919   2.349
 1899SOL     OW 6595   0.948   1.266   2.414
 1899SOL    HW1 6596   1.027   1.322   2.388
 1899SOL    HW2 6597   0.876   1.276   2.345
 1900SOL     OW 6598   1.229   0.467   6.215
 1900SOL    HW1 6599   1.158   0.530   6.185
 1900SOL    HW2 6600   1.256   0.490   6.308
 1901SOL     OW 6601   1.889   2.535   0.690
 1901SOL    HW1 6602   1.910   2.619   0.640
 1901SOL    HW2 6603   1.948   2.461   0.657
 1902SOL     OW 6604   2.763   2.022   4.960
 1902SOL    HW1 6605   2.699   2.041   5.035
 1902SOL    HW2 6606   2.836   1.962   4.992
 1903SOL     OW 6607   6.795   2.996   2.769
 1903SOL    HW1 6608   6.708   2.996   2.720
 1903SOL    HW2 6609   6.869   3.019   2.706
 1904SOL     OW 6610   6.042   6.213   3.910
 1904SOL    HW1 6611   6.047   6.124   3.955
 1904SOL    HW2 6612   6.071   6.203   3.815
 1905SOL     OW 6613   1.759   0.624   4.003
 1905SOL    HW1 6614   1.804   0.645   4.090
 1905SOL    HW2 6615   1.798   0.681   3.931
 1906SOL     OW 6616   2.169   0.263   4.890
 1906SOL    HW1 6617   2.238   0.334   4.907
 1906SOL    HW2 6618   2.154   0.254   4.792
 1907SOL     OW 6619   3.444   6.959   2.516
 1907SOL    HW1 6620   3.481   6.946   2.608
 1907SOL    HW2 6621   3.364   6.901   2.503
 1908SOL     OW 6622   3.825   6.970   5.117
 1908SOL    HW1 6623   3.733   6.993   5.088
 1908SOL    HW2 6624   3.822   6.894   5.181
 1909SOL     OW 6625   0.781   3.909   2.434
 1909SOL    HW1 6626   0.738   3.946   2.516
 1909SOL    HW2 6627   0.876   3.939   2.430
 1910SOL     OW 6628   0.018   2.855   6.512
 1910SOL    HW1 6629   6.977   2.798   6.463
 1910SOL    HW2 6630   6.994   2.911   6.579
 1911SOL     OW 6631   5.803   3.520   5.108
 1911SOL    HW1 6632   5.741   3.565   5.044
 1911SOL    HW2 6633   5.752   3.454   5.163
 1912SOL     OW 6634   3.534   6.068   0.432
 1912SOL    HW1 6635   3.504   5.973   0.420
 1912SOL    HW2 6636   3.525   6.117   0.345
 1913SOL     OW 6637   1.959   6.374   4.595
 1913SOL    HW1 6638   1.935   6.298   4.534
 1913SOL    HW2 6639   2.058   6.387   4.594
 1914SOL     OW 6640   3.822   2.754   6.391
 1914SOL    HW1 6641   3.917   2.749   6.362
 1914SOL    HW2 6642   3.783   2.662   6.391
 1915SOL     OW 6643   4.330   2.142   5.383
 1915SOL    HW1 6644   4.366   2.081   5.312
 1915SOL    HW2 6645   4.333   2.237   5.350
 1916SOL     OW 6646   3.937   5.750   1.390
 1916SOL    HW1 6647   3.969   5.836   1.352
 1916SOL    HW2 6648   3.948   5.677   1.323
 1917SOL     OW 6649   3.080   3.084   5.551
 1917SOL    HW1 6650   3.029   3.028   5.486
 1917SOL    HW2 6651   3.176   3.057   5.551
 1918SOL     OW 6652   0.840   1.075   5.100
 1918SOL    HW1 6653   0.908   1.020   5.148
 1918SOL    HW2 6654   0.886   1.141   5.041
 1919SOL     OW 6655   2.007   0.586   1.691
 1919SOL    HW1 6656   1.909   0.565   1.693
 1919SOL    HW2 6657   2.032   0.640   1.771
 1920SOL     OW 6658   1.343   4.341   2.344
 1920SOL    HW1 6659   1.428   4.370   2.389
 1920SOL    HW2 6660   1.306   4.262   2.392
 1921SOL     OW 6661   1.300   4.446   6.196
 1921SOL    HW1 6662   1.245   4.478   6.273
 1921SOL    HW2 6663   1.377   4.508   6.181
 1922SOL     OW 6664   2.020   3.830   0.811
 1922SOL    HW1 6665   1.922   3.830   0.830
 1922SOL    HW2 6666   2.067   3.775   0.880
 1923SOL     OW 6667   3.237   0.601   5.414
 1923SOL    HW1 6668   3.220   0.649   5.501
 1923SOL    HW2 6669   3.328   0.561   5.416
 1924SOL     OW 6670   4.837   5.662   1.106
 1924SOL    HW1 6671   4.763   5.661   1.172
 1924SOL    HW2 6672   4.821   5.590   1.037
 1925SOL     OW 6673   1.973   5.191   0.624
 1925SOL    HW1 6674   2.044   5.183   0.694
 1925SOL    HW2 6675   1.948   5.287   0.612
 1926SOL     OW 6676   2.385   6.853   3.436
 1926SOL    HW1 6677   2.288   6.874   3.438
 1926SOL    HW2 6678   2.428   6.901   3.359
 1927SOL     OW 6679   2.654   4.330   6.974
 1927SOL    HW1 6680   2.590   4.317   6.898
 1927SOL    HW2 6681   2.686   4.241   7.007
 1928SOL     OW 6682   6.911   4.407   5.802
 1928SOL    HW1 6683   6.893   4.327   5.859
 1928SOL    HW2 6684   6.824   4.451   5.779
 1929SOL     OW 6685   1.639   5.815   1.602
 1929SOL    HW1 6686   1.599   5.879   1.537
 1929SOL    HW2 6687   1.588   5.819   1.688
 1930SOL     OW 6688   3.608   4.120   6.178
 1930SOL    HW1 6689   3.667   4.083   6.250
 1930SOL    HW2 6690   3.642   4.090   6.088
 1931SOL     OW 6691   0.878   3.223   1.978
 1931SOL    HW1 6692   0.887   3.137   1.928
 1931SOL    HW2 6693   0.851   3.203   2.072
 1932SOL     OW 6694   4.850   2.869   3.271
 1932SOL    HW1 6695   4.851   2.957   3.225
 1932SOL    HW2 6696   4.774   2.865   3.335
 1933SOL     OW 6697   2.001   3.159   0.848
 1933SOL    HW1 6698   1.956   3.247   0.836
 1933SOL    HW2 6699   1.958   3.091   0.789
 1934SOL     OW 6700   0.417   6.741   5.277
 1934SOL    HW1 6701   0.339   6.792   5.239
 1934SOL    HW2 6702   0.499   6.797   5.272
 1935SOL     OW 6703   4.259   6.432   3.906
 1935SOL    HW1 6704   4.277   6.391   3.996
 1935SOL    HW2 6705   4.340   6.421   3.848
 1936SOL     OW 6706   5.640   3.874   3.503
 1936SOL    HW1 6707   5.661   3.781   3.533
 1936SOL    HW2 6708   5.695   3.896   3.422
 1937SOL     OW 6709   4.236   6.369   1.295
 1937SOL    HW1 6710   4.208   6.313   1.217
 1937SOL    HW2 6711   4.165   6.366   1.365
 1938SOL     OW 6712   2.148   1.727   1.546
 1938SOL    HW1 6713   2.093   1.804   1.513
 1938SOL    HW2 6714   2.092   1.670   1.606
 1939SOL     OW 6715   6.490   6.860   4.496
 1939SOL    HW1 6716   6.410   6.916   4.476
 1939SOL    HW2 6717   6.463   6.764   4.504
 1940SOL     OW 6718   6.089   5.114   0.641
 1940SOL    HW1 6719   6.024   5.117   0.564
 1940SOL    HW2 6720   6.159   5.183   0.627
 1941SOL     OW 6721   1.351   3.490   4.410
 1941SOL    HW1 6722   1.313   3.445   4.330
 1941SOL    HW2 6723   1.308   3.454   4.493
 1942SOL     OW 6724   5.121   1.952   1.283
 1942SOL    HW1 6725   5.153   2.009   1.207
 1942SOL    HW2 6726   5.044   1.896   1.253
 1943SOL     OW 6727   2.393   6.205   3.813
 1943SOL    HW1 6728   2.310   6.158   3.783
 1943SOL    HW2 6729   2.397   6.296   3.773
 1944SOL     OW 6730   6.305   2.782   0.049
 1944SOL    HW1 6731   6.298   2.814   6.979
 1944SOL    HW2 6732   6.395   2.803   0.086
 1945SOL     OW 6733   3.352   5.320   0.767
 1945SOL    HW1 6734   3.339   5.282   0.675
 1945SOL    HW2 6735   3.271   5.371   0.793
 1946SOL     OW 6736   6.146   6.594   0.886
 1946SOL    HW1 6737   6.215   6.633   0.826
 1946SOL    HW2 6738   6.115   6.506   0.848
 1947SOL     OW 6739   5.289   6.312   4.405
 1947SOL    HW1 6740   5.198   6.349   4.385
 1947SOL    HW2 6741   5.292   6.280   4.499
 1948SOL     OW 6742   6.049   5.280   3.765
 1948SOL    HW1 6743   6.086   5.322   3.848
 1948SOL    HW2 6744   6.118   5.282   3.693
 1949SOL     OW 6745   3.536   3.570   5.904
 1949SOL    HW1 6746   3.450   3.620   5.906
 1949SOL    HW2 6747   3.595   3.600   5.979
 1950SOL     OW 6748   4.363   2.976   0.385
 1950SOL    HW1 6749   4.308   2.894   0.406
 1950SOL    HW2 6750   4.313   3.057   0.414
 1951SOL     OW 6751   6.080   4.468   6.951
 1951SOL    HW1 6752   6.123   4.389   6.994
 1951SOL    HW2 6753   5.987   4.444   6.921
 1952SOL     OW 6754   4.541   3.522   1.323
 1952SOL    HW1 6755   4.595   3.522   1.238
 1952SOL    HW2 6756   4.504   3.431   1.338
 1953SOL     OW 6757   6.213   1.664   5.748
 1953SOL    HW1 6758   6.253   1.611   5.823
 1953SOL    HW2 6759   6.187   1.755   5.781
 1954SOL     OW 6760   6.685   0.887   2.273
 1954SOL    HW1 6761   6.604   0.830   2.276
 1954SOL    HW2 6762   6.686   0.940   2.188
 1955SOL     OW 6763   0.925   0.526   3.262
 1955SOL    HW1 6764   0.853   0.594   3.271
 1955SOL    HW2 6765   0.976   0.518   3.348
 1956SOL     OW 6766   4.619   0.180   1.931
 1956SOL    HW1 6767   4.666   0.095   1.908
 1956SOL    HW2 6768   4.523   0.173   1.905
 1957SOL     OW 6769   5.706   4.335   4.069
 1957SOL    HW1 6770   5.639   4.367   4.136
 1957SOL    HW2 6771   5.789   4.389   4.075
 1958SOL     OW 6772   4.893   1.365   1.669
 1958SOL    HW1 6773   4.874   1.446   1.725
 1958SOL    HW2 6774   4.846   1.373   1.581
 1959SOL     OW 6775   1.398   0.174   4.165
 1959SOL    HW1 6776   1.388   0.211   4.257
 1959SOL    HW2 6777   1.326   0.105   4.149
 1960SOL     OW 6778   0.631   4.567   1.684
 1960SOL    HW1 6779   0.531   4.571   1.676
 1960SOL    HW2 6780   0.666   4.658   1.707
 1961SOL     OW 6781   6.059   4.897   4.738
 1961SOL    HW1 6782   6.102   4.983   4.767
 1961SOL    HW2 6783   6.111   4.820   4.775
 1962SOL     OW 6784   1.370   6.391   2.626
 1962SOL    HW1 6785   1.294   6.456   2.615
 1962SOL    HW2 6786   1.361   6.319   2.557
 1963SOL     OW 6787   1.020   1.808   1.385
 1963SOL    HW1 6788   0.949   1.788   1.318
 1963SOL    HW2 6789   0.978   1.842   1.469
 1964SOL     OW 6790   4.374   4.627   1.480
 1964SOL    HW1 6791   4.459   4.595   1.520
 1964SOL    HW2 6792   4.345   4.563   1.408
 1965SOL     OW 6793   1.310   2.979   4.513
 1965SOL    HW1 6794   1.387   2.919   4.488
 1965SOL    HW2 6795   1.345   3.056   4.567
 1966SOL     OW 6796   0.426   6.116   0.300
 1966SOL    HW1 6797   0.333   6.141   0.329
 1966SOL    HW2 6798   0.477   6.080   0.377
 1967SOL     OW 6799   5.789   2.707   5.025
 1967SOL    HW1 6800   5.872   2.747   4.986
 1967SOL    HW2 6801   5.709   2.753   4.988
 1968SOL     OW 6802   1.459   6.857   5.509
 1968SOL    HW1 6803   1.487   6.810   5.593
 1968SOL    HW2 6804   1.540   6.894   5.463
 1969SOL     OW 6805   2.185   1.783   0.701
 1969SOL    HW1 6806   2.130   1.819   0.777
 1969SOL    HW2 6807   2.266   1.840   0.689
 1970SOL     OW 6808   3.110   6.124   6.424
 1970SOL    HW1 6809   3.090   6.036   6.381
 1970SOL    HW2 6810   3.165   6.180   6.363
 1971SOL     OW 6811   0.361   0.481   5.063
 1971SOL    HW1 6812   0.356   0.402   5.124
 1971SOL    HW2 6813   0.414   0.458   4.982
 1972SOL     OW 6814   4.902   1.955   1.822
 1972SOL    HW1 6815   4.818   2.008   1.810
 1972SOL    HW2 6816   4.912   1.929   1.918
 1973SOL     OW 6817   3.674   3.069   0.534
 1973SOL    HW1 6818   3.615   3.104   0.606
 1973SOL    HW2 6819   3.625   3.070   0.447
 1974SOL     OW 6820   5.622   0.016   4.592
 1974SOL    HW1 6821   5.564   6.986   4.531
 1974SOL    HW2 6822   5.674   6.980   4.651
 1975SOL     OW 6823   2.068   1.968   4.492
 1975SOL    HW1 6824   1.974   1.997   4.477
 1975SOL    HW2 6825   2.086   1.962   4.590
 1976SOL     OW 6826   6.142   0.122   0.501
 1976SOL    HW1 6827   6.173   0.123   0.596
 1976SOL    HW2 6828   6.050   0.082   0.496
 1977SOL     OW 6829   2.128   3.069   4.982
 1977SOL    HW1 6830   2.103   3.078   4.886
 1977SOL    HW2 6831   2.222   3.036   4.990
 1978SOL     OW 6832   2.241   6.316   3.204
 1978SOL    HW1 6833   2.331   6.277   3.185
 1978SOL    HW2 6834   2.250   6.388   3.273
 1979SOL     OW 6835   5.724   4.535   0.151
 1979SOL    HW1 6836   5.739   4.445   0.110
 1979SOL    HW2 6837   5.666   4.590   0.090
 1980SOL     OW 6838   3.073   7.022   3.969
 1980SOL    HW1 6839   3.053   0.072   3.906
 1980SOL    HW2 6840   2.999   6.954   3.963
 1981SOL     OW 6841   6.588   3.143   1.974
 1981SOL    HW1 6842   6.530   3.117   2.051
 1981SOL    HW2 6843   6.683   3.116   1.993
 1982SOL     OW 6844   0.566   4.087   4.564
 1982SOL    HW1 6845   0.607   4.168   4.523
 1982SOL    HW2 6846   0.524   4.111   4.651
 1983SOL     OW 6847   1.227   0.539   1.950
 1983SOL    HW1 6848   1.231   0.560   2.048
 1983SOL    HW2 6849   1.203   0.622   1.899
 1984SOL     OW 6850   5.221   2.688   4.678
 1984SOL    HW1 6851   5.295   2.754   4.691
 1984SOL    HW2 6852   5.176   2.671   4.766
 1985SOL     OW 6853   0.876   6.587   2.494
 1985SOL    HW1 6854   0.892   6.667   2.552
 1985SOL    HW2 6855   0.790   6.544   2.518
 1986SOL     OW 6856   2.766   1.134   6.849
 1986SOL    HW1 6857   2.693   1.116   6.914
 1986SOL    HW2 6858   2.742   1.095   6.760
 1987SOL     OW 6859   2.129   1.659   3.092
 1987SOL    HW1 6860   2.174   1.653   3.003
 1987SOL    HW2 6861   2.190   1.705   3.157
 1988SOL     OW 6862   6.409   3.956   0.592
 1988SOL    HW1 6863   6.391   3.963   0.690
 1988SOL    HW2 6864   6.428   3.861   0.568
 1989SOL     OW 6865   2.178   5.723   4.941
 1989SOL    HW1 6866   2.276   5.712   4.955
 1989SOL    HW2 6867   2.158   5.820   4.927
 1990SOL     OW 6868   3.615   5.585   0.736
 1990SOL    HW1 6869   3.663   5.659   0.689
 1990SOL    HW2 6870   3.682   5.517   0.767
 1991SOL     OW 6871   3.203   4.767   6.592
 1991SOL    HW1 6872   3.163   4.676   6.601
 1991SOL    HW2 6873   3.302   4.759   6.581
 1992SOL     OW 6874   0.425   0.713   0.339
 1992SOL    HW1 6875   0.333   0.709   0.298
 1992SOL    HW2 6876   0.444   0.627   0.385
 1993SOL     OW 6877   3.838   2.542   6.010
 1993SOL    HW1 6878   3.756   2.591   6.039
 1993SOL    HW2 6879   3.890   2.513   6.091
 1994SOL     OW 6880   0.564   1.650   0.220
 1994SOL    HW1 6881   0.528   1.575   0.164
 1994SOL    HW2 6882   0.658   1.631   0.245
 1995SOL     OW 6883   5.326   2.427   3.727
 1995SOL    HW1 6884   5.228   2.446   3.736
 1995SOL    HW2 6885   5.356   2.448   3.634
 1996SOL     OW 6886   2.525   2.266   0.478
 1996SOL    HW1 6887   2.479   2.327   0.413
 1996SOL    HW2 6888   2.494   2.287   0.571
 1997SOL     OW 6889   3.351   2.099   4.973
 1997SOL    HW1 6890   3.271   2.156   4.993
 1997SOL    HW2 6891   3.369   2.100   4.875
 1998SOL     OW 6892   2.427   3.922   0.438
 1998SOL    HW1 6893   2.523   3.936   0.417
 1998SOL    HW2 6894   2.419   3.852   0.509
 1999SOL     OW 6895   2.275   6.841   6.345
 1999SOL    HW1 6896   2.344   6.812   6.279
 1999SOL    HW2 6897   2.186   6.805   6.319
 2000SOL     OW 6898   3.960   2.795   5.239
 2000SOL    HW1 6899   4.037   2.735   5.217
 2000SOL    HW2 6900   3.993   2.889   5.249
 2001SOL     OW 6901   2.387   0.122   1.502
 2001SOL    HW1 6902   2.288   0.128   1.510
 2001SOL    HW2 6903   2.423   0.208   1.466
 2002SOL     OW 6904   0.564   4.378   0.314
 2002SOL    HW1 6905   0.662   4.385   0.329
 2002SOL    HW2 6906   0.546   4.312   0.240
 2003SOL     OW 6907   6.304   5.279   2.469
 2003SOL    HW1 6908   6.299   5.182   2.445
 2003SOL    HW2 6909   6.377   5.292   2.536
 2004SOL     OW 6910   5.233   1.138   4.330
 2004SOL    HW1 6911   5.250   1.231   4.363
 2004SOL    HW2 6912   5.260   1.072   4.400
 2005SOL     OW 6913   0.168   4.404   0.488
 2005SOL    HW1 6914   0.122   4.481   0.444
 2005SOL    HW2 6915   0.263   4.401   0.457
 2006SOL     OW 6916   5.826   0.225   2.759
 2006SOL    HW1 6917   5.781   0.248   2.673
 2006SOL    HW2 6918   5.772   0.158   2.809
 2007SOL     OW 6919   4.682   4.555   0.636
 2007SOL    HW1 6920   4.754   4.607   0.683
 2007SOL    HW2 6921   4.653   4.479   0.694
 2008SOL     OW 6922   1.809   4.367   4.005
 2008SOL    HW1 6923   1.873   4.424   4.057
 2008SOL    HW2 6924   1.857   4.287   3.970
 2009SOL     OW 6925   5.405   0.478   2.920
 2009SOL    HW1 6926   5.390   0.382   2.941
 2009SOL    HW2 6927   5.500   0.502   2.935
 2010SOL     OW 6928   3.260   1.727   1.848
 2010SOL    HW1 6929   3.256   1.629   1.864
 2010SOL    HW2 6930   3.187   1.754   1.786
 2011SOL     OW 6931   7.018   0.648   4.755
 2011SOL    HW1 6932   6.950   0.676   4.688
 2011SOL    HW2 6933   0.050   0.575   4.718
 2012SOL     OW 6934   1.018   4.254   2.632
 2012SOL    HW1 6935   0.976   4.177   2.679
 2012SOL    HW2 6936   1.099   4.283   2.682
 2013SOL     OW 6937   6.007   2.505   2.970
 2013SOL    HW1 6938   6.087   2.480   2.916
 2013SOL    HW2 6939   6.032   2.578   3.034
 2014SOL     OW 6940   3.034   6.465   3.426
 2014SOL    HW1 6941   2.966   6.459   3.353
 2014SOL    HW2 6942   3.000   6.416   3.507
 2015SOL     OW 6943   2.066   0.570   0.090
 2015SOL    HW1 6944   2.127   0.492   0.082
 2015SOL    HW2 6945   2.086   0.619   0.176
 2016SOL     OW 6946   1.917   6.365   5.545
 2016SOL    HW1 6947   1.825   6.402   5.554
 2016SOL    HW2 6948   1.916   6.287   5.482
 2017SOL     OW 6949   4.011   0.237   3.590
 2017SOL    HW1 6950   4.051   0.324   3.560
 2017SOL    HW2 6951   4.079   0.164   3.581
 2018SOL     OW 6952   5.577   2.373   4.160
 2018SOL    HW1 6953   5.548   2.374   4.065
 2018SOL    HW2 6954   5.676   2.370   4.165
 2019SOL     OW 6955   5.504   3.629   6.076
 2019SOL    HW1 6956   5.428   3.690   6.098
 2019SOL    HW2 6957   5.519   3.565   6.152
 2020SOL     OW 6958   2.275   0.245   5.196
 2020SOL    HW1 6959   2.353   0.183   5.189
 2020SOL    HW2 6960   2.244   0.271   5.105
 2021SOL     OW 6961   6.760   6.882   5.114
 2021SOL    HW1 6962   6.833   6.815   5.130
 2021SOL    HW2 6963   6.672   6.834   5.104
 2022SOL     OW 6964   1.422   5.008   3.406
 2022SOL    HW1 6965   1.520   5.015   3.424
 2022SOL    HW2 6966   1.377   5.093   3.434
 2023SOL     OW 6967   0.178   0.554   6.566
 2023SOL    HW1 6968   0.212   0.497   6.491
 2023SOL    HW2 6969   0.159   0.646   6.531
 2024SOL     OW 6970   0.144   5.952   3.385
 2024SOL    HW1 6971   0.094   5.963   3.471
 2024SOL    HW2 6972   0.197   6.035   3.367
 2025SOL     OW 6973   3.817   0.858   3.560
 2025SOL    HW1 6974   3.907   0.837   3.522
 2025SOL    HW2 6975   3.748   0.800   3.518
 2026SOL     OW 6976   6.149   3.164   5.776
 2026SOL    HW1 6977   6.118   3.116   5.858
 2026SOL    HW2 6978   6.248   3.152   5.766
 2027SOL     OW 6979   1.027   0.059   6.966
 2027SOL    HW1 6980   1.045   6.986   6.977
 2027SOL    HW2 6981   1.099   0.111   7.011
 2028SOL     OW 6982   2.826   5.414   4.246
 2028SOL    HW1 6983   2.881   5.350   4.300
 2028SOL    HW2 6984   2.737   5.426   4.291
 2029SOL     OW 6985   6.234   1.725   0.108
 2029SOL    HW1 6986   6.299   1.768   0.046
 2029SOL    HW2 6987   6.191   1.647   0.063
 2030SOL     OW 6988   3.153   1.027   3.692
 2030SOL    HW1 6989   3.249   0.998   3.691
 2030SOL    HW2 6990   3.102   0.973   3.759
 2031SOL     OW 6991   6.891   5.827   1.641
 2031SOL    HW1 6992   6.961   5.898   1.654
 2031SOL    HW2 6993   6.927   5.739   1.673
 2032SOL     OW 6994   4.167   0.596   1.989
 2032SOL    HW1 6995   4.127   0.585   1.898
 2032SOL    HW2 6996   4.238   0.666   1.986
 2033SOL     OW 6997   2.926   2.781   0.129
 2033SOL    HW1 6998   2.965   2.753   0.041
 2033SOL    HW2 6999   2.880   2.869   0.118
 2034SOL     OW 7000   2.547   5.149   5.082
 2034SOL    HW1 7001   2.499   5.094   5.151
 2034SOL    HW2 7002   2.567   5.239   5.120
 2035SOL     OW 7003   5.985   6.339   3.413
 2035SOL    HW1 7004   6.075   6.382   3.410
 2035SOL    HW2 7005   5.984   6.261   3.350
 2036SOL     OW 7006   0.928   3.386   2.751
 2036SOL    HW1 7007   0.940   3.466   2.809
 2036SOL    HW2 7008   1.004   3.379   2.687
 2037SOL     OW 7009   6.325   2.946   6.053
 2037SOL    HW1 7010   6.409   2.947   5.999
 2037SOL    HW2 7011   6.246   2.958   5.991
 2038SOL     OW 7012   1.886   1.539   0.564
 2038SOL    HW1 7013   1.880   1.443   0.591
 2038SOL    HW2 7014   1.952   1.548   0.489
 2039SOL     OW 7015   6.962   5.571   3.528
 2039SOL    HW1 7016   6.884   5.557   3.589
 2039SOL    HW2 7017   0.020   5.532   3.569
 2040SOL     OW 7018   1.747   2.695   6.648
 2040SOL    HW1 7019   1.845   2.695   6.667
 2040SOL    HW2 7020   1.728   2.637   6.569
 2041SOL     OW 7021   1.041   6.310   5.293
 2041SOL    HW1 7022   0.941   6.308   5.297
 2041SOL    HW2 7023   1.078   6.230   5.340
 2042SOL     OW 7024   4.527   6.214   6.894
 2042SOL    HW1 7025   4.527   6.259   6.804
 2042SOL    HW2 7026   4.436   6.175   6.912
 2043SOL     OW 7027   6.378   3.867   3.529
 2043SOL    HW1 7028   6.413   3.833   3.617
 2043SOL    HW2 7029   6.453   3.874   3.464
 2044SOL     OW 7030   6.740   0.907   1.590
 2044SOL    HW1 7031   6.776   0.949   1.674
 2044SOL    HW2 7032   6.787   0.946   1.511
 2045SOL     OW 7033   1.766   5.612   4.673
 2045SOL    HW1 7034   1.814   5.569   4.750
 2045SOL    HW2 7035   1.676   5.642   4.704
 2046SOL     OW 7036   6.757   2.148   4.087
 2046SOL    HW1 7037   6.676   2.177   4.139
 2046SOL    HW2 7038   6.728   2.102   4.004
 2047SOL     OW 7039   6.562   2.821   0.146
 2047SOL    HW1 7040   6.626   2.871   0.087
 2047SOL    HW2 7041   6.605   2.806   0.236
 2048SOL     OW 7042   0.851   6.694   5.723
 2048SOL    HW1 7043   0.848   6.729   5.816
 2048SOL    HW2 7044   0.927   6.736   5.673
 2049SOL     OW 7045   6.036   1.432   4.055
 2049SOL    HW1 7046   5.963   1.470   4.112
 2049SOL    HW2 7047   6.125   1.461   4.092
 2050SOL     OW 7048   5.901   2.953   3.721
 2050SOL    HW1 7049   5.996   2.971   3.747
 2050SOL    HW2 7050   5.841   2.970   3.800
 2051SOL     OW 7051   1.800   5.770   6.444
 2051SOL    HW1 7052   1.767   5.677   6.462
 2051SOL    HW2 7053   1.900   5.770   6.441
 2052SOL     OW 7054   1.757   3.022   1.194
 2052SOL    HW1 7055   1.787   2.930   1.216
 2052SOL    HW2 7056   1.700   3.021   1.112
 2053SOL     OW 7057   6.599   6.046   4.369
 2053SOL    HW1 7058   6.507   6.070   4.399
 2053SOL    HW2 7059   6.607   6.061   4.271
 2054SOL     OW 7060   3.604   4.038   3.420
 2054SOL    HW1 7061   3.666   3.979   3.472
 2054SOL    HW2 7062   3.537   4.078   3.482
 2055SOL     OW 7063   5.820   3.730   4.315
 2055SOL    HW1 7064   5.755   3.763   4.246
 2055SOL    HW2 7065   5.833   3.800   4.385
 2056SOL     OW 7066   4.357   5.151   1.018
 2056SOL    HW1 7067   4.421   5.162   1.093
 2056SOL    HW2 7068   4.322   5.057   1.017
 2057SOL     OW 7069   5.146   4.146   5.870
 2057SOL    HW1 7070   5.218   4.077   5.872
 2057SOL    HW2 7071   5.175   4.226   5.922
 2058SOL     OW 7072   0.162   6.653   2.734
 2058SOL    HW1 7073   0.240   6.624   2.789
 2058SOL    HW2 7074   0.154   6.753   2.739
 2059SOL     OW 7075   1.878   6.146   5.982
 2059SOL    HW1 7076   1.808   6.081   5.951
 2059SOL    HW2 7077   1.924   6.186   5.902
 2060SOL     OW 7078   0.506   3.746   1.322
 2060SOL    HW1 7079   0.406   3.737   1.327
 2060SOL    HW2 7080   0.544   3.751   1.414
 2061SOL     OW 7081   1.529   1.783   2.070
 2061SOL    HW1 7082   1.568   1.758   2.159
 2061SOL    HW2 7083   1.591   1.847   2.024
 2062SOL     OW 7084   7.005   5.415   5.541
 2062SOL    HW1 7085   0.044   5.338   5.530
 2062SOL    HW2 7086   6.984   5.426   5.638
 2063SOL     OW 7087   1.454   6.536   5.050
 2063SOL    HW1 7088   1.442   6.605   5.121
 2063SOL    HW2 7089   1.403   6.454   5.075
 2064SOL     OW 7090   0.080   2.241   4.813
 2064SOL    HW1 7091   0.129   2.272   4.894
 2064SOL    HW2 7092   0.026   2.316   4.776
 2065SOL     OW 7093   6.001   2.871   6.218
 2065SOL    HW1 7094   5.988   2.947   6.283
 2065SOL    HW2 7095   5.913   2.829   6.198
 2066SOL     OW 7096   6.897   3.908   5.363
 2066SOL    HW1 7097   6.960   3.948   5.296
 2066SOL    HW2 7098   6.942   3.905   5.452
 2067SOL     OW 7099   0.051   5.010   0.695
 2067SOL    HW1 7100   0.077   5.080   0.629
 2067SOL    HW2 7101   0.047   4.921   0.650
 2068SOL     OW 7102   2.670   0.145   3.750
 2068SOL    HW1 7103   2.703   0.217   3.688
 2068SOL    HW2 7104   2.614   0.081   3.699
 2069SOL     OW 7105   6.073   2.585   4.015
 2069SOL    HW1 7106   6.123   2.509   4.057
 2069SOL    HW2 7107   6.133   2.634   3.952
 2070SOL     OW 7108   1.308   1.757   0.992
 2070SOL    HW1 7109   1.389   1.700   1.002
 2070SOL    HW2 7110   1.330   1.850   1.021
 2071SOL     OW 7111   5.980   0.689   5.724
 2071SOL    HW1 7112   6.004   0.762   5.659
 2071SOL    HW2 7113   5.920   0.623   5.679
 2072SOL     OW 7114   4.661   5.198   4.456
 2072SOL    HW1 7115   4.759   5.189   4.439
 2072SOL    HW2 7116   4.644   5.278   4.514
 2073SOL     OW 7117   4.514   6.558   5.101
 2073SOL    HW1 7118   4.463   6.632   5.058
 2073SOL    HW2 7119   4.585   6.596   5.160
 2074SOL     OW 7120   2.337   2.780   6.206
 2074SOL    HW1 7121   2.356   2.688   6.243
 2074SOL    HW2 7122   2.271   2.826   6.265
 2075SOL     OW 7123   6.695   2.396   3.078
 2075SOL    HW1 7124   6.634   2.409   3.157
 2075SOL    HW2 7125   6.668   2.459   3.005
 2076SOL     OW 7126   5.007   6.609   6.270
 2076SOL    HW1 7127   4.963   6.636   6.355
 2076SOL    HW2 7128   5.007   6.509   6.262
 2077SOL     OW 7129   6.752   2.013   2.082
 2077SOL    HW1 7130   6.821   2.082   2.105
 2077SOL    HW2 7131   6.792   1.946   2.020
 2078SOL     OW 7132   2.181   5.520   6.293
 2078SOL    HW1 7133   2.105   5.499   6.355
 2078SOL    HW2 7134   2.145   5.566   6.211
 2079SOL     OW 7135   0.278   1.304   2.771
 2079SOL    HW1 7136   0.235   1.299   2.860
 2079SOL    HW2 7137   0.293   1.212   2.735
 2080SOL     OW 7138   2.403   0.753   5.175
 2080SOL    HW1 7139   2.441   0.665   5.146
 2080SOL    HW2 7140   2.437   0.775   5.267
 2081SOL     OW 7141   1.101   6.593   4.609
 2081SOL    HW1 7142   1.041   6.643   4.546
 2081SOL    HW2 7143   1.071   6.498   4.615
 2082SOL     OW 7144   0.732   6.591   3.271
 2082SOL    HW1 7145   0.697   6.498   3.262
 2082SOL    HW2 7146   0.826   6.594   3.236
 2083SOL     OW 7147   1.368   5.824   5.247
 2083SOL    HW1 7148   1.458   5.786   5.226
 2083SOL    HW2 7149   1.376   5.921   5.269
 2084SOL     OW 7150   0.577   3.587   2.660
 2084SOL    HW1 7151   0.614   3.535   2.737
 2084SOL    HW2 7152   0.534   3.671   2.694
 2085SOL     OW 7153   5.021   0.184   1.093
 2085SOL    HW1 7154   5.068   0.174   1.181
 2085SOL    HW2 7155   5.031   0.099   1.041
 2086SOL     OW 7156   3.618   6.350   6.896
 2086SOL    HW1 7157   3.577   6.351   6.805
 2086SOL    HW2 7158   3.715   6.326   6.889
 2087SOL     OW 7159   4.869   1.465   2.025
 2087SOL    HW1 7160   4.805   1.492   2.097
 2087SOL    HW2 7161   4.843   1.508   1.939
 2088SOL     OW 7162   1.347   6.090   6.793
 2088SOL    HW1 7163   1.288   6.035   6.735
 2088SOL    HW2 7164   1.438   6.095   6.752
 2089SOL     OW 7165   4.782   2.672   5.858
 2089SOL    HW1 7166   4.860   2.610   5.847
 2089SOL    HW2 7167   4.701   2.619   5.883
 2090SOL     OW 7168   4.559   3.378   5.698
 2090SOL    HW1 7169   4.565   3.456   5.760
 2090SOL    HW2 7170   4.648   3.331   5.695
 2091SOL     OW 7171   0.015   5.126   0.927
 2091SOL    HW1 7172   0.068   5.079   0.997
 2091SOL    HW2 7173   0.032   5.084   0.838
 2092SOL     OW 7174   5.395   3.567   0.684
 2092SOL    HW1 7175   5.483   3.565   0.636
 2092SOL    HW2 7176   5.342   3.486   0.660
 2093SOL     OW 7177   2.969   2.278   1.712
 2093SOL    HW1 7178   2.991   2.184   1.740
 2093SOL    HW2 7179   2.906   2.319   1.778
 2094SOL     OW 7180   5.191   1.144   1.506
 2094SOL    HW1 7181   5.239   1.232   1.502
 2094SOL    HW2 7182   5.180   1.116   1.602
 2095SOL     OW 7183   5.935   6.327   4.521
 2095SOL    HW1 7184   5.927   6.422   4.548
 2095SOL    HW2 7185   5.866   6.306   4.451
 2096SOL     OW 7186   4.984   5.640   3.403
 2096SOL    HW1 7187   4.975   5.711   3.474
 2096SOL    HW2 7188   5.081   5.629   3.379
 2097SOL     OW 7189   2.879   3.259   0.273
 2097SOL    HW1 7190   2.910   3.191   0.339
 2097SOL    HW2 7191   2.956   3.289   0.217
 2098SOL     OW 7192   4.289   6.167   2.383
 2098SOL    HW1 7193   4.307   6.076   2.421
 2098SOL    HW2 7194   4.375   6.208   2.354
 2099SOL     OW 7195   3.805   1.819   0.298
 2099SOL    HW1 7196   3.749   1.888   0.345
 2099SOL    HW2 7197   3.764   1.795   0.211
 2100SOL     OW 7198   5.548   1.386   0.788
 2100SOL    HW1 7199   5.534   1.293   0.824
 2100SOL    HW2 7200   5.481   1.404   0.717
 2101SOL     OW 7201   6.936   6.560   1.201
 2101SOL    HW1 7202   6.843   6.526   1.212
 2101SOL    HW2 7203   6.998   6.511   1.262
 2102SOL     OW 7204   5.351   3.695   2.034
 2102SOL    HW1 7205   5.356   3.648   1.946
 2102SOL    HW2 7206   5.441   3.729   2.059
 2103SOL     OW 7207   3.556   3.518   7.024
 2103SOL    HW1 7208   3.602   3.559   0.077
 2103SOL    HW2 7209   3.623   3.478   6.962
 2104SOL     OW 7210   1.588   4.472   2.347
 2104SOL    HW1 7211   1.652   4.452   2.273
 2104SOL    HW2 7212   1.638   4.518   2.421
 2105SOL     OW 7213   4.764   5.171   6.541
 2105SOL    HW1 7214   4.686   5.109   6.531
 2105SOL    HW2 7215   4.820   5.168   6.459
 2106SOL     OW 7216   4.931   3.660   1.731
 2106SOL    HW1 7217   5.001   3.727   1.756
 2106SOL    HW2 7218   4.843   3.706   1.723
 2107SOL     OW 7219   6.044   2.550   5.725
 2107SOL    HW1 7220   6.016   2.645   5.739
 2107SOL    HW2 7221   6.031   2.525   5.629
 2108SOL     OW 7222   6.457   5.609   5.150
 2108SOL    HW1 7223   6.550   5.594   5.182
 2108SOL    HW2 7224   6.450   5.698   5.106
 2109SOL     OW 7225   3.558   6.073   2.610
 2109SOL    HW1 7226   3.584   6.094   2.515
 2109SOL    HW2 7227   3.570   5.976   2.627
 2110SOL     OW 7228   3.110   0.786   6.977
 2110SOL    HW1 7229   3.065   0.707   6.935
 2110SOL    HW2 7230   3.050   0.866   6.970
 2111SOL     OW 7231   2.177   3.731   6.096
 2111SOL    HW1 7232   2.222   3.718   6.008
 2111SOL    HW2 7233   2.201   3.656   6.157
 2112SOL     OW 7234   4.959   2.140   0.674
 2112SOL    HW1 7235   4.989   2.082   0.598
 2112SOL    HW2 7236   4.894   2.207   0.640
 2113SOL     OW 7237   2.370   0.886   4.932
 2113SOL    HW1 7238   2.279   0.927   4.925
 2113SOL    HW2 7239   2.384   0.851   5.024
 2114SOL     OW 7240   2.834   2.260   6.660
 2114SOL    HW1 7241   2.786   2.173   6.650
 2114SOL    HW2 7242   2.773   2.326   6.703
 2115SOL     OW 7243   1.005   4.023   2.161
 2115SOL    HW1 7244   0.927   4.074   2.124
 2115SOL    HW2 7245   1.019   3.940   2.108
 2116SOL     OW 7246   1.305   3.155   2.225
 2116SOL    HW1 7247   1.395   3.115   2.204
 2116SOL    HW2 7248   1.249   3.155   2.143
 2117SOL     OW 7249   5.787   3.738   1.357
 2117SOL    HW1 7250   5.775   3.691   1.444
 2117SOL    HW2 7251   5.726   3.699   1.288
 2118SOL     OW 7252   6.753   3.397   3.507
 2118SOL    HW1 7253   6.685   3.469   3.490
 2118SOL    HW2 7254   6.752   3.332   3.431
 2119SOL     OW 7255   1.741   0.930   0.924
 2119SOL    HW1 7256   1.711   0.851   0.871
 2119SOL    HW2 7257   1.682   1.008   0.903
 2120SOL     OW 7258   0.259   3.748   2.320
 2120SOL    HW1 7259   0.297   3.679   2.383
 2120SOL    HW2 7260   0.177   3.711   2.276
 2121SOL     OW 7261   1.692   2.752   5.697
 2121SOL    HW1 7262   1.598   2.787   5.697
 2121SOL    HW2 7263   1.751   2.818   5.744
 2122SOL     OW 7264   5.265   6.051   0.021
 2122SOL    HW1 7265   5.292   6.107   0.099
 2122SOL    HW2 7266   5.347   6.021   6.997
 2123SOL     OW 7267   6.586   6.014   1.312
 2123SOL    HW1 7268   6.541   6.068   1.241
 2123SOL    HW2 7269   6.617   5.927   1.274
 2124SOL     OW 7270   2.561   1.661   7.022
 2124SOL    HW1 7271   2.523   1.647   0.089
 2124SOL    HW2 7272   2.536   1.584   6.964
 2125SOL     OW 7273   1.089   5.810   2.033
 2125SOL    HW1 7274   1.085   5.787   2.131
 2125SOL    HW2 7275   1.166   5.872   2.017
 2126SOL     OW 7276   3.251   2.873   6.342
 2126SOL    HW1 7277   3.275   2.969   6.330
 2126SOL    HW2 7278   3.174   2.865   6.406
 2127SOL     OW 7279   0.498   1.721   5.608
 2127SOL    HW1 7280   0.471   1.671   5.526
 2127SOL    HW2 7281   0.486   1.662   5.688
 2128SOL     OW 7282   6.038   2.232   2.426
 2128SOL    HW1 7283   5.989   2.156   2.468
 2128SOL    HW2 7284   6.004   2.246   2.333
 2129SOL     OW 7285   4.538   4.562   4.843
 2129SOL    HW1 7286   4.453   4.540   4.891
 2129SOL    HW2 7287   4.542   4.660   4.823
 2130SOL     OW 7288   2.754   0.668   2.199
 2130SOL    HW1 7289   2.777   0.581   2.156
 2130SOL    HW2 7290   2.808   0.679   2.283
 2131SOL     OW 7291   5.295   0.861   0.840
 2131SOL    HW1 7292   5.387   0.825   0.827
 2131SOL    HW2 7293   5.268   0.913   0.759
 2132SOL     OW 7294   3.223   1.620   6.706
 2132SOL    HW1 7295   3.176   1.675   6.776
 2132SOL    HW2 7296   3.159   1.600   6.632
 2133SOL     OW 7297   3.399   2.438   1.208
 2133SOL    HW1 7298   3.417   2.421   1.305
 2133SOL    HW2 7299   3.481   2.475   1.164
 2134SOL     OW 7300   1.147   0.846   4.957
 2134SOL    HW1 7301   1.133   0.915   4.886
 2134SOL    HW2 7302   1.188   0.764   4.918
 2135SOL     OW 7303   0.649   1.629   4.438
 2135SOL    HW1 7304   0.612   1.721   4.424
 2135SOL    HW2 7305   0.736   1.620   4.389
 2136SOL     OW 7306   1.345   4.014   4.830
 2136SOL    HW1 7307   1.394   4.097   4.805
 2136SOL    HW2 7308   1.249   4.036   4.849
 2137SOL     OW 7309   0.089   6.774   4.361
 2137SOL    HW1 7310   0.141   6.856   4.338
 2137SOL    HW2 7311   0.009   6.800   4.415
 2138SOL     OW 7312   6.493   2.011   2.183
 2138SOL    HW1 7313   6.582   2.027   2.140
 2138SOL    HW2 7314   6.501   2.018   2.282
 2139SOL     OW 7315   4.192   0.800   2.503
 2139SOL    HW1 7316   4.287   0.774   2.517
 2139SOL    HW2 7317   4.171   0.881   2.557
 2140SOL     OW 7318   3.213   5.878   3.178
 2140SOL    HW1 7319   3.205   5.782   3.151
 2140SOL    HW2 7320   3.270   5.927   3.113
 2141SOL     OW 7321   0.272   3.267   1.470
 2141SOL    HW1 7322   0.289   3.246   1.374
 2141SOL    HW2 7323   0.358   3.298   1.512
 2142SOL     OW 7324   1.392   2.106   3.139
 2142SOL    HW1 7325   1.353   2.141   3.054
 2142SOL    HW2 7326   1.319   2.090   3.205
 2143SOL     OW 7327   3.091   4.918   0.817
 2143SOL    HW1 7328   3.062   4.822   0.811
 2143SOL    HW2 7329   3.035   4.965   0.885
 2144SOL     OW 7330   1.273   0.194   2.910
 2144SOL    HW1 7331   1.339   0.225   2.842
 2144SOL    HW2 7332   1.249   0.270   2.970
 2145SOL     OW 7333   3.923   5.799   3.843
 2145SOL    HW1 7334   3.869   5.715   3.847
 2145SOL    HW2 7335   3.900   5.850   3.761
 2146SOL     OW 7336   2.821   3.521   2.022
 2146SOL    HW1 7337   2.800   3.457   1.948
 2146SOL    HW2 7338   2.740   3.577   2.041
 2147SOL     OW 7339   6.758   0.614   6.993
 2147SOL    HW1 7340   6.687   0.671   0.009
 2147SOL    HW2 7341   6.720   0.525   6.969
 2148SOL     OW 7342   4.801   3.102   4.310
 2148SOL    HW1 7343   4.727   3.062   4.364
 2148SOL    HW2 7344   4.865   3.030   4.283
 2149SOL     OW 7345   3.843   0.935   1.349
 2149SOL    HW1 7346   3.795   0.976   1.271
 2149SOL    HW2 7347   3.843   0.835   1.340
 2150SOL     OW 7348   2.428   2.385   2.345
 2150SOL    HW1 7349   2.462   2.458   2.285
 2150SOL    HW2 7350   2.481   2.384   2.429
 2151SOL     OW 7351   2.032   1.296   4.092
 2151SOL    HW1 7352   1.961   1.339   4.038
 2151SOL    HW2 7353   1.994   1.216   4.140
 2152SOL     OW 7354   3.807   5.808   0.921
 2152SOL    HW1 7355   3.762   5.721   0.899
 2152SOL    HW2 7356   3.778   5.838   1.012
 2153SOL     OW 7357   3.436   0.251   3.288
 2153SOL    HW1 7358   3.387   0.211   3.365
 2153SOL    HW2 7359   3.507   0.313   3.322
 2154SOL     OW 7360   4.281   0.050   4.818
 2154SOL    HW1 7361   4.260   0.050   4.916
 2154SOL    HW2 7362   4.380   0.047   4.805
 2155SOL     OW 7363   1.627   5.588   7.010
 2155SOL    HW1 7364   1.573   5.523   6.958
 2155SOL    HW2 7365   1.640   5.672   6.957
 2156SOL     OW 7366   2.514   0.462   2.239
 2156SOL    HW1 7367   2.501   0.561   2.242
 2156SOL    HW2 7368   2.607   0.441   2.210
 2157SOL     OW 7369   6.286   1.499   3.231
 2157SOL    HW1 7370   6.335   1.412   3.237
 2157SOL    HW2 7371   6.351   1.572   3.210
 2158SOL     OW 7372   4.150   6.349   0.672
 2158SOL    HW1 7373   4.248   6.329   0.681
 2158SOL    HW2 7374   4.100   6.262   0.664
 2159SOL     OW 7375   1.655   6.295   5.723
 2159SOL    HW1 7376   1.663   6.364   5.651
 2159SOL    HW2 7377   1.707   6.214   5.697
 2160SOL     OW 7378   4.499   3.239   1.304
 2160SOL    HW1 7379   4.586   3.240   1.352
 2160SOL    HW2 7380   4.476   3.145   1.277
 2161SOL     OW 7381   5.398   2.542   3.404
 2161SOL    HW1 7382   5.361   2.498   3.322
 2161SOL    HW2 7383   5.407   2.640   3.388
 2162SOL     OW 7384   3.017   0.526   6.922
 2162SOL    HW1 7385   2.973   0.463   6.985
 2162SOL    HW2 7386   3.105   0.489   6.894
 2163SOL     OW 7387   0.076   5.381   6.217
 2163SOL    HW1 7388   0.044   5.475   6.204
 2163SOL    HW2 7389   0.176   5.379   6.214
 2164SOL     OW 7390   1.489   2.058   6.980
 2164SOL    HW1 7391   1.531   2.094   6.896
 2164SOL    HW2 7392   1.527   1.968   7.001
 2165SOL     OW 7393   0.885   1.417   2.865
 2165SOL    HW1 7394   0.910   1.341   2.805
 2165SOL    HW2 7395   0.815   1.473   2.821
 2166SOL     OW 7396   2.376   2.351   5.487
 2166SOL    HW1 7397   2.345   2.445   5.503
 2166SOL    HW2 7398   2.365   2.298   5.571
 2167SOL     OW 7399   1.955   1.038   3.288
 2167SOL    HW1 7400   1.950   1.025   3.189
 2167SOL    HW2 7401   1.872   1.084   3.319
 2168SOL     OW 7402   6.933   2.164   3.712
 2168SOL    HW1 7403   6.908   2.125   3.623
 2168SOL    HW2 7404   6.859   2.150   3.777
 2169SOL     OW 7405   5.617   2.447   5.940
 2169SOL    HW1 7406   5.618   2.529   5.883
 2169SOL    HW2 7407   5.523   2.419   5.956
 2170SOL     OW 7408   6.011   4.800   5.849
 2170SOL    HW1 7409   5.923   4.772   5.810
 2170SOL    HW2 7410   6.053   4.868   5.789
 2171SOL     OW 7411   5.919   3.283   0.662
 2171SOL    HW1 7412   5.910   3.297   0.760
 2171SOL    HW2 7413   5.834   3.245   0.626
 2172SOL     OW 7414   2.355   2.016   0.681
 2172SOL    HW1 7415   2.448   2.040   0.707
 2172SOL    HW2 7416   2.348   2.013   0.581
 2173SOL     OW 7417   3.665   0.134   5.557
 2173SOL    HW1 7418   3.622   0.044   5.555
 2173SOL    HW2 7419   3.650   0.176   5.647
 2174SOL     OW 7420   5.894   4.976   6.050
 2174SOL    HW1 7421   5.797   4.998   6.060
 2174SOL    HW2 7422   5.907   4.915   5.971
 2175SOL     OW 7423   3.102   2.046   3.317
 2175SOL    HW1 7424   3.068   2.005   3.402
 2175SOL    HW2 7425   3.202   2.043   3.317
 2176SOL     OW 7426   1.316   2.518   1.183
 2176SOL    HW1 7427   1.342   2.536   1.278
 2176SOL    HW2 7428   1.307   2.419   1.170
 2177SOL     OW 7429   6.220   0.695   2.694
 2177SOL    HW1 7430   6.297   0.723   2.637
 2177SOL    HW2 7431   6.210   0.760   2.770
 2178SOL     OW 7432   1.855   4.411   0.518
 2178SOL    HW1 7433   1.862   4.398   0.420
 2178SOL    HW2 7434   1.862   4.509   0.539
 2179SOL     OW 7435   2.253   5.202   4.536
 2179SOL    HW1 7436   2.158   5.231   4.537
 2179SOL    HW2 7437   2.279   5.168   4.627
 2180SOL     OW 7438   2.951   3.169   1.772
 2180SOL    HW1 7439   2.988   3.098   1.712
 2180SOL    HW2 7440   2.992   3.257   1.749
 2181SOL     OW 7441   5.374   4.423   5.610
 2181SOL    HW1 7442   5.469   4.421   5.641
 2181SOL    HW2 7443   5.345   4.331   5.585
 2182SOL     OW 7444   6.546   3.307   4.834
 2182SOL    HW1 7445   6.446   3.317   4.836
 2182SOL    HW2 7446   6.588   3.396   4.854
 2183SOL     OW 7447   4.111   3.821   6.536
 2183SOL    HW1 7448   4.116   3.784   6.443
 2183SOL    HW2 7449   4.017   3.816   6.569
 2184SOL     OW 7450   3.504   1.262   5.021
 2184SOL    HW1 7451   3.584   1.280   5.078
 2184SOL    HW2 7452   3.439   1.338   5.029
 2185SOL     OW 7453   1.835   2.226   0.440
 2185SOL    HW1 7454   1.815   2.224   0.342
 2185SOL    HW2 7455   1.889   2.308   0.462
 2186SOL     OW 7456   6.646   4.834   2.467
 2186SOL    HW1 7457   6.725   4.823   2.407
 2186SOL    HW2 7458   6.563   4.809   2.417
 2187SOL     OW 7459   0.716   1.802   1.831
 2187SOL    HW1 7460   0.739   1.791   1.928
 2187SOL    HW2 7461   0.625   1.765   1.814
 2188SOL     OW 7462   5.423   5.920   3.705
 2188SOL    HW1 7463   5.404   5.845   3.642
 2188SOL    HW2 7464   5.356   5.994   3.691
 2189SOL     OW 7465   1.828   6.013   6.627
 2189SOL    HW1 7466   1.898   6.073   6.587
 2189SOL    HW2 7467   1.809   5.938   6.565
 2190SOL     OW 7468   7.006   2.422   2.069
 2190SOL    HW1 7469   6.917   2.465   2.082
 2190SOL    HW2 7470   0.004   2.420   1.972
 2191SOL     OW 7471   3.118   1.696   6.176
 2191SOL    HW1 7472   3.104   1.611   6.227
 2191SOL    HW2 7473   3.164   1.676   6.090
 2192SOL     OW 7474   3.626   0.236   4.133
 2192SOL    HW1 7475   3.684   0.155   4.142
 2192SOL    HW2 7476   3.683   0.317   4.120
 2193SOL     OW 7477   6.731   5.968   6.106
 2193SOL    HW1 7478   6.819   5.962   6.060
 2193SOL    HW2 7479   6.714   6.062   6.134
 2194SOL     OW 7480   2.140   4.498   0.020
 2194SOL    HW1 7481   2.109   4.592   0.034
 2194SOL    HW2 7482   2.235   4.489   0.050
 2195SOL     OW 7483   0.398   6.570   2.463
 2195SOL    HW1 7484   0.446   6.502   2.408
 2195SOL    HW2 7485   0.463   6.619   2.521
 2196SOL     OW 7486   2.772   0.437   6.052
 2196SOL    HW1 7487   2.865   0.409   6.073
 2196SOL    HW2 7488   2.773   0.530   6.014
 2197SOL     OW 7489   4.784   3.762   1.518
 2197SOL    HW1 7490   4.722   3.694   1.559
 2197SOL    HW2 7491   4.806   3.832   1.585
 2198SOL     OW 7492   6.665   1.934   0.279
 2198SOL    HW1 7493   6.695   1.947   0.374
 2198SOL    HW2 7494   6.746   1.931   0.220
 2199SOL     OW 7495   5.348   0.746   1.601
 2199SOL    HW1 7496   5.344   0.699   1.689
 2199SOL    HW2 7497   5.390   0.686   1.533
 2200SOL     OW 7498   4.086   0.548   4.894
 2200SOL    HW1 7499   4.137   0.583   4.816
 2200SOL    HW2 7500   4.129   0.580   4.979
 2201SOL     OW 7501   6.462   2.995   2.199
 2201SOL    HW1 7502   6.383   3.053   2.221
 2201SOL    HW2 7503   6.453   2.907   2.245
 2202SOL     OW 7504   3.354   4.890   4.312
 2202SOL    HW1 7505   3.442   4.891   4.264
 2202SOL    HW2 7506   3.287   4.840   4.257
 2203SOL     OW 7507   2.451   2.368   2.004
 2203SOL    HW1 7508   2.537   2.323   2.028
 2203SOL    HW2 7509   2.375   2.307   2.024
 2204SOL     OW 7510   3.372   1.262   6.960
 2204SOL    HW1 7511   3.365   1.185   7.023
 2204SOL    HW2 7512   3.380   1.347   7.011
 2205SOL     OW 7513   1.531   0.213   6.639
 2205SOL    HW1 7514   1.628   0.234   6.648
 2205SOL    HW2 7515   1.495   0.258   6.557
 2206SOL     OW 7516   3.079   4.386   5.304
 2206SOL    HW1 7517   3.009   4.437   5.254
 2206SOL    HW2 7518   3.049   4.291   5.315
 2207SOL     OW 7519   1.928   4.035   6.361
 2207SOL    HW1 7520   1.946   3.962   6.427
 2207SOL    HW2 7521   1.980   4.017   6.277
 2208SOL     OW 7522   1.874   4.645   2.045
 2208SOL    HW1 7523   1.796   4.703   2.024
 2208SOL    HW2 7524   1.904   4.660   2.139
 2209SOL     OW 7525   1.448   6.004   5.591
 2209SOL    HW1 7526   1.449   6.101   5.616
 2209SOL    HW2 7527   1.382   5.955   5.647
 2210SOL     OW 7528   0.029   5.207   3.705
 2210SOL    HW1 7529   0.046   5.109   3.690
 2210SOL    HW2 7530   0.087   5.239   3.780
 2211SOL     OW 7531   5.694   1.480   6.777
 2211SOL    HW1 7532   5.682   1.481   6.678
 2211SOL    HW2 7533   5.615   1.522   6.822
 2212SOL     OW 7534   1.772   6.184   0.653
 2212SOL    HW1 7535   1.688   6.131   0.664
 2212SOL    HW2 7536   1.781   6.213   0.557
 2213SOL     OW 7537   4.432   2.753   5.287
 2213SOL    HW1 7538   4.410   2.820   5.358
 2213SOL    HW2 7539   4.488   2.797   5.216
 2214SOL     OW 7540   4.819   1.150   5.319
 2214SOL    HW1 7541   4.777   1.069   5.279
 2214SOL    HW2 7542   4.918   1.137   5.323
 2215SOL     OW 7543   0.021   1.411   6.046
 2215SOL    HW1 7544   0.081   1.448   5.975
 2215SOL    HW2 7545   6.959   1.383   6.006
 2216SOL     OW 7546   1.845   0.537   6.941
 2216SOL    HW1 7547   1.760   0.519   6.991
 2216SOL    HW2 7548   1.915   0.569   7.006
 2217SOL     OW 7549   3.061   0.216   1.528
 2217SOL    HW1 7550   2.992   0.278   1.566
 2217SOL    HW2 7551   3.055   0.127   1.575
 2218SOL     OW 7552   1.296   6.431   0.577
 2218SOL    HW1 7553   1.230   6.488   0.626
 2218SOL    HW2 7554   1.376   6.487   0.553
 2219SOL     OW 7555   0.971   4.142   3.408
 2219SOL    HW1 7556   1.043   4.165   3.473
 2219SOL    HW2 7557   0.888   4.117   3.457
 2220SOL     OW 7558   0.479   1.072   4.478
 2220SOL    HW1 7559   0.380   1.069   4.487
 2220SOL    HW2 7560   0.521   1.014   4.548
 2221SOL     OW 7561   6.223   0.870   7.001
 2221SOL    HW1 7562   6.253   0.854   0.071
 2221SOL    HW2 7563   6.288   0.932   6.956
 2222SOL     OW 7564   3.777   0.685   0.759
 2222SOL    HW1 7565   3.838   0.615   0.721
 2222SOL    HW2 7566   3.770   0.761   0.695
 2223SOL     OW 7567   5.601   6.389   3.744
 2223SOL    HW1 7568   5.529   6.445   3.703
 2223SOL    HW2 7569   5.669   6.367   3.675
 2224SOL     OW 7570   2.463   4.892   1.780
 2224SOL    HW1 7571   2.501   4.808   1.819
 2224SOL    HW2 7572   2.530   4.931   1.717
 2225SOL     OW 7573   6.168   5.535   3.188
 2225SOL    HW1 7574   6.255   5.543   3.237
 2225SOL    HW2 7575   6.175   5.461   3.120
 2226SOL     OW 7576   4.144   3.170   0.424
 2226SOL    HW1 7577   4.045   3.185   0.428
 2226SOL    HW2 7578   4.187   3.247   0.376
 2227SOL     OW 7579   5.996   4.395   0.295
 2227SOL    HW1 7580   6.088   4.427   0.272
 2227SOL    HW2 7581   5.930   4.469   0.282
 2228SOL     OW 7582   3.384   5.820   0.451
 2228SOL    HW1 7583   3.396   5.754   0.526
 2228SOL    HW2 7584   3.286   5.839   0.439
 2229SOL     OW 7585   4.179   1.342   4.286
 2229SOL    HW1 7586   4.159   1.316   4.381
 2229SOL    HW2 7587   4.110   1.407   4.255
 2230SOL     OW 7588   0.572   6.288   4.284
 2230SOL    HW1 7589   0.634   6.220   4.245
 2230SOL    HW2 7590   0.524   6.336   4.210
 2231SOL     OW 7591   1.718   1.899   1.784
 2231SOL    HW1 7592   1.762   1.816   1.750
 2231SOL    HW2 7593   1.786   1.971   1.795
 2232SOL     OW 7594   0.919   3.053   3.834
 2232SOL    HW1 7595   0.990   2.990   3.805
 2232SOL    HW2 7596   0.830   3.019   3.805
 2233SOL     OW 7597   2.748   4.938   0.497
 2233SOL    HW1 7598   2.841   4.949   0.533
 2233SOL    HW2 7599   2.710   4.852   0.528
 2234SOL     OW 7600   4.579   2.415   1.466
 2234SOL    HW1 7601   4.539   2.415   1.557
 2234SOL    HW2 7602   4.637   2.334   1.456
 2235SOL     OW 7603   1.325   0.118   0.367
 2235SOL    HW1 7604   1.252   0.110   0.436
 2235SOL    HW2 7605   1.358   0.212   0.365
 2236SOL     OW 7606   1.230   4.948   0.433
 2236SOL    HW1 7607   1.146   4.952   0.379
 2236SOL    HW2 7608   1.227   4.870   0.494
 2237SOL     OW 7609   6.110   3.978   4.514
 2237SOL    HW1 7610   6.115   4.075   4.536
 2237SOL    HW2 7611   6.199   3.935   4.534
 2238SOL     OW 7612   6.575   5.556   2.717
 2238SOL    HW1 7613   6.551   5.498   2.794
 2238SOL    HW2 7614   6.516   5.636   2.715
 2239SOL     OW 7615   4.063   5.236   3.378
 2239SOL    HW1 7616   4.031   5.331   3.387
 2239SOL    HW2 7617   4.112   5.210   3.460
 2240SOL     OW 7618   5.436   5.256   3.918
 2240SOL    HW1 7619   5.479   5.243   4.008
 2240SOL    HW2 7620   5.412   5.167   3.880
 2241SOL     OW 7621   0.072   6.317   2.635
 2241SOL    HW1 7622   0.056   6.219   2.646
 2241SOL    HW2 7623   0.096   6.337   2.540
 2242SOL     OW 7624   5.345   1.789   3.404
 2242SOL    HW1 7625   5.425   1.841   3.374
 2242SOL    HW2 7626   5.344   1.783   3.503
 2243SOL     OW 7627   3.053   6.245   5.326
 2243SOL    HW1 7628   2.983   6.309   5.358
 2243SOL    HW2 7629   3.019   6.196   5.246
 2244SOL     OW 7630   3.672   0.197   2.912
 2244SOL    HW1 7631   3.697   0.120   2.971
 2244SOL    HW2 7632   3.753   0.251   2.891
 2245SOL     OW 7633   0.456   2.422   1.599
 2245SOL    HW1 7634   0.530   2.488   1.616
 2245SOL    HW2 7635   0.491   2.346   1.545
 2246SOL     OW 7636   1.468   1.686   5.386
 2246SOL    HW1 7637   1.451   1.710   5.481
 2246SOL    HW2 7638   1.566   1.683   5.369
 2247SOL     OW 7639   2.317   2.607   6.641
 2247SOL    HW1 7640   2.368   2.685   6.677
 2247SOL    HW2 7641   2.362   2.573   6.559
 2248SOL     OW 7642   4.911   3.968   5.629
 2248SOL    HW1 7643   4.940   3.914   5.707
 2248SOL    HW2 7644   4.895   3.908   5.551
 2249SOL     OW 7645   5.866   6.520   2.760
 2249SOL    HW1 7646   5.827   6.605   2.793
 2249SOL    HW2 7647   5.795   6.465   2.716
 2250SOL     OW 7648   5.106   3.902   1.226
 2250SOL    HW1 7649   5.176   3.839   1.192
 2250SOL    HW2 7650   5.093   3.977   1.161
 2251SOL     OW 7651   5.815   1.400   0.586
 2251SOL    HW1 7652   5.806   1.447   0.498
 2251SOL    HW2 7653   5.763   1.448   0.656
 2252SOL     OW 7654   6.511   2.553   4.501
 2252SOL    HW1 7655   6.476   2.633   4.550
 2252SOL    HW2 7656   6.570   2.500   4.562
 2253SOL     OW 7657   1.258   3.097   6.621
 2253SOL    HW1 7658   1.285   3.060   6.710
 2253SOL    HW2 7659   1.163   3.127   6.626
 2254SOL     OW 7660   2.510   2.984   6.128
 2254SOL    HW1 7661   2.435   2.925   6.158
 2254SOL    HW2 7662   2.579   2.929   6.082
 2255SOL     OW 7663   6.451   2.466   0.975
 2255SOL    HW1 7664   6.451   2.520   0.891
 2255SOL    HW2 7665   6.459   2.527   1.054
 2256SOL     OW 7666   4.104   5.739   1.641
 2256SOL    HW1 7667   4.060   5.741   1.551
 2256SOL    HW2 7668   4.053   5.680   1.703
 2257SOL     OW 7669   0.992   2.745   4.500
 2257SOL    HW1 7670   1.020   2.827   4.550
 2257SOL    HW2 7671   0.940   2.686   4.562
 2258SOL     OW 7672   1.165   5.761   4.727
 2258SOL    HW1 7673   1.119   5.689   4.779
 2258SOL    HW2 7674   1.239   5.722   4.673
 2259SOL     OW 7675   5.040   3.671   5.988
 2259SOL    HW1 7676   5.009   3.578   5.968
 2259SOL    HW2 7677   5.137   3.680   5.964
 2260SOL     OW 7678   4.488   4.476   3.030
 2260SOL    HW1 7679   4.558   4.409   3.054
 2260SOL    HW2 7680   4.438   4.503   3.112
 2261SOL     OW 7681   5.913   6.758   0.885
 2261SOL    HW1 7682   5.981   6.690   0.912
 2261SOL    HW2 7683   5.875   6.802   0.967
 2262SOL     OW 7684   5.717   2.477   2.436
 2262SOL    HW1 7685   5.639   2.433   2.391
 2262SOL    HW2 7686   5.770   2.408   2.485
 2263SOL     OW 7687   2.603   5.760   6.212
 2263SOL    HW1 7688   2.590   5.677   6.265
 2263SOL    HW2 7689   2.546   5.756   6.130
 2264SOL     OW 7690   3.630   4.079   2.683
 2264SOL    HW1 7691   3.532   4.077   2.666
 2264SOL    HW2 7692   3.678   4.040   2.604
 2265SOL     OW 7693   0.387   0.649   3.383
 2265SOL    HW1 7694   0.404   0.602   3.297
 2265SOL    HW2 7695   0.441   0.733   3.386
 2266SOL     OW 7696   6.935   1.513   1.286
 2266SOL    HW1 7697   6.856   1.465   1.248
 2266SOL    HW2 7698   6.938   1.607   1.250
 2267SOL     OW 7699   5.534   2.550   4.620
 2267SOL    HW1 7700   5.505   2.540   4.525
 2267SOL    HW2 7701   5.535   2.647   4.645
 2268SOL     OW 7702   6.854   4.985   0.406
 2268SOL    HW1 7703   6.839   4.921   0.481
 2268SOL    HW2 7704   6.935   5.041   0.426
 2269SOL     OW 7705   6.343   6.049   5.070
 2269SOL    HW1 7706   6.254   6.059   5.114
 2269SOL    HW2 7707   6.353   6.117   4.998
 2270SOL     OW 7708   3.959   3.998   0.495
 2270SOL    HW1 7709   3.907   4.060   0.554
 2270SOL    HW2 7710   4.056   4.022   0.498
 2271SOL     OW 7711   6.218   3.981   1.567
 2271SOL    HW1 7712   6.140   4.007   1.624
 2271SOL    HW2 7713   6.289   4.051   1.574
 2272SOL     OW 7714   6.419   1.897   4.688
 2272SOL    HW1 7715   6.444   1.935   4.777
 2272SOL    HW2 7716   6.386   1.803   4.699
 2273SOL     OW 7717   1.295   1.608   1.816
 2273SOL    HW1 7718   1.372   1.637   1.760
 2273SOL    HW2 7719   1.255   1.687   1.862
 2274SOL     OW 7720   1.068   3.419   5.525
 2274SOL    HW1 7721   1.088   3.439   5.429
 2274SOL    HW2 7722   1.130   3.471   5.584
 2275SOL     OW 7723   4.812   6.977   5.180
 2275SOL    HW1 7724   4.716   7.005   5.187
 2275SOL    HW2 7725   4.861   0.015   5.119
 2276SOL     OW 7726   3.293   4.942   1.370
 2276SOL    HW1 7727   3.381   4.986   1.351
 2276SOL    HW2 7728   3.304   4.843   1.370
 2277SOL     OW 7729   2.885   3.652   4.631
 2277SOL    HW1 7730   2.918   3.558   4.625
 2277SOL    HW2 7731   2.786   3.652   4.646
 2278SOL     OW 7732   4.959   6.637   3.496
 2278SOL    HW1 7733   4.916   6.576   3.562
 2278SOL    HW2 7734   5.025   6.586   3.440
 2279SOL     OW 7735   5.915   5.074   4.372
 2279SOL    HW1 7736   5.951   4.983   4.352
 2279SOL    HW2 7737   5.815   5.070   4.378
 2280SOL     OW 7738   5.598   6.168   5.034
 2280SOL    HW1 7739   5.601   6.255   5.083
 2280SOL    HW2 7740   5.690   6.146   5.001
 2281SOL     OW 7741   3.635   1.107   1.953
 2281SOL    HW1 7742   3.633   1.194   1.904
 2281SOL    HW2 7743   3.551   1.057   1.935
 2282SOL     OW 7744   5.305   6.252   5.381
 2282SOL    HW1 7745   5.291   6.166   5.430
 2282SOL    HW2 7746   5.217   6.286   5.349
 2283SOL     OW 7747   6.842   4.150   1.579
 2283SOL    HW1 7748   6.860   4.082   1.650
 2283SOL    HW2 7749   6.914   4.219   1.579
 2284SOL     OW 7750   2.260   1.797   1.090
 2284SOL    HW1 7751   2.193   1.728   1.061
 2284SOL    HW2 7752   2.214   1.885   1.100
 2285SOL     OW 7753   2.055   3.406   6.860
 2285SOL    HW1 7754   2.035   3.504   6.853
 2285SOL    HW2 7755   2.067   3.367   6.769
 2286SOL     OW 7756   6.236   6.495   4.810
 2286SOL    HW1 7757   6.297   6.514   4.733
 2286SOL    HW2 7758   6.290   6.471   4.891
 2287SOL     OW 7759   2.396   2.703   1.910
 2287SOL    HW1 7760   2.364   2.614   1.877
 2287SOL    HW2 7761   2.319   2.754   1.948
 2288SOL     OW 7762   0.068   5.836   4.459
 2288SOL    HW1 7763   7.004   5.865   4.497
 2288SOL    HW2 7764   0.078   5.737   4.472
 2289SOL     OW 7765   5.950   3.589   2.652
 2289SOL    HW1 7766   5.945   3.490   2.641
 2289SOL    HW2 7767   5.945   3.633   2.562
 2290SOL     OW 7768   2.402   3.880   1.736
 2290SOL    HW1 7769   2.333   3.951   1.719
 2290SOL    HW2 7770   2.492   3.922   1.738
 2291SOL     OW 7771   2.164   2.189   0.781
 2291SOL    HW1 7772   2.216   2.116   0.736
 2291SOL    HW2 7773   2.209   2.213   0.867
 2292SOL     OW 7774   5.191   2.944   3.883
 2292SOL    HW1 7775   5.223   2.978   3.794
 2292SOL    HW2 7776   5.197   2.844   3.885
 2293SOL     OW 7777   6.367   0.979   0.717
 2293SOL    HW1 7778   6.382   1.076   0.731
 2293SOL    HW2 7779   6.426   0.926   0.778
 2294SOL     OW 7780   3.292   1.904   6.279
 2294SOL    HW1 7781   3.352   1.915   6.200
 2294SOL    HW2 7782   3.217   1.842   6.255
 2295SOL     OW 7783   0.004   1.075   2.828
 2295SOL    HW1 7784   0.099   1.049   2.840
 2295SOL    HW2 7785   6.983   1.080   2.917
 2296SOL     OW 7786   2.550   4.986   2.805
 2296SOL    HW1 7787   2.630   4.930   2.782
 2296SOL    HW2 7788   2.544   5.064   2.742
 2297SOL     OW 7789   4.723   4.856   6.200
 2297SOL    HW1 7790   4.728   4.930   6.133
 2297SOL    HW2 7791   4.688   4.892   6.287
 2298SOL     OW 7792   3.510   3.708   3.243
 2298SOL    HW1 7793   3.583   3.711   3.175
 2298SOL    HW2 7794   3.444   3.637   3.218
 2299SOL     OW 7795   4.641   4.191   5.308
 2299SOL    HW1 7796   4.587   4.238   5.239
 2299SOL    HW2 7797   4.587   4.178   5.391
 2300SOL     OW 7798   3.449   0.128   3.524
 2300SOL    HW1 7799   3.499   0.058   3.576
 2300SOL    HW2 7800   3.355   0.132   3.556
 2301SOL     OW 7801   3.558   2.875   3.928
 2301SOL    HW1 7802   3.471   2.915   3.958
 2301SOL    HW2 7803   3.619   2.866   4.007
 2302SOL     OW 7804   3.693   0.315   1.573
 2302SOL    HW1 7805   3.726   0.409   1.574
 2302SOL    HW2 7806   3.605   0.309   1.621
 2303SOL     OW 7807   2.362   2.909   1.329
 2303SOL    HW1 7808   2.386   2.821   1.370
 2303SOL    HW2 7809   2.317   2.894   1.241
 2304SOL     OW 7810   5.303   5.521   3.931
 2304SOL    HW1 7811   5.305   5.584   3.854
 2304SOL    HW2 7812   5.357   5.440   3.909
 2305SOL     OW 7813   2.087   0.462   3.802
 2305SOL    HW1 7814   2.145   0.436   3.879
 2305SOL    HW2 7815   2.145   0.488   3.724
 2306SOL     OW 7816   1.368   5.171   2.215
 2306SOL    HW1 7817   1.428   5.128   2.282
 2306SOL    HW2 7818   1.328   5.100   2.156
 2307SOL     OW 7819   0.588   3.237   5.420
 2307SOL    HW1 7820   0.518   3.308   5.429
 2307SOL    HW2 7821   0.560   3.171   5.350
 2308SOL     OW 7822   2.717   4.361   0.769
 2308SOL    HW1 7823   2.631   4.338   0.722
 2308SOL    HW2 7824   2.770   4.424   0.713
 2309SOL     OW 7825   1.423   0.704   4.370
 2309SOL    HW1 7826   1.459   0.797   4.371
 2309SOL    HW2 7827   1.468   0.650   4.441
 2310SOL     OW 7828   5.829   6.173   2.489
 2310SOL    HW1 7829   5.782   6.202   2.573
 2310SOL    HW2 7830   5.878   6.088   2.506
 2311SOL     OW 7831   2.435   5.646   0.182
 2311SOL    HW1 7832   2.358   5.687   0.133
 2311SOL    HW2 7833   2.521   5.682   0.146
 2312SOL     OW 7834   4.357   5.619   3.378
 2312SOL    HW1 7835   4.267   5.645   3.342
 2312SOL    HW2 7836   4.427   5.636   3.308
 2313SOL     OW 7837   4.964   5.270   1.962
 2313SOL    HW1 7838   5.030   5.329   2.008
 2313SOL    HW2 7839   5.009   5.188   1.929
 2314SOL     OW 7840   3.697   6.947   3.012
 2314SOL    HW1 7841   3.715   6.874   3.078
 2314SOL    HW2 7842   3.747   6.928   2.927
 2315SOL     OW 7843   5.630   3.652   5.428
 2315SOL    HW1 7844   5.671   3.572   5.384
 2315SOL    HW2 7845   5.663   3.660   5.522
 2316SOL     OW 7846   5.173   2.092   3.484
 2316SOL    HW1 7847   5.151   2.004   3.441
 2316SOL    HW2 7848   5.090   2.131   3.524
 2317SOL     OW 7849   0.022   5.193   3.429
 2317SOL    HW1 7850   0.078   5.261   3.380
 2317SOL    HW2 7851   0.025   5.212   3.527
 2318SOL     OW 7852   0.642   2.692   3.851
 2318SOL    HW1 7853   0.719   2.701   3.789
 2318SOL    HW2 7854   0.641   2.771   3.914
 2319SOL     OW 7855   1.153   4.557   4.373
 2319SOL    HW1 7856   1.164   4.457   4.370
 2319SOL    HW2 7857   1.135   4.591   4.281
 2320SOL     OW 7858   0.179   2.688   4.336
 2320SOL    HW1 7859   0.132   2.670   4.422
 2320SOL    HW2 7860   0.178   2.786   4.316
 2321SOL     OW 7861   3.487   0.518   5.392
 2321SOL    HW1 7862   3.552   0.460   5.440
 2321SOL    HW2 7863   3.534   0.598   5.355
 2322SOL     OW 7864   2.204   2.026   5.321
 2322SOL    HW1 7865   2.192   1.940   5.272
 2322SOL    HW2 7866   2.216   2.101   5.255
 2323SOL     OW 7867   2.822   4.815   2.379
 2323SOL    HW1 7868   2.877   4.817   2.296
 2323SOL    HW2 7869   2.761   4.735   2.377
 2324SOL     OW 7870   0.164   5.936   2.930
 2324SOL    HW1 7871   0.213   5.856   2.897
 2324SOL    HW2 7872   0.106   5.910   3.007
 2325SOL     OW 7873   1.256   3.546   2.127
 2325SOL    HW1 7874   1.314   3.499   2.061
 2325SOL    HW2 7875   1.160   3.521   2.112
 2326SOL     OW 7876   2.556   3.704   6.069
 2326SOL    HW1 7877   2.491   3.703   5.993
 2326SOL    HW2 7878   2.587   3.610   6.088
 2327SOL     OW 7879   4.919   2.730   4.834
 2327SOL    HW1 7880   4.902   2.633   4.847
 2327SOL    HW2 7881   4.929   2.750   4.736
 2328SOL     OW 7882   4.914   1.028   3.787
 2328SOL    HW1 7883   4.939   0.941   3.745
 2328SOL    HW2 7884   4.840   1.070   3.735
 2329SOL     OW 7885   1.342   5.676   4.524
 2329SOL    HW1 7886   1.289   5.605   4.478
 2329SOL    HW2 7887   1.398   5.725   4.457
 2330SOL     OW 7888   0.291   4.775   2.377
 2330SOL    HW1 7889   0.284   4.873   2.394
 2330SOL    HW2 7890   0.366   4.757   2.313
 2331SOL     OW 7891   6.144   4.855   6.680
 2331SOL    HW1 7892   6.128   4.950   6.708
 2331SOL    HW2 7893   6.217   4.851   6.613
 2332SOL     OW 7894   5.169   2.154   5.262
 2332SOL    HW1 7895   5.163   2.247   5.296
 2332SOL    HW2 7896   5.237   2.150   5.189
 2333SOL     OW 7897   0.113   4.936   2.630
 2333SOL    HW1 7898   0.185   4.918   2.563
 2333SOL    HW2 7899   0.138   5.016   2.685
 2334SOL     OW 7900   2.862   6.715   6.909
 2334SOL    HW1 7901   2.907   6.803   6.899
 2334SOL    HW2 7902   2.846   6.696   7.006
 2335SOL     OW 7903   6.449   1.231   3.282
 2335SOL    HW1 7904   6.390   1.195   3.210
 2335SOL    HW2 7905   6.445   1.171   3.362
 2336SOL     OW 7906   4.836   1.409   5.410
 2336SOL    HW1 7907   4.838   1.317   5.369
 2336SOL    HW2 7908   4.742   1.432   5.434
 2337SOL     OW 7909   4.725   0.482   3.940
 2337SOL    HW1 7910   4.753   0.397   3.895
 2337SOL    HW2 7911   4.747   0.559   3.880
 2338SOL     OW 7912   0.797   6.876   6.551
 2338SOL    HW1 7913   0.875   6.905   6.607
 2338SOL    HW2 7914   0.763   6.953   6.498
 2339SOL     OW 7915   3.447   3.574   5.480
 2339SOL    HW1 7916   3.489   3.646   5.536
 2339SOL    HW2 7917   3.379   3.614   5.419
 2340SOL     OW 7918   4.359   6.817   5.611
 2340SOL    HW1 7919   4.375   6.915   5.620
 2340SOL    HW2 7920   4.373   6.790   5.515
 2341SOL     OW 7921   5.185   4.026   0.256
 2341SOL    HW1 7922   5.150   4.108   0.211
 2341SOL    HW2 7923   5.132   4.009   0.340
 2342SOL     OW 7924   0.470   6.315   4.993
 2342SOL    HW1 7925   0.440   6.274   5.079
 2342SOL    HW2 7926   0.391   6.326   4.932
 2343SOL     OW 7927   1.562   0.020   0.949
 2343SOL    HW1 7928   1.525   0.035   1.041
 2343SOL    HW2 7929   1.531   0.094   0.888
 2344SOL     OW 7930   2.190   2.052   1.807
 2344SOL    HW1 7931   2.231   2.060   1.897
 2344SOL    HW2 7932   2.262   2.043   1.738
 2345SOL     OW 7933   1.690   6.865   5.277
 2345SOL    HW1 7934   1.749   6.914   5.213
 2345SOL    HW2 7935   1.595   6.889   5.261
 2346SOL     OW 7936   4.872   2.953   5.459
 2346SOL    HW1 7937   4.956   2.990   5.420
 2346SOL    HW2 7938   4.890   2.917   5.551
 2347SOL     OW 7939   1.761   4.387   2.152
 2347SOL    HW1 7940   1.794   4.462   2.096
 2347SOL    HW2 7941   1.818   4.306   2.137
 2348SOL     OW 7942   2.003   6.323   3.436
 2348SOL    HW1 7943   2.044   6.234   3.419
 2348SOL    HW2 7944   1.911   6.326   3.399
 2349SOL     OW 7945   1.008   6.427   6.618
 2349SOL    HW1 7946   1.062   6.371   6.681
 2349SOL    HW2 7947   1.069   6.480   6.560
 2350SOL     OW 7948   3.510   6.958   5.688
 2350SOL    HW1 7949   3.428   6.933   5.638
 2350SOL    HW2 7950   3.485   6.991   5.779
 2351SOL     OW 7951   3.487   5.291   3.395
 2351SOL    HW1 7952   3.517   5.277   3.301
 2351SOL    HW2 7953   3.565   5.282   3.456
 2352SOL     OW 7954   0.205   4.226   3.231
 2352SOL    HW1 7955   0.129   4.166   3.256
 2352SOL    HW2 7956   0.291   4.178   3.246
 2353SOL     OW 7957   2.252   4.209   4.786
 2353SOL    HW1 7958   2.263   4.123   4.836
 2353SOL    HW2 7959   2.316   4.277   4.821
 2354SOL     OW 7960   3.925   1.947   6.777
 2354SOL    HW1 7961   3.859   1.890   6.828
 2354SOL    HW2 7962   3.939   1.908   6.686
 2355SOL     OW 7963   0.466   6.458   0.413
 2355SOL    HW1 7964   0.416   6.489   0.331
 2355SOL    HW2 7965   0.414   6.387   0.459
 2356SOL     OW 7966   2.367   4.241   1.860
 2356SOL    HW1 7967   2.367   4.339   1.880
 2356SOL    HW2 7968   2.451   4.216   1.812
 2357SOL     OW 7969   4.731   5.111   4.152
 2357SOL    HW1 7970   4.677   5.075   4.227
 2357SOL    HW2 7971   4.763   5.203   4.174
 2358SOL     OW 7972   3.336   6.597   3.923
 2358SOL    HW1 7973   3.386   6.564   4.003
 2358SOL    HW2 7974   3.248   6.550   3.917
 2359SOL     OW 7975   2.458   1.359   6.055
 2359SOL    HW1 7976   2.551   1.393   6.046
 2359SOL    HW2 7977   2.394   1.428   6.020
 2360SOL     OW 7978   4.433   5.087   6.793
 2360SOL    HW1 7979   4.354   5.133   6.833
 2360SOL    HW2 7980   4.511   5.150   6.793
 2361SOL     OW 7981   2.885   6.835   3.968
 2361SOL    HW1 7982   2.863   6.790   4.055
 2361SOL    HW2 7983   2.816   6.809   3.900
 2362SOL     OW 7984   4.751   6.359   5.251
 2362SOL    HW1 7985   4.688   6.302   5.303
 2362SOL    HW2 7986   4.716   6.371   5.158
 2363SOL     OW 7987   4.875   2.230   5.378
 2363SOL    HW1 7988   4.900   2.286   5.457
 2363SOL    HW2 7989   4.923   2.263   5.297
 2364SOL     OW 7990   5.246   1.759   1.928
 2364SOL    HW1 7991   5.234   1.853   1.962
 2364SOL    HW2 7992   5.284   1.761   1.836
 2365SOL     OW 7993   5.950   4.755   5.555
 2365SOL    HW1 7994   6.003   4.839   5.550
 2365SOL    HW2 7995   5.853   4.774   5.539
 2366SOL     OW 7996   1.034   3.736   5.918
 2366SOL    HW1 7997   0.937   3.722   5.937
 2366SOL    HW2 7998   1.061   3.828   5.948
 2367SOL     OW 7999   0.764   2.644   5.885
 2367SOL    HW1 8000   0.758   2.712   5.958
 2367SOL    HW2 8001   0.674   2.604   5.869
 2368SOL     OW 8002   4.451   1.323   5.307
 2368SOL    HW1 8003   4.504   1.265   5.244
 2368SOL    HW2 8004   4.388   1.265   5.360
 2369SOL     OW 8005   2.656   1.821   3.689
 2369SOL    HW1 8006   2.674   1.914   3.722
 2369SOL    HW2 8007   2.612   1.825   3.600
 2370SOL     OW 8008   4.563   2.735   0.680
 2370SOL    HW1 8009   4.564   2.787   0.595
 2370SOL    HW2 8010   4.490   2.769   0.739
 2371SOL     OW 8011   0.891   5.994   2.646
 2371SOL    HW1 8012   0.918   5.989   2.742
 2371SOL    HW2 8013   0.961   5.951   2.590
 2372SOL     OW 8014   6.897   0.763   6.777
 2372SOL    HW1 8015   6.837   0.747   6.855
 2372SOL    HW2 8016   6.892   0.685   6.714
 2373SOL     OW 8017   6.297   0.964   6.092
 2373SOL    HW1 8018   6.293   0.886   6.030
 2373SOL    HW2 8019   6.393   0.987   6.110
 2374SOL     OW 8020   5.985   5.646   2.961
 2374SOL    HW1 8021   5.893   5.683   2.976
 2374SOL    HW2 8022   6.046   5.679   3.033
 2375SOL     OW 8023   0.494   0.610   4.273
 2375SOL    HW1 8024   0.427   0.625   4.345
 2375SOL    HW2 8025   0.448   0.576   4.191
 2376SOL     OW 8026   6.128   2.665   3.430
 2376SOL    HW1 8027   6.106   2.569   3.447
 2376SOL    HW2 8028   6.223   2.683   3.454
 2377SOL     OW 8029   3.477   3.724   5.013
 2377SOL    HW1 8030   3.399   3.787   5.015
 2377SOL    HW2 8031   3.543   3.755   4.945
 2378SOL     OW 8032   5.763   1.978   0.294
 2378SOL    HW1 8033   5.838   1.914   0.278
 2378SOL    HW2 8034   5.763   2.048   0.223
 2379SOL     OW 8035   6.446   4.124   0.133
 2379SOL    HW1 8036   6.485   4.079   0.052
 2379SOL    HW2 8037   6.361   4.078   0.158
 2380SOL     OW 8038   6.115   1.334   5.243
 2380SOL    HW1 8039   6.138   1.415   5.297
 2380SOL    HW2 8040   6.065   1.362   5.161
 2381SOL     OW 8041   1.237   4.958   5.052
 2381SOL    HW1 8042   1.213   4.863   5.037
 2381SOL    HW2 8043   1.216   5.012   4.971
 2382SOL     OW 8044   2.234   5.870   2.606
 2382SOL    HW1 8045   2.267   5.794   2.550
 2382SOL    HW2 8046   2.303   5.943   2.605
 2383SOL     OW 8047   5.168   5.712   6.592
 2383SOL    HW1 8048   5.154   5.802   6.632
 2383SOL    HW2 8049   5.210   5.721   6.502
 2384SOL     OW 8050   1.219   2.629   0.953
 2384SOL    HW1 8051   1.297   2.649   0.894
 2384SOL    HW2 8052   1.251   2.585   1.038
 2385SOL     OW 8053   0.903   0.996   0.157
 2385SOL    HW1 8054   0.930   0.973   0.064
 2385SOL    HW2 8055   0.961   0.945   0.221
 2386SOL     OW 8056   3.621   5.108   4.451
 2386SOL    HW1 8057   3.628   5.090   4.353
 2386SOL    HW2 8058   3.560   5.042   4.494
 2387SOL     OW 8059   6.918   3.538   4.447
 2387SOL    HW1 8060   6.956   3.617   4.399
 2387SOL    HW2 8061   6.990   3.495   4.502
 2388SOL     OW 8062   0.567   1.456   5.787
 2388SOL    HW1 8063   0.666   1.469   5.787
 2388SOL    HW2 8064   0.531   1.477   5.878
 2389SOL     OW 8065   4.674   4.551   3.576
 2389SOL    HW1 8066   4.632   4.574   3.664
 2389SOL    HW2 8067   4.769   4.582   3.575
 2390SOL     OW 8068   3.676   3.841   4.867
 2390SOL    HW1 8069   3.760   3.802   4.830
 2390SOL    HW2 8070   3.672   3.938   4.843
 2391SOL     OW 8071   3.611   4.045   5.891
 2391SOL    HW1 8072   3.623   3.951   5.858
 2391SOL    HW2 8073   3.513   4.067   5.892
 2392SOL     OW 8074   2.767   4.077   6.439
 2392SOL    HW1 8075   2.706   4.111   6.368
 2392SOL    HW2 8076   2.747   3.980   6.456
 2393SOL     OW 8077   3.939   5.288   1.425
 2393SOL    HW1 8078   4.008   5.217   1.420
 2393SOL    HW2 8079   3.980   5.373   1.459
 2394SOL     OW 8080   0.419   3.730   4.125
 2394SOL    HW1 8081   0.414   3.731   4.225
 2394SOL    HW2 8082   0.369   3.808   4.089
 2395SOL     OW 8083   0.253   3.140   6.992
 2395SOL    HW1 8084   0.223   3.083   6.915
 2395SOL    HW2 8085   0.351   3.157   6.985
 2396SOL     OW 8086   5.857   6.394   0.557
 2396SOL    HW1 8087   5.786   6.432   0.497
 2396SOL    HW2 8088   5.823   6.390   0.651
 2397SOL     OW 8089   6.774   4.538   0.499
 2397SOL    HW1 8090   6.835   4.484   0.557
 2397SOL    HW2 8091   6.773   4.498   0.407
 2398SOL     OW 8092   2.900   4.963   4.865
 2398SOL    HW1 8093   2.995   4.956   4.894
 2398SOL    HW2 8094   2.872   4.878   4.819
 2399SOL     OW 8095   3.349   1.999   3.541
 2399SOL    HW1 8096   3.286   2.057   3.592
 2399SOL    HW2 8097   3.412   1.953   3.604
 2400SOL     OW 8098   2.240   4.001   0.001
 2400SOL    HW1 8099   2.187   4.086   0.000
 2400SOL    HW2 8100   2.221   3.950   0.085
 2401SOL     OW 8101   3.414   0.360   4.442
 2401SOL    HW1 8102   3.360   0.437   4.409
 2401SOL    HW2 8103   3.509   0.387   4.454
 2402SOL     OW 8104   6.828   1.446   3.802
 2402SOL    HW1 8105   6.906   1.500   3.834
 2402SOL    HW2 8106   6.744   1.499   3.814
 2403SOL     OW 8107   3.545   3.176   0.762
 2403SOL    HW1 8108   3.496   3.118   0.827
 2403SOL    HW2 8109   3.621   3.222   0.809
 2404SOL     OW 8110   5.891   1.815   1.698
 2404SOL    HW1 8111   5.929   1.906   1.710
 2404SOL    HW2 8112   5.791   1.821   1.690
 2405SOL     OW 8113   3.196   4.382   5.775
 2405SOL    HW1 8114   3.290   4.348   5.775
 2405SOL    HW2 8115   3.179   4.432   5.860
 2406SOL     OW 8116   2.546   6.621   4.331
 2406SOL    HW1 8117   2.594   6.668   4.405
 2406SOL    HW2 8118   2.452   6.654   4.326
 2407SOL     OW 8119   4.333   2.345   3.005
 2407SOL    HW1 8120   4.402   2.329   2.934
 2407SOL    HW2 8121   4.352   2.432   3.050
 2408SOL     OW 8122   2.598   4.543   3.126
 2408SOL    HW1 8123   2.511   4.494   3.136
 2408SOL    HW2 8124   2.641   4.517   3.039
 2409SOL     OW 8125   2.594   3.209   0.930
 2409SOL    HW1 8126   2.496   3.202   0.948
 2409SOL    HW2 8127   2.616   3.161   0.844
 2410SOL     OW 8128   6.052   3.399   5.877
 2410SOL    HW1 8129   6.116   3.471   5.850
 2410SOL    HW2 8130   6.081   3.312   5.836
 2411SOL     OW 8131   2.918   3.591   5.917
 2411SOL    HW1 8132   3.015   3.568   5.915
 2411SOL    HW2 8133   2.892   3.621   6.009
 2412SOL     OW 8134   3.208   2.869   0.715
 2412SOL    HW1 8135   3.181   2.824   0.800
 2412SOL    HW2 8136   3.127   2.885   0.658
 2413SOL     OW 8137   5.770   3.596   6.273
 2413SOL    HW1 8138   5.740   3.598   6.177
 2413SOL    HW2 8139   5.738   3.679   6.319
 2414SOL     OW 8140   5.709   3.629   3.586
 2414SOL    HW1 8141   5.674   3.590   3.671
 2414SOL    HW2 8142   5.769   3.563   3.540
 2415SOL     OW 8143   1.751   7.012   1.338
 2415SOL    HW1 8144   1.833   6.959   1.316
 2415SOL    HW2 8145   1.726   6.996   1.434
 2416SOL     OW 8146   1.508   2.399   4.293
 2416SOL    HW1 8147   1.561   2.398   4.208
 2416SOL    HW2 8148   1.548   2.466   4.356
 2417SOL     OW 8149   5.081   2.379   0.357
 2417SOL    HW1 8150   5.040   2.426   0.435
 2417SOL    HW2 8151   5.032   2.292   0.341
 2418SOL     OW 8152   3.319   3.494   4.728
 2418SOL    HW1 8153   3.274   3.458   4.810
 2418SOL    HW2 8154   3.307   3.593   4.726
 2419SOL     OW 8155   1.747   0.103   4.320
 2419SOL    HW1 8156   1.788   0.028   4.370
 2419SOL    HW2 8157   1.711   0.070   4.232
 2420SOL     OW 8158   3.813   5.677   1.629
 2420SOL    HW1 8159   3.778   5.745   1.694
 2420SOL    HW2 8160   3.852   5.724   1.550
 2421SOL     OW 8161   3.779   6.577   3.772
 2421SOL    HW1 8162   3.685   6.608   3.785
 2421SOL    HW2 8163   3.838   6.620   3.841
 2422SOL     OW 8164   4.384   6.959   0.957
 2422SOL    HW1 8165   4.324   6.999   0.887
 2422SOL    HW2 8166   4.430   0.007   1.007
 2423SOL     OW 8167   1.677   5.334   1.347
 2423SOL    HW1 8168   1.664   5.426   1.383
 2423SOL    HW2 8169   1.737   5.282   1.409
 2424SOL     OW 8170   5.284   6.454   6.472
 2424SOL    HW1 8171   5.271   6.551   6.495
 2424SOL    HW2 8172   5.382   6.433   6.476
 2425SOL     OW 8173   5.715   6.792   5.659
 2425SOL    HW1 8174   5.664   6.843   5.728
 2425SOL    HW2 8175   5.737   6.851   5.582
 2426SOL     OW 8176   1.198   5.664   3.962
 2426SOL    HW1 8177   1.220   5.566   3.964
 2426SOL    HW2 8178   1.099   5.676   3.971
 2427SOL     OW 8179   4.817   5.941   0.448
 2427SOL    HW1 8180   4.786   6.036   0.453
 2427SOL    HW2 8181   4.781   5.899   0.365
 2428SOL     OW 8182   0.606   0.279   3.180
 2428SOL    HW1 8183   0.633   0.220   3.104
 2428SOL    HW2 8184   0.664   0.261   3.259
 2429SOL     OW 8185   5.749   4.659   3.104
 2429SOL    HW1 8186   5.676   4.720   3.075
 2429SOL    HW2 8187   5.731   4.627   3.198
 2430SOL     OW 8188   5.529   2.905   0.314
 2430SOL    HW1 8189   5.434   2.910   0.344
 2430SOL    HW2 8190   5.562   2.997   0.292
 2431SOL     OW 8191   4.907   0.931   0.826
 2431SOL    HW1 8192   4.897   0.939   0.925
 2431SOL    HW2 8193   4.823   0.893   0.787
 2432SOL     OW 8194   2.814   6.505   1.883
 2432SOL    HW1 8195   2.719   6.475   1.874
 2432SOL    HW2 8196   2.832   6.579   1.818
 2433SOL     OW 8197   1.564   0.057   0.224
 2433SOL    HW1 8198   1.473   0.063   0.265
 2433SOL    HW2 8199   1.625   0.124   0.266
 2434SOL     OW 8200   5.862   2.057   3.131
 2434SOL    HW1 8201   5.927   2.080   3.059
 2434SOL    HW2 8202   5.857   1.958   3.142
 2435SOL     OW 8203   5.342   5.174   0.133
 2435SOL    HW1 8204   5.430   5.207   0.166
 2435SOL    HW2 8205   5.289   5.250   0.096
 2436SOL     OW 8206   1.638   0.388   1.182
 2436SOL    HW1 8207   1.711   0.325   1.210
 2436SOL    HW2 8208   1.670   0.445   1.106
 2437SOL     OW 8209   5.141   6.610   1.263
 2437SOL    HW1 8210   5.135   6.597   1.164
 2437SOL    HW2 8211   5.173   6.526   1.307
 2438SOL     OW 8212   3.855   1.244   4.450
 2438SOL    HW1 8213   3.846   1.297   4.366
 2438SOL    HW2 8214   3.907   1.160   4.431
 2439SOL     OW 8215   0.981   4.670   0.669
 2439SOL    HW1 8216   0.938   4.587   0.704
 2439SOL    HW2 8217   0.969   4.744   0.735
 2440SOL     OW 8218   4.050   7.004   6.252
 2440SOL    HW1 8219   4.078   0.015   6.163
 2440SOL    HW2 8220   3.978   6.936   6.239
 2441SOL     OW 8221   6.043   1.529   0.063
 2441SOL    HW1 8222   6.112   1.498   7.022
 2441SOL    HW2 8223   6.046   1.471   0.144
 2442SOL     OW 8224   5.368   5.025   2.709
 2442SOL    HW1 8225   5.434   4.952   2.725
 2442SOL    HW2 8226   5.395   5.078   2.629
 2443SOL     OW 8227   3.142   0.070   6.775
 2443SOL    HW1 8228   3.194   7.013   6.750
 2443SOL    HW2 8229   3.165   0.097   6.868
 2444SOL     OW 8230   4.015   3.735   0.515
 2444SOL    HW1 8231   4.041   3.728   0.611
 2444SOL    HW2 8232   4.027   3.829   0.483
 2445SOL     OW 8233   6.016   1.696   1.962
 2445SOL    HW1 8234   6.017   1.608   2.011
 2445SOL    HW2 8235   5.926   1.709   1.919
 2446SOL     OW 8236   1.350   2.595   4.541
 2446SOL    HW1 8237   1.355   2.628   4.635
 2446SOL    HW2 8238   1.339   2.495   4.541
 2447SOL     OW 8239   2.410   0.509   0.902
 2447SOL    HW1 8240   2.326   0.501   0.848
 2447SOL    HW2 8241   2.489   0.505   0.842
 2448SOL     OW 8242   6.098   0.783   3.920
 2448SOL    HW1 8243   6.034   0.800   3.995
 2448SOL    HW2 8244   6.073   0.698   3.874
 2449SOL     OW 8245   1.214   3.654   1.724
 2449SOL    HW1 8246   1.293   3.593   1.716
 2449SOL    HW2 8247   1.210   3.691   1.817
 2450SOL     OW 8248   3.252   4.335   6.273
 2450SOL    HW1 8249   3.268   4.257   6.213
 2450SOL    HW2 8250   3.199   4.404   6.224
 2451SOL     OW 8251   1.200   0.168   3.749
 2451SOL    HW1 8252   1.250   0.119   3.678
 2451SOL    HW2 8253   1.190   0.264   3.722
 2452SOL     OW 8254   2.930   2.150   4.153
 2452SOL    HW1 8255   2.930   2.186   4.247
 2452SOL    HW2 8256   2.937   2.051   4.155
 2453SOL     OW 8257   0.717   3.352   0.547
 2453SOL    HW1 8258   0.747   3.446   0.532
 2453SOL    HW2 8259   0.786   3.303   0.599
 2454SOL     OW 8260   2.900   6.985   6.823
 2454SOL    HW1 8261   2.838   0.016   6.878
 2454SOL    HW2 8262   2.981   0.015   6.800
 2455SOL     OW 8263   3.736   0.747   0.411
 2455SOL    HW1 8264   3.699   0.828   0.457
 2455SOL    HW2 8265   3.823   0.721   0.452
 2456SOL     OW 8266   6.917   2.481   6.949
 2456SOL    HW1 8267   6.898   2.460   0.020
 2456SOL    HW2 8268   6.948   2.398   6.902
 2457SOL     OW 8269   6.739   0.671   6.250
 2457SOL    HW1 8270   6.829   0.707   6.225
 2457SOL    HW2 8271   6.750   0.591   6.310
 2458SOL     OW 8272   1.735   6.668   3.552
 2458SOL    HW1 8273   1.732   6.573   3.585
 2458SOL    HW2 8274   1.830   6.700   3.553
 2459SOL     OW 8275   2.903   6.641   5.421
 2459SOL    HW1 8276   2.891   6.566   5.356
 2459SOL    HW2 8277   2.997   6.639   5.457
 2460SOL     OW 8278   1.285   1.183   0.810
 2460SOL    HW1 8279   1.236   1.209   0.727
 2460SOL    HW2 8280   1.382   1.204   0.800
 2461SOL     OW 8281   5.120   0.558   4.033
 2461SOL    HW1 8282   5.136   0.475   4.086
 2461SOL    HW2 8283   5.073   0.625   4.090
 2462SOL     OW 8284   2.172   5.268   6.972
 2462SOL    HW1 8285   2.205   5.180   7.007
 2462SOL    HW2 8286   2.183   5.338   0.018
 2463SOL     OW 8287   6.040   2.337   6.295
 2463SOL    HW1 8288   5.977   2.263   6.318
 2463SOL    HW2 8289   6.112   2.343   6.365
 2464SOL     OW 8290   2.034   3.931   2.869
 2464SOL    HW1 8291   2.049   3.981   2.955
 2464SOL    HW2 8292   2.055   3.835   2.883
 2465SOL     OW 8293   1.157   6.298   6.808
 2465SOL    HW1 8294   1.117   6.284   6.899
 2465SOL    HW2 8295   1.233   6.235   6.795
 2466SOL     OW 8296   2.233   2.124   2.707
 2466SOL    HW1 8297   2.332   2.131   2.716
 2466SOL    HW2 8298   2.192   2.101   2.795
 2467SOL     OW 8299   5.127   1.988   4.687
 2467SOL    HW1 8300   5.087   1.972   4.778
 2467SOL    HW2 8301   5.226   1.995   4.695
 2468SOL     OW 8302   4.151   0.111   0.838
 2468SOL    HW1 8303   4.085   0.093   0.911
 2468SOL    HW2 8304   4.186   0.204   0.847
 2469SOL     OW 8305   4.065   3.725   4.810
 2469SOL    HW1 8306   4.080   3.628   4.828
 2469SOL    HW2 8307   4.067   3.775   4.897
 2470SOL     OW 8308   4.291   4.305   6.000
 2470SOL    HW1 8309   4.386   4.334   6.012
 2470SOL    HW2 8310   4.280   4.212   6.037
 2471SOL     OW 8311   3.315   6.041   0.118
 2471SOL    HW1 8312   3.289   5.967   0.180
 2471SOL    HW2 8313   3.387   6.096   0.160
 2472SOL     OW 8314   4.510   2.010   3.460
 2472SOL    HW1 8315   4.609   2.021   3.468
 2472SOL    HW2 8316   4.488   1.912   3.454
 2473SOL     OW 8317   1.440   3.765   4.790
 2473SOL    HW1 8318   1.457   3.715   4.875
 2473SOL    HW2 8319   1.411   3.858   4.812
 2474SOL     OW 8320   0.260   6.036   1.544
 2474SOL    HW1 8321   0.300   5.946   1.528
 2474SOL    HW2 8322   0.324   6.093   1.595
 2475SOL     OW 8323   3.983   0.346   2.527
 2475SOL    HW1 8324   3.967   0.423   2.588
 2475SOL    HW2 8325   3.895   0.309   2.495
 2476SOL     OW 8326   6.421   1.542   2.747
 2476SOL    HW1 8327   6.445   1.553   2.844
 2476SOL    HW2 8328   6.505   1.531   2.693
 2477SOL     OW 8329   3.946   1.225   2.545
 2477SOL    HW1 8330   3.865   1.203   2.491
 2477SOL    HW2 8331   3.972   1.320   2.528
 2478SOL     OW 8332   5.844   1.443   1.627
 2478SOL    HW1 8333   5.767   1.415   1.684
 2478SOL    HW2 8334   5.927   1.399   1.659
 2479SOL     OW 8335   0.614   3.004   1.910
 2479SOL    HW1 8336   0.612   2.975   2.005
 2479SOL    HW2 8337   0.700   2.976   1.868
 2480SOL     OW 8338   4.973   3.946   0.420
 2480SOL    HW1 8339   4.967   3.909   0.513
 2480SOL    HW2 8340   4.973   3.870   0.354
 2481SOL     OW 8341   3.655   6.544   0.050
 2481SOL    HW1 8342   3.754   6.555   0.058
 2481SOL    HW2 8343   3.635   6.465   7.016
 2482SOL     OW 8344   5.572   3.755   5.706
 2482SOL    HW1 8345   5.547   3.751   5.803
 2482SOL    HW2 8346   5.521   3.829   5.661
 2483SOL     OW 8347   1.756   1.201   0.353
 2483SOL    HW1 8348   1.677   1.236   0.405
 2483SOL    HW2 8349   1.814   1.146   0.413
 2484SOL     OW 8350   3.407   0.829   6.839
 2484SOL    HW1 8351   3.383   0.910   6.892
 2484SOL    HW2 8352   3.407   0.748   6.898
 2485SOL     OW 8353   6.404   3.511   1.396
 2485SOL    HW1 8354   6.486   3.481   1.444
 2485SOL    HW2 8355   6.366   3.592   1.441
 2486SOL     OW 8356   2.321   4.701   4.329
 2486SOL    HW1 8357   2.303   4.687   4.232
 2486SOL    HW2 8358   2.278   4.787   4.358
 2487SOL     OW 8359   3.846   6.085   0.404
 2487SOL    HW1 8360   3.761   6.109   0.451
 2487SOL    HW2 8361   3.838   5.993   0.366
 2488SOL     OW 8362   1.775   4.285   2.522
 2488SOL    HW1 8363   1.678   4.308   2.516
 2488SOL    HW2 8364   1.806   4.298   2.615
 2489SOL     OW 8365   1.420   6.483   3.244
 2489SOL    HW1 8366   1.492   6.454   3.307
 2489SOL    HW2 8367   1.456   6.550   3.180
 2490SOL     OW 8368   6.977   4.803   1.292
 2490SOL    HW1 8369   0.046   4.830   1.269
 2490SOL    HW2 8370   6.916   4.826   1.216
 2491SOL     OW 8371   2.082   4.941   0.455
 2491SOL    HW1 8372   2.054   5.019   0.511
 2491SOL    HW2 8373   2.167   4.963   0.408
 2492SOL     OW 8374   4.753   3.022   0.996
 2492SOL    HW1 8375   4.757   3.043   0.898
 2492SOL    HW2 8376   4.759   2.923   1.009
 2493SOL     OW 8377   5.680   0.633   2.006
 2493SOL    HW1 8378   5.765   0.584   2.028
 2493SOL    HW2 8379   5.631   0.655   2.090
 2494SOL     OW 8380   5.054   4.390   2.680
 2494SOL    HW1 8381   4.976   4.442   2.716
 2494SOL    HW2 8382   5.108   4.354   2.756
 2495SOL     OW 8383   5.287   6.869   4.802
 2495SOL    HW1 8384   5.229   6.892   4.725
 2495SOL    HW2 8385   5.340   6.787   4.782
 2496SOL     OW 8386   6.757   3.240   5.938
 2496SOL    HW1 8387   6.662   3.269   5.926
 2496SOL    HW2 8388   6.805   3.306   5.995
 2497SOL     OW 8389   0.125   0.268   0.694
 2497SOL    HW1 8390   0.110   0.367   0.700
 2497SOL    HW2 8391   0.104   0.226   0.783
 2498SOL     OW 8392   2.854   1.521   4.309
 2498SOL    HW1 8393   2.949   1.506   4.333
 2498SOL    HW2 8394   2.828   1.458   4.236
 2499SOL     OW 8395   6.180   2.543   1.854
 2499SOL    HW1 8396   6.153   2.496   1.938
 2499SOL    HW2 8397   6.158   2.486   1.775
 2500SOL     OW 8398   4.431   3.278   6.589
 2500SOL    HW1 8399   4.400   3.367   6.624
 2500SOL    HW2 8400   4.493   3.236   6.655
 2501SOL     OW 8401   6.077   5.089   0.971
 2501SOL    HW1 8402   5.981   5.085   1.000
 2501SOL    HW2 8403   6.084   5.060   0.876
 2502SOL     OW 8404   1.226   6.577   3.003
 2502SOL    HW1 8405   1.309   6.621   3.036
 2502SOL    HW2 8406   1.244   6.480   2.985
 2503SOL     OW 8407   2.512   5.909   4.132
 2503SOL    HW1 8408   2.586   5.914   4.200
 2503SOL    HW2 8409   2.526   5.979   4.062
 2504SOL     OW 8410   3.578   5.421   4.496
 2504SOL    HW1 8411   3.655   5.476   4.464
 2504SOL    HW2 8412   3.587   5.328   4.462
 2505SOL     OW 8413   0.992   6.408   2.819
 2505SOL    HW1 8414   1.034   6.498   2.814
 2505SOL    HW2 8415   1.061   6.341   2.846
 2506SOL     OW 8416   6.083   4.249   5.294
 2506SOL    HW1 8417   6.142   4.170   5.313
 2506SOL    HW2 8418   6.047   4.285   5.379
 2507SOL     OW 8419   0.840   4.324   0.371
 2507SOL    HW1 8420   0.800   4.355   0.457
 2507SOL    HW2 8421   0.927   4.371   0.356
 2508SOL     OW 8422   2.095   1.396   3.079
 2508SOL    HW1 8423   2.091   1.485   3.033
 2508SOL    HW2 8424   2.047   1.328   3.025
 2509SOL     OW 8425   6.955   2.769   1.256
 2509SOL    HW1 8426   0.009   2.772   1.193
 2509SOL    HW2 8427   6.984   2.730   1.343
 2510SOL     OW 8428   2.548   4.254   1.650
 2510SOL    HW1 8429   2.637   4.300   1.653
 2510SOL    HW2 8430   2.500   4.280   1.566
 2511SOL     OW 8431   3.730   2.128   4.668
 2511SOL    HW1 8432   3.686   2.164   4.586
 2511SOL    HW2 8433   3.815   2.179   4.685
 2512SOL     OW 8434   5.947   4.338   5.494
 2512SOL    HW1 8435   5.952   4.383   5.583
 2512SOL    HW2 8436   5.852   4.316   5.473
 2513SOL     OW 8437   1.374   4.437   5.126
 2513SOL    HW1 8438   1.435   4.472   5.198
 2513SOL    HW2 8439   1.366   4.338   5.133
 2514SOL     OW 8440   6.361   3.039   4.703
 2514SOL    HW1 8441   6.346   3.130   4.665
 2514SOL    HW2 8442   6.395   3.047   4.797
 2515SOL     OW 8443   2.072   6.804   0.566
 2515SOL    HW1 8444   2.168   6.829   0.559
 2515SOL    HW2 8445   2.059   6.712   0.528
 2516SOL     OW 8446   5.986   1.176   2.922
 2516SOL    HW1 8447   6.024   1.154   2.832
 2516SOL    HW2 8448   5.981   1.275   2.933
 2517SOL     OW 8449   1.191   5.894   5.699
 2517SOL    HW1 8450   1.214   5.851   5.612
 2517SOL    HW2 8451   1.093   5.914   5.702
 2518SOL     OW 8452   1.140   4.672   0.111
 2518SOL    HW1 8453   1.147   4.578   0.078
 2518SOL    HW2 8454   1.215   4.691   0.174
 2519SOL     OW 8455   4.381   6.655   3.015
 2519SOL    HW1 8456   4.340   6.670   3.105
 2519SOL    HW2 8457   4.462   6.714   3.006
 2520SOL     OW 8458   2.628   1.934   0.870
 2520SOL    HW1 8459   2.595   1.840   0.878
 2520SOL    HW2 8460   2.716   1.934   0.822
 2521SOL     OW 8461   1.748   0.709   4.974
 2521SOL    HW1 8462   1.658   0.745   4.999
 2521SOL    HW2 8463   1.790   0.667   5.055
 2522SOL     OW 8464   0.445   3.995   4.942
 2522SOL    HW1 8465   0.480   4.067   5.001
 2522SOL    HW2 8466   0.510   3.919   4.940
 2523SOL     OW 8467   0.117   3.048   1.531
 2523SOL    HW1 8468   0.195   3.105   1.555
 2523SOL    HW2 8469   0.113   3.037   1.431
 2524SOL     OW 8470   1.149   6.289   5.006
 2524SOL    HW1 8471   1.091   6.343   4.945
 2524SOL    HW2 8472   1.125   6.308   5.101
 2525SOL     OW 8473   1.271   2.210   5.585
 2525SOL    HW1 8474   1.190   2.195   5.529
 2525SOL    HW2 8475   1.353   2.198   5.529
 2526SOL     OW 8476   1.667   4.072   5.637
 2526SOL    HW1 8477   1.737   4.096   5.570
 2526SOL    HW2 8478   1.635   3.979   5.619
 2527SOL     OW 8479   5.081   6.072   5.180
 2527SOL    HW1 8480   5.146   6.138   5.144
 2527SOL    HW2 8481   5.021   6.041   5.106
 2528SOL     OW 8482   5.650   4.791   0.711
 2528SOL    HW1 8483   5.709   4.838   0.777
 2528SOL    HW2 8484   5.691   4.797   0.620
 2529SOL     OW 8485   6.544   6.869   6.218
 2529SOL    HW1 8486   6.519   6.836   6.309
 2529SOL    HW2 8487   6.467   6.917   6.177
 2530SOL     OW 8488   2.421   6.968   5.548
 2530SOL    HW1 8489   2.437   0.006   5.625
 2530SOL    HW2 8490   2.324   6.968   5.525
 2531SOL     OW 8491   5.012   6.104   4.393
 2531SOL    HW1 8492   5.101   6.068   4.363
 2531SOL    HW2 8493   4.940   6.041   4.363
 2532SOL     OW 8494   0.361   6.746   1.116
 2532SOL    HW1 8495   0.321   6.703   1.035
 2532SOL    HW2 8496   0.293   6.803   1.161
 2533SOL     OW 8497   3.277   6.473   3.628
 2533SOL    HW1 8498   3.361   6.509   3.587
 2533SOL    HW2 8499   3.205   6.469   3.559
 2534SOL     OW 8500   3.447   0.577   3.111
 2534SOL    HW1 8501   3.373   0.510   3.098
 2534SOL    HW2 8502   3.520   0.559   3.044
 2535SOL     OW 8503   3.847   2.039   5.093
 2535SOL    HW1 8504   3.764   2.066   5.045
 2535SOL    HW2 8505   3.870   1.945   5.071
 2536SOL     OW 8506   1.025   2.158   4.774
 2536SOL    HW1 8507   1.003   2.064   4.748
 2536SOL    HW2 8508   0.959   2.190   4.842
 2537SOL     OW 8509   3.808   0.476   6.701
 2537SOL    HW1 8510   3.827   0.391   6.652
 2537SOL    HW2 8511   3.839   0.553   6.647
 2538SOL     OW 8512   1.520   4.840   4.784
 2538SOL    HW1 8513   1.574   4.787   4.718
 2538SOL    HW2 8514   1.546   4.936   4.778
 2539SOL     OW 8515   5.208   1.467   5.708
 2539SOL    HW1 8516   5.253   1.432   5.626
 2539SOL    HW2 8517   5.190   1.565   5.698
 2540SOL     OW 8518   4.054   1.241   2.802
 2540SOL    HW1 8519   4.047   1.154   2.853
 2540SOL    HW2 8520   4.013   1.230   2.712
 2541SOL     OW 8521   2.517   0.087   5.252
 2541SOL    HW1 8522   2.463   0.061   5.333
 2541SOL    HW2 8523   2.559   0.176   5.268
 2542SOL     OW 8524   4.298   1.632   6.258
 2542SOL    HW1 8525   4.322   1.720   6.298
 2542SOL    HW2 8526   4.199   1.619   6.262
 2543SOL     OW 8527   1.091   1.186   3.125
 2543SOL    HW1 8528   1.161   1.241   3.171
 2543SOL    HW2 8529   1.007   1.239   3.117
 2544SOL     OW 8530   0.377   5.867   1.152
 2544SOL    HW1 8531   0.387   5.791   1.216
 2544SOL    HW2 8532   0.309   5.844   1.083
 2545SOL     OW 8533   1.640   0.826   1.227
 2545SOL    HW1 8534   1.593   0.875   1.154
 2545SOL    HW2 8535   1.730   0.796   1.194
 2546SOL     OW 8536   0.366   1.592   1.415
 2546SOL    HW1 8537   0.343   1.689   1.423
 2546SOL    HW2 8538   0.354   1.548   1.504
 2547SOL     OW 8539   6.060   4.867   0.318
 2547SOL    HW1 8540   6.106   4.900   0.401
 2547SOL    HW2 8541   6.098   4.914   0.239
 2548SOL     OW 8542   2.423   6.799   6.128
 2548SOL    HW1 8543   2.470   6.780   6.041
 2548SOL    HW2 8544   2.356   6.872   6.114
 2549SOL     OW 8545   2.180   1.154   0.960
 2549SOL    HW1 8546   2.209   1.167   1.055
 2549SOL    HW2 8547   2.252   1.106   0.910
 2550SOL     OW 8548   0.023   0.096   6.062
 2550SOL    HW1 8549   0.006   0.193   6.044
 2550SOL    HW2 8550   0.072   0.056   5.985
 2551SOL     OW 8551   3.545   4.891   0.685
 2551SOL    HW1 8552   3.612   4.921   0.753
 2551SOL    HW2 8553   3.525   4.794   0.699
 2552SOL     OW 8554   2.339   6.311   5.407
 2552SOL    HW1 8555   2.401   6.232   5.404
 2552SOL    HW2 8556   2.267   6.300   5.338
 2553SOL     OW 8557   4.603   3.006   5.789
 2553SOL    HW1 8558   4.626   3.057   5.707
 2553SOL    HW2 8559   4.684   2.999   5.849
 2554SOL     OW 8560   2.197   6.397   0.862
 2554SOL    HW1 8561   2.119   6.386   0.800
 2554SOL    HW2 8562   2.241   6.309   0.877
 2555SOL     OW 8563   6.025   0.049   6.292
 2555SOL    HW1 8564   6.093   0.122   6.285
 2555SOL    HW2 8565   6.053   6.997   6.233
 2556SOL     OW 8566   4.400   5.713   0.650
 2556SOL    HW1 8567   4.495   5.724   0.681
 2556SOL    HW2 8568   4.370   5.797   0.606
 2557SOL     OW 8569   2.563   3.477   6.392
 2557SOL    HW1 8570   2.559   3.563   6.341
 2557SOL    HW2 8571   2.590   3.494   6.486
 2558SOL     OW 8572   5.135   1.996   5.523
 2558SOL    HW1 8573   5.153   2.061   5.450
 2558SOL    HW2 8574   5.086   2.041   5.598
 2559SOL     OW 8575   6.755   3.694   3.995
 2559SOL    HW1 8576   6.715   3.724   4.081
 2559SOL    HW2 8577   6.755   3.770   3.930
 2560SOL     OW 8578   6.174   3.144   4.328
 2560SOL    HW1 8579   6.222   3.092   4.258
 2560SOL    HW2 8580   6.093   3.189   4.288
 2561SOL     OW 8581   3.131   6.296   4.577
 2561SOL    HW1 8582   3.078   6.380   4.567
 2561SOL    HW2 8583   3.076   6.227   4.624
 2562SOL     OW 8584   1.106   5.404   1.894
 2562SOL    HW1 8585   1.124   5.399   1.992
 2562SOL    HW2 8586   1.079   5.314   1.860
 2563SOL     OW 8587   4.206   1.995   0.891
 2563SOL    HW1 8588   4.215   1.941   0.975
 2563SOL    HW2 8589   4.143   1.949   0.828
 2564SOL     OW 8590   2.049   6.266   5.806
 2564SOL    HW1 8591   2.146   6.245   5.796
 2564SOL    HW2 8592   2.024   6.340   5.745
 2565SOL     OW 8593   0.252   0.084   6.869
 2565SOL    HW1 8594   0.163   0.118   6.839
 2565SOL    HW2 8595   0.315   0.083   6.792
 2566SOL     OW 8596   2.079   0.074   0.583
 2566SOL    HW1 8597   2.110   7.004   0.575
 2566SOL    HW2 8598   2.118   0.128   0.508
 2567SOL     OW 8599   0.795   1.100   1.122
 2567SOL    HW1 8600   0.755   1.023   1.073
 2567SOL    HW2 8601   0.867   1.141   1.066
 2568SOL     OW 8602   3.700   0.404   0.371
 2568SOL    HW1 8603   3.697   0.462   0.290
 2568SOL    HW2 8604   3.610   0.362   0.385
 2569SOL     OW 8605   3.240   1.425   1.891
 2569SOL    HW1 8606   3.177   1.350   1.875
 2569SOL    HW2 8607   3.306   1.430   1.816
 2570SOL     OW 8608   5.464   0.303   5.964
 2570SOL    HW1 8609   5.558   0.291   5.995
 2570SOL    HW2 8610   5.448   0.250   5.881
 2571SOL     OW 8611   2.347   4.571   5.091
 2571SOL    HW1 8612   2.378   4.487   5.134
 2571SOL    HW2 8613   2.427   4.622   5.057
 2572SOL     OW 8614   2.245   5.653   6.981
 2572SOL    HW1 8615   2.282   5.727   6.925
 2572SOL    HW2 8616   2.147   5.667   6.996
 2573SOL     OW 8617   6.478   2.279   1.760
 2573SOL    HW1 8618   6.558   2.220   1.756
 2573SOL    HW2 8619   6.506   2.372   1.781
 2574SOL     OW 8620   5.942   3.652   7.003
 2574SOL    HW1 8621   5.988   3.655   0.067
 2574SOL    HW2 8622   5.883   3.732   6.993
 2575SOL     OW 8623   5.573   5.144   0.557
 2575SOL    HW1 8624   5.544   5.069   0.498
 2575SOL    HW2 8625   5.508   5.220   0.549
 2576SOL     OW 8626   3.700   6.793   4.165
 2576SOL    HW1 8627   3.611   6.807   4.209
 2576SOL    HW2 8628   3.752   6.878   4.167
 2577SOL     OW 8629   3.442   0.161   1.771
 2577SOL    HW1 8630   3.432   0.252   1.729
 2577SOL    HW2 8631   3.362   0.142   1.828
 2578SOL     OW 8632   4.778   1.411   3.768
 2578SOL    HW1 8633   4.827   1.351   3.706
 2578SOL    HW2 8634   4.689   1.434   3.729
 2579SOL     OW 8635   1.154   6.217   2.504
 2579SOL    HW1 8636   1.067   6.224   2.456
 2579SOL    HW2 8637   1.137   6.208   2.602
 2580SOL     OW 8638   2.332   3.007   6.510
 2580SOL    HW1 8639   2.369   2.936   6.570
 2580SOL    HW2 8640   2.407   3.063   6.474
 2581SOL     OW 8641   0.669   4.986   1.066
 2581SOL    HW1 8642   0.700   5.028   0.981
 2581SOL    HW2 8643   0.698   5.042   1.143
 2582SOL     OW 8644   0.638   4.869   2.469
 2582SOL    HW1 8645   0.592   4.814   2.538
 2582SOL    HW2 8646   0.615   4.834   2.378
 2583SOL     OW 8647   0.897   1.090   0.617
 2583SOL    HW1 8648   0.825   1.070   0.683
 2583SOL    HW2 8649   0.959   1.160   0.655
 2584SOL     OW 8650   4.126   5.896   6.994
 2584SOL    HW1 8651   4.117   5.934   6.902
 2584SOL    HW2 8652   4.222   5.893   7.020
 2585SOL     OW 8653   4.930   2.522   0.559
 2585SOL    HW1 8654   4.987   2.536   0.640
 2585SOL    HW2 8655   4.846   2.475   0.585
 2586SOL     OW 8656   3.476   1.138   3.444
 2586SOL    HW1 8657   3.538   1.062   3.426
 2586SOL    HW2 8658   3.465   1.192   3.361
 2587SOL     OW 8659   0.642   0.592   3.695
 2587SOL    HW1 8660   0.614   0.528   3.624
 2587SOL    HW2 8661   0.592   0.678   3.684
 2588SOL     OW 8662   4.136   0.605   6.846
 2588SOL    HW1 8663   4.203   0.675   6.824
 2588SOL    HW2 8664   4.128   0.540   6.770
 2589SOL     OW 8665   0.660   5.663   6.461
 2589SOL    HW1 8666   0.718   5.643   6.382
 2589SOL    HW2 8667   0.669   5.760   6.485
 2590SOL     OW 8668   3.468   5.897   0.738
 2590SOL    HW1 8669   3.409   5.931   0.665
 2590SOL    HW2 8670   3.563   5.920   0.717
 2591SOL     OW 8671   6.767   5.208   2.791
 2591SOL    HW1 8672   6.835   5.260   2.738
 2591SOL    HW2 8673   6.725   5.269   2.859
 2592SOL     OW 8674   3.590   5.048   0.462
 2592SOL    HW1 8675   3.565   5.004   0.548
 2592SOL    HW2 8676   3.640   5.133   0.481
 2593SOL     OW 8677   3.342   5.212   0.509
 2593SOL    HW1 8678   3.441   5.222   0.500
 2593SOL    HW2 8679   3.296   5.289   0.464
 2594SOL     OW 8680   1.498   4.943   6.299
 2594SOL    HW1 8681   1.574   4.882   6.322
 2594SOL    HW2 8682   1.511   4.979   6.206
 2595SOL     OW 8683   6.299   0.989   4.093
 2595SOL    HW1 8684   6.268   1.069   4.144
 2595SOL    HW2 8685   6.250   0.984   4.006
 2596SOL     OW 8686   3.041   1.768   1.697
 2596SOL    HW1 8687   2.997   1.680   1.680
 2596SOL    HW2 8688   3.024   1.830   1.621
 2597SOL     OW 8689   1.644   5.257   5.241
 2597SOL    HW1 8690   1.680   5.175   5.287
 2597SOL    HW2 8691   1.545   5.248   5.230
 2598SOL     OW 8692   0.193   1.324   3.026
 2598SOL    HW1 8693   0.192   1.252   3.096
 2598SOL    HW2 8694   0.217   1.411   3.069
 2599SOL     OW 8695   1.783   6.303   1.227
 2599SOL    HW1 8696   1.756   6.383   1.280
 2599SOL    HW2 8697   1.741   6.221   1.266
 2600SOL     OW 8698   5.154   3.044   4.773
 2600SOL    HW1 8699   5.057   3.063   4.789
 2600SOL    HW2 8700   5.186   2.975   4.838
 2601SOL     OW 8701   2.218   1.333   1.849
 2601SOL    HW1 8702   2.197   1.414   1.905
 2601SOL    HW2 8703   2.301   1.350   1.796
 2602SOL     OW 8704   1.603   4.324   4.578
 2602SOL    HW1 8705   1.547   4.253   4.536
 2602SOL    HW2 8706   1.611   4.402   4.516
 2603SOL     OW 8707   2.414   1.005   3.951
 2603SOL    HW1 8708   2.421   1.046   4.042
 2603SOL    HW2 8709   2.495   0.948   3.934
 2604SOL     OW 8710   4.496   1.725   2.611
 2604SOL    HW1 8711   4.451   1.804   2.653
 2604SOL    HW2 8712   4.428   1.654   2.592
 2605SOL     OW 8713   2.090   2.815   3.476
 2605SOL    HW1 8714   1.993   2.833   3.490
 2605SOL    HW2 8715   2.135   2.801   3.564
 2606SOL     OW 8716   5.502   4.584   1.912
 2606SOL    HW1 8717   5.520   4.675   1.951
 2606SOL    HW2 8718   5.413   4.551   1.945
 2607SOL     OW 8719   1.416   1.773   1.372
 2607SOL    HW1 8720   1.479   1.699   1.396
 2607SOL    HW2 8721   1.416   1.842   1.445
 2608SOL     OW 8722   4.814   5.220   1.100
 2608SOL    HW1 8723   4.865   5.224   1.186
 2608SOL    HW2 8724   4.813   5.126   1.066
 2609SOL     OW 8725   6.067   1.176   1.225
 2609SOL    HW1 8726   6.113   1.258   1.190
 2609SOL    HW2 8727   5.973   1.174   1.192
 2610SOL     OW 8728   1.316   4.654   4.727
 2610SOL    HW1 8729   1.388   4.720   4.749
 2610SOL    HW2 8730   1.255   4.693   4.659
 2611SOL     OW 8731   4.389   0.122   0.700
 2611SOL    HW1 8732   4.431   0.184   0.766
 2611SOL    HW2 8733   4.292   0.111   0.722
 2612SOL     OW 8734   6.500   0.174   5.638
 2612SOL    HW1 8735   6.528   0.266   5.609
 2612SOL    HW2 8736   6.495   0.172   5.738
 2613SOL     OW 8737   2.834   5.593   6.228
 2613SOL    HW1 8738   2.775   5.673   6.213
 2613SOL    HW2 8739   2.902   5.614   6.298
 2614SOL     OW 8740   6.321   1.663   6.352
 2614SOL    HW1 8741   6.243   1.600   6.351
 2614SOL    HW2 8742   6.324   1.710   6.440
 2615SOL     OW 8743   0.353   3.559   2.500
 2615SOL    HW1 8744   0.284   3.506   2.549
 2615SOL    HW2 8745   0.420   3.596   2.565
 2616SOL     OW 8746   2.904   3.075   6.007
 2616SOL    HW1 8747   2.896   3.135   6.087
 2616SOL    HW2 8748   2.957   3.122   5.936
 2617SOL     OW 8749   3.689   6.849   0.360
 2617SOL    HW1 8750   3.632   6.903   0.297
 2617SOL    HW2 8751   3.757   6.798   0.308
 2618SOL     OW 8752   6.763   0.618   3.702
 2618SOL    HW1 8753   6.708   0.594   3.782
 2618SOL    HW2 8754   6.844   0.560   3.699
 2619SOL     OW 8755   4.063   2.221   2.959
 2619SOL    HW1 8756   4.126   2.298   2.962
 2619SOL    HW2 8757   4.028   2.202   3.051
 2620SOL     OW 8758   6.606   6.641   3.232
 2620SOL    HW1 8759   6.613   6.594   3.320
 2620SOL    HW2 8760   6.678   6.608   3.171
 2621SOL     OW 8761   0.482   5.300   2.108
 2621SOL    HW1 8762   0.481   5.284   2.009
 2621SOL    HW2 8763   0.505   5.215   2.155
 2622SOL     OW 8764   1.803   3.893   4.925
 2622SOL    HW1 8765   1.792   3.903   4.826
 2622SOL    HW2 8766   1.900   3.899   4.948
 2623SOL     OW 8767   0.759   1.221   5.612
 2623SOL    HW1 8768   0.803   1.199   5.524
 2623SOL    HW2 8769   0.767   1.319   5.629
 2624SOL     OW 8770   6.730   0.990   4.465
 2624SOL    HW1 8771   6.729   0.963   4.369
 2624SOL    HW2 8772   6.740   1.089   4.473
 2625SOL     OW 8773   2.250   3.702   5.583
 2625SOL    HW1 8774   2.316   3.679   5.512
 2625SOL    HW2 8775   2.188   3.625   5.598
 2626SOL     OW 8776   0.435   0.550   5.780
 2626SOL    HW1 8777   0.449   0.451   5.775
 2626SOL    HW2 8778   0.515   0.593   5.821
 2627SOL     OW 8779   0.791   0.833   6.172
 2627SOL    HW1 8780   0.771   0.931   6.167
 2627SOL    HW2 8781   0.863   0.809   6.106
 2628SOL     OW 8782   1.947   4.698   5.728
 2628SOL    HW1 8783   1.934   4.669   5.823
 2628SOL    HW2 8784   1.858   4.708   5.684
 2629SOL     OW 8785   3.625   3.330   2.390
 2629SOL    HW1 8786   3.613   3.243   2.341
 2629SOL    HW2 8787   3.720   3.359   2.381
 2630SOL     OW 8788   2.747   1.883   2.716
 2630SOL    HW1 8789   2.724   1.829   2.635
 2630SOL    HW2 8790   2.792   1.968   2.688
 2631SOL     OW 8791   5.370   0.739   6.262
 2631SOL    HW1 8792   5.282   0.779   6.238
 2631SOL    HW2 8793   5.359   0.679   6.341
 2632SOL     OW 8794   5.587   3.125   6.707
 2632SOL    HW1 8795   5.520   3.052   6.719
 2632SOL    HW2 8796   5.576   3.166   6.617
 2633SOL     OW 8797   0.568   1.890   4.361
 2633SOL    HW1 8798   0.535   1.983   4.375
 2633SOL    HW2 8799   0.612   1.884   4.271
 2634SOL     OW 8800   0.623   4.520   3.613
 2634SOL    HW1 8801   0.632   4.606   3.563
 2634SOL    HW2 8802   0.670   4.527   3.701
 2635SOL     OW 8803   6.822   6.219   5.072
 2635SOL    HW1 8804   6.892   6.281   5.036
 2635SOL    HW2 8805   6.743   6.221   5.011
 2636SOL     OW 8806   4.053   0.946   5.263
 2636SOL    HW1 8807   3.957   0.971   5.256
 2636SOL    HW2 8808   4.110   1.024   5.236
 2637SOL     OW 8809   5.725   1.811   3.612
 2637SOL    HW1 8810   5.787   1.732   3.611
 2637SOL    HW2 8811   5.660   1.803   3.537
 2638SOL     OW 8812   6.979   6.842   3.585
 2638SOL    HW1 8813   6.995   6.932   3.545
 2638SOL    HW2 8814   0.041   6.793   3.591
 2639SOL     OW 8815   0.800   5.970   0.190
 2639SOL    HW1 8816   0.775   6.065   0.206
 2639SOL    HW2 8817   0.900   5.962   0.184
 2640SOL     OW 8818   7.000   6.154   5.575
 2640SOL    HW1 8819   6.971   6.246   5.604
 2640SOL    HW2 8820   6.959   6.133   5.487
 2641SOL     OW 8821   5.595   3.172   2.040
 2641SOL    HW1 8822   5.627   3.262   2.010
 2641SOL    HW2 8823   5.503   3.181   2.080
 2642SOL     OW 8824   5.527   0.778   3.530
 2642SOL    HW1 8825   5.512   0.711   3.457
 2642SOL    HW2 8826   5.577   0.856   3.492
 2643SOL     OW 8827   0.789   3.698   3.237
 2643SOL    HW1 8828   0.819   3.658   3.324
 2643SOL    HW2 8829   0.710   3.758   3.253
 2644SOL     OW 8830   5.189   5.491   5.403
 2644SOL    HW1 8831   5.117   5.542   5.450
 2644SOL    HW2 8832   5.205   5.404   5.450
 2645SOL     OW 8833   4.192   5.881   3.892
 2645SOL    HW1 8834   4.192   5.978   3.871
 2645SOL    HW2 8835   4.099   5.844   3.878
 2646SOL     OW 8836   6.261   1.507   6.936
 2646SOL    HW1 8837   6.324   1.506   7.013
 2646SOL    HW2 8838   6.284   1.582   6.874
 2647SOL     OW 8839   6.477   0.181   1.927
 2647SOL    HW1 8840   6.521   0.091   1.923
 2647SOL    HW2 8841   6.496   0.230   1.842
 2648SOL     OW 8842   0.973   6.593   3.157
 2648SOL    HW1 8843   0.951   6.613   3.061
 2648SOL    HW2 8844   1.067   6.558   3.163
 2649SOL     OW 8845   6.793   3.722   0.593
 2649SOL    HW1 8846   6.710   3.713   0.648
 2649SOL    HW2 8847   6.770   3.710   0.496
 2650SOL     OW 8848   1.178   4.969   3.705
 2650SOL    HW1 8849   1.079   4.963   3.692
 2650SOL    HW2 8850   1.222   4.896   3.652
 2651SOL     OW 8851   2.287   1.498   0.939
 2651SOL    HW1 8852   2.363   1.563   0.935
 2651SOL    HW2 8853   2.247   1.487   0.848
 2652SOL     OW 8854   4.150   3.251   5.232
 2652SOL    HW1 8855   4.161   3.153   5.251
 2652SOL    HW2 8856   4.203   3.304   5.299
 2653SOL     OW 8857   4.676   6.820   5.789
 2653SOL    HW1 8858   4.758   6.773   5.821
 2653SOL    HW2 8859   4.669   6.909   5.834
 2654SOL     OW 8860   4.336   0.229   1.850
 2654SOL    HW1 8861   4.286   0.220   1.764
 2654SOL    HW2 8862   4.272   0.228   1.926
 2655SOL     OW 8863   5.467   6.906   4.097
 2655SOL    HW1 8864   5.553   6.934   4.141
 2655SOL    HW2 8865   5.471   6.809   4.075
 2656SOL     OW 8866   3.206   5.131   4.300
 2656SOL    HW1 8867   3.266   5.050   4.300
 2656SOL    HW2 8868   3.262   5.214   4.299
 2657SOL     OW 8869   0.875   4.292   0.066
 2657SOL    HW1 8870   0.826   4.301   0.152
 2657SOL    HW2 8871   0.957   4.237   0.080
 2658SOL     OW 8872   4.784   4.806   0.791
 2658SOL    HW1 8873   4.879   4.820   0.763
 2658SOL    HW2 8874   4.726   4.877   0.750
 2659SOL     OW 8875   5.088   3.062   5.148
 2659SOL    HW1 8876   5.119   3.127   5.078
 2659SOL    HW2 8877   4.994   3.084   5.174
 2660SOL     OW 8878   1.460   6.796   1.651
 2660SOL    HW1 8879   1.421   6.808   1.743
 2660SOL    HW2 8880   1.405   6.847   1.585
 2661SOL     OW 8881   2.221   6.779   1.714
 2661SOL    HW1 8882   2.207   6.868   1.756
 2661SOL    HW2 8883   2.282   6.789   1.635
 2662SOL     OW 8884   4.005   6.356   5.442
 2662SOL    HW1 8885   4.032   6.271   5.487
 2662SOL    HW2 8886   3.985   6.337   5.345
 2663SOL     OW 8887   3.351   4.140   6.809
 2663SOL    HW1 8888   3.345   4.059   6.868
 2663SOL    HW2 8889   3.420   4.203   6.846
 2664SOL     OW 8890   4.723   3.457   5.395
 2664SOL    HW1 8891   4.696   3.513   5.317
 2664SOL    HW2 8892   4.672   3.371   5.393
 2665SOL     OW 8893   2.962   2.923   5.356
 2665SOL    HW1 8894   3.038   2.890   5.300
 2665SOL    HW2 8895   2.927   2.848   5.412
 2666SOL     OW 8896   0.485   5.374   1.839
 2666SOL    HW1 8897   0.569   5.393   1.790
 2666SOL    HW2 8898   0.413   5.347   1.774
 2667SOL     OW 8899   0.994   5.861   4.233
 2667SOL    HW1 8900   1.014   5.904   4.145
 2667SOL    HW2 8901   1.076   5.862   4.290
 2668SOL     OW 8902   0.374   2.792   4.933
 2668SOL    HW1 8903   0.298   2.840   4.976
 2668SOL    HW2 8904   0.434   2.858   4.888
 2669SOL     OW 8905   2.934   5.063   6.069
 2669SOL    HW1 8906   3.013   5.073   6.009
 2669SOL    HW2 8907   2.937   4.974   6.114
 2670SOL     OW 8908   6.165   3.991   5.786
 2670SOL    HW1 8909   6.256   4.031   5.772
 2670SOL    HW2 8910   6.149   3.979   5.884
 2671SOL     OW 8911   4.109   5.486   6.876
 2671SOL    HW1 8912   4.174   5.548   6.832
 2671SOL    HW2 8913   4.019   5.530   6.881
 2672SOL     OW 8914   2.554   5.309   0.981
 2672SOL    HW1 8915   2.511   5.219   0.972
 2672SOL    HW2 8916   2.641   5.309   0.932
 2673SOL     OW 8917   6.482   1.879   1.918
 2673SOL    HW1 8918   6.441   1.924   1.997
 2673SOL    HW2 8919   6.410   1.839   1.861
 2674SOL     OW 8920   1.415   4.719   3.746
 2674SOL    HW1 8921   1.508   4.723   3.780
 2674SOL    HW2 8922   1.353   4.761   3.813
 2675SOL     OW 8923   6.159   5.701   4.167
 2675SOL    HW1 8924   6.156   5.612   4.213
 2675SOL    HW2 8925   6.148   5.773   4.235
 2676SOL     OW 8926   3.498   2.784   1.390
 2676SOL    HW1 8927   3.464   2.828   1.307
 2676SOL    HW2 8928   3.421   2.761   1.450
 2677SOL     OW 8929   2.542   4.090   6.810
 2677SOL    HW1 8930   2.480   4.168   6.798
 2677SOL    HW2 8931   2.497   4.006   6.778
 2678SOL     OW 8932   0.115   2.424   2.295
 2678SOL    HW1 8933   0.080   2.426   2.201
 2678SOL    HW2 8934   0.163   2.338   2.311
 2679SOL     OW 8935   2.144   5.229   1.663
 2679SOL    HW1 8936   2.056   5.230   1.711
 2679SOL    HW2 8937   2.203   5.158   1.702
 2680SOL     OW 8938   0.942   2.116   1.192
 2680SOL    HW1 8939   0.895   2.145   1.275
 2680SOL    HW2 8940   1.030   2.075   1.217
 2681SOL     OW 8941   1.517   2.163   5.488
 2681SOL    HW1 8942   1.562   2.079   5.518
 2681SOL    HW2 8943   1.565   2.243   5.525
 2682SOL     OW 8944   4.514   4.426   3.379
 2682SOL    HW1 8945   4.560   4.465   3.459
 2682SOL    HW2 8946   4.576   4.364   3.332
 2683SOL     OW 8947   2.828   5.775   2.019
 2683SOL    HW1 8948   2.738   5.793   1.980
 2683SOL    HW2 8949   2.890   5.745   1.947
 2684SOL     OW 8950   4.348   6.420   1.793
 2684SOL    HW1 8951   4.375   6.496   1.852
 2684SOL    HW2 8952   4.428   6.363   1.773
 2685SOL     OW 8953   6.151   5.805   6.318
 2685SOL    HW1 8954   6.122   5.894   6.353
 2685SOL    HW2 8955   6.250   5.801   6.315
 2686SOL     OW 8956   2.081   1.351   5.826
 2686SOL    HW1 8957   2.156   1.301   5.783
 2686SOL    HW2 8958   2.117   1.406   5.901
 2687SOL     OW 8959   5.064   5.729   1.289
 2687SOL    HW1 8960   5.034   5.720   1.384
 2687SOL    HW2 8961   4.990   5.702   1.228
 2688SOL     OW 8962   2.985   3.515   0.546
 2688SOL    HW1 8963   3.035   3.594   0.582
 2688SOL    HW2 8964   3.032   3.431   0.572
 2689SOL     OW 8965   1.017   4.066   2.421
 2689SOL    HW1 8966   1.007   4.024   2.331
 2689SOL    HW2 8967   0.968   4.153   2.422
 2690SOL     OW 8968   3.815   3.428   5.093
 2690SOL    HW1 8969   3.842   3.382   5.009
 2690SOL    HW2 8970   3.715   3.431   5.099
 2691SOL     OW 8971   0.779   5.340   3.820
 2691SOL    HW1 8972   0.854   5.334   3.886
 2691SOL    HW2 8973   0.773   5.432   3.783
 2692SOL     OW 8974   2.761   5.986   3.546
 2692SOL    HW1 8975   2.820   5.995   3.627
 2692SOL    HW2 8976   2.753   5.889   3.521
 2693SOL     OW 8977   2.284   5.428   3.528
 2693SOL    HW1 8978   2.254   5.513   3.486
 2693SOL    HW2 8979   2.206   5.368   3.544
 2694SOL     OW 8980   4.144   6.649   2.872
 2694SOL    HW1 8981   4.083   6.648   2.951
 2694SOL    HW2 8982   4.236   6.623   2.900
 2695SOL     OW 8983   5.716   1.181   2.336
 2695SOL    HW1 8984   5.672   1.237   2.266
 2695SOL    HW2 8985   5.716   1.231   2.423
 2696SOL     OW 8986   3.538   3.230   6.019
 2696SOL    HW1 8987   3.461   3.271   6.067
 2696SOL    HW2 8988   3.504   3.175   5.942
 2697SOL     OW 8989   3.186   1.086   3.191
 2697SOL    HW1 8990   3.267   1.121   3.238
 2697SOL    HW2 8991   3.111   1.076   3.257
 2698SOL     OW 8992   2.036   4.785   0.943
 2698SOL    HW1 8993   1.964   4.850   0.966
 2698SOL    HW2 8994   2.116   4.801   1.001
 2699SOL     OW 8995   2.664   5.653   1.003
 2699SOL    HW1 8996   2.626   5.745   0.991
 2699SOL    HW2 8997   2.659   5.628   1.100
 2700SOL     OW 8998   2.759   2.751   0.557
 2700SOL    HW1 8999   2.665   2.781   0.577
 2700SOL    HW2 9000   2.761   2.651   0.553
 2701SOL     OW 9001   5.558   1.755   6.551
 2701SOL    HW1 9002   5.558   1.805   6.464
 2701SOL    HW2 9003   5.510   1.808   6.621
 2702SOL     OW 9004   0.439   2.512   3.303
 2702SOL    HW1 9005   0.462   2.532   3.398
 2702SOL    HW2 9006   0.502   2.443   3.267
 2703SOL     OW 9007   0.776   6.765   0.301
 2703SOL    HW1 9008   0.805   6.711   0.380
 2703SOL    HW2 9009   0.782   6.862   0.323
 2704SOL     OW 9010   6.427   5.822   1.788
 2704SOL    HW1 9011   6.434   5.858   1.695
 2704SOL    HW2 9012   6.515   5.783   1.815
 2705SOL     OW 9013   6.713   6.865   4.675
 2705SOL    HW1 9014   6.630   6.868   4.620
 2705SOL    HW2 9015   6.699   6.806   4.755
 2706SOL     OW 9016   6.193   4.999   2.929
 2706SOL    HW1 9017   6.228   5.013   2.836
 2706SOL    HW2 9018   6.207   5.083   2.982
 2707SOL     OW 9019   4.043   0.671   4.589
 2707SOL    HW1 9020   4.042   0.585   4.639
 2707SOL    HW2 9021   4.029   0.747   4.653
 2708SOL     OW 9022   6.861   2.652   1.018
 2708SOL    HW1 9023   6.799   2.699   0.955
 2708SOL    HW2 9024   6.863   2.701   1.105
 2709SOL     OW 9025   5.114   0.045   0.530
 2709SOL    HW1 9026   5.178   0.019   0.457
 2709SOL    HW2 9027   5.052   0.115   0.496
 2710SOL     OW 9028   1.142   3.011   4.268
 2710SOL    HW1 9029   1.096   2.938   4.216
 2710SOL    HW2 9030   1.180   2.974   4.352
 2711SOL     OW 9031   2.689   0.989   3.723
 2711SOL    HW1 9032   2.665   0.968   3.628
 2711SOL    HW2 9033   2.675   1.087   3.740
 2712SOL     OW 9034   2.677   4.535   1.224
 2712SOL    HW1 9035   2.614   4.461   1.250
 2712SOL    HW2 9036   2.729   4.507   1.143
 2713SOL     OW 9037   2.232   3.042   5.853
 2713SOL    HW1 9038   2.268   3.129   5.820
 2713SOL    HW2 9039   2.304   2.973   5.851
 2714SOL     OW 9040   4.233   2.296   0.283
 2714SOL    HW1 9041   4.188   2.221   0.332
 2714SOL    HW2 9042   4.288   2.349   0.347
 2715SOL     OW 9043   5.429   2.608   1.181
 2715SOL    HW1 9044   5.382   2.520   1.187
 2715SOL    HW2 9045   5.481   2.624   1.265
 2716SOL     OW 9046   5.089   3.077   3.466
 2716SOL    HW1 9047   5.150   3.109   3.539
 2716SOL    HW2 9048   5.144   3.051   3.387
 2717SOL     OW 9049   6.998   0.173   2.730
 2717SOL    HW1 9050   6.980   0.268   2.758
 2717SOL    HW2 9051   7.021   0.172   2.633
 2718SOL     OW 9052   1.182   1.118   5.220
 2718SOL    HW1 9053   1.278   1.133   5.195
 2718SOL    HW2 9054   1.123   1.165   5.155
 2719SOL     OW 9055   0.701   5.185   1.268
 2719SOL    HW1 9056   0.769   5.241   1.222
 2719SOL    HW2 9057   0.671   5.231   1.352
 2720SOL     OW 9058   1.771   6.635   2.202
 2720SOL    HW1 9059   1.837   6.661   2.273
 2720SOL    HW2 9060   1.694   6.698   2.203
 2721SOL     OW 9061   3.800   6.469   3.280
 2721SOL    HW1 9062   3.897   6.465   3.257
 2721SOL    HW2 9063   3.746   6.468   3.196
 2722SOL     OW 9064   6.399   4.916   0.791
 2722SOL    HW1 9065   6.399   4.981   0.867
 2722SOL    HW2 9066   6.325   4.850   0.804
 2723SOL     OW 9067   1.183   6.026   5.988
 2723SOL    HW1 9068   1.179   5.953   5.920
 2723SOL    HW2 9069   1.195   6.114   5.941
 2724SOL     OW 9070   2.196   5.466   6.771
 2724SOL    HW1 9071   2.177   5.393   6.838
 2724SOL    HW2 9072   2.221   5.549   6.820
 2725SOL     OW 9073   4.650   4.693   5.114
 2725SOL    HW1 9074   4.591   4.760   5.069
 2725SOL    HW2 9075   4.624   4.685   5.211
 2726SOL     OW 9076   0.247   2.021   1.457
 2726SOL    HW1 9077   0.314   2.042   1.386
 2726SOL    HW2 9078   0.172   1.968   1.418
 2727SOL     OW 9079   0.794   4.713   3.806
 2727SOL    HW1 9080   0.815   4.738   3.711
 2727SOL    HW2 9081   0.752   4.792   3.852
 2728SOL     OW 9082   4.667   6.749   5.247
 2728SOL    HW1 9083   4.736   6.686   5.281
 2728SOL    HW2 9084   4.710   6.834   5.218
 2729SOL     OW 9085   0.147   6.171   0.318
 2729SOL    HW1 9086   0.073   6.227   0.357
 2729SOL    HW2 9087   0.174   6.208   0.229
 2730SOL     OW 9088   1.714   5.435   1.706
 2730SOL    HW1 9089   1.723   5.474   1.798
 2730SOL    HW2 9090   1.642   5.366   1.706
 2731SOL     OW 9091   2.946   3.746   3.382
 2731SOL    HW1 9092   2.990   3.822   3.334
 2731SOL    HW2 9093   2.854   3.773   3.411
 2732SOL     OW 9094   5.617   2.346   1.926
 2732SOL    HW1 9095   5.665   2.259   1.942
 2732SOL    HW2 9096   5.605   2.393   2.014
 2733SOL     OW 9097   6.424   2.203   5.315
 2733SOL    HW1 9098   6.372   2.181   5.398
 2733SOL    HW2 9099   6.411   2.130   5.247
 2734SOL     OW 9100   3.484   5.720   0.949
 2734SOL    HW1 9101   3.501   5.625   0.921
 2734SOL    HW2 9102   3.483   5.779   0.868
 2735SOL     OW 9103   1.635   3.292   1.738
 2735SOL    HW1 9104   1.617   3.389   1.721
 2735SOL    HW2 9105   1.727   3.269   1.707
 2736SOL     OW 9106   6.013   5.878   4.447
 2736SOL    HW1 9107   6.096   5.871   4.391
 2736SOL    HW2 9108   5.933   5.871   4.388
 2737SOL     OW 9109   2.786   4.358   5.321
 2737SOL    HW1 9110   2.801   4.272   5.273
 2737SOL    HW2 9111   2.833   4.432   5.272
 2738SOL     OW 9112   5.267   6.627   2.060
 2738SOL    HW1 9113   5.181   6.677   2.050
 2738SOL    HW2 9114   5.282   6.571   1.978
 2739SOL     OW 9115   1.413   4.895   1.295
 2739SOL    HW1 9116   1.472   4.813   1.294
 2739SOL    HW2 9117   1.407   4.931   1.202
 2740SOL     OW 9118   6.321   4.140   2.293
 2740SOL    HW1 9119   6.355   4.159   2.201
 2740SOL    HW2 9120   6.397   4.115   2.352
 2741SOL     OW 9121   6.326   0.084   4.805
 2741SOL    HW1 9122   6.410   0.096   4.753
 2741SOL    HW2 9123   6.341   0.109   4.900
 2742SOL     OW 9124   1.601   5.339   0.415
 2742SOL    HW1 9125   1.639   5.369   0.328
 2742SOL    HW2 9126   1.538   5.262   0.400
 2743SOL     OW 9127   6.469   4.433   2.446
 2743SOL    HW1 9128   6.535   4.459   2.517
 2743SOL    HW2 9129   6.504   4.458   2.356
 2744SOL     OW 9130   4.723   2.362   0.654
 2744SOL    HW1 9131   4.653   2.302   0.616
 2744SOL    HW2 9132   4.683   2.416   0.729
 2745SOL     OW 9133   6.900   0.874   4.942
 2745SOL    HW1 9134   6.937   0.786   4.913
 2745SOL    HW2 9135   6.812   0.890   4.896
 2746SOL     OW 9136   1.150   2.600   4.847
 2746SOL    HW1 9137   1.178   2.504   4.839
 2746SOL    HW2 9138   1.211   2.658   4.793
 2747SOL     OW 9139   4.573   4.942   6.457
 2747SOL    HW1 9140   4.488   4.915   6.503
 2747SOL    HW2 9141   4.649   4.888   6.493
 2748SOL     OW 9142   4.587   1.384   2.249
 2748SOL    HW1 9143   4.620   1.384   2.344
 2748SOL    HW2 9144   4.617   1.468   2.204
 2749SOL     OW 9145   0.524   4.194   1.045
 2749SOL    HW1 9146   0.559   4.183   0.952
 2749SOL    HW2 9147   0.436   4.147   1.053
 2750SOL     OW 9148   1.520   3.511   0.776
 2750SOL    HW1 9149   1.558   3.419   0.785
 2750SOL    HW2 9150   1.510   3.552   0.867
 2751SOL     OW 9151   1.304   3.428   1.479
 2751SOL    HW1 9152   1.262   3.464   1.396
 2751SOL    HW2 9153   1.233   3.390   1.538
 2752SOL     OW 9154   3.698   5.000   5.181
 2752SOL    HW1 9155   3.740   4.937   5.246
 2752SOL    HW2 9156   3.752   5.084   5.176
 2753SOL     OW 9157   6.674   6.547   4.853
 2753SOL    HW1 9158   6.638   6.470   4.905
 2753SOL    HW2 9159   6.771   6.558   4.873
 2754SOL     OW 9160   0.881   0.383   1.292
 2754SOL    HW1 9161   0.954   0.349   1.352
 2754SOL    HW2 9162   0.869   0.481   1.307
 2755SOL     OW 9163   2.361   0.213   2.637
 2755SOL    HW1 9164   2.330   0.308   2.641
 2755SOL    HW2 9165   2.329   0.172   2.552
 2756SOL     OW 9166   5.732   5.177   7.007
 2756SOL    HW1 9167   5.680   5.099   6.972
 2756SOL    HW2 9168   5.823   5.178   6.966
 2757SOL     OW 9169   2.474   6.691   6.761
 2757SOL    HW1 9170   2.528   6.773   6.774
 2757SOL    HW2 9171   2.460   6.675   6.663
 2758SOL     OW 9172   3.734   5.995   4.242
 2758SOL    HW1 9173   3.706   5.959   4.153
 2758SOL    HW2 9174   3.805   6.065   4.228
 2759SOL     OW 9175   5.281   6.949   5.750
 2759SOL    HW1 9176   5.326   6.912   5.832
 2759SOL    HW2 9177   5.243   0.014   5.772
 2760SOL     OW 9178   0.712   6.341   1.729
 2760SOL    HW1 9179   0.769   6.398   1.788
 2760SOL    HW2 9180   0.770   6.288   1.667
 2761SOL     OW 9181   2.349   5.703   4.521
 2761SOL    HW1 9182   2.261   5.744   4.545
 2761SOL    HW2 9183   2.339   5.604   4.516
 2762SOL     OW 9184   1.281   1.365   4.970
 2762SOL    HW1 9185   1.274   1.359   4.870
 2762SOL    HW2 9186   1.374   1.342   4.998
 2763SOL     OW 9187   5.210   1.369   3.120
 2763SOL    HW1 9188   5.233   1.290   3.062
 2763SOL    HW2 9189   5.140   1.343   3.186
 2764SOL     OW 9190   5.823   1.182   1.058
 2764SOL    HW1 9191   5.865   1.261   1.013
 2764SOL    HW2 9192   5.732   1.206   1.090
 2765SOL     OW 9193   5.782   6.839   1.119
 2765SOL    HW1 9194   5.777   6.929   1.163
 2765SOL    HW2 9195   5.755   6.769   1.185
 2766SOL     OW 9196   5.437   2.019   0.468
 2766SOL    HW1 9197   5.400   2.070   0.390
 2766SOL    HW2 9198   5.513   2.071   0.508
 2767SOL     OW 9199   6.721   5.393   0.471
 2767SOL    HW1 9200   6.781   5.416   0.547
 2767SOL    HW2 9201   6.731   5.296   0.447
 2768SOL     OW 9202   4.438   0.696   0.967
 2768SOL    HW1 9203   4.345   0.706   1.002
 2768SOL    HW2 9204   4.444   0.614   0.911
 2769SOL     OW 9205   1.942   4.249   4.320
 2769SOL    HW1 9206   2.034   4.253   4.360
 2769SOL    HW2 9207   1.876   4.223   4.391
 2770SOL     OW 9208   4.235   5.926   5.679
 2770SOL    HW1 9209   4.285   5.840   5.691
 2770SOL    HW2 9210   4.147   5.921   5.726
 2771SOL     OW 9211   6.886   0.873   3.552
 2771SOL    HW1 9212   6.985   0.871   3.564
 2771SOL    HW2 9213   6.844   0.803   3.610
 2772SOL     OW 9214   4.126   1.265   0.971
 2772SOL    HW1 9215   4.046   1.264   1.032
 2772SOL    HW2 9216   4.199   1.320   1.013
 2773SOL     OW 9217   6.144   2.204   5.041
 2773SOL    HW1 9218   6.186   2.130   4.989
 2773SOL    HW2 9219   6.064   2.169   5.089
 2774SOL     OW 9220   5.752   3.377   2.981
 2774SOL    HW1 9221   5.781   3.456   2.927
 2774SOL    HW2 9222   5.814   3.366   3.059
 2775SOL     OW 9223   6.815   5.858   6.426
 2775SOL    HW1 9224   6.718   5.874   6.410
 2775SOL    HW2 9225   6.827   5.787   6.495
 2776SOL     OW 9226   4.126   4.966   5.739
 2776SOL    HW1 9227   4.207   5.020   5.762
 2776SOL    HW2 9228   4.124   4.883   5.795
 2777SOL     OW 9229   2.765   0.950   2.075
 2777SOL    HW1 9230   2.755   1.005   2.158
 2777SOL    HW2 9231   2.760   0.853   2.098
 2778SOL     OW 9232   1.709   0.057   5.713
 2778SOL    HW1 9233   1.754   0.135   5.669
 2778SOL    HW2 9234   1.747   6.996   5.676
 2779SOL     OW 9235   4.900   6.353   1.078
 2779SOL    HW1 9236   4.882   6.312   1.168
 2779SOL    HW2 9237   4.976   6.306   1.035
 2780SOL     OW 9238   6.028   6.893   6.853
 2780SOL    HW1 9239   5.945   6.883   6.799
 2780SOL    HW2 9240   6.046   6.991   6.869
 2781SOL     OW 9241   5.663   6.502   2.100
 2781SOL    HW1 9242   5.605   6.574   2.138
 2781SOL    HW2 9243   5.732   6.476   2.167
 2782SOL     OW 9244   4.459   2.266   6.102
 2782SOL    HW1 9245   4.364   2.289   6.126
 2782SOL    HW2 9246   4.477   2.171   6.126
 2783SOL     OW 9247   5.232   4.130   3.574
 2783SOL    HW1 9248   5.240   4.036   3.606
 2783SOL    HW2 9249   5.267   4.137   3.481
 2784SOL     OW 9250   3.321   1.213   2.148
 2784SOL    HW1 9251   3.361   1.304   2.158
 2784SOL    HW2 9252   3.368   1.163   2.076
 2785SOL     OW 9253   4.896   1.388   0.865
 2785SOL    HW1 9254   4.850   1.316   0.917
 2785SOL    HW2 9255   4.946   1.448   0.928
 2786SOL     OW 9256   5.026   0.006   2.024
 2786SOL    HW1 9257   5.108   0.054   1.994
 2786SOL    HW2 9258   4.991   0.049   2.108
 2787SOL     OW 9259   4.409   1.872   6.370
 2787SOL    HW1 9260   4.508   1.865   6.378
 2787SOL    HW2 9261   4.386   1.946   6.306
 2788SOL     OW 9262   2.043   4.966   5.745
 2788SOL    HW1 9263   2.079   4.986   5.836
 2788SOL    HW2 9264   1.978   4.890   5.751
 2789SOL     OW 9265   1.681   1.892   3.719
 2789SOL    HW1 9266   1.638   1.924   3.634
 2789SOL    HW2 9267   1.611   1.858   3.781
 2790SOL     OW 9268   3.093   5.963   1.900
 2790SOL    HW1 9269   3.085   5.865   1.883
 2790SOL    HW2 9270   3.154   5.979   1.978
 2791SOL     OW 9271   0.669   2.938   3.096
 2791SOL    HW1 9272   0.574   2.967   3.082
 2791SOL    HW2 9273   0.726   3.018   3.114
 2792SOL     OW 9274   2.454   6.640   3.976
 2792SOL    HW1 9275   2.549   6.635   4.004
 2792SOL    HW2 9276   2.446   6.613   3.880
 2793SOL     OW 9277   5.687   3.899   2.774
 2793SOL    HW1 9278   5.632   3.917   2.693
 2793SOL    HW2 9279   5.758   3.968   2.782
 2794SOL     OW 9280   0.242   2.665   6.653
 2794SOL    HW1 9281   0.245   2.758   6.617
 2794SOL    HW2 9282   0.159   2.653   6.707
 2795SOL     OW 9283   1.101   3.059   0.453
 2795SOL    HW1 9284   1.133   3.151   0.430
 2795SOL    HW2 9285   1.069   3.013   0.371
 2796SOL     OW 9286   6.889   6.077   3.072
 2796SOL    HW1 9287   6.901   5.978   3.063
 2796SOL    HW2 9288   6.905   6.103   3.168
 2797SOL     OW 9289   5.244   5.372   4.443
 2797SOL    HW1 9290   5.154   5.330   4.458
 2797SOL    HW2 9291   5.241   5.467   4.474
 2798SOL     OW 9292   0.220   5.249   2.301
 2798SOL    HW1 9293   0.193   5.297   2.218
 2798SOL    HW2 9294   0.286   5.305   2.351
 2799SOL     OW 9295   6.113   5.656   6.764
 2799SOL    HW1 9296   6.102   5.593   6.688
 2799SOL    HW2 9297   6.064   5.620   6.844
 2800SOL     OW 9298   4.451   6.229   0.420
 2800SOL    HW1 9299   4.453   6.326   0.398
 2800SOL    HW2 9300   4.522   6.181   0.368
 2801SOL     OW 9301   6.409   5.783   6.263
 2801SOL    HW1 9302   6.452   5.719   6.200
 2801SOL    HW2 9303   6.480   5.836   6.310
 2802SOL     OW 9304   5.581   1.554   5.184
 2802SOL    HW1 9305   5.574   1.633   5.244
 2802SOL    HW2 9306   5.544   1.576   5.094
 2803SOL     OW 9307   3.569   5.743   6.588
 2803SOL    HW1 9308   3.643   5.677   6.592
 2803SOL    HW2 9309   3.572   5.792   6.501
 2804SOL     OW 9310   0.118   4.952   4.855
 2804SOL    HW1 9311   0.129   4.866   4.904
 2804SOL    HW2 9312   0.146   5.028   4.914
 2805SOL     OW 9313   5.598   3.270   1.639
 2805SOL    HW1 9314   5.557   3.350   1.593
 2805SOL    HW2 9315   5.632   3.297   1.729
 2806SOL     OW 9316   0.023   4.990   6.035
 2806SOL    HW1 9317   0.029   4.912   6.098
 2806SOL    HW2 9318   0.040   5.075   6.086
 2807SOL     OW 9319   5.048   6.573   4.503
 2807SOL    HW1 9320   5.106   6.652   4.483
 2807SOL    HW2 9321   5.014   6.580   4.596
 2808SOL     OW 9322   5.756   4.488   1.976
 2808SOL    HW1 9323   5.666   4.524   1.955
 2808SOL    HW2 9324   5.770   4.488   2.075
 2809SOL     OW 9325   5.933   3.282   0.928
 2809SOL    HW1 9326   5.982   3.213   0.982
 2809SOL    HW2 9327   5.859   3.320   0.983
 2810SOL     OW 9328   3.626   5.111   3.687
 2810SOL    HW1 9329   3.694   5.178   3.717
 2810SOL    HW2 9330   3.619   5.113   3.587
 2811SOL     OW 9331   1.150   1.678   3.191
 2811SOL    HW1 9332   1.066   1.624   3.199
 2811SOL    HW2 9333   1.127   1.775   3.194
 2812SOL     OW 9334   5.120   3.888   6.360
 2812SOL    HW1 9335   5.041   3.832   6.383
 2812SOL    HW2 9336   5.099   3.985   6.375
 2813SOL     OW 9337   6.855   6.784   6.418
 2813SOL    HW1 9338   6.783   6.719   6.394
 2813SOL    HW2 9339   6.907   6.808   6.335
 2814SOL     OW 9340   4.141   3.699   5.366
 2814SOL    HW1 9341   4.145   3.646   5.281
 2814SOL    HW2 9342   4.082   3.653   5.432
 2815SOL     OW 9343   6.291   0.082   5.475
 2815SOL    HW1 9344   6.215   0.143   5.493
 2815SOL    HW2 9345   6.375   0.121   5.512
 2816SOL     OW 9346   6.426   5.636   3.290
 2816SOL    HW1 9347   6.431   5.736   3.298
 2816SOL    HW2 9348   6.480   5.607   3.211
 2817SOL     OW 9349   2.510   6.964   1.682
 2817SOL    HW1 9350   2.461   0.003   1.624
 2817SOL    HW2 9351   2.502   6.871   1.645
 2818SOL     OW 9352   0.378   0.776   0.759
 2818SOL    HW1 9353   0.459   0.785   0.701
 2818SOL    HW2 9354   0.296   0.784   0.703
 2819SOL     OW 9355   0.824   1.415   1.852
 2819SOL    HW1 9356   0.865   1.462   1.774
 2819SOL    HW2 9357   0.733   1.384   1.828
 2820SOL     OW 9358   0.685   2.679   3.010
 2820SOL    HW1 9359   0.588   2.663   2.989
 2820SOL    HW2 9360   0.694   2.765   3.061
 2821SOL     OW 9361   4.154   3.061   6.863
 2821SOL    HW1 9362   4.119   2.997   6.795
 2821SOL    HW2 9363   4.145   3.021   6.955
 2822SOL     OW 9364   3.932   1.543   0.068
 2822SOL    HW1 9365   3.997   1.601   0.019
 2822SOL    HW2 9366   3.931   1.567   0.165
 2823SOL     OW 9367   4.810   7.022   0.377
 2823SOL    HW1 9368   4.840   6.978   0.462
 2823SOL    HW2 9369   4.710   7.019   0.372
 2824SOL     OW 9370   2.748   1.586   3.553
 2824SOL    HW1 9371   2.834   1.560   3.598
 2824SOL    HW2 9372   2.704   1.660   3.604
 2825SOL     OW 9373   6.173   0.554   6.500
 2825SOL    HW1 9374   6.163   0.536   6.402
 2825SOL    HW2 9375   6.136   0.644   6.521
 2826SOL     OW 9376   4.898   1.177   6.517
 2826SOL    HW1 9377   4.801   1.179   6.542
 2826SOL    HW2 9378   4.919   1.256   6.459
 2827SOL     OW 9379   6.888   0.972   5.199
 2827SOL    HW1 9380   6.919   0.948   5.107
 2827SOL    HW2 9381   6.967   0.989   5.258
 2828SOL     OW 9382   2.657   1.293   0.219
 2828SOL    HW1 9383   2.653   1.255   0.311
 2828SOL    HW2 9384   2.564   1.308   0.185
 2829SOL     OW 9385   3.091   3.303   4.947
 2829SOL    HW1 9386   3.031   3.372   4.987
 2829SOL    HW2 9387   3.161   3.277   5.013
 2830SOL     OW 9388   1.538   3.192   5.773
 2830SOL    HW1 9389   1.496   3.256   5.838
 2830SOL    HW2 9390   1.633   3.176   5.800
 2831SOL     OW 9391   0.589   4.799   3.505
 2831SOL    HW1 9392   0.528   4.854   3.562
 2831SOL    HW2 9393   0.665   4.856   3.472
 2832SOL     OW 9394   0.600   2.620   1.872
 2832SOL    HW1 9395   0.673   2.589   1.934
 2832SOL    HW2 9396   0.535   2.676   1.922
 2833SOL     OW 9397   3.230   1.945   2.003
 2833SOL    HW1 9398   3.318   1.992   1.995
 2833SOL    HW2 9399   3.241   1.850   1.975
 2834SOL     OW 9400   4.113   5.024   6.071
 2834SOL    HW1 9401   4.143   5.060   5.983
 2834SOL    HW2 9402   4.053   5.090   6.116
 2835SOL     OW 9403   0.337   0.109   2.134
 2835SOL    HW1 9404   0.428   0.143   2.112
 2835SOL    HW2 9405   0.288   0.089   2.049
 2836SOL     OW 9406   6.480   6.818   2.422
 2836SOL    HW1 9407   6.463   6.891   2.356
 2836SOL    HW2 9408   6.420   6.740   2.403
 2837SOL     OW 9409   5.269   4.472   2.054
 2837SOL    HW1 9410   5.215   4.426   1.984
 2837SOL    HW2 9411   5.221   4.467   2.142
 2838SOL     OW 9412   2.223   4.104   1.063
 2838SOL    HW1 9413   2.223   4.126   0.966
 2838SOL    HW2 9414   2.152   4.156   1.109
 2839SOL     OW 9415   0.029   1.916   2.484
 2839SOL    HW1 9416   6.970   1.939   2.534
 2839SOL    HW2 9417   0.096   1.875   2.546
 2840SOL     OW 9418   1.759   0.521   3.087
 2840SOL    HW1 9419   1.778   0.531   2.989
 2840SOL    HW2 9420   1.828   0.571   3.139
 2841SOL     OW 9421   0.548   0.729   6.238
 2841SOL    HW1 9422   0.636   0.774   6.225
 2841SOL    HW2 9423   0.480   0.796   6.267
 2842SOL     OW 9424   0.346   4.176   4.165
 2842SOL    HW1 9425   0.290   4.257   4.181
 2842SOL    HW2 9426   0.330   4.109   4.238
 2843SOL     OW 9427   2.351   2.380   2.716
 2843SOL    HW1 9428   2.297   2.296   2.715
 2843SOL    HW2 9429   2.370   2.409   2.623
 2844SOL     OW 9430   6.745   4.795   0.564
 2844SOL    HW1 9431   6.784   4.703   0.561
 2844SOL    HW2 9432   6.645   4.790   0.552
 2845SOL     OW 9433   6.038   2.954   1.277
 2845SOL    HW1 9434   6.118   2.938   1.334
 2845SOL    HW2 9435   5.986   3.031   1.314
 2846SOL     OW 9436   4.176   1.066   6.895
 2846SOL    HW1 9437   4.258   1.021   6.929
 2846SOL    HW2 9438   4.095   1.011   6.919
 2847SOL     OW 9439   4.935   3.057   3.927
 2847SOL    HW1 9440   4.903   3.034   4.019
 2847SOL    HW2 9441   5.027   3.022   3.914
 2848SOL     OW 9442   1.510   2.215   5.071
 2848SOL    HW1 9443   1.591   2.194   5.127
 2848SOL    HW2 9444   1.520   2.306   5.032
 2849SOL     OW 9445   4.021   6.112   0.639
 2849SOL    HW1 9446   4.043   6.023   0.679
 2849SOL    HW2 9447   3.961   6.100   0.560
 2850SOL     OW 9448   1.681   0.376   2.454
 2850SOL    HW1 9449   1.630   0.314   2.514
 2850SOL    HW2 9450   1.648   0.469   2.467
 2851SOL     OW 9451   5.934   1.101   6.318
 2851SOL    HW1 9452   5.841   1.125   6.291
 2851SOL    HW2 9453   5.965   1.163   6.390
 2852SOL     OW 9454   5.586   4.271   6.648
 2852SOL    HW1 9455   5.630   4.283   6.559
 2852SOL    HW2 9456   5.644   4.213   6.706
 2853SOL     OW 9457   1.654   2.131   6.207
 2853SOL    HW1 9458   1.629   2.040   6.242
 2853SOL    HW2 9459   1.585   2.198   6.235
 2854SOL     OW 9460   4.134   1.521   4.938
 2854SOL    HW1 9461   4.106   1.566   5.023
 2854SOL    HW2 9462   4.206   1.574   4.893
 2855SOL     OW 9463   2.193   1.103   0.246
 2855SOL    HW1 9464   2.214   1.111   0.149
 2855SOL    HW2 9465   2.121   1.167   0.271
 2856SOL     OW 9466   0.930   2.727   5.656
 2856SOL    HW1 9467   0.881   2.723   5.743
 2856SOL    HW2 9468   0.874   2.775   5.589
 2857SOL     OW 9469   2.362   2.091   2.334
 2857SOL    HW1 9470   2.418   2.029   2.388
 2857SOL    HW2 9471   2.404   2.182   2.333
 2858SOL     OW 9472   4.826   4.087   2.362
 2858SOL    HW1 9473   4.798   4.008   2.307
 2858SOL    HW2 9474   4.920   4.112   2.337
 2859SOL     OW 9475   5.758   1.398   0.017
 2859SOL    HW1 9476   5.830   1.467   0.012
 2859SOL    HW2 9477   5.714   1.388   6.953
 2860SOL     OW 9478   3.355   1.071   1.860
 2860SOL    HW1 9479   3.386   1.043   1.769
 2860SOL    HW2 9480   3.255   1.073   1.863
 2861SOL     OW 9481   3.666   3.961   5.518
 2861SOL    HW1 9482   3.671   3.883   5.454
 2861SOL    HW2 9483   3.741   4.024   5.499
 2862SOL     OW 9484   5.825   1.682   2.565
 2862SOL    HW1 9485   5.739   1.635   2.546
 2862SOL    HW2 9486   5.816   1.779   2.546
 2863SOL     OW 9487   5.127   1.229   6.670
 2863SOL    HW1 9488   5.036   1.202   6.640
 2863SOL    HW2 9489   5.183   1.147   6.683
 2864SOL     OW 9490   4.563   1.739   1.785
 2864SOL    HW1 9491   4.473   1.762   1.750
 2864SOL    HW2 9492   4.605   1.820   1.826
 2865SOL     OW 9493   3.807   4.424   6.590
 2865SOL    HW1 9494   3.821   4.485   6.668
 2865SOL    HW2 9495   3.798   4.330   6.624
 2866SOL     OW 9496   6.532   5.622   0.456
 2866SOL    HW1 9497   6.436   5.608   0.433
 2866SOL    HW2 9498   6.568   5.540   0.499
 2867SOL     OW 9499   6.293   5.453   2.888
 2867SOL    HW1 9500   6.234   5.465   2.808
 2867SOL    HW2 9501   6.329   5.541   2.917
 2868SOL     OW 9502   0.716   1.860   5.667
 2868SOL    HW1 9503   0.719   1.858   5.767
 2868SOL    HW2 9504   0.629   1.824   5.635
 2869SOL     OW 9505   6.912   1.288   3.599
 2869SOL    HW1 9506   6.873   1.352   3.665
 2869SOL    HW2 9507   6.844   1.266   3.529
 2870SOL     OW 9508   0.538   1.546   4.967
 2870SOL    HW1 9509   0.563   1.605   4.890
 2870SOL    HW2 9510   0.514   1.455   4.934
 2871SOL     OW 9511   0.164   2.003   7.004
 2871SOL    HW1 9512   0.234   1.940   0.013
 2871SOL    HW2 9513   0.143   1.981   6.908
 2872SOL     OW 9514   2.505   1.971   2.527
 2872SOL    HW1 9515   2.585   1.925   2.487
 2872SOL    HW2 9516   2.536   2.037   2.595
 2873SOL     OW 9517   0.023   5.289   3.005
 2873SOL    HW1 9518   0.015   5.388   2.997
 2873SOL    HW2 9519   0.109   5.266   3.050
 2874SOL     OW 9520   4.239   6.703   3.251
 2874SOL    HW1 9521   4.315   6.746   3.300
 2874SOL    HW2 9522   4.183   6.651   3.316
 2875SOL     OW 9523   4.530   6.953   0.592
 2875SOL    HW1 9524   4.537   6.984   0.497
 2875SOL    HW2 9525   4.468   7.014   0.642
 2876SOL     OW 9526   1.543   0.453   1.424
 2876SOL    HW1 9527   1.599   0.427   1.346
 2876SOL    HW2 9528   1.550   0.551   1.439
 2877SOL     OW 9529   3.303   2.568   5.286
 2877SOL    HW1 9530   3.262   2.488   5.242
 2877SOL    HW2 9531   3.368   2.538   5.356
 2878SOL     OW 9532   4.009   4.878   4.856
 2878SOL    HW1 9533   3.928   4.894   4.799
 2878SOL    HW2 9534   3.983   4.888   4.952
 2879SOL     OW 9535   5.635   4.985   0.316
 2879SOL    HW1 9536   5.675   4.913   0.373
 2879SOL    HW2 9537   5.541   4.961   0.293
 2880SOL     OW 9538   6.833   0.456   1.912
 2880SOL    HW1 9539   6.786   0.395   1.975
 2880SOL    HW2 9540   6.916   0.492   1.955
 2881SOL     OW 9541   5.037   5.965   0.171
 2881SOL    HW1 9542   5.115   5.985   0.112
 2881SOL    HW2 9543   4.987   5.887   0.134
 2882SOL     OW 9544   0.786   4.543   2.621
 2882SOL    HW1 9545   0.807   4.477   2.549
 2882SOL    HW2 9546   0.687   4.557   2.627
 2883SOL     OW 9547   5.682   0.114   3.353
 2883SOL    HW1 9548   5.634   0.052   3.416
 2883SOL    HW2 9549   5.681   0.207   3.391
 2884SOL     OW 9550   0.937   0.114   2.703
 2884SOL    HW1 9551   1.007   0.170   2.657
 2884SOL    HW2 9552   0.847   0.136   2.664
 2885SOL     OW 9553   0.995   3.587   2.946
 2885SOL    HW1 9554   1.042   3.517   3.000
 2885SOL    HW2 9555   1.014   3.677   2.985
 2886SOL     OW 9556   1.757   4.459   5.748
 2886SOL    HW1 9557   1.798   4.528   5.808
 2886SOL    HW2 9558   1.717   4.387   5.804
 2887SOL     OW 9559   0.114   0.622   4.992
 2887SOL    HW1 9560   0.210   0.594   4.999
 2887SOL    HW2 9561   0.085   0.621   4.896
 2888SOL     OW 9562   0.557   4.153   0.151
 2888SOL    HW1 9563   0.627   4.088   0.179
 2888SOL    HW2 9564   0.567   4.172   0.053
 2889SOL     OW 9565   1.969   6.776   2.422
 2889SOL    HW1 9566   1.886   6.776   2.479
 2889SOL    HW2 9567   2.033   6.709   2.458
 2890SOL     OW 9568   2.482   6.032   0.655
 2890SOL    HW1 9569   2.580   6.016   0.661
 2890SOL    HW2 9570   2.433   5.948   0.679
 2891SOL     OW 9571   0.824   4.081   3.864
 2891SOL    HW1 9572   0.914   4.108   3.900
 2891SOL    HW2 9573   0.760   4.157   3.875
 2892SOL     OW 9574   5.228   3.273   0.060
 2892SOL    HW1 9575   5.140   3.276   0.013
 2892SOL    HW2 9576   5.293   3.333   0.014
 2893SOL     OW 9577   0.250   6.268   4.824
 2893SOL    HW1 9578   0.181   6.291   4.893
 2893SOL    HW2 9579   0.239   6.329   4.745
 2894SOL     OW 9580   1.424   2.880   1.597
 2894SOL    HW1 9581   1.480   2.929   1.531
 2894SOL    HW2 9582   1.440   2.781   1.588
 2895SOL     OW 9583   4.539   2.267   5.836
 2895SOL    HW1 9584   4.549   2.170   5.815
 2895SOL    HW2 9585   4.535   2.280   5.935
 2896SOL     OW 9586   4.615   5.879   5.979
 2896SOL    HW1 9587   4.662   5.866   6.066
 2896SOL    HW2 9588   4.516   5.890   5.995
 2897SOL     OW 9589   3.802   5.142   2.931
 2897SOL    HW1 9590   3.873   5.172   2.995
 2897SOL    HW2 9591   3.820   5.180   2.841
 2898SOL     OW 9592   4.637   4.926   4.497
 2898SOL    HW1 9593   4.616   5.024   4.496
 2898SOL    HW2 9594   4.612   4.887   4.408
 2899SOL     OW 9595   1.227   1.541   0.532
 2899SOL    HW1 9596   1.189   1.584   0.449
 2899SOL    HW2 9597   1.203   1.596   0.612
 2900SOL     OW 9598   1.611   4.496   5.255
 2900SOL    HW1 9599   1.598   4.595   5.254
 2900SOL    HW2 9600   1.662   4.469   5.336
 2901SOL     OW 9601   3.044   5.720   3.696
 2901SOL    HW1 9602   2.974   5.668   3.746
 2901SOL    HW2 9603   3.063   5.675   3.609
 2902SOL     OW 9604   4.918   6.787   2.586
 2902SOL    HW1 9605   4.893   6.816   2.678
 2902SOL    HW2 9606   4.953   6.865   2.534
 2903SOL     OW 9607   3.287   0.650   0.772
 2903SOL    HW1 9608   3.256   0.684   0.860
 2903SOL    HW2 9609   3.369   0.698   0.743
 2904SOL     OW 9610   2.056   3.888   5.031
 2904SOL    HW1 9611   2.094   3.797   5.049
 2904SOL    HW2 9612   2.129   3.949   5.003
 2905SOL     OW 9613   1.679   2.622   4.362
 2905SOL    HW1 9614   1.674   2.588   4.456
 2905SOL    HW2 9615   1.773   2.644   4.339
 2906SOL     OW 9616   4.230   5.441   1.598
 2906SOL    HW1 9617   4.143   5.479   1.629
 2906SOL    HW2 9618   4.244   5.464   1.502
 2907SOL     OW 9619   0.543   1.730   3.853
 2907SOL    HW1 9620   0.635   1.701   3.825
 2907SOL    HW2 9621   0.546   1.763   3.947
 2908SOL     OW 9622   4.991   6.452   4.023
 2908SOL    HW1 9623   5.079   6.497   4.007
 2908SOL    HW2 9624   4.995   6.399   4.107
 2909SOL     OW 9625   1.650   5.939   3.437
 2909SOL    HW1 9626   1.672   5.841   3.430
 2909SOL    HW2 9627   1.575   5.952   3.501
 2910SOL     OW 9628   4.419   6.923   4.301
 2910SOL    HW1 9629   4.471   7.008   4.308
 2910SOL    HW2 9630   4.480   6.846   4.321
 2911SOL     OW 9631   1.004   5.610   3.261
 2911SOL    HW1 9632   0.917   5.659   3.251
 2911SOL    HW2 9633   1.026   5.601   3.358
 2912SOL     OW 9634   4.797   0.561   7.007
 2912SOL    HW1 9635   4.818   0.540   6.911
 2912SOL    HW2 9636   4.752   0.482   0.024
 2913SOL     OW 9637   2.693   4.822   2.647
 2913SOL    HW1 9638   2.643   4.843   2.563
 2913SOL    HW2 9639   2.790   4.842   2.634
 2914SOL     OW 9640   6.090   6.563   6.875
 2914SOL    HW1 9641   6.134   6.636   6.926
 2914SOL    HW2 9642   6.106   6.476   6.922
 2915SOL     OW 9643   5.640   1.494   3.845
 2915SOL    HW1 9644   5.587   1.420   3.885
 2915SOL    HW2 9645   5.601   1.582   3.870
 2916SOL     OW 9646   0.999   6.527   6.924
 2916SOL    HW1 9647   0.921   6.542   6.984
 2916SOL    HW2 9648   0.971   6.466   6.849
 2917SOL     OW 9649   2.589   6.964   2.914
 2917SOL    HW1 9650   2.535   7.015   2.980
 2917SOL    HW2 9651   2.544   6.876   2.894
 2918SOL     OW 9652   6.578   5.384   4.849
 2918SOL    HW1 9653   6.593   5.440   4.930
 2918SOL    HW2 9654   6.491   5.410   4.806
 2919SOL     OW 9655   6.863   1.065   1.784
 2919SOL    HW1 9656   6.831   1.159   1.792
 2919SOL    HW2 9657   6.960   1.061   1.808
 2920SOL     OW 9658   2.617   1.504   1.343
 2920SOL    HW1 9659   2.526   1.535   1.371
 2920SOL    HW2 9660   2.685   1.574   1.366
 2921SOL     OW 9661   0.897   0.202   3.620
 2921SOL    HW1 9662   0.883   0.103   3.613
 2921SOL    HW2 9663   0.940   0.236   3.536
 2922SOL     OW 9664   4.891   0.402   0.268
 2922SOL    HW1 9665   4.893   0.488   0.320
 2922SOL    HW2 9666   4.805   0.396   0.218
 2923SOL     OW 9667   6.754   5.132   2.040
 2923SOL    HW1 9668   6.721   5.067   1.971
 2923SOL    HW2 9669   6.794   5.211   1.994
 2924SOL     OW 9670   6.563   2.276   5.971
 2924SOL    HW1 9671   6.599   2.202   6.028
 2924SOL    HW2 9672   6.492   2.240   5.910
 2925SOL     OW 9673   4.603   0.665   2.067
 2925SOL    HW1 9674   4.562   0.593   2.010
 2925SOL    HW2 9675   4.533   0.730   2.095
 2926SOL     OW 9676   6.634   1.813   4.285
 2926SOL    HW1 9677   6.624   1.876   4.361
 2926SOL    HW2 9678   6.705   1.847   4.222
 2927SOL     OW 9679   0.874   2.957   1.847
 2927SOL    HW1 9680   0.883   2.938   1.750
 2927SOL    HW2 9681   0.906   2.878   1.900
 2928SOL     OW 9682   0.285   1.333   6.368
 2928SOL    HW1 9683   0.281   1.234   6.359
 2928SOL    HW2 9684   0.329   1.357   6.454
 2929SOL     OW 9685   0.020   2.316   6.722
 2929SOL    HW1 9686   0.045   2.233   6.671
 2929SOL    HW2 9687   0.101   2.372   6.736
 2930SOL     OW 9688   4.676   0.279   5.192
 2930SOL    HW1 9689   4.661   0.363   5.244
 2930SOL    HW2 9690   4.657   0.199   5.250
 2931SOL     OW 9691   5.543   4.696   0.435
 2931SOL    HW1 9692   5.521   4.660   0.345
 2931SOL    HW2 9693   5.463   4.744   0.473
 2932SOL     OW 9694   0.833   5.372   1.099
 2932SOL    HW1 9695   0.767   5.362   1.025
 2932SOL    HW2 9696   0.852   5.469   1.114
 2933SOL     OW 9697   6.707   4.905   3.440
 2933SOL    HW1 9698   6.665   4.951   3.518
 2933SOL    HW2 9699   6.791   4.860   3.469
 2934SOL     OW 9700   4.497   1.118   0.230
 2934SOL    HW1 9701   4.507   1.165   0.142
 2934SOL    HW2 9702   4.515   1.182   0.304
 2935SOL     OW 9703   6.063   2.886   0.427
 2935SOL    HW1 9704   6.052   2.958   0.358
 2935SOL    HW2 9705   6.035   2.798   0.389
 2936SOL     OW 9706   4.057   6.007   1.308
 2936SOL    HW1 9707   4.059   6.032   1.405
 2936SOL    HW2 9708   4.018   6.082   1.255
 2937SOL     OW 9709   4.683   4.546   0.369
 2937SOL    HW1 9710   4.676   4.643   0.346
 2937SOL    HW2 9711   4.679   4.534   0.468
 2938SOL     OW 9712   4.545   5.072   0.167
 2938SOL    HW1 9713   4.464   5.128   0.152
 2938SOL    HW2 9714   4.526   4.978   0.140
 2939SOL     OW 9715   1.186   0.787   3.438
 2939SOL    HW1 9716   1.274   0.826   3.413
 2939SOL    HW2 9717   1.116   0.819   3.374
 2940SOL     OW 9718   5.631   5.216   6.128
 2940SOL    HW1 9719   5.607   5.285   6.060
 2940SOL    HW2 9720   5.677   5.259   6.205
 2941SOL     OW 9721   1.910   2.933   4.613
 2941SOL    HW1 9722   1.960   2.863   4.664
 2941SOL    HW2 9723   1.896   2.902   4.519
 2942SOL     OW 9724   3.322   2.334   0.953
 2942SOL    HW1 9725   3.333   2.409   0.889
 2942SOL    HW2 9726   3.331   2.368   1.047
 2943SOL     OW 9727   4.741   4.660   2.654
 2943SOL    HW1 9728   4.688   4.677   2.737
 2943SOL    HW2 9729   4.715   4.572   2.614
 2944SOL     OW 9730   2.851   5.956   4.612
 2944SOL    HW1 9731   2.757   5.923   4.623
 2944SOL    HW2 9732   2.902   5.891   4.554
 2945SOL     OW 9733   3.574   4.182   4.144
 2945SOL    HW1 9734   3.549   4.192   4.240
 2945SOL    HW2 9735   3.672   4.164   4.137
 2946SOL     OW 9736   0.957   5.142   6.099
 2946SOL    HW1 9737   0.922   5.211   6.163
 2946SOL    HW2 9738   0.991   5.187   6.017
 2947SOL     OW 9739   0.319   3.089   1.034
 2947SOL    HW1 9740   0.373   3.006   1.039
 2947SOL    HW2 9741   0.284   3.100   0.941
 2948SOL     OW 9742   0.698   4.464   5.286
 2948SOL    HW1 9743   0.679   4.560   5.263
 2948SOL    HW2 9744   0.757   4.461   5.367
 2949SOL     OW 9745   2.710   4.967   0.824
 2949SOL    HW1 9746   2.737   5.037   0.759
 2949SOL    HW2 9747   2.779   4.960   0.896
 2950SOL     OW 9748   5.339   4.152   4.288
 2950SOL    HW1 9749   5.371   4.081   4.350
 2950SOL    HW2 9750   5.385   4.142   4.200
 2951SOL     OW 9751   6.030   1.641   1.122
 2951SOL    HW1 9752   6.017   1.737   1.148
 2951SOL    HW2 9753   6.084   1.594   1.191
 2952SOL     OW 9754   0.779   5.425   5.256
 2952SOL    HW1 9755   0.795   5.370   5.174
 2952SOL    HW2 9756   0.865   5.468   5.284
 2953SOL     OW 9757   5.123   3.084   2.841
 2953SOL    HW1 9758   5.112   3.147   2.918
 2953SOL    HW2 9759   5.076   2.998   2.862
 2954SOL     OW 9760   0.045   5.642   1.825
 2954SOL    HW1 9761   0.145   5.647   1.823
 2954SOL    HW2 9762   0.011   5.698   1.901
 2955SOL     OW 9763   1.080   3.916   1.635
 2955SOL    HW1 9764   1.127   3.833   1.667
 2955SOL    HW2 9765   1.017   3.892   1.561
 2956SOL     OW 9766   5.666   6.286   3.113
 2956SOL    HW1 9767   5.616   6.318   3.033
 2956SOL    HW2 9768   5.645   6.344   3.192
 2957SOL     OW 9769   6.059   3.016   1.995
 2957SOL    HW1 9770   6.086   2.925   1.962
 2957SOL    HW2 9771   5.983   3.051   1.940
 2958SOL     OW 9772   2.270   4.974   4.031
 2958SOL    HW1 9773   2.241   5.041   4.100
 2958SOL    HW2 9774   2.340   4.914   4.069
 2959SOL     OW 9775   4.349   4.260   0.593
 2959SOL    HW1 9776   4.293   4.336   0.561
 2959SOL    HW2 9777   4.313   4.226   0.680
 2960SOL     OW 9778   3.621   0.578   6.416
 2960SOL    HW1 9779   3.656   0.489   6.445
 2960SOL    HW2 9780   3.692   0.648   6.428
 2961SOL     OW 9781   4.853   3.087   3.078
 2961SOL    HW1 9782   4.834   3.185   3.086
 2961SOL    HW2 9783   4.782   3.043   3.024
 2962SOL     OW 9784   4.082   0.581   3.272
 2962SOL    HW1 9785   4.011   0.513   3.251
 2962SOL    HW2 9786   4.107   0.574   3.369
 2963SOL     OW 9787   2.026   0.467   6.480
 2963SOL    HW1 9788   2.014   0.461   6.579
 2963SOL    HW2 9789   1.939   0.450   6.435
 2964SOL     OW 9790   0.855   0.471   2.997
 2964SOL    HW1 9791   0.876   0.496   3.091
 2964SOL    HW2 9792   0.802   0.545   2.954
 2965SOL     OW 9793   6.609   1.984   4.493
 2965SOL    HW1 9794   6.697   2.013   4.532
 2965SOL    HW2 9795   6.550   1.949   4.565
 2966SOL     OW 9796   5.916   6.018   4.121
 2966SOL    HW1 9797   5.836   5.973   4.082
 2966SOL    HW2 9798   5.887   6.097   4.175
 2967SOL     OW 9799   5.639   0.843   4.745
 2967SOL    HW1 9800   5.574   0.847   4.821
 2967SOL    HW2 9801   5.678   0.751   4.740
 2968SOL     OW 9802   0.759   3.325   6.359
 2968SOL    HW1 9803   0.856   3.300   6.348
 2968SOL    HW2 9804   0.736   3.399   6.297
 2969SOL     OW 9805   5.488   1.290   3.968
 2969SOL    HW1 9806   5.490   1.299   4.068
 2969SOL    HW2 9807   5.493   1.194   3.942
 2970SOL     OW 9808   1.852   4.588   5.977
 2970SOL    HW1 9809   1.800   4.543   6.049
 2970SOL    HW2 9810   1.896   4.670   6.014
 2971SOL     OW 9811   4.964   3.652   0.006
 2971SOL    HW1 9812   4.960   3.683   0.102
 2971SOL    HW2 9813   5.060   3.641   7.004
 2972SOL     OW 9814   6.341   4.449   6.495
 2972SOL    HW1 9815   6.245   4.436   6.518
 2972SOL    HW2 9816   6.363   4.399   6.411
 2973SOL     OW 9817   5.290   0.329   3.333
 2973SOL    HW1 9818   5.346   0.292   3.259
 2973SOL    HW2 9819   5.195   0.299   3.321
 2974SOL     OW 9820   0.352   4.776   2.858
 2974SOL    HW1 9821   0.404   4.743   2.780
 2974SOL    HW2 9822   0.262   4.733   2.858
 2975SOL     OW 9823   6.219   2.833   4.598
 2975SOL    HW1 9824   6.279   2.911   4.612
 2975SOL    HW2 9825   6.246   2.759   4.659
 2976SOL     OW 9826   3.774   2.072   3.945
 2976SOL    HW1 9827   3.685   2.108   3.916
 2976SOL    HW2 9828   3.846   2.109   3.887
 2977SOL     OW 9829   2.810   0.006   3.273
 2977SOL    HW1 9830   2.829   0.008   3.371
 2977SOL    HW2 9831   2.798   6.936   3.243
 2978SOL     OW 9832   4.596   4.577   0.114
 2978SOL    HW1 9833   4.558   4.503   0.058
 2978SOL    HW2 9834   4.648   4.538   0.190
 2979SOL     OW 9835   4.601   0.945   4.399
 2979SOL    HW1 9836   4.664   0.980   4.329
 2979SOL    HW2 9837   4.652   0.917   4.479
 2980SOL     OW 9838   1.464   6.382   3.860
 2980SOL    HW1 9839   1.404   6.427   3.927
 2980SOL    HW2 9840   1.459   6.283   3.874
 2981SOL     OW 9841   2.273   1.115   6.016
 2981SOL    HW1 9842   2.252   1.103   5.919
 2981SOL    HW2 9843   2.333   1.194   6.028
 2982SOL     OW 9844   4.105   5.214   3.084
 2982SOL    HW1 9845   4.121   5.180   3.176
 2982SOL    HW2 9846   4.193   5.240   3.043
 2983SOL     OW 9847   0.921   1.541   3.234
 2983SOL    HW1 9848   0.921   1.526   3.333
 2983SOL    HW2 9849   0.853   1.481   3.192
 2984SOL     OW 9850   5.292   5.683   1.467
 2984SOL    HW1 9851   5.306   5.767   1.519
 2984SOL    HW2 9852   5.233   5.702   1.388
 2985SOL     OW 9853   1.210   3.009   5.695
 2985SOL    HW1 9854   1.207   2.909   5.700
 2985SOL    HW2 9855   1.134   3.042   5.640
 2986SOL     OW 9856   3.240   3.886   5.125
 2986SOL    HW1 9857   3.178   3.865   5.050
 2986SOL    HW2 9858   3.251   3.985   5.132
 2987SOL     OW 9859   6.001   1.007   4.639
 2987SOL    HW1 9860   6.033   0.950   4.716
 2987SOL    HW2 9861   6.079   1.054   4.598
 2988SOL     OW 9862   0.632   5.929   2.616
 2988SOL    HW1 9863   0.717   5.981   2.602
 2988SOL    HW2 9864   0.605   5.886   2.530
 2989SOL     OW 9865   6.627   6.078   6.854
 2989SOL    HW1 9866   6.692   6.083   6.778
 2989SOL    HW2 9867   6.540   6.039   6.821
 2990SOL     OW 9868   4.457   1.962   4.498
 2990SOL    HW1 9869   4.388   1.982   4.428
 2990SOL    HW2 9870   4.423   1.993   4.587
 2991SOL     OW 9871   6.519   4.419   5.841
 2991SOL    HW1 9872   6.487   4.455   5.929
 2991SOL    HW2 9873   6.447   4.430   5.772
 2992SOL     OW 9874   2.827   5.478   4.917
 2992SOL    HW1 9875   2.882   5.398   4.895
 2992SOL    HW2 9876   2.765   5.498   4.841
 2993SOL     OW 9877   0.569   5.695   0.929
 2993SOL    HW1 9878   0.502   5.741   0.870
 2993SOL    HW2 9879   0.531   5.686   1.021
 2994SOL     OW 9880   3.986   6.908   6.709
 2994SOL    HW1 9881   3.911   6.955   6.662
 2994SOL    HW2 9882   3.948   6.849   6.780
 2995SOL     OW 9883   3.021   2.764   6.493
 2995SOL    HW1 9884   2.955   2.693   6.519
 2995SOL    HW2 9885   3.007   2.845   6.550
 2996SOL     OW 9886   2.328   0.466   3.240
 2996SOL    HW1 9887   2.300   0.513   3.157
 2996SOL    HW2 9888   2.399   0.520   3.286
 2997SOL     OW 9889   5.413   1.065   2.472
 2997SOL    HW1 9890   5.409   1.035   2.377
 2997SOL    HW2 9891   5.323   1.097   2.501
 2998SOL     OW 9892   3.938   0.352   4.234
 2998SOL    HW1 9893   3.873   0.397   4.173
 2998SOL    HW2 9894   4.030   0.387   4.216
 2999SOL     OW 9895   2.988   4.826   4.521
 2999SOL    HW1 9896   3.064   4.866   4.570
 2999SOL    HW2 9897   2.914   4.893   4.513
 3000SOL     OW 9898   2.337   3.188   0.243
 3000SOL    HW1 9899   2.322   3.285   0.256
 3000SOL    HW2 9900   2.435   3.171   0.231
 3001SOL     OW 9901   5.473   6.852   6.325
 3001SOL    HW1 9902   5.375   6.842   6.308
 3001SOL    HW2 9903   5.502   6.945   6.302
 3002SOL     OW 9904   3.797   0.965   6.666
 3002SOL    HW1 9905   3.827   0.960   6.762
 3002SOL    HW2 9906   3.714   1.020   6.660
 3003SOL     OW 9907   1.744   6.401   0.230
 3003SOL    HW1 9908   1.803   6.331   0.188
 3003SOL    HW2 9909   1.791   6.490   0.226
 3004SOL     OW 9910   1.098   4.338   3.569
 3004SOL    HW1 9911   1.120   4.347   3.666
 3004SOL    HW2 9912   1.079   4.428   3.530
 3005SOL     OW 9913   3.713   2.341   7.011
 3005SOL    HW1 9914   3.696   2.252   6.969
 3005SOL    HW2 9915   3.785   2.388   6.960
 3006SOL     OW 9916   5.578   1.804   5.956
 3006SOL    HW1 9917   5.502   1.795   5.891
 3006SOL    HW2 9918   5.586   1.899   5.986
 3007SOL     OW 9919   5.939   5.544   1.065
 3007SOL    HW1 9920   5.935   5.644   1.064
 3007SOL    HW2 9921   5.883   5.509   1.139
 3008SOL     OW 9922   3.713   1.951   6.512
 3008SOL    HW1 9923   3.738   1.972   6.607
 3008SOL    HW2 9924   3.626   1.902   6.510
 3009SOL     OW 9925   0.498   0.854   2.527
 3009SOL    HW1 9926   0.539   0.933   2.573
 3009SOL    HW2 9927   0.400   0.852   2.544
 3010SOL     OW 9928   3.371   5.859   2.877
 3010SOL    HW1 9929   3.315   5.940   2.859
 3010SOL    HW2 9930   3.367   5.797   2.798
 3011SOL     OW 9931   5.555   1.396   1.298
 3011SOL    HW1 9932   5.515   1.362   1.213
 3011SOL    HW2 9933   5.646   1.356   1.309
 3012SOL     OW 9934   1.131   3.649   5.649
 3012SOL    HW1 9935   1.090   3.670   5.737
 3012SOL    HW2 9936   1.071   3.682   5.576
 3013SOL     OW 9937   5.628   5.737   5.413
 3013SOL    HW1 9938   5.546   5.721   5.359
 3013SOL    HW2 9939   5.603   5.769   5.504
 3014SOL     OW 9940   4.827   2.356   4.574
 3014SOL    HW1 9941   4.921   2.371   4.541
 3014SOL    HW2 9942   4.800   2.262   4.554
 3015SOL     OW 9943   3.660   2.014   0.403
 3015SOL    HW1 9944   3.663   2.106   0.362
 3015SOL    HW2 9945   3.593   2.014   0.477
 3016SOL     OW 9946   2.372   6.217   4.177
 3016SOL    HW1 9947   2.421   6.196   4.092
 3016SOL    HW2 9948   2.351   6.132   4.225
 3017SOL     OW 9949   6.744   4.983   1.769
 3017SOL    HW1 9950   6.755   4.983   1.670
 3017SOL    HW2 9951   6.658   4.938   1.793
 3018SOL     OW 9952   3.354   6.147   6.087
 3018SOL    HW1 9953   3.363   6.048   6.078
 3018SOL    HW2 9954   3.291   6.182   6.018
 3019SOL     OW 9955   0.740   0.134   6.505
 3019SOL    HW1 9956   0.734   0.182   6.592
 3019SOL    HW2 9957   0.831   0.144   6.467
 3020SOL     OW 9958   4.090   3.118   1.799
 3020SOL    HW1 9959   4.084   3.031   1.751
 3020SOL    HW2 9960   4.177   3.162   1.779
 3021SOL     OW 9961   3.112   6.923   0.055
 3021SOL    HW1 9962   3.177   6.851   0.031
 3021SOL    HW2 9963   3.028   6.881   0.091
 3022SOL     OW 9964   3.839   5.437   4.205
 3022SOL    HW1 9965   3.805   5.359   4.152
 3022SOL    HW2 9966   3.899   5.493   4.147
 3023SOL     OW 9967   4.249   0.209   2.812
 3023SOL    HW1 9968   4.218   0.288   2.865
 3023SOL    HW2 9969   4.259   0.130   2.872
 3024SOL     OW 9970   4.082   6.633   5.412
 3024SOL    HW1 9971   4.180   6.642   5.393
 3024SOL    HW2 9972   4.061   6.536   5.429
 3025SOL     OW 9973   3.542   1.215   0.745
 3025SOL    HW1 9974   3.477   1.290   0.749
 3025SOL    HW2 9975   3.571   1.200   0.650
 3026SOL     OW 9976   1.234   0.509   0.568
 3026SOL    HW1 9977   1.242   0.459   0.655
 3026SOL    HW2 9978   1.236   0.607   0.587
 3027SOL     OW 9979   3.706   0.481   2.964
 3027SOL    HW1 9980   3.706   0.466   2.865
 3027SOL    HW2 9981   3.792   0.525   2.991
 3028SOL     OW 9982   1.104   4.377   5.220
 3028SOL    HW1 9983   1.035   4.390   5.150
 3028SOL    HW2 9984   1.190   4.420   5.191
 3029SOL     OW 9985   0.219   2.746   4.637
 3029SOL    HW1 9986   0.314   2.727   4.664
 3029SOL    HW2 9987   0.215   2.835   4.591
 3030SOL     OW 9988   0.904   2.979   6.130
 3030SOL    HW1 9989   0.812   2.948   6.106
 3030SOL    HW2 9990   0.922   2.959   6.226
 3031SOL     OW 9991   0.766   3.603   0.475
 3031SOL    HW1 9992   0.834   3.677   0.478
 3031SOL    HW2 9993   0.741   3.584   0.380
 3032SOL     OW 9994   3.611   6.816   1.306
 3032SOL    HW1 9995   3.548   6.873   1.255
 3032SOL    HW2 9996   3.633   6.860   1.393
 3033SOL     OW 9997   6.253   2.140   1.837
 3033SOL    HW1 9998   6.250   2.152   1.936
 3033SOL    HW2 9999   6.341   2.170   1.802
 3034SOL     OW10000   1.479   5.618   2.952
 3034SOL    HW110001   1.526   5.693   2.904
 3034SOL    HW210002   1.385   5.612   2.919
 3035SOL     OW10003   0.191   3.034   6.724
 3035SOL    HW110004   0.277   3.080   6.742
 3035SOL    HW210005   0.153   3.066   6.637
 3036SOL     OW10006   1.852   1.769   6.323
 3036SOL    HW110007   1.843   1.708   6.402
 3036SOL    HW210008   1.944   1.808   6.321
 3037SOL     OW10009   6.680   5.760   5.298
 3037SOL    HW110010   6.639   5.850   5.311
 3037SOL    HW210011   6.674   5.708   5.383
 3038SOL     OW10012   5.858   6.423   6.393
 3038SOL    HW110013   5.856   6.442   6.294
 3038SOL    HW210014   5.811   6.336   6.411
 3039SOL     OW10015   6.992   3.730   1.300
 3039SOL    HW110016   6.954   3.823   1.308
 3039SOL    HW210017   6.940   3.668   1.359
 3040SOL     OW10018   3.814   3.583   6.350
 3040SOL    HW110019   3.880   3.655   6.329
 3040SOL    HW210020   3.861   3.495   6.355
 3041SOL     OW10021   2.357   2.703   4.101
 3041SOL    HW110022   2.364   2.801   4.086
 3041SOL    HW210023   2.264   2.680   4.130
 3042SOL     OW10024   4.101   6.225   2.153
 3042SOL    HW110025   4.091   6.208   2.251
 3042SOL    HW210026   4.171   6.165   2.116
 3043SOL     OW10027   2.027   5.572   1.366
 3043SOL    HW110028   1.997   5.495   1.423
 3043SOL    HW210029   2.127   5.578   1.368
 3044SOL     OW10030   3.470   3.829   6.113
 3044SOL    HW110031   3.409   3.816   6.034
 3044SOL    HW210032   3.553   3.775   6.100
 3045SOL     OW10033   4.588   0.761   2.941
 3045SOL    HW110034   4.662   0.828   2.948
 3045SOL    HW210035   4.594   0.713   2.854
 3046SOL     OW10036   2.134   0.818   6.172
 3046SOL    HW110037   2.093   0.765   6.246
 3046SOL    HW210038   2.065   0.836   6.102
 3047SOL     OW10039   5.886   0.210   2.242
 3047SOL    HW110040   5.841   0.219   2.153
 3047SOL    HW210041   5.928   0.297   2.267
 3048SOL     OW10042   3.822   2.371   1.654
 3048SOL    HW110043   3.755   2.371   1.729
 3048SOL    HW210044   3.856   2.464   1.640
 3049SOL     OW10045   0.772   0.050   2.324
 3049SOL    HW110046   0.771   0.122   2.255
 3049SOL    HW210047   0.680   0.011   2.332
 3050SOL     OW10048   2.980   1.166   2.242
 3050SOL    HW110049   3.048   1.109   2.196
 3050SOL    HW210050   2.905   1.108   2.274
 3051SOL     OW10051   2.081   4.234   0.013
 3051SOL    HW110052   2.086   4.334   0.020
 3051SOL    HW210053   1.987   4.207   7.016
 3052SOL     OW10054   5.590   0.032   1.846
 3052SOL    HW110055   5.566   0.039   1.749
 3052SOL    HW210056   5.659   6.986   1.858
 3053SOL     OW10057   6.999   1.577   6.939
 3053SOL    HW110058   6.991   1.540   0.007
 3053SOL    HW210059   6.979   1.675   6.942
 3054SOL     OW10060   6.665   1.997   0.742
 3054SOL    HW110061   6.574   1.985   0.703
 3054SOL    HW210062   6.684   1.924   0.807
 3055SOL     OW10063   5.266   0.048   3.995
 3055SOL    HW110064   5.299   0.141   4.013
 3055SOL    HW210065   5.328   7.006   4.038
 3056SOL     OW10066   5.925   0.587   4.985
 3056SOL    HW110067   5.901   0.677   5.022
 3056SOL    HW210068   5.883   0.516   5.041
 3057SOL     OW10069   4.111   6.365   3.018
 3057SOL    HW110070   4.197   6.331   2.980
 3057SOL    HW210071   4.122   6.381   3.116
 3058SOL     OW10072   0.058   5.598   0.785
 3058SOL    HW110073   0.036   5.555   0.698
 3058SOL    HW210074   0.028   5.694   0.783
 3059SOL     OW10075   2.675   2.432   4.740
 3059SOL    HW110076   2.758   2.376   4.749
 3059SOL    HW210077   2.654   2.474   4.829
 3060SOL     OW10078   0.506   5.333   0.499
 3060SOL    HW110079   0.443   5.341   0.421
 3060SOL    HW210080   0.586   5.279   0.471
 3061SOL     OW10081   6.934   0.214   5.499
 3061SOL    HW110082   6.954   0.130   5.449
 3061SOL    HW210083   6.930   0.194   5.597
 3062SOL     OW10084   1.652   0.248   6.964
 3062SOL    HW110085   1.570   0.227   6.911
 3062SOL    HW210086   1.701   0.164   6.984
 3063SOL     OW10087   2.562   5.488   1.526
 3063SOL    HW110088   2.468   5.479   1.495
 3063SOL    HW210089   2.571   5.448   1.617
 3064SOL     OW10090   5.717   4.429   2.978
 3064SOL    HW110091   5.618   4.436   2.970
 3064SOL    HW210092   5.753   4.512   3.021
 3065SOL     OW10093   2.286   0.428   0.646
 3065SOL    HW110094   2.190   0.405   0.628
 3065SOL    HW210095   2.334   0.441   0.559
 3066SOL     OW10096   5.674   5.122   0.821
 3066SOL    HW110097   5.637   5.114   0.729
 3066SOL    HW210098   5.617   5.071   0.885
 3067SOL     OW10099   3.950   1.974   5.413
 3067SOL    HW110100   3.948   1.973   5.513
 3067SOL    HW210101   3.929   2.067   5.380
 3068SOL     OW10102   6.305   6.745   1.918
 3068SOL    HW110103   6.356   6.677   1.971
 3068SOL    HW210104   6.207   6.734   1.936
 3069SOL     OW10105   6.679   6.250   1.897
 3069SOL    HW110106   6.600   6.242   1.837
 3069SOL    HW210107   6.761   6.268   1.841
 3070SOL     OW10108   1.853   1.386   0.864
 3070SOL    HW110109   1.874   1.300   0.911
 3070SOL    HW210110   1.931   1.448   0.873
 3071SOL     OW10111   6.154   6.467   3.090
 3071SOL    HW110112   6.160   6.373   3.057
 3071SOL    HW210113   6.245   6.499   3.114
 3072SOL     OW10114   1.884   6.622   0.216
 3072SOL    HW110115   1.886   6.620   0.116
 3072SOL    HW210116   1.833   6.703   0.246
 3073SOL     OW10117   6.354   2.984   4.204
 3073SOL    HW110118   6.315   2.908   4.153
 3073SOL    HW210119   6.383   2.952   4.295
 3074SOL     OW10120   6.142   3.561   1.115
 3074SOL    HW110121   6.102   3.483   1.164
 3074SOL    HW210122   6.083   3.587   1.039
 3075SOL     OW10123   2.299   6.189   1.894
 3075SOL    HW110124   2.359   6.216   1.969
 3075SOL    HW210125   2.348   6.197   1.807
 3076SOL     OW10126   6.799   0.052   4.854
 3076SOL    HW110127   6.796   7.019   4.772
 3076SOL    HW210128   6.782   7.020   4.935
 3077SOL     OW10129   4.837   6.033   2.202
 3077SOL    HW110130   4.794   5.961   2.148
 3077SOL    HW210131   4.784   6.049   2.286
 3078SOL     OW10132   0.687   2.944   2.451
 3078SOL    HW110133   0.782   2.947   2.418
 3078SOL    HW210134   0.656   3.036   2.472
 3079SOL     OW10135   2.547   2.133   3.634
 3079SOL    HW110136   2.511   2.222   3.608
 3079SOL    HW210137   2.512   2.108   3.724
 3080SOL     OW10138   4.889   3.886   3.460
 3080SOL    HW110139   4.873   3.893   3.361
 3080SOL    HW210140   4.877   3.976   3.502
 3081SOL     OW10141   0.418   2.051   5.787
 3081SOL    HW110142   0.481   2.074   5.713
 3081SOL    HW210143   0.416   2.125   5.853
 3082SOL     OW10144   2.923   6.472   4.136
 3082SOL    HW110145   2.955   6.532   4.209
 3082SOL    HW210146   2.837   6.429   4.165
 3083SOL     OW10147   4.140   6.182   3.829
 3083SOL    HW110148   4.073   6.135   3.887
 3083SOL    HW210149   4.155   6.274   3.864
 3084SOL     OW10150   5.932   3.876   4.861
 3084SOL    HW110151   5.847   3.874   4.915
 3084SOL    HW210152   5.953   3.784   4.829
 3085SOL     OW10153   6.491   4.394   1.429
 3085SOL    HW110154   6.567   4.411   1.366
 3085SOL    HW210155   6.515   4.317   1.489
 3086SOL     OW10156   4.577   1.585   1.546
 3086SOL    HW110157   4.486   1.568   1.507
 3086SOL    HW210158   4.570   1.590   1.646
 3087SOL     OW10159   0.203   5.498   3.575
 3087SOL    HW110160   0.230   5.457   3.662
 3087SOL    HW210161   0.236   5.593   3.571
 3088SOL     OW10162   1.687   4.696   4.952
 3088SOL    HW110163   1.674   4.598   4.940
 3088SOL    HW210164   1.649   4.745   4.874
 3089SOL     OW10165   1.483   3.379   6.688
 3089SOL    HW110166   1.436   3.359   6.774
 3089SOL    HW210167   1.581   3.393   6.706
 3090SOL     OW10168   1.509   2.198   1.964
 3090SOL    HW110169   1.457   2.281   1.985
 3090SOL    HW210170   1.606   2.221   1.958
 3091SOL     OW10171   1.682   1.462   1.122
 3091SOL    HW110172   1.714   1.456   1.217
 3091SOL    HW210173   1.708   1.378   1.073
 3092SOL     OW10174   4.575   0.364   0.563
 3092SOL    HW110175   4.477   0.349   0.575
 3092SOL    HW210176   4.625   0.296   0.616
 3093SOL     OW10177   5.516   6.608   5.648
 3093SOL    HW110178   5.597   6.665   5.637
 3093SOL    HW210179   5.473   6.593   5.559
 3094SOL     OW10180   2.807   6.772   4.251
 3094SOL    HW110181   2.890   6.721   4.276
 3094SOL    HW210182   2.729   6.710   4.251
 3095SOL     OW10183   2.156   5.366   5.320
 3095SOL    HW110184   2.246   5.325   5.337
 3095SOL    HW210185   2.114   5.392   5.407
 3096SOL     OW10186   1.761   6.082   5.021
 3096SOL    HW110187   1.684   6.033   4.981
 3096SOL    HW210188   1.735   6.121   5.109
 3097SOL     OW10189   6.102   2.582   0.433
 3097SOL    HW110190   6.050   2.566   0.350
 3097SOL    HW210191   6.192   2.620   0.409
 3098SOL     OW10192   3.201   3.497   0.896
 3098SOL    HW110193   3.116   3.485   0.844
 3098SOL    HW210194   3.209   3.424   0.964
 3099SOL     OW10195   0.323   6.527   2.910
 3099SOL    HW110196   0.416   6.564   2.899
 3099SOL    HW210197   0.301   6.519   3.007
 3100SOL     OW10198   6.882   6.467   4.499
 3100SOL    HW110199   6.792   6.455   4.540
 3100SOL    HW210200   6.950   6.476   4.571
 3101SOL     OW10201   5.325   6.948   6.031
 3101SOL    HW110202   5.253   6.892   6.072
 3101SOL    HW210203   5.340   0.004   6.088
 3102SOL     OW10204   0.237   4.950   1.618
 3102SOL    HW110205   0.177   4.971   1.696
 3102SOL    HW210206   0.331   4.974   1.641
 3103SOL     OW10207   3.784   0.291   2.156
 3103SOL    HW110208   3.747   0.295   2.249
 3103SOL    HW210209   3.847   0.368   2.142
 3104SOL     OW10210   5.031   0.096   5.070
 3104SOL    HW110211   5.119   0.050   5.061
 3104SOL    HW210212   5.003   0.134   4.982
 3105SOL     OW10213   6.063   4.783   2.197
 3105SOL    HW110214   6.022   4.859   2.146
 3105SOL    HW210215   6.151   4.760   2.157
 3106SOL     OW10216   6.627   1.894   3.076
 3106SOL    HW110217   6.629   1.978   3.131
 3106SOL    HW210218   6.718   1.854   3.073
 3107SOL     OW10219   4.425   1.193   4.899
 3107SOL    HW110220   4.353   1.259   4.879
 3107SOL    HW210221   4.415   1.114   4.838
 3108SOL     OW10222   1.405   6.620   4.286
 3108SOL    HW110223   1.310   6.649   4.274
 3108SOL    HW210224   1.456   6.694   4.329
 3109SOL     OW10225   5.788   6.067   2.822
 3109SOL    HW110226   5.783   6.054   2.921
 3109SOL    HW210227   5.700   6.044   2.781
 3110SOL     OW10228   1.623   1.947   3.104
 3110SOL    HW110229   1.706   2.002   3.116
 3110SOL    HW210230   1.544   2.000   3.134
 3111SOL     OW10231   6.117   5.583   3.899
 3111SOL    HW110232   6.102   5.651   3.970
 3111SOL    HW210233   6.206   5.539   3.912
 3112SOL     OW10234   4.935   2.398   6.398
 3112SOL    HW110235   5.002   2.466   6.428
 3112SOL    HW210236   4.968   2.307   6.422
 3113SOL     OW10237   2.199   6.052   3.438
 3113SOL    HW110238   2.268   6.125   3.445
 3113SOL    HW210239   2.237   5.967   3.476
 3114SOL     OW10240   4.338   1.545   1.311
 3114SOL    HW110241   4.368   1.630   1.268
 3114SOL    HW210242   4.373   1.467   1.259
 3115SOL     OW10243   4.087   3.490   6.120
 3115SOL    HW110244   4.012   3.425   6.132
 3115SOL    HW210245   4.163   3.444   6.074
 3116SOL     OW10246   0.560   2.980   6.764
 3116SOL    HW110247   0.594   2.958   6.855
 3116SOL    HW210248   0.579   2.903   6.702
 3117SOL     OW10249   4.457   3.576   5.297
 3117SOL    HW110250   4.468   3.637   5.376
 3117SOL    HW210251   4.536   3.585   5.237
 3118SOL     OW10252   0.516   5.248   1.552
 3118SOL    HW110253   0.537   5.150   1.565
 3118SOL    HW210254   0.426   5.268   1.590
 3119SOL     OW10255   1.727   3.502   5.476
 3119SOL    HW110256   1.789   3.546   5.541
 3119SOL    HW210257   1.733   3.403   5.485
 3120SOL     OW10258   3.547   6.646   4.955
 3120SOL    HW110259   3.512   6.731   4.916
 3120SOL    HW210260   3.472   6.581   4.968
 3121SOL     OW10261   0.057   1.148   3.787
 3121SOL    HW110262   0.077   1.210   3.864
 3121SOL    HW210263   7.012   1.189   3.729
 3122SOL     OW10264   3.462   6.793   6.146
 3122SOL    HW110265   3.381   6.834   6.105
 3122SOL    HW210266   3.495   6.719   6.088
 3123SOL     OW10267   4.057   1.429   3.866
 3123SOL    HW110268   4.099   1.340   3.888
 3123SOL    HW210269   4.070   1.448   3.769
 3124SOL     OW10270   3.653   0.469   4.529
 3124SOL    HW110271   3.697   0.529   4.463
 3124SOL    HW210272   3.613   0.523   4.603
 3125SOL     OW10273   6.750   2.277   5.203
 3125SOL    HW110274   6.730   2.374   5.216
 3125SOL    HW210275   6.672   2.223   5.233
 3126SOL     OW10276   4.870   5.251   5.992
 3126SOL    HW110277   4.823   5.169   6.026
 3126SOL    HW210278   4.867   5.253   5.892
 3127SOL     OW10279   1.259   3.288   4.260
 3127SOL    HW110280   1.359   3.292   4.252
 3127SOL    HW210281   1.230   3.192   4.262
 3128SOL     OW10282   2.642   0.516   6.666
 3128SOL    HW110283   2.719   0.452   6.665
 3128SOL    HW210284   2.670   0.600   6.711
 3129SOL     OW10285   0.255   3.541   6.526
 3129SOL    HW110286   0.174   3.508   6.478
 3129SOL    HW210287   0.243   3.528   6.624
 3130SOL     OW10288   1.844   4.282   1.541
 3130SOL    HW110289   1.801   4.200   1.503
 3130SOL    HW210290   1.794   4.311   1.622
 3131SOL     OW10291   6.969   2.287   1.024
 3131SOL    HW110292   6.869   2.287   1.021
 3131SOL    HW210293   7.001   2.361   1.083
 3132SOL     OW10294   4.359   5.904   6.060
 3132SOL    HW110295   4.283   5.942   6.007
 3132SOL    HW210296   4.328   5.884   6.153
 3133SOL     OW10297   3.400   1.798   4.117
 3133SOL    HW110298   3.435   1.721   4.170
 3133SOL    HW210299   3.439   1.796   4.025
 3134SOL     OW10300   5.111   4.152   1.048
 3134SOL    HW110301   5.192   4.208   1.069
 3134SOL    HW210302   5.031   4.211   1.042
 3135SOL     OW10303   5.231   0.785   5.648
 3135SOL    HW110304   5.231   0.831   5.736
 3135SOL    HW210305   5.141   0.746   5.630
 3136SOL     OW10306   5.552   0.745   0.781
 3136SOL    HW110307   5.644   0.720   0.751
 3136SOL    HW210308   5.552   0.755   0.880
 3137SOL     OW10309   6.189   0.895   3.429
 3137SOL    HW110310   6.253   0.966   3.400
 3137SOL    HW210311   6.204   0.875   3.526
 3138SOL     OW10312   6.297   3.841   4.004
 3138SOL    HW110313   6.222   3.887   3.956
 3138SOL    HW210314   6.267   3.815   4.096
 3139SOL     OW10315   5.264   6.496   0.329
 3139SOL    HW110316   5.184   6.509   0.270
 3139SOL    HW210317   5.290   6.584   0.368
 3140SOL     OW10318   5.845   0.253   6.783
 3140SOL    HW110319   5.938   0.216   6.780
 3140SOL    HW210320   5.785   0.190   6.831
 3141SOL     OW10321   0.198   6.126   6.302
 3141SOL    HW110322   0.294   6.113   6.327
 3141SOL    HW210323   0.191   6.199   6.234
 3142SOL     OW10324   3.868   6.942   1.855
 3142SOL    HW110325   3.804   7.008   1.894
 3142SOL    HW210326   3.820   6.856   1.837
 3143SOL     OW10327   6.501   1.441   6.583
 3143SOL    HW110328   6.596   1.473   6.588
 3143SOL    HW210329   6.489   1.362   6.643
 3144SOL     OW10330   4.393   4.066   1.456
 3144SOL    HW110331   4.375   4.088   1.552
 3144SOL    HW210332   4.484   4.100   1.431
 3145SOL     OW10333   2.179   5.918   1.152
 3145SOL    HW110334   2.164   6.014   1.176
 3145SOL    HW210335   2.091   5.876   1.129
 3146SOL     OW10336   1.491   6.878   2.902
 3146SOL    HW110337   1.454   6.918   2.818
 3146SOL    HW210338   1.469   6.939   2.979
 3147SOL     OW10339   3.031   4.993   0.555
 3147SOL    HW110340   3.096   4.982   0.481
 3147SOL    HW210341   3.075   4.970   0.642
 3148SOL     OW10342   5.127   5.914   4.827
 3148SOL    HW110343   5.192   5.990   4.820
 3148SOL    HW210344   5.176   5.830   4.852
 3149SOL     OW10345   2.784   1.427   6.350
 3149SOL    HW110346   2.863   1.366   6.341
 3149SOL    HW210347   2.726   1.394   6.425
 3150SOL     OW10348   6.604   6.299   3.848
 3150SOL    HW110349   6.589   6.253   3.936
 3150SOL    HW210350   6.698   6.286   3.819
 3151SOL     OW10351   4.814   1.345   6.192
 3151SOL    HW110352   4.892   1.396   6.229
 3151SOL    HW210353   4.816   1.349   6.092
 3152SOL     OW10354   1.719   5.933   0.199
 3152SOL    HW110355   1.692   5.843   0.165
 3152SOL    HW210356   1.641   5.996   0.191
 3153SOL     OW10357   6.556   4.830   1.875
 3153SOL    HW110358   6.592   4.788   1.959
 3153SOL    HW210359   6.577   4.772   1.797
 3154SOL     OW10360   6.032   1.309   6.505
 3154SOL    HW110361   6.057   1.294   6.600
 3154SOL    HW210362   5.964   1.383   6.500
 3155SOL     OW10363   6.143   4.382   1.715
 3155SOL    HW110364   6.058   4.349   1.756
 3155SOL    HW210365   6.186   4.449   1.776
 3156SOL     OW10366   3.296   3.416   3.366
 3156SOL    HW110367   3.307   3.317   3.367
 3156SOL    HW210368   3.303   3.450   3.272
 3157SOL     OW10369   2.291   2.817   4.797
 3157SOL    HW110370   2.273   2.876   4.876
 3157SOL    HW210371   2.373   2.763   4.814
 3158SOL     OW10372   4.560   0.246   2.986
 3158SOL    HW110373   4.596   0.247   3.079
 3158SOL    HW210374   4.613   0.309   2.929
 3159SOL     OW10375   5.189   1.565   6.943
 3159SOL    HW110376   5.093   1.579   6.917
 3159SOL    HW210377   5.193   1.505   7.024
 3160SOL     OW10378   0.121   6.067   5.108
 3160SOL    HW110379   0.160   6.025   5.191
 3160SOL    HW210380   0.158   6.020   5.027
 3161SOL     OW10381   1.783   1.501   3.202
 3161SOL    HW110382   1.707   1.455   3.156
 3161SOL    HW210383   1.821   1.440   3.272
 3162SOL     OW10384   1.245   6.561   2.171
 3162SOL    HW110385   1.286   6.650   2.190
 3162SOL    HW210386   1.196   6.565   2.084
 3163SOL     OW10387   4.210   2.193   6.250
 3163SOL    HW110388   4.142   2.126   6.221
 3163SOL    HW210389   4.224   2.186   6.348
 3164SOL     OW10390   4.676   4.147   1.414
 3164SOL    HW110391   4.732   4.076   1.372
 3164SOL    HW210392   4.676   4.135   1.514
 3165SOL     OW10393   0.906   5.873   0.600
 3165SOL    HW110394   0.872   5.876   0.694
 3165SOL    HW210395   0.831   5.848   0.538
 3166SOL     OW10396   4.836   1.778   5.504
 3166SOL    HW110397   4.906   1.798   5.436
 3166SOL    HW210398   4.783   1.860   5.523
 3167SOL     OW10399   6.827   3.948   1.779
 3167SOL    HW110400   6.731   3.974   1.794
 3167SOL    HW210401   6.839   3.851   1.800
 3168SOL     OW10402   4.373   2.259   0.048
 3168SOL    HW110403   4.469   2.244   0.070
 3168SOL    HW210404   4.317   2.240   0.129
 3169SOL     OW10405   1.203   3.605   4.796
 3169SOL    HW110406   1.275   3.672   4.774
 3169SOL    HW210407   1.190   3.603   4.895
 3170SOL     OW10408   4.167   1.002   1.206
 3170SOL    HW110409   4.137   1.032   1.297
 3170SOL    HW210410   4.134   1.066   1.138
 3171SOL     OW10411   0.280   6.594   1.446
 3171SOL    HW110412   0.257   6.691   1.454
 3171SOL    HW210413   0.361   6.584   1.388
 3172SOL     OW10414   0.468   5.352   6.658
 3172SOL    HW110415   0.429   5.413   6.727
 3172SOL    HW210416   0.423   5.263   6.662
 3173SOL     OW10417   3.171   2.475   0.663
 3173SOL    HW110418   3.198   2.567   0.692
 3173SOL    HW210419   3.097   2.442   0.722
 3174SOL     OW10420   2.992   2.926   6.833
 3174SOL    HW110421   3.026   2.958   6.745
 3174SOL    HW210422   3.062   2.938   6.903
 3175SOL     OW10423   6.484   0.094   0.637
 3175SOL    HW110424   6.555   0.023   0.638
 3175SOL    HW210425   6.421   0.079   0.713
 3176SOL     OW10426   1.701   4.709   4.628
 3176SOL    HW110427   1.801   4.713   4.620
 3176SOL    HW210428   1.664   4.657   4.551
 3177SOL     OW10429   4.720   4.268   4.423
 3177SOL    HW110430   4.679   4.284   4.513
 3177SOL    HW210431   4.773   4.348   4.396
 3178SOL     OW10432   6.506   2.209   0.264
 3178SOL    HW110433   6.544   2.249   0.347
 3178SOL    HW210434   6.447   2.132   0.287
 3179SOL     OW10435   1.958   2.760   2.466
 3179SOL    HW110436   2.039   2.814   2.443
 3179SOL    HW210437   1.914   2.798   2.547
 3180SOL     OW10438   4.448   0.966   6.930
 3180SOL    HW110439   4.481   0.905   7.003
 3180SOL    HW210440   4.525   0.991   6.871
 3181SOL     OW10441   0.847   1.017   2.826
 3181SOL    HW110442   0.802   1.027   2.915
 3181SOL    HW210443   0.897   0.930   2.824
 3182SOL     OW10444   2.558   1.739   5.034
 3182SOL    HW110445   2.574   1.820   5.092
 3182SOL    HW210446   2.509   1.670   5.087
 3183SOL     OW10447   4.282   4.049   1.713
 3183SOL    HW110448   4.189   4.082   1.698
 3183SOL    HW210449   4.329   4.110   1.776
 3184SOL     OW10450   1.272   2.602   2.725
 3184SOL    HW110451   1.359   2.644   2.748
 3184SOL    HW210452   1.283   2.543   2.645
 3185SOL     OW10453   5.935   6.070   0.149
 3185SOL    HW110454   6.015   6.128   0.166
 3185SOL    HW210455   5.916   6.070   0.050
 3186SOL     OW10456   3.774   1.837   2.160
 3186SOL    HW110457   3.796   1.799   2.070
 3186SOL    HW210458   3.816   1.927   2.169
 3187SOL     OW10459   4.650   3.882   0.801
 3187SOL    HW110460   4.695   3.970   0.817
 3187SOL    HW210461   4.594   3.888   0.718
 3188SOL     OW10462   3.992   6.473   5.150
 3188SOL    HW110463   3.902   6.512   5.130
 3188SOL    HW210464   3.989   6.374   5.136
 3189SOL     OW10465   1.570   1.598   1.819
 3189SOL    HW110466   1.536   1.506   1.840
 3189SOL    HW210467   1.574   1.651   1.904
 3190SOL     OW10468   0.062   6.267   0.822
 3190SOL    HW110469   0.043   6.314   0.909
 3190SOL    HW210470   0.096   6.333   0.756
 3191SOL     OW10471   4.045   6.910   0.624
 3191SOL    HW110472   4.019   6.863   0.709
 3191SOL    HW210473   4.134   6.875   0.594
 3192SOL     OW10474   0.345   2.586   0.735
 3192SOL    HW110475   0.356   2.491   0.765
 3192SOL    HW210476   0.262   2.594   0.681
 3193SOL     OW10477   4.457   1.667   6.011
 3193SOL    HW110478   4.405   1.663   6.096
 3193SOL    HW210479   4.545   1.620   6.024
 3194SOL     OW10480   0.406   3.197   5.943
 3194SOL    HW110481   0.381   3.235   5.854
 3194SOL    HW210482   0.359   3.110   5.956
 3195SOL     OW10483   2.632   2.332   3.060
 3195SOL    HW110484   2.705   2.272   3.029
 3195SOL    HW210485   2.655   2.369   3.151
 3196SOL     OW10486   0.063   0.783   5.533
 3196SOL    HW110487   7.023   0.734   5.592
 3196SOL    HW210488   0.081   0.728   5.451
 3197SOL     OW10489   1.631   6.408   3.406
 3197SOL    HW110490   1.655   6.315   3.377
 3197SOL    HW210491   1.579   6.404   3.491
 3198SOL     OW10492   6.289   2.161   5.854
 3198SOL    HW110493   6.236   2.209   5.924
 3198SOL    HW210494   6.299   2.065   5.880
 3199SOL     OW10495   4.711   2.737   2.114
 3199SOL    HW110496   4.694   2.700   2.023
 3199SOL    HW210497   4.708   2.837   2.110
 3200SOL     OW10498   6.735   2.466   2.025
 3200SOL    HW110499   6.644   2.473   2.066
 3200SOL    HW210500   6.738   2.388   1.963
 3201SOL     OW10501   5.095   4.231   4.568
 3201SOL    HW110502   5.005   4.191   4.585
 3201SOL    HW210503   5.140   4.181   4.494
 3202SOL     OW10504   1.118   4.631   1.837
 3202SOL    HW110505   1.094   4.535   1.821
 3202SOL    HW210506   1.199   4.653   1.783
 3203SOL     OW10507   6.114   2.530   6.728
 3203SOL    HW110508   6.202   2.563   6.692
 3203SOL    HW210509   6.096   2.439   6.693
 3204SOL     OW10510   4.892   6.689   1.824
 3204SOL    HW110511   4.969   6.711   1.883
 3204SOL    HW210512   4.923   6.685   1.729
 3205SOL     OW10513   0.235   3.925   6.822
 3205SOL    HW110514   0.195   3.855   6.880
 3205SOL    HW210515   0.223   4.015   6.864
 3206SOL     OW10516   0.315   6.889   6.163
 3206SOL    HW110517   0.376   6.898   6.084
 3206SOL    HW210518   0.370   6.872   6.246
 3207SOL     OW10519   0.478   1.317   6.176
 3207SOL    HW110520   0.422   1.349   6.252
 3207SOL    HW210521   0.516   1.396   6.127
 3208SOL     OW10522   5.082   6.378   5.246
 3208SOL    HW110523   5.024   6.459   5.243
 3208SOL    HW210524   5.025   6.296   5.238
 3209SOL     OW10525   3.607   5.617   2.864
 3209SOL    HW110526   3.657   5.598   2.948
 3209SOL    HW210527   3.534   5.549   2.852
 3210SOL     OW10528   0.592   4.333   1.495
 3210SOL    HW110529   0.670   4.382   1.533
 3210SOL    HW210530   0.507   4.364   1.539
 3211SOL     OW10531   2.622   3.115   1.192
 3211SOL    HW110532   2.588   3.168   1.115
 3211SOL    HW210533   2.551   3.107   1.262
 3212SOL     OW10534   2.911   1.285   0.104
 3212SOL    HW110535   2.889   1.363   0.046
 3212SOL    HW210536   2.840   1.274   0.174
 3213SOL     OW10537   6.240   5.734   2.272
 3213SOL    HW110538   6.333   5.697   2.272
 3213SOL    HW210539   6.175   5.660   2.287
 3214SOL     OW10540   4.961   5.401   0.599
 3214SOL    HW110541   5.016   5.400   0.515
 3214SOL    HW210542   4.992   5.475   0.659
 3215SOL     OW10543   0.163   3.277   1.131
 3215SOL    HW110544   0.120   3.311   1.048
 3215SOL    HW210545   0.252   3.236   1.108
 3216SOL     OW10546   5.601   5.533   1.933
 3216SOL    HW110547   5.583   5.519   2.031
 3216SOL    HW210548   5.515   5.533   1.883
 3217SOL     OW10549   0.319   5.481   2.716
 3217SOL    HW110550   0.381   5.539   2.663
 3217SOL    HW210551   0.364   5.453   2.801
 3218SOL     OW10552   3.886   6.787   3.577
 3218SOL    HW110553   3.841   6.763   3.491
 3218SOL    HW210554   3.821   6.778   3.653
 3219SOL     OW10555   0.258   1.837   3.732
 3219SOL    HW110556   0.344   1.834   3.681
 3219SOL    HW210557   0.214   1.926   3.718
 3220SOL     OW10558   6.602   5.719   6.052
 3220SOL    HW110559   6.555   5.746   5.968
 3220SOL    HW210560   6.650   5.798   6.090
 3221SOL     OW10561   2.824   6.996   1.620
 3221SOL    HW110562   2.889   0.029   1.670
 3221SOL    HW210563   2.731   7.023   1.644
 3222SOL     OW10564   4.106   1.533   3.234
 3222SOL    HW110565   4.123   1.631   3.236
 3222SOL    HW210566   4.068   1.507   3.145
 3223SOL     OW10567   1.947   5.206   6.818
 3223SOL    HW110568   2.013   5.236   6.887
 3223SOL    HW210569   1.967   5.111   6.793
 3224SOL     OW10570   4.570   3.667   6.705
 3224SOL    HW110571   4.646   3.648   6.767
 3224SOL    HW210572   4.517   3.744   6.741
 3225SOL     OW10573   4.628   3.170   5.347
 3225SOL    HW110574   4.673   3.080   5.351
 3225SOL    HW210575   4.553   3.172   5.413
 3226SOL     OW10576   1.384   1.451   4.457
 3226SOL    HW110577   1.420   1.544   4.463
 3226SOL    HW210578   1.285   1.452   4.472
 3227SOL     OW10579   3.087   2.459   6.120
 3227SOL    HW110580   3.060   2.459   6.216
 3227SOL    HW210581   3.125   2.549   6.096
 3228SOL     OW10582   5.503   3.903   3.209
 3228SOL    HW110583   5.490   3.849   3.127
 3228SOL    HW210584   5.600   3.912   3.229
 3229SOL     OW10585   3.589   1.777   5.610
 3229SOL    HW110586   3.670   1.825   5.577
 3229SOL    HW210587   3.519   1.776   5.538
 3230SOL     OW10588   1.276   3.045   3.994
 3230SOL    HW110589   1.222   3.051   4.078
 3230SOL    HW210590   1.218   3.009   3.920
 3231SOL     OW10591   2.317   0.465   2.037
 3231SOL    HW110592   2.379   0.458   2.115
 3231SOL    HW210593   2.233   0.414   2.057
 3232SOL     OW10594   4.191   5.346   4.161
 3232SOL    HW110595   4.254   5.311   4.092
 3232SOL    HW210596   4.109   5.383   4.116
 3233SOL     OW10597   1.230   3.265   1.159
 3233SOL    HW110598   1.171   3.203   1.211
 3233SOL    HW210599   1.177   3.344   1.129
 3234SOL     OW10600   0.092   2.012   0.645
 3234SOL    HW110601   0.063   1.987   0.553
 3234SOL    HW210602   0.064   2.106   0.665
 3235SOL     OW10603   4.619   0.243   1.565
 3235SOL    HW110604   4.675   0.302   1.624
 3235SOL    HW210605   4.524   0.275   1.566
 3236SOL     OW10606   1.607   3.284   0.315
 3236SOL    HW110607   1.571   3.353   0.377
 3236SOL    HW210608   1.697   3.253   0.348
 3237SOL     OW10609   5.796   1.444   3.286
 3237SOL    HW110610   5.772   1.384   3.362
 3237SOL    HW210611   5.855   1.518   3.320
 3238SOL     OW10612   0.296   4.894   0.346
 3238SOL    HW110613   0.352   4.849   0.416
 3238SOL    HW210614   0.353   4.919   0.268
 3239SOL     OW10615   6.121   1.697   0.357
 3239SOL    HW110616   6.138   1.716   0.260
 3239SOL    HW210617   6.022   1.687   0.372
 3240SOL     OW10618   0.817   6.107   5.492
 3240SOL    HW110619   0.777   6.195   5.516
 3240SOL    HW210620   0.906   6.098   5.535
 3241SOL     OW10621   4.793   1.053   4.258
 3241SOL    HW110622   4.776   1.021   4.165
 3241SOL    HW210623   4.889   1.082   4.265
 3242SOL     OW10624   3.010   4.640   1.327
 3242SOL    HW110625   2.983   4.690   1.244
 3242SOL    HW210626   3.023   4.543   1.304
 3243SOL     OW10627   5.357   4.932   0.007
 3243SOL    HW110628   5.453   4.946   7.005
 3243SOL    HW210629   5.329   5.006   0.068
 3244SOL     OW10630   4.907   5.809   0.670
 3244SOL    HW110631   4.870   5.861   0.747
 3244SOL    HW210632   4.860   5.835   0.586
 3245SOL     OW10633   5.247   2.306   5.710
 3245SOL    HW110634   5.317   2.236   5.694
 3245SOL    HW210635   5.159   2.262   5.724
 3246SOL     OW10636   5.947   1.019   3.406
 3246SOL    HW110637   6.031   0.966   3.419
 3246SOL    HW210638   5.970   1.110   3.372
 3247SOL     OW10639   6.667   4.873   3.924
 3247SOL    HW110640   6.585   4.873   3.867
 3247SOL    HW210641   6.746   4.845   3.869
 3248SOL     OW10642   6.320   3.274   1.873
 3248SOL    HW110643   6.393   3.205   1.875
 3248SOL    HW210644   6.251   3.247   1.806
 3249SOL     OW10645   3.553   3.484   5.131
 3249SOL    HW110646   3.519   3.571   5.096
 3249SOL    HW210647   3.476   3.430   5.165
 3250SOL     OW10648   5.273   0.292   2.611
 3250SOL    HW110649   5.336   0.259   2.540
 3250SOL    HW210650   5.265   0.392   2.604
 3251SOL     OW10651   3.917   0.926   2.347
 3251SOL    HW110652   3.959   0.972   2.269
 3251SOL    HW210653   3.934   0.978   2.430
 3252SOL     OW10654   2.334   1.825   2.155
 3252SOL    HW110655   2.301   1.916   2.182
 3252SOL    HW210656   2.294   1.756   2.214
 3253SOL     OW10657   5.669   2.813   2.412
 3253SOL    HW110658   5.623   2.765   2.487
 3253SOL    HW210659   5.761   2.775   2.401
 3254SOL     OW10660   4.367   5.692   5.714
 3254SOL    HW110661   4.384   5.659   5.807
 3254SOL    HW210662   4.403   5.626   5.648
 3255SOL     OW10663   4.858   6.445   1.478
 3255SOL    HW110664   4.868   6.361   1.425
 3255SOL    HW210665   4.776   6.439   1.535
 3256SOL     OW10666   5.297   0.425   6.965
 3256SOL    HW110667   5.354   0.364   7.019
 3256SOL    HW210668   5.247   0.487   0.001
 3257SOL     OW10669   1.526   2.748   1.186
 3257SOL    HW110670   1.485   2.657   1.198
 3257SOL    HW210671   1.455   2.814   1.164
 3258SOL     OW10672   4.001   5.154   1.926
 3258SOL    HW110673   3.929   5.178   1.861
 3258SOL    HW210674   4.042   5.067   1.900
 3259SOL     OW10675   4.770   6.189   3.737
 3259SOL    HW110676   4.785   6.262   3.804
 3259SOL    HW210677   4.811   6.104   3.771
 3260SOL     OW10678   2.000   2.000   1.542
 3260SOL    HW110679   1.913   2.018   1.497
 3260SOL    HW210680   1.990   2.013   1.641
 3261SOL     OW10681   4.344   6.007   0.543
 3261SOL    HW110682   4.319   6.030   0.637
 3261SOL    HW210683   4.390   6.086   0.501
 3262SOL     OW10684   3.544   2.092   2.525
 3262SOL    HW110685   3.628   2.097   2.579
 3262SOL    HW210686   3.565   2.110   2.429
 3263SOL     OW10687   3.502   0.792   3.796
 3263SOL    HW110688   3.571   0.719   3.791
 3263SOL    HW210689   3.481   0.824   3.703
 3264SOL     OW10690   1.689   4.895   0.617
 3264SOL    HW110691   1.729   4.950   0.543
 3264SOL    HW210692   1.664   4.954   0.693
 3265SOL     OW10693   4.641   2.032   5.766
 3265SOL    HW110694   4.583   1.951   5.775
 3265SOL    HW210695   4.668   2.042   5.670
 3266SOL     OW10696   0.822   2.758   0.355
 3266SOL    HW110697   0.889   2.730   0.424
 3266SOL    HW210698   0.785   2.676   0.310
 3267SOL     OW10699   3.992   1.733   0.654
 3267SOL    HW110700   3.903   1.733   0.700
 3267SOL    HW210701   4.032   1.642   0.661
 3268SOL     OW10702   1.398   4.489   6.645
 3268SOL    HW110703   1.364   4.454   6.558
 3268SOL    HW210704   1.325   4.488   6.712
 3269SOL     OW10705   4.378   5.235   1.734
 3269SOL    HW110706   4.311   5.306   1.712
 3269SOL    HW210707   4.464   5.253   1.688
 3270SOL     OW10708   1.508   4.759   5.177
 3270SOL    HW110709   1.418   4.775   5.135
 3270SOL    HW210710   1.572   4.730   5.106
 3271SOL     OW10711   5.371   3.284   2.922
 3271SOL    HW110712   5.398   3.380   2.912
 3271SOL    HW210713   5.284   3.278   2.971
 3272SOL     OW10714   3.733   3.985   0.064
 3272SOL    HW110715   3.810   3.927   0.035
 3272SOL    HW210716   3.671   3.930   0.120
 3273SOL     OW10717   0.519   6.338   2.322
 3273SOL    HW110718   0.575   6.384   2.391
 3273SOL    HW210719   0.565   6.254   2.293
 3274SOL     OW10720   3.848   1.477   0.859
 3274SOL    HW110721   3.814   1.400   0.912
 3274SOL    HW210722   3.885   1.547   0.920
 3275SOL     OW10723   1.207   0.745   6.706
 3275SOL    HW110724   1.238   0.806   6.779
 3275SOL    HW210725   1.149   0.673   6.746
 3276SOL     OW10726   3.337   5.044   6.612
 3276SOL    HW110727   3.251   5.014   6.654
 3276SOL    HW210728   3.413   5.014   6.669
 3277SOL     OW10729   5.091   6.755   6.825
 3277SOL    HW110730   5.157   6.743   6.751
 3277SOL    HW210731   5.127   6.712   6.909
 3278SOL     OW10732   6.612   0.878   6.001
 3278SOL    HW110733   6.580   0.797   6.050
 3278SOL    HW210734   6.712   0.882   6.005
 3279SOL     OW10735   6.778   0.636   1.003
 3279SOL    HW110736   6.684   0.610   1.027
 3279SOL    HW210737   6.838   0.617   1.081
 3280SOL     OW10738   3.314   4.796   5.818
 3280SOL    HW110739   3.290   4.709   5.861
 3280SOL    HW210740   3.380   4.779   5.744
 3281SOL     OW10741   2.360   5.785   0.687
 3281SOL    HW110742   2.268   5.822   0.673
 3281SOL    HW210743   2.365   5.692   0.650
 3282SOL     OW10744   2.346   5.442   4.459
 3282SOL    HW110745   2.326   5.359   4.511
 3282SOL    HW210746   2.334   5.425   4.362
 3283SOL     OW10747   3.459   1.088   1.266
 3283SOL    HW110748   3.369   1.116   1.233
 3283SOL    HW210749   3.455   0.993   1.296
 3284SOL     OW10750   5.889   6.355   0.039
 3284SOL    HW110751   5.891   6.445   0.083
 3284SOL    HW210752   5.837   6.361   6.978
 3285SOL     OW10753   5.734   2.821   3.118
 3285SOL    HW110754   5.674   2.872   3.180
 3285SOL    HW210755   5.695   2.730   3.103
 3286SOL     OW10756   4.040   3.402   3.227
 3286SOL    HW110757   4.032   3.500   3.243
 3286SOL    HW210758   4.070   3.357   3.311
 3287SOL     OW10759   1.591   5.857   0.559
 3287SOL    HW110760   1.528   5.932   0.538
 3287SOL    HW210761   1.540   5.775   0.582
 3288SOL     OW10762   1.177   4.814   6.660
 3288SOL    HW110763   1.268   4.792   6.625
 3288SOL    HW210764   1.156   4.910   6.640
 3289SOL     OW10765   2.468   6.796   5.860
 3289SOL    HW110766   2.452   6.894   5.867
 3289SOL    HW210767   2.386   6.750   5.827
 3290SOL     OW10768   0.514   6.739   2.107
 3290SOL    HW110769   0.424   6.748   2.151
 3290SOL    HW210770   0.581   6.793   2.158
 3291SOL     OW10771   1.260   6.132   0.035
 3291SOL    HW110772   1.335   6.170   0.090
 3291SOL    HW210773   1.296   6.104   6.970
 3292SOL     OW10774   0.382   0.570   6.767
 3292SOL    HW110775   0.305   0.530   6.718
 3292SOL    HW210776   0.406   0.658   6.726
 3293SOL     OW10777   6.740   3.435   3.105
 3293SOL    HW110778   6.732   3.512   3.042
 3293SOL    HW210779   6.766   3.353   3.054
 3294SOL     OW10780   0.216   0.657   6.132
 3294SOL    HW110781   0.285   0.691   6.195
 3294SOL    HW210782   0.249   0.575   6.086
 3295SOL     OW10783   1.471   3.049   1.836
 3295SOL    HW110784   1.515   3.135   1.808
 3295SOL    HW210785   1.423   3.009   1.758
 3296SOL     OW10786   1.880   6.146   1.449
 3296SOL    HW110787   1.818   6.140   1.528
 3296SOL    HW210788   1.850   6.083   1.378
 3297SOL     OW10789   2.899   0.577   5.136
 3297SOL    HW110790   2.958   0.655   5.155
 3297SOL    HW210791   2.903   0.513   5.213
 3298SOL     OW10792   6.315   1.652   3.906
 3298SOL    HW110793   6.384   1.630   3.837
 3298SOL    HW210794   6.249   1.716   3.867
 3299SOL     OW10795   2.450   6.576   3.705
 3299SOL    HW110796   2.365   6.534   3.737
 3299SOL    HW210797   2.440   6.605   3.610
 3300SOL     OW10798   0.800   0.828   5.689
 3300SOL    HW110799   0.717   0.856   5.736
 3300SOL    HW210800   0.785   0.740   5.644
 3301SOL     OW10801   1.958   3.428   3.591
 3301SOL    HW110802   2.009   3.510   3.615
 3301SOL    HW210803   2.019   3.363   3.544
 3302SOL     OW10804   1.598   6.016   4.572
 3302SOL    HW110805   1.520   5.997   4.631
 3302SOL    HW210806   1.668   6.066   4.624
 3303SOL     OW10807   3.804   3.036   1.497
 3303SOL    HW110808   3.898   3.046   1.466
 3303SOL    HW210809   3.780   2.939   1.501
 3304SOL     OW10810   1.525   5.244   3.936
 3304SOL    HW110811   1.548   5.153   3.971
 3304SOL    HW210812   1.512   5.306   4.013
 3305SOL     OW10813   2.643   1.060   2.756
 3305SOL    HW110814   2.734   1.091   2.730
 3305SOL    HW210815   2.589   1.138   2.788
 3306SOL     OW10816   2.287   5.699   3.870
 3306SOL    HW110817   2.225   5.746   3.932
 3306SOL    HW210818   2.283   5.600   3.888
 3307SOL     OW10819   0.202   5.660   6.556
 3307SOL    HW110820   0.149   5.591   6.604
 3307SOL    HW210821   0.166   5.673   6.464
 3308SOL     OW10822   4.617   6.084   0.224
 3308SOL    HW110823   4.682   6.160   0.217
 3308SOL    HW210824   4.645   6.011   0.162
 3309SOL     OW10825   0.766   5.595   1.665
 3309SOL    HW110826   0.840   5.662   1.671
 3309SOL    HW210827   0.792   5.513   1.717
 3310SOL     OW10828   6.532   4.177   4.611
 3310SOL    HW110829   6.600   4.233   4.563
 3310SOL    HW210830   6.579   4.102   4.659
 3311SOL     OW10831   2.170   4.678   1.939
 3311SOL    HW110832   2.085   4.728   1.954
 3311SOL    HW210833   2.158   4.614   1.863
 3312SOL     OW10834   3.542   4.484   5.950
 3312SOL    HW110835   3.569   4.465   5.855
 3312SOL    HW210836   3.621   4.518   6.001
 3313SOL     OW10837   6.994   5.313   2.673
 3313SOL    HW110838   7.019   5.273   2.585
 3313SOL    HW210839   0.025   5.272   2.745
 3314SOL     OW10840   1.415   1.929   4.572
 3314SOL    HW110841   1.421   1.978   4.659
 3314SOL    HW210842   1.430   1.992   4.496
 3315SOL     OW10843   6.588   3.484   3.871
 3315SOL    HW110844   6.642   3.404   3.897
 3315SOL    HW210845   6.645   3.566   3.877
 3316SOL     OW10846   3.841   1.716   5.872
 3316SOL    HW110847   3.844   1.672   5.962
 3316SOL    HW210848   3.747   1.742   5.852
 3317SOL     OW10849   4.962   2.952   1.892
 3317SOL    HW110850   4.881   2.974   1.947
 3317SOL    HW210851   4.947   2.865   1.845
 3318SOL     OW10852   3.030   7.014   0.536
 3318SOL    HW110853   3.034   6.918   0.565
 3318SOL    HW210854   2.945   0.031   0.570
 3319SOL     OW10855   6.237   6.828   4.277
 3319SOL    HW110856   6.152   6.781   4.254
 3319SOL    HW210857   6.216   6.912   4.327
 3320SOL     OW10858   5.595   1.209   6.004
 3320SOL    HW110859   5.632   1.191   6.095
 3320SOL    HW210860   5.587   1.124   5.953
 3321SOL     OW10861   3.469   2.286   1.661
 3321SOL    HW110862   3.405   2.362   1.671
 3321SOL    HW210863   3.530   2.282   1.740
 3322SOL     OW10864   5.201   3.342   1.912
 3322SOL    HW110865   5.189   3.251   1.872
 3322SOL    HW210866   5.113   3.389   1.917
 3323SOL     OW10867   2.015   4.323   6.620
 3323SOL    HW110868   1.949   4.372   6.676
 3323SOL    HW210869   2.029   4.231   6.658
 3324SOL     OW10870   0.947   3.975   6.659
 3324SOL    HW110871   0.965   4.005   6.565
 3324SOL    HW210872   0.916   4.053   6.713
 3325SOL     OW10873   2.341   3.226   6.678
 3325SOL    HW110874   2.324   3.129   6.666
 3325SOL    HW210875   2.312   3.253   6.770
 3326SOL     OW10876   5.321   1.327   2.157
 3326SOL    HW110877   5.262   1.403   2.127
 3326SOL    HW210878   5.416   1.351   2.141
 3327SOL     OW10879   3.164   6.117   1.412
 3327SOL    HW110880   3.169   6.070   1.500
 3327SOL    HW210881   3.245   6.095   1.357
 3328SOL     OW10882   4.131   1.843   2.571
 3328SOL    HW110883   4.088   1.933   2.583
 3328SOL    HW210884   4.192   1.845   2.492
 3329SOL     OW10885   4.864   0.601   5.446
 3329SOL    HW110886   4.872   0.545   5.364
 3329SOL    HW210887   4.803   0.678   5.428
 3330SOL     OW10888   5.757   6.205   1.608
 3330SOL    HW110889   5.772   6.255   1.694
 3330SOL    HW210890   5.841   6.202   1.556
 3331SOL     OW10891   0.642   3.541   2.157
 3331SOL    HW110892   0.646   3.504   2.250
 3331SOL    HW210893   0.714   3.609   2.145
 3332SOL     OW10894   6.499   4.372   7.022
 3332SOL    HW110895   6.473   4.445   0.060
 3332SOL    HW210896   6.446   4.290   0.017
 3333SOL     OW10897   3.100   3.351   0.098
 3333SOL    HW110898   3.061   3.355   0.006
 3333SOL    HW210899   3.091   3.441   0.142
 3334SOL     OW10900   1.963   3.449   2.357
 3334SOL    HW110901   2.017   3.470   2.275
 3334SOL    HW210902   1.966   3.351   2.374
 3335SOL     OW10903   5.067   6.289   6.448
 3335SOL    HW110904   5.161   6.322   6.449
 3335SOL    HW210905   5.019   6.322   6.530
 3336SOL     OW10906   2.197   6.708   4.351
 3336SOL    HW110907   2.267   6.759   4.399
 3336SOL    HW210908   2.120   6.690   4.412
 3337SOL     OW10909   2.388   4.241   1.428
 3337SOL    HW110910   2.423   4.150   1.449
 3337SOL    HW210911   2.431   4.274   1.344
 3338SOL     OW10912   6.842   2.719   1.693
 3338SOL    HW110913   6.894   2.695   1.775
 3338SOL    HW210914   6.855   2.816   1.673
 3339SOL     OW10915   1.256   6.863   6.756
 3339SOL    HW110916   1.316   6.872   6.835
 3339SOL    HW210917   1.298   6.802   6.689
 3340SOL     OW10918   3.780   0.952   4.104
 3340SOL    HW110919   3.774   0.859   4.140
 3340SOL    HW210920   3.690   0.996   4.110
 3341SOL     OW10921   2.067   4.551   3.723
 3341SOL    HW110922   2.048   4.648   3.739
 3341SOL    HW210923   2.107   4.510   3.805
 3342SOL     OW10924   1.082   0.513   3.478
 3342SOL    HW110925   1.147   0.589   3.470
 3342SOL    HW210926   1.021   0.529   3.556
 3343SOL     OW10927   5.604   4.602   6.484
 3343SOL    HW110928   5.664   4.533   6.444
 3343SOL    HW210929   5.509   4.570   6.480
 3344SOL     OW10930   6.131   3.520   4.082
 3344SOL    HW110931   6.146   3.614   4.052
 3344SOL    HW210932   6.218   3.471   4.085
 3345SOL     OW10933   1.159   4.554   6.415
 3345SOL    HW110934   1.064   4.528   6.433
 3345SOL    HW210935   1.170   4.652   6.431
 3346SOL     OW10936   0.951   0.946   6.917
 3346SOL    HW110937   0.904   0.868   6.877
 3346SOL    HW210938   0.927   1.029   6.866
 3347SOL     OW10939   0.721   3.287   5.858
 3347SOL    HW110940   0.646   3.233   5.897
 3347SOL    HW210941   0.751   3.246   5.772
 3348SOL     OW10942   4.229   3.515   5.133
 3348SOL    HW110943   4.322   3.528   5.167
 3348SOL    HW210944   4.201   3.420   5.146
 3349SOL     OW10945   2.059   4.851   2.921
 3349SOL    HW110946   2.024   4.775   2.975
 3349SOL    HW210947   2.005   4.933   2.940
 3350SOL     OW10948   0.154   2.533   5.982
 3350SOL    HW110949   0.085   2.587   5.933
 3350SOL    HW210950   0.161   2.566   6.076
 3351SOL     OW10951   4.510   1.315   1.791
 3351SOL    HW110952   4.471   1.244   1.733
 3351SOL    HW210953   4.598   1.284   1.827
 3352SOL     OW10954   6.048   2.878   0.901
 3352SOL    HW110955   5.986   2.894   0.978
 3352SOL    HW210956   5.995   2.851   0.820
 3353SOL     OW10957   2.926   5.954   1.569
 3353SOL    HW110958   2.913   5.939   1.471
 3353SOL    HW210959   3.023   5.949   1.591
 3354SOL     OW10960   4.329   2.453   5.445
 3354SOL    HW110961   4.376   2.448   5.533
 3354SOL    HW210962   4.233   2.477   5.460
 3355SOL     OW10963   2.295   1.550   5.968
 3355SOL    HW110964   2.287   1.550   5.869
 3355SOL    HW210965   2.362   1.618   5.997
 3356SOL     OW10966   1.414   6.055   6.124
 3356SOL    HW110967   1.402   6.022   6.218
 3356SOL    HW210968   1.330   6.042   6.073
 3357SOL     OW10969   3.623   3.800   2.264
 3357SOL    HW110970   3.555   3.873   2.269
 3357SOL    HW210971   3.592   3.721   2.316
 3358SOL     OW10972   4.504   1.389   2.722
 3358SOL    HW110973   4.455   1.462   2.673
 3358SOL    HW210974   4.441   1.314   2.742
 3359SOL     OW10975   0.029   5.845   3.165
 3359SOL    HW110976   6.984   5.780   3.195
 3359SOL    HW210977   0.076   5.883   3.245
 3360SOL     OW10978   0.559   2.161   6.420
 3360SOL    HW110979   0.501   2.181   6.499
 3360SOL    HW210980   0.503   2.160   6.337
 3361SOL     OW10981   0.512   5.717   4.490
 3361SOL    HW110982   0.600   5.718   4.442
 3361SOL    HW210983   0.480   5.810   4.504
 3362SOL     OW10984   3.392   1.864   2.534
 3362SOL    HW110985   3.332   1.867   2.455
 3362SOL    HW210986   3.459   1.938   2.528
 3363SOL     OW10987   6.921   2.244   1.785
 3363SOL    HW110988   6.983   2.187   1.839
 3363SOL    HW210989   6.892   2.193   1.704
 3364SOL     OW10990   2.455   4.457   3.423
 3364SOL    HW110991   2.440   4.375   3.369
 3364SOL    HW210992   2.509   4.522   3.371
 3365SOL     OW10993   0.184   2.992   5.044
 3365SOL    HW110994   0.118   3.023   4.976
 3365SOL    HW210995   0.147   3.007   5.136
 3366SOL     OW10996   5.269   4.788   3.846
 3366SOL    HW110997   5.282   4.787   3.945
 3366SOL    HW210998   5.193   4.728   3.822
 3367SOL     OW10999   3.529   3.807   2.839
 3367SOL    HW111000   3.510   3.894   2.886
 3367SOL    HW211001   3.589   3.751   2.896
 3368SOL     OW11002   0.809   5.671   6.248
 3368SOL    HW111003   0.815   5.614   6.165
 3368SOL    HW211004   0.817   5.767   6.223
 3369SOL     OW11005   4.508   1.898   1.203
 3369SOL    HW111006   4.526   1.977   1.144
 3369SOL    HW211007   4.594   1.867   1.245
 3370SOL     OW11008   6.377   6.430   1.239
 3370SOL    HW111009   6.288   6.454   1.199
 3370SOL    HW211010   6.366   6.412   1.337
 3371SOL     OW11011   2.130   3.396   1.715
 3371SOL    HW111012   2.172   3.446   1.790
 3371SOL    HW211013   2.199   3.340   1.669
 3372SOL     OW11014   6.913   1.933   0.159
 3372SOL    HW111015   7.004   1.924   0.200
 3372SOL    HW211016   6.915   1.900   0.065
 3373SOL     OW11017   0.281   2.286   3.945
 3373SOL    HW111018   0.211   2.305   3.877
 3373SOL    HW211019   0.308   2.370   3.991
 3374SOL     OW11020   1.121   6.998   3.918
 3374SOL    HW111021   1.133   0.037   3.843
 3374SOL    HW211022   1.202   6.940   3.927
 3375SOL     OW11023   6.917   4.333   0.625
 3375SOL    HW111024   6.861   4.267   0.675
 3375SOL    HW211025   6.953   4.402   0.688
 3376SOL     OW11026   3.359   2.906   4.793
 3376SOL    HW111027   3.326   2.913   4.887
 3376SOL    HW211028   3.288   2.938   4.730
 3377SOL     OW11029   0.146   5.245   5.947
 3377SOL    HW111030   0.122   5.152   5.921
 3377SOL    HW211031   0.070   5.307   5.927
 3378SOL     OW11032   1.496   6.109   0.597
 3378SOL    HW111033   1.409   6.132   0.639
 3378SOL    HW211034   1.521   6.178   0.529
 3379SOL     OW11035   0.972   1.686   4.529
 3379SOL    HW111036   1.053   1.730   4.568
 3379SOL    HW211037   0.903   1.673   4.600
 3380SOL     OW11038   4.815   6.268   5.612
 3380SOL    HW111039   4.755   6.244   5.535
 3380SOL    HW211040   4.878   6.192   5.629
 3381SOL     OW11041   6.517   2.646   1.215
 3381SOL    HW111042   6.551   2.738   1.196
 3381SOL    HW211043   6.513   2.631   1.314
 3382SOL     OW11044   0.605   2.786   6.589
 3382SOL    HW111045   0.595   2.819   6.495
 3382SOL    HW211046   0.699   2.756   6.604
 3383SOL     OW11047   3.309   5.083   0.902
 3383SOL    HW111048   3.232   5.040   0.856
 3383SOL    HW211049   3.341   5.161   0.848
 3384SOL     OW11050   2.364   3.641   1.125
 3384SOL    HW111051   2.374   3.740   1.128
 3384SOL    HW211052   2.297   3.616   1.055
 3385SOL     OW11053   6.719   3.502   4.646
 3385SOL    HW111054   6.785   3.535   4.578
 3385SOL    HW211055   6.683   3.413   4.618
 3386SOL     OW11056   5.255   4.266   6.891
 3386SOL    HW111057   5.228   4.265   6.795
 3386SOL    HW211058   5.175   4.282   6.948
 3387SOL     OW11059   4.861   0.270   3.056
 3387SOL    HW111060   4.903   0.321   2.981
 3387SOL    HW211061   4.873   0.172   3.042
 3388SOL     OW11062   5.503   3.368   2.592
 3388SOL    HW111063   5.574   3.311   2.551
 3388SOL    HW211064   5.423   3.311   2.613
 3389SOL     OW11065   6.601   5.456   6.150
 3389SOL    HW111066   6.591   5.533   6.087
 3389SOL    HW211067   6.672   5.477   6.217
 3390SOL     OW11068   5.056   6.789   6.087
 3390SOL    HW111069   5.051   6.719   6.158
 3390SOL    HW211070   4.975   6.847   6.090
 3391SOL     OW11071   5.010   2.450   3.466
 3391SOL    HW111072   5.086   2.397   3.430
 3391SOL    HW211073   5.000   2.534   3.412
 3392SOL     OW11074   3.488   6.760   4.377
 3392SOL    HW111075   3.536   6.681   4.416
 3392SOL    HW211076   3.463   6.823   4.451
 3393SOL     OW11077   6.023   6.044   0.712
 3393SOL    HW111078   6.049   6.043   0.808
 3393SOL    HW211079   6.098   6.082   0.657
 3394SOL     OW11080   4.825   3.658   0.754
 3394SOL    HW111081   4.898   3.696   0.697
 3394SOL    HW211082   4.766   3.732   0.787
 3395SOL     OW11083   5.182   2.053   2.933
 3395SOL    HW111084   5.219   1.964   2.959
 3395SOL    HW211085   5.256   2.119   2.926
 3396SOL     OW11086   5.561   1.087   3.725
 3396SOL    HW111087   5.659   1.067   3.718
 3396SOL    HW211088   5.546   1.186   3.715
 3397SOL     OW11089   3.556   4.696   6.209
 3397SOL    HW111090   3.488   4.633   6.249
 3397SOL    HW211091   3.509   4.763   6.153
 3398SOL     OW11092   1.455   6.958   5.215
 3398SOL    HW111093   1.422   6.975   5.122
 3398SOL    HW211094   1.389   6.992   5.281
 3399SOL     OW11095   5.914   5.211   3.223
 3399SOL    HW111096   5.853   5.147   3.270
 3399SOL    HW211097   6.008   5.177   3.226
 3400SOL     OW11098   5.555   4.035   0.034
 3400SOL    HW111099   5.462   4.005   0.056
 3400SOL    HW211100   5.560   4.135   0.039
 3401SOL     OW11101   5.747   4.340   6.964
 3401SOL    HW111102   5.785   4.308   6.877
 3401SOL    HW211103   5.648   4.348   6.956
 3402SOL     OW11104   5.816   5.704   6.582
 3402SOL    HW111105   5.740   5.639   6.580
 3402SOL    HW211106   5.899   5.659   6.548
 3403SOL     OW11107   4.887   5.485   0.043
 3403SOL    HW111108   4.895   5.493   6.968
 3403SOL    HW211109   4.808   5.428   0.066
 3404SOL     OW11110   5.248   2.585   0.274
 3404SOL    HW111111   5.210   2.522   0.342
 3404SOL    HW211112   5.221   2.679   0.298
 3405SOL     OW11113   5.749   4.323   6.412
 3405SOL    HW111114   5.844   4.342   6.437
 3405SOL    HW211115   5.726   4.375   6.330
 3406SOL     OW11116   1.175   3.407   2.410
 3406SOL    HW111117   1.174   3.388   2.508
 3406SOL    HW211118   1.269   3.397   2.376
 3407SOL     OW11119   1.893   4.420   0.229
 3407SOL    HW111120   1.978   4.469   0.212
 3407SOL    HW211121   1.823   4.448   0.163
 3408SOL     OW11122   4.903   3.148   4.793
 3408SOL    HW111123   4.912   3.177   4.698
 3408SOL    HW211124   4.904   3.228   4.853
 3409SOL     OW11125   3.736   6.104   0.050
 3409SOL    HW111126   3.804   6.049   0.098
 3409SOL    HW211127   3.772   6.129   6.984
 3410SOL     OW11128   6.351   6.166   2.107
 3410SOL    HW111129   6.384   6.133   2.195
 3410SOL    HW211130   6.428   6.180   2.045
 3411SOL     OW11131   0.644   2.924   0.585
 3411SOL    HW111132   0.630   2.825   0.587
 3411SOL    HW211133   0.651   2.955   0.490
 3412SOL     OW11134   5.110   3.487   1.600
 3412SOL    HW111135   5.175   3.538   1.545
 3412SOL    HW211136   5.059   3.550   1.659
 3413SOL     OW11137   6.449   1.470   0.112
 3413SOL    HW111138   6.401   1.508   0.191
 3413SOL    HW211139   6.534   1.520   0.098
 3414SOL     OW11140   3.489   2.128   5.844
 3414SOL    HW111141   3.564   2.111   5.779
 3414SOL    HW211142   3.494   2.222   5.876
 3415SOL     OW11143   2.474   2.016   4.296
 3415SOL    HW111144   2.378   1.989   4.286
 3415SOL    HW211145   2.529   1.966   4.229
 3416SOL     OW11146   5.385   0.314   0.397
 3416SOL    HW111147   5.415   0.371   0.473
 3416SOL    HW211148   5.313   0.361   0.347
 3417SOL     OW11149   0.415   6.499   4.158
 3417SOL    HW111150   0.321   6.475   4.135
 3417SOL    HW211151   0.421   6.598   4.170
 3418SOL     OW11152   4.038   6.094   3.366
 3418SOL    HW111153   4.034   6.100   3.465
 3418SOL    HW211154   3.951   6.126   3.327
 3419SOL     OW11155   3.439   4.893   6.054
 3419SOL    HW111156   3.489   4.979   6.063
 3419SOL    HW211157   3.397   4.888   5.964
 3420SOL     OW11158   5.424   3.726   4.381
 3420SOL    HW111159   5.519   3.715   4.350
 3420SOL    HW211160   5.415   3.815   4.426
 3421SOL     OW11161   5.617   1.669   3.370
 3421SOL    HW111162   5.519   1.649   3.375
 3421SOL    HW211163   5.668   1.584   3.353
 3422SOL     OW11164   2.551   0.458   0.164
 3422SOL    HW111165   2.470   0.513   0.184
 3422SOL    HW211166   2.542   0.417   0.073
 3423SOL     OW11167   0.446   4.557   6.223
 3423SOL    HW111168   0.349   4.537   6.237
 3423SOL    HW211169   0.469   4.544   6.126
 3424SOL     OW11170   3.153   6.924   1.242
 3424SOL    HW111171   3.078   6.909   1.307
 3424SOL    HW211172   3.233   6.956   1.292
 3425SOL     OW11173   4.919   4.423   2.066
 3425SOL    HW111174   4.846   4.489   2.078
 3425SOL    HW211175   4.938   4.377   2.153
 3426SOL     OW11176   5.308   2.839   1.263
 3426SOL    HW111177   5.338   2.755   1.219
 3426SOL    HW211178   5.244   2.887   1.203
 3427SOL     OW11179   0.640   2.192   2.130
 3427SOL    HW111180   0.574   2.267   2.125
 3427SOL    HW211181   0.652   2.152   2.039
 3428SOL     OW11182   4.051   4.490   0.057
 3428SOL    HW111183   3.954   4.468   0.046
 3428SOL    HW211184   4.107   4.411   0.032
 3429SOL     OW11185   0.887   1.703   0.967
 3429SOL    HW111186   0.870   1.800   0.953
 3429SOL    HW211187   0.841   1.650   0.895
 3430SOL     OW11188   2.584   5.440   5.161
 3430SOL    HW111189   2.576   5.539   5.170
 3430SOL    HW211190   2.679   5.413   5.173
 3431SOL     OW11191   1.356   6.178   1.590
 3431SOL    HW111192   1.443   6.144   1.554
 3431SOL    HW211193   1.301   6.100   1.622
 3432SOL     OW11194   2.579   4.632   6.431
 3432SOL    HW111195   2.489   4.626   6.475
 3432SOL    HW211196   2.636   4.697   6.481
 3433SOL     OW11197   1.298   1.426   5.564
 3433SOL    HW111198   1.241   1.346   5.581
 3433SOL    HW211199   1.377   1.399   5.509
 3434SOL     OW11200   3.840   1.828   1.876
 3434SOL    HW111201   3.794   1.901   1.825
 3434SOL    HW211202   3.851   1.748   1.818
 3435SOL     OW11203   1.901   1.127   0.999
 3435SOL    HW111204   1.993   1.101   0.971
 3435SOL    HW211205   1.836   1.058   0.968
 3436SOL     OW11206   3.266   5.607   0.187
 3436SOL    HW111207   3.176   5.651   0.183
 3436SOL    HW211208   3.285   5.563   0.099
 3437SOL     OW11209   2.961   6.214   5.705
 3437SOL    HW111210   2.975   6.115   5.698
 3437SOL    HW211211   2.868   6.232   5.739
 3438SOL     OW11212   0.711   4.061   1.483
 3438SOL    HW111213   0.704   4.073   1.384
 3438SOL    HW211214   0.669   4.139   1.529
 3439SOL     OW11215   3.279   6.061   4.128
 3439SOL    HW111216   3.268   6.055   4.228
 3439SOL    HW211217   3.342   6.136   4.107
 3440SOL     OW11218   3.904   3.108   2.614
 3440SOL    HW111219   3.843   3.083   2.539
 3440SOL    HW211220   3.849   3.137   2.693
 3441SOL     OW11221   6.821   5.667   6.621
 3441SOL    HW111222   6.780   5.712   6.700
 3441SOL    HW211223   6.860   5.579   6.648
 3442SOL     OW11224   2.570   3.734   1.442
 3442SOL    HW111225   2.664   3.739   1.477
 3442SOL    HW211226   2.511   3.692   1.511
 3443SOL     OW11227   3.236   6.295   2.195
 3443SOL    HW111228   3.306   6.366   2.185
 3443SOL    HW211229   3.152   6.323   2.150
 3444SOL     OW11230   4.770   5.545   0.456
 3444SOL    HW111231   4.820   5.482   0.516
 3444SOL    HW211232   4.825   5.562   0.374
 3445SOL     OW11233   6.387   5.226   3.282
 3445SOL    HW111234   6.471   5.174   3.268
 3445SOL    HW211235   6.398   5.288   3.359
 3446SOL     OW11236   5.910   0.707   1.634
 3446SOL    HW111237   5.926   0.706   1.535
 3446SOL    HW211238   5.907   0.801   1.666
 3447SOL     OW11239   5.469   6.746   0.795
 3447SOL    HW111240   5.508   6.711   0.710
 3447SOL    HW211241   5.429   6.836   0.779
 3448SOL     OW11242   3.375   6.588   6.324
 3448SOL    HW111243   3.399   6.660   6.259
 3448SOL    HW211244   3.281   6.602   6.356
 3449SOL     OW11245   5.839   5.332   4.548
 3449SOL    HW111246   5.875   5.262   4.487
 3449SOL    HW211247   5.880   5.420   4.525
 3450SOL     OW11248   1.007   1.462   6.520
 3450SOL    HW111249   1.053   1.376   6.542
 3450SOL    HW211250   0.971   1.502   6.604
 3451SOL     OW11251   2.265   6.112   0.059
 3451SOL    HW111252   2.219   6.032   0.098
 3451SOL    HW211253   2.320   6.083   7.005
 3452SOL     OW11254   5.702   0.433   6.637
 3452SOL    HW111255   5.761   0.367   6.682
 3452SOL    HW211256   5.756   0.488   6.574
 3453SOL     OW11257   5.657   5.501   6.527
 3453SOL    HW111258   5.606   5.502   6.441
 3453SOL    HW211259   5.602   5.455   6.597
 3454SOL     OW11260   0.707   4.234   4.805
 3454SOL    HW111261   0.792   4.231   4.857
 3454SOL    HW211262   0.683   4.330   4.787
 3455SOL     OW11263   2.966   1.671   3.898
 3455SOL    HW111264   3.030   1.681   3.974
 3455SOL    HW211265   2.878   1.639   3.932
 3456SOL     OW11266   4.862   5.132   2.183
 3456SOL    HW111267   4.895   5.174   2.099
 3456SOL    HW211268   4.932   5.141   2.254
 3457SOL     OW11269   4.621   5.733   4.499
 3457SOL    HW111270   4.604   5.789   4.580
 3457SOL    HW211271   4.543   5.742   4.436
 3458SOL     OW11272   4.321   1.526   2.556
 3458SOL    HW111273   4.278   1.462   2.491
 3458SOL    HW211274   4.253   1.554   2.624
 3459SOL     OW11275   4.857   2.151   3.424
 3459SOL    HW111276   4.836   2.249   3.413
 3459SOL    HW211277   4.857   2.107   3.334
 3460SOL     OW11278   2.897   1.869   6.263
 3460SOL    HW111279   2.954   1.801   6.218
 3460SOL    HW211280   2.946   1.956   6.267
 3461SOL     OW11281   5.011   3.708   6.668
 3461SOL    HW111282   4.929   3.761   6.644
 3461SOL    HW211283   5.037   3.728   6.762
 3462SOL     OW11284   0.833   4.320   5.104
 3462SOL    HW111285   0.775   4.361   5.175
 3462SOL    HW211286   0.880   4.240   5.141
 3463SOL     OW11287   0.648   4.159   0.777
 3463SOL    HW111288   0.609   4.191   0.691
 3463SOL    HW211289   0.748   4.152   0.768
 3464SOL     OW11290   0.505   4.557   6.487
 3464SOL    HW111291   0.593   4.605   6.491
 3464SOL    HW211292   0.472   4.557   6.393
 3465SOL     OW11293   1.823   2.582   1.970
 3465SOL    HW111294   1.763   2.653   1.933
 3465SOL    HW211295   1.867   2.617   2.054
 3466SOL     OW11296   6.975   5.194   6.388
 3466SOL    HW111297   6.971   5.265   6.319
 3466SOL    HW211298   0.027   5.132   6.369
 3467SOL     OW11299   1.473   2.871   6.633
 3467SOL    HW111300   1.571   2.849   6.634
 3467SOL    HW211301   1.453   2.932   6.710
 3468SOL     OW11302   3.821   6.171   2.643
 3468SOL    HW111303   3.727   6.139   2.628
 3468SOL    HW211304   3.859   6.127   2.724
 3469SOL     OW11305   6.042   1.617   3.224
 3469SOL    HW111306   6.011   1.590   3.133
 3469SOL    HW211307   6.134   1.582   3.240
 3470SOL     OW11308   6.872   4.653   0.909
 3470SOL    HW111309   6.929   4.610   0.839
 3470SOL    HW211310   6.840   4.742   0.875
 3471SOL     OW11311   3.870   5.320   4.742
 3471SOL    HW111312   3.956   5.322   4.794
 3471SOL    HW211313   3.890   5.316   4.644
 3472SOL     OW11314   2.283   0.634   3.016
 3472SOL    HW111315   2.361   0.692   3.039
 3472SOL    HW211316   2.217   0.688   2.964
 3473SOL     OW11317   6.012   1.446   6.027
 3473SOL    HW111318   5.937   1.512   6.024
 3473SOL    HW211319   6.043   1.436   6.122
 3474SOL     OW11320   3.150   5.318   2.373
 3474SOL    HW111321   3.167   5.219   2.374
 3474SOL    HW211322   3.052   5.335   2.389
 3475SOL     OW11323   1.299   6.457   4.055
 3475SOL    HW111324   1.325   6.545   4.095
 3475SOL    HW211325   1.294   6.388   4.127
 3476SOL     OW11326   3.423   1.254   3.188
 3476SOL    HW111327   3.387   1.347   3.181
 3476SOL    HW211328   3.434   1.215   3.096
 3477SOL     OW11329   3.061   5.683   1.848
 3477SOL    HW111330   3.129   5.641   1.909
 3477SOL    HW211331   3.089   5.669   1.753
 3478SOL     OW11332   2.862   5.862   5.922
 3478SOL    HW111333   2.796   5.845   5.848
 3478SOL    HW211334   2.892   5.775   5.961
 3479SOL     OW11335   0.596   0.426   3.465
 3479SOL    HW111336   0.625   0.332   3.486
 3479SOL    HW211337   0.537   0.425   3.384
 3480SOL     OW11338   6.544   0.211   4.693
 3480SOL    HW111339   6.557   0.220   4.595
 3480SOL    HW211340   6.622   0.164   4.734
 3481SOL     OW11341   4.497   0.261   6.785
 3481SOL    HW111342   4.524   0.183   6.728
 3481SOL    HW211343   4.500   0.234   6.881
 3482SOL     OW11344   5.735   1.144   0.605
 3482SOL    HW111345   5.770   1.238   0.607
 3482SOL    HW211346   5.683   1.130   0.521
 3483SOL     OW11347   3.324   0.691   1.704
 3483SOL    HW111348   3.388   0.661   1.633
 3483SOL    HW211349   3.247   0.628   1.708
 3484SOL     OW11350   2.764   3.678   1.687
 3484SOL    HW111351   2.720   3.593   1.719
 3484SOL    HW211352   2.712   3.756   1.721
 3485SOL     OW11353   1.217   0.590   4.752
 3485SOL    HW111354   1.237   0.524   4.679
 3485SOL    HW211355   1.286   0.584   4.824
 3486SOL     OW11356   3.008   1.842   2.215
 3486SOL    HW111357   3.059   1.781   2.156
 3486SOL    HW211358   2.950   1.788   2.277
 3487SOL     OW11359   6.344   1.722   6.069
 3487SOL    HW111360   6.309   1.639   6.026
 3487SOL    HW211361   6.360   1.704   6.166
 3488SOL     OW11362   5.735   3.164   3.966
 3488SOL    HW111363   5.682   3.091   3.923
 3488SOL    HW211364   5.828   3.133   3.983
 3489SOL     OW11365   2.589   6.779   0.818
 3489SOL    HW111366   2.539   6.866   0.816
 3489SOL    HW211367   2.526   6.704   0.802
 3490SOL     OW11368   4.460   4.340   0.050
 3490SOL    HW111369   4.492   4.266   0.110
 3490SOL    HW211370   4.364   4.324   0.026
 3491SOL     OW11371   6.048   3.233   4.774
 3491SOL    HW111372   6.116   3.224   4.701
 3491SOL    HW211373   6.093   3.265   4.858
 3492SOL     OW11374   1.229   5.852   0.538
 3492SOL    HW111375   1.138   5.814   0.526
 3492SOL    HW211376   1.259   5.838   0.633
 3493SOL     OW11377   6.638   5.258   6.894
 3493SOL    HW111378   6.641   5.295   6.802
 3493SOL    HW211379   6.630   5.158   6.891
 3494SOL     OW11380   4.084   0.340   1.083
 3494SOL    HW111381   4.066   0.251   1.125
 3494SOL    HW211382   4.180   0.364   1.094
 3495SOL     OW11383   4.270   4.804   2.163
 3495SOL    HW111384   4.248   4.891   2.207
 3495SOL    HW211385   4.186   4.764   2.125
 3496SOL     OW11386   0.679   3.175   1.511
 3496SOL    HW111387   0.697   3.077   1.517
 3496SOL    HW211388   0.644   3.208   1.600
 3497SOL     OW11389   3.952   0.303   2.903
 3497SOL    HW111390   3.995   0.386   2.866
 3497SOL    HW211391   3.950   0.232   2.833
 3498SOL     OW11392   2.488   2.355   0.744
 3498SOL    HW111393   2.405   2.409   0.761
 3498SOL    HW211394   2.523   2.319   0.830
 3499SOL     OW11395   5.364   2.879   4.419
 3499SOL    HW111396   5.336   2.784   4.430
 3499SOL    HW211397   5.445   2.884   4.360
 3500SOL     OW11398   0.413   4.119   5.455
 3500SOL    HW111399   0.360   4.203   5.444
 3500SOL    HW211400   0.399   4.082   5.547
 3501SOL     OW11401   0.696   5.043   4.414
 3501SOL    HW111402   0.665   5.074   4.324
 3501SOL    HW211403   0.785   4.997   4.404
 3502SOL     OW11404   6.674   2.362   2.318
 3502SOL    HW111405   6.722   2.438   2.360
 3502SOL    HW211406   6.593   2.396   2.269
 3503SOL     OW11407   5.534   5.450   5.502
 3503SOL    HW111408   5.582   5.401   5.575
 3503SOL    HW211409   5.595   5.518   5.462
 3504SOL     OW11410   2.806   3.160   1.405
 3504SOL    HW111411   2.900   3.192   1.417
 3504SOL    HW211412   2.806   3.080   1.344
 3505SOL     OW11413   6.129   5.053   5.281
 3505SOL    HW111414   6.107   5.140   5.324
 3505SOL    HW211415   6.224   5.054   5.251
 3506SOL     OW11416   3.956   5.836   4.990
 3506SOL    HW111417   4.009   5.895   4.929
 3506SOL    HW211418   3.906   5.768   4.937
 3507SOL     OW11419   1.693   0.765   6.841
 3507SOL    HW111420   1.625   0.759   6.767
 3507SOL    HW211421   1.735   0.676   6.855
 3508SOL     OW11422   4.180   2.851   6.041
 3508SOL    HW111423   4.090   2.889   6.063
 3508SOL    HW211424   4.236   2.848   6.123
 3509SOL     OW11425   5.378   6.082   6.484
 3509SOL    HW111426   5.477   6.088   6.497
 3509SOL    HW211427   5.354   6.122   6.395
 3510SOL     OW11428   1.545   3.011   1.412
 3510SOL    HW111429   1.613   2.991   1.342
 3510SOL    HW211430   1.528   3.110   1.415
 3511SOL     OW11431   1.397   4.110   6.893
 3511SOL    HW111432   1.476   4.149   6.940
 3511SOL    HW211433   1.383   4.159   6.807
 3512SOL     OW11434   0.923   4.627   0.407
 3512SOL    HW111435   0.927   4.646   0.505
 3512SOL    HW211436   0.988   4.554   0.384
 3513SOL     OW11437   5.870   4.665   1.085
 3513SOL    HW111438   5.891   4.718   1.168
 3513SOL    HW211439   5.869   4.568   1.107
 3514SOL     OW11440   0.799   1.098   1.780
 3514SOL    HW111441   0.710   1.055   1.792
 3514SOL    HW211442   0.789   1.186   1.734
 3515SOL     OW11443   3.842   6.359   2.449
 3515SOL    HW111444   3.833   6.284   2.514
 3515SOL    HW211445   3.919   6.417   2.477
 3516SOL     OW11446   4.153   0.786   1.381
 3516SOL    HW111447   4.179   0.851   1.309
 3516SOL    HW211448   4.220   0.790   1.455
 3517SOL     OW11449   0.390   1.863   0.031
 3517SOL    HW111450   0.440   1.832   0.111
 3517SOL    HW211451   0.437   1.942   7.015
 3518SOL     OW11452   4.916   4.149   5.283
 3518SOL    HW111453   4.967   4.091   5.347
 3518SOL    HW211454   4.818   4.133   5.295
 3519SOL     OW11455   1.701   0.543   6.536
 3519SOL    HW111456   1.687   0.635   6.499
 3519SOL    HW211457   1.632   0.524   6.605
 3520SOL     OW11458   3.601   4.173   1.128
 3520SOL    HW111459   3.693   4.134   1.133
 3520SOL    HW211460   3.535   4.099   1.112
 3521SOL     OW11461   5.592   2.955   1.851
 3521SOL    HW111462   5.551   2.878   1.900
 3521SOL    HW211463   5.585   3.037   1.908
 3522SOL     OW11464   3.337   5.880   2.343
 3522SOL    HW111465   3.429   5.841   2.344
 3522SOL    HW211466   3.311   5.901   2.249
 3523SOL     OW11467   3.034   4.526   5.539
 3523SOL    HW111468   3.052   4.479   5.453
 3523SOL    HW211469   3.092   4.488   5.610
 3524SOL     OW11470   2.477   0.265   1.137
 3524SOL    HW111471   2.444   0.309   1.221
 3524SOL    HW211472   2.496   0.334   1.068
 3525SOL     OW11473   0.733   3.443   1.914
 3525SOL    HW111474   0.811   3.380   1.916
 3525SOL    HW211475   0.691   3.446   2.005
 3526SOL     OW11476   1.121   0.404   3.914
 3526SOL    HW111477   1.047   0.442   3.970
 3526SOL    HW211478   1.112   0.304   3.911
 3527SOL     OW11479   5.414   2.822   5.134
 3527SOL    HW111480   5.328   2.866   5.109
 3527SOL    HW211481   5.396   2.739   5.186
 3528SOL     OW11482   1.166   5.979   3.417
 3528SOL    HW111483   1.191   5.911   3.348
 3528SOL    HW211484   1.139   5.932   3.501
 3529SOL     OW11485   3.848   0.015   5.962
 3529SOL    HW111486   3.852   0.115   5.961
 3529SOL    HW211487   3.786   7.008   5.890
 3530SOL     OW11488   1.735   4.825   2.704
 3530SOL    HW111489   1.649   4.873   2.689
 3530SOL    HW211490   1.811   4.882   2.674
 3531SOL     OW11491   5.086   4.329   0.807
 3531SOL    HW111492   5.149   4.253   0.793
 3531SOL    HW211493   5.038   4.318   0.894
 3532SOL     OW11494   3.089   0.611   0.579
 3532SOL    HW111495   3.112   0.517   0.555
 3532SOL    HW211496   3.162   0.650   0.636
 3533SOL     OW11497   1.196   2.065   3.326
 3533SOL    HW111498   1.145   2.007   3.261
 3533SOL    HW211499   1.189   2.026   3.418
 3534SOL     OW11500   5.761   1.381   5.317
 3534SOL    HW111501   5.843   1.438   5.320
 3534SOL    HW211502   5.694   1.424   5.256
 3535SOL     OW11503   6.995   5.865   0.774
 3535SOL    HW111504   0.023   5.907   0.700
 3535SOL    HW211505   6.931   5.932   0.811
 3536SOL     OW11506   2.187   3.118   3.645
 3536SOL    HW111507   2.233   3.032   3.621
 3536SOL    HW211508   2.152   3.111   3.739
 3537SOL     OW11509   2.330   4.282   0.760
 3537SOL    HW111510   2.301   4.362   0.707
 3537SOL    HW211511   2.255   4.250   0.818
 3538SOL     OW11512   2.944   0.925   3.825
 3538SOL    HW111513   2.913   0.923   3.920
 3538SOL    HW211514   2.867   0.952   3.766
 3539SOL     OW11515   5.804   3.442   5.769
 3539SOL    HW111516   5.887   3.413   5.817
 3539SOL    HW211517   5.828   3.492   5.687
 3540SOL     OW11518   2.335   1.887   5.977
 3540SOL    HW111519   2.344   1.966   5.917
 3540SOL    HW211520   2.419   1.875   6.030
 3541SOL     OW11521   2.495   3.025   0.058
 3541SOL    HW111522   2.431   3.092   0.021
 3541SOL    HW211523   2.463   2.933   0.037
 3542SOL     OW11524   5.776   2.544   0.460
 3542SOL    HW111525   5.800   2.631   0.416
 3542SOL    HW211526   5.860   2.497   0.488
 3543SOL     OW11527   1.583   3.326   3.724
 3543SOL    HW111528   1.498   3.363   3.687
 3543SOL    HW211529   1.564   3.245   3.779
 3544SOL     OW11530   2.250   4.436   6.526
 3544SOL    HW111531   2.170   4.415   6.583
 3544SOL    HW211532   2.266   4.359   6.463
 3545SOL     OW11533   3.866   4.697   0.610
 3545SOL    HW111534   3.833   4.788   0.583
 3545SOL    HW211535   3.800   4.628   0.581
 3546SOL     OW11536   6.607   5.051   2.986
 3546SOL    HW111537   6.628   5.089   2.895
 3546SOL    HW211538   6.600   5.126   3.052
 3547SOL     OW11539   6.644   4.369   4.971
 3547SOL    HW111540   6.698   4.430   5.029
 3547SOL    HW211541   6.547   4.386   4.985
 3548SOL     OW11542   5.770   0.404   5.112
 3548SOL    HW111543   5.731   0.371   5.026
 3548SOL    HW211544   5.696   0.436   5.172
 3549SOL     OW11545   1.879   4.877   5.420
 3549SOL    HW111546   1.892   4.779   5.403
 3549SOL    HW211547   1.966   4.925   5.408
 3550SOL     OW11548   5.732   3.125   4.418
 3550SOL    HW111549   5.776   3.198   4.367
 3550SOL    HW211550   5.777   3.114   4.507
 3551SOL     OW11551   3.402   1.804   5.400
 3551SOL    HW111552   3.436   1.874   5.336
 3551SOL    HW211553   3.358   1.731   5.348
 3552SOL     OW11554   5.516   5.508   2.188
 3552SOL    HW111555   5.441   5.532   2.249
 3552SOL    HW211556   5.603   5.519   2.236
 3553SOL     OW11557   3.710   5.057   6.208
 3553SOL    HW111558   3.640   5.076   6.139
 3553SOL    HW211559   3.730   4.959   6.209
 3554SOL     OW11560   4.684   3.448   0.187
 3554SOL    HW111561   4.757   3.415   0.126
 3554SOL    HW211562   4.603   3.471   0.132
 3555SOL     OW11563   1.777   1.959   4.421
 3555SOL    HW111564   1.693   2.014   4.421
 3555SOL    HW211565   1.815   1.956   4.328
 3556SOL     OW11566   3.878   1.086   3.732
 3556SOL    HW111567   3.799   1.145   3.748
 3556SOL    HW211568   3.852   1.009   3.674
 3557SOL     OW11569   1.045   0.234   3.392
 3557SOL    HW111570   1.083   0.318   3.430
 3557SOL    HW211571   0.980   0.257   3.320
 3558SOL     OW11572   2.587   4.742   1.049
 3558SOL    HW111573   2.548   4.822   1.094
 3558SOL    HW211574   2.630   4.683   1.117
 3559SOL     OW11575   1.760   6.140   4.127
 3559SOL    HW111576   1.838   6.150   4.189
 3559SOL    HW211577   1.740   6.043   4.115
 3560SOL     OW11578   2.270   5.105   3.217
 3560SOL    HW111579   2.278   5.077   3.121
 3560SOL    HW211580   2.267   5.205   3.222
 3561SOL     OW11581   5.220   4.768   5.962
 3561SOL    HW111582   5.273   4.823   6.027
 3561SOL    HW211583   5.267   4.765   5.874
 3562SOL     OW11584   3.342   1.975   4.352
 3562SOL    HW111585   3.340   1.921   4.268
 3562SOL    HW211586   3.250   2.007   4.373
 3563SOL     OW11587   6.167   2.000   6.155
 3563SOL    HW111588   6.197   1.956   6.070
 3563SOL    HW211589   6.080   2.045   6.140
 3564SOL     OW11590   0.343   4.927   3.338
 3564SOL    HW111591   0.298   4.953   3.253
 3564SOL    HW211592   0.407   4.999   3.366
 3565SOL     OW11593   3.387   5.042   2.639
 3565SOL    HW111594   3.452   5.020   2.711
 3565SOL    HW211595   3.434   5.041   2.550
 3566SOL     OW11596   6.053   0.951   5.605
 3566SOL    HW111597   6.149   0.959   5.634
 3566SOL    HW211598   5.993   0.976   5.681
 3567SOL     OW11599   0.502   2.261   5.966
 3567SOL    HW111600   0.594   2.222   5.972
 3567SOL    HW211601   0.447   2.231   6.044
 3568SOL     OW11602   6.155   3.686   4.788
 3568SOL    HW111603   6.181   3.677   4.884
 3568SOL    HW211604   6.222   3.743   4.741
 3569SOL     OW11605   3.279   1.745   5.667
 3569SOL    HW111606   3.209   1.814   5.647
 3569SOL    HW211607   3.370   1.787   5.661
 3570SOL     OW11608   4.737   0.596   6.109
 3570SOL    HW111609   4.756   0.498   6.114
 3570SOL    HW211610   4.822   0.645   6.093
 3571SOL     OW11611   0.450   5.235   7.022
 3571SOL    HW111612   0.414   5.311   6.968
 3571SOL    HW211613   0.543   5.213   6.991
 3572SOL     OW11614   5.509   4.112   3.467
 3572SOL    HW111615   5.553   4.024   3.485
 3572SOL    HW211616   5.502   4.126   3.368
 3573SOL     OW11617   0.345   4.584   3.638
 3573SOL    HW111618   0.298   4.539   3.562
 3573SOL    HW211619   0.443   4.571   3.629
 3574SOL     OW11620   0.088   4.800   0.519
 3574SOL    HW111621   0.065   4.711   0.478
 3574SOL    HW211622   0.154   4.847   0.460
 3575SOL     OW11623   5.452   4.516   2.913
 3575SOL    HW111624   5.434   4.614   2.904
 3575SOL    HW211625   5.366   4.465   2.900
 3576SOL     OW11626   2.261   1.596   5.693
 3576SOL    HW111627   2.179   1.547   5.664
 3576SOL    HW211628   2.333   1.583   5.625
 3577SOL     OW11629   1.109   3.449   5.983
 3577SOL    HW111630   1.020   3.437   6.027
 3577SOL    HW211631   1.128   3.547   5.975
 3578SOL     OW11632   3.648   2.770   0.553
 3578SOL    HW111633   3.633   2.867   0.536
 3578SOL    HW211634   3.573   2.733   0.608
 3579SOL     OW11635   6.844   3.934   4.721
 3579SOL    HW111636   6.809   4.012   4.774
 3579SOL    HW211637   6.944   3.934   4.724
 3580SOL     OW11638   5.942   1.903   0.692
 3580SOL    HW111639   5.883   1.933   0.616
 3580SOL    HW211640   5.906   1.938   0.778
 3581SOL     OW11641   6.642   0.261   3.969
 3581SOL    HW111642   6.578   0.213   4.028
 3581SOL    HW211643   6.645   0.217   3.879
 3582SOL     OW11644   0.786   1.628   5.915
 3582SOL    HW111645   0.867   1.662   5.963
 3582SOL    HW211646   0.789   1.658   5.820
 3583SOL     OW11647   1.289   3.948   6.586
 3583SOL    HW111648   1.226   4.017   6.551
 3583SOL    HW211649   1.261   3.920   6.677
 3584SOL     OW11650   6.062   5.495   0.203
 3584SOL    HW111651   5.965   5.520   0.208
 3584SOL    HW211652   6.071   5.397   0.188
 3585SOL     OW11653   3.715   5.400   5.130
 3585SOL    HW111654   3.648   5.449   5.185
 3585SOL    HW211655   3.688   5.402   5.034
 3586SOL     OW11656   0.289   1.873   5.183
 3586SOL    HW111657   0.251   1.829   5.264
 3586SOL    HW211658   0.340   1.806   5.130
 3587SOL     OW11659   2.739   4.787   6.599
 3587SOL    HW111660   2.681   4.830   6.668
 3587SOL    HW211661   2.815   4.740   6.645
 3588SOL     OW11662   0.913   2.564   4.714
 3588SOL    HW111663   0.934   2.484   4.657
 3588SOL    HW211664   0.987   2.579   4.779
 3589SOL     OW11665   4.138   1.657   4.535
 3589SOL    HW111666   4.112   1.753   4.533
 3589SOL    HW211667   4.082   1.606   4.469
 3590SOL     OW11668   0.361   3.634   5.922
 3590SOL    HW111669   0.423   3.704   5.886
 3590SOL    HW211670   0.415   3.558   5.960
 3591SOL     OW11671   5.327   3.191   6.011
 3591SOL    HW111672   5.316   3.200   5.912
 3591SOL    HW211673   5.414   3.232   6.039
 3592SOL     OW11674   6.291   4.117   2.750
 3592SOL    HW111675   6.200   4.101   2.712
 3592SOL    HW211676   6.316   4.213   2.738
 3593SOL     OW11677   2.287   5.804   4.276
 3593SOL    HW111678   2.364   5.821   4.215
 3593SOL    HW211679   2.321   5.771   4.365
 3594SOL     OW11680   3.879   0.839   2.654
 3594SOL    HW111681   3.790   0.882   2.642
 3594SOL    HW211682   3.896   0.776   2.578
 3595SOL     OW11683   2.446   5.479   6.204
 3595SOL    HW111684   2.369   5.493   6.267
 3595SOL    HW211685   2.513   5.419   6.247
 3596SOL     OW11686   6.272   2.384   2.960
 3596SOL    HW111687   6.349   2.445   2.979
 3596SOL    HW211688   6.306   2.301   2.916
 3597SOL     OW11689   2.415   6.777   5.305
 3597SOL    HW111690   2.359   6.807   5.383
 3597SOL    HW211691   2.511   6.798   5.323
 3598SOL     OW11692   1.291   6.475   6.249
 3598SOL    HW111693   1.369   6.414   6.234
 3598SOL    HW211694   1.291   6.507   6.343
 3599SOL     OW11695   0.691   1.927   5.945
 3599SOL    HW111696   0.723   2.014   5.984
 3599SOL    HW211697   0.614   1.893   5.999
 3600SOL     OW11698   1.271   3.549   0.393
 3600SOL    HW111699   1.302   3.494   0.316
 3600SOL    HW211700   1.178   3.583   0.375
 3601SOL     OW11701   6.432   4.292   0.375
 3601SOL    HW111702   6.432   4.268   0.472
 3601SOL    HW211703   6.412   4.210   0.321
 3602SOL     OW11704   1.596   2.212   0.534
 3602SOL    HW111705   1.600   2.185   0.630
 3602SOL    HW211706   1.689   2.225   0.499
 3603SOL     OW11707   3.574   6.203   3.897
 3603SOL    HW111708   3.528   6.252   3.971
 3603SOL    HW211709   3.670   6.230   3.893
 3604SOL     OW11710   6.965   5.147   4.003
 3604SOL    HW111711   6.914   5.091   3.937
 3604SOL    HW211712   0.023   5.098   4.031
 3605SOL     OW11713   5.202   4.626   5.466
 3605SOL    HW111714   5.261   4.573   5.527
 3605SOL    HW211715   5.250   4.710   5.438
 3606SOL     OW11716   6.863   5.710   5.641
 3606SOL    HW111717   6.850   5.809   5.647
 3606SOL    HW211718   6.799   5.664   5.703
 3607SOL     OW11719   5.161   6.459   1.025
 3607SOL    HW111720   5.212   6.488   0.944
 3607SOL    HW211721   5.176   6.361   1.040
 3608SOL     OW11722   6.638   1.768   2.542
 3608SOL    HW111723   6.628   1.810   2.632
 3608SOL    HW211724   6.625   1.669   2.549
 3609SOL     OW11725   0.351   0.355   4.376
 3609SOL    HW111726   0.328   0.414   4.454
 3609SOL    HW211727   0.450   0.352   4.365
 3610SOL     OW11728   1.099   0.363   5.563
 3610SOL    HW111729   1.196   0.340   5.572
 3610SOL    HW211730   1.089   0.455   5.524
 3611SOL     OW11731   4.120   6.278   5.826
 3611SOL    HW111732   4.084   6.268   5.733
 3611SOL    HW211733   4.067   6.348   5.875
 3612SOL     OW11734   6.056   0.431   5.978
 3612SOL    HW111735   6.014   0.340   5.981
 3612SOL    HW211736   6.008   0.487   5.910
 3613SOL     OW11737   4.669   5.293   1.690
 3613SOL    HW111738   4.678   5.316   1.787
 3613SOL    HW211739   4.704   5.200   1.675
 3614SOL     OW11740   3.289   3.497   2.637
 3614SOL    HW111741   3.336   3.493   2.725
 3614SOL    HW211742   3.296   3.409   2.591
 3615SOL     OW11743   4.974   6.201   0.006
 3615SOL    HW111744   4.962   6.142   6.950
 3615SOL    HW211745   4.979   6.145   0.088
 3616SOL     OW11746   6.964   2.423   6.313
 3616SOL    HW111747   6.956   2.522   6.316
 3616SOL    HW211748   6.909   2.387   6.237
 3617SOL     OW11749   4.665   0.770   6.774
 3617SOL    HW111750   4.628   0.683   6.804
 3617SOL    HW211751   4.755   0.756   6.731
 3618SOL     OW11752   2.052   1.986   4.804
 3618SOL    HW111753   2.016   2.016   4.893
 3618SOL    HW211754   2.102   1.900   4.816
 3619SOL     OW11755   6.391   3.455   4.070
 3619SOL    HW111756   6.468   3.466   4.008
 3619SOL    HW211757   6.389   3.360   4.104
 3620SOL     OW11758   6.267   6.124   6.153
 3620SOL    HW111759   6.315   6.112   6.240
 3620SOL    HW211760   6.313   6.071   6.082
 3621SOL     OW11761   3.041   2.681   5.704
 3621SOL    HW111762   3.086   2.594   5.722
 3621SOL    HW211763   3.108   2.755   5.709
 3622SOL     OW11764   2.098   2.687   4.206
 3622SOL    HW111765   2.016   2.718   4.158
 3622SOL    HW211766   2.100   2.726   4.298
 3623SOL     OW11767   6.346   6.008   3.933
 3623SOL    HW111768   6.403   5.983   3.855
 3623SOL    HW211769   6.255   5.968   3.923
 3624SOL     OW11770   1.200   0.098   2.235
 3624SOL    HW111771   1.279   0.097   2.297
 3624SOL    HW211772   1.229   0.130   2.145
 3625SOL     OW11773   5.214   3.612   6.911
 3625SOL    HW111774   5.196   3.648   6.820
 3625SOL    HW211775   5.281   3.538   6.905
 3626SOL     OW11776   1.366   3.622   5.407
 3626SOL    HW111777   1.362   3.720   5.428
 3626SOL    HW211778   1.423   3.576   5.475
 3627SOL     OW11779   3.390   2.883   3.431
 3627SOL    HW111780   3.487   2.858   3.423
 3627SOL    HW211781   3.333   2.807   3.400
 3628SOL     OW11782   1.459   0.288   1.634
 3628SOL    HW111783   1.519   0.263   1.710
 3628SOL    HW211784   1.512   0.338   1.565
 3629SOL     OW11785   6.379   2.108   4.376
 3629SOL    HW111786   6.443   2.082   4.448
 3629SOL    HW211787   6.350   2.027   4.326
 3630SOL     OW11788   5.025   2.683   3.318
 3630SOL    HW111789   4.976   2.769   3.306
 3630SOL    HW211790   5.089   2.670   3.243
 3631SOL     OW11791   1.875   0.289   3.670
 3631SOL    HW111792   1.889   0.299   3.572
 3631SOL    HW211793   1.945   0.341   3.719
 3632SOL     OW11794   4.569   6.485   0.784
 3632SOL    HW111795   4.664   6.455   0.783
 3632SOL    HW211796   4.514   6.419   0.835
 3633SOL     OW11797   3.232   1.607   5.951
 3633SOL    HW111798   3.271   1.515   5.956
 3633SOL    HW211799   3.279   1.659   5.880
 3634SOL     OW11800   0.820   5.459   4.528
 3634SOL    HW111801   0.829   5.416   4.617
 3634SOL    HW211802   0.739   5.423   4.482
 3635SOL     OW11803   2.755   6.229   6.372
 3635SOL    HW111804   2.716   6.142   6.340
 3635SOL    HW211805   2.844   6.211   6.414
 3636SOL     OW11806   0.451   5.666   6.669
 3636SOL    HW111807   0.539   5.641   6.629
 3636SOL    HW211808   0.381   5.668   6.598
 3637SOL     OW11809   5.892   1.655   1.466
 3637SOL    HW111810   5.865   1.562   1.492
 3637SOL    HW211811   5.923   1.704   1.548
 3638SOL     OW11812   0.212   4.676   4.511
 3638SOL    HW111813   0.192   4.626   4.596
 3638SOL    HW211814   0.214   4.774   4.531
 3639SOL     OW11815   3.593   4.405   1.231
 3639SOL    HW111816   3.593   4.319   1.179
 3639SOL    HW211817   3.565   4.388   1.325
 3640SOL     OW11818   3.268   0.593   0.105
 3640SOL    HW111819   3.200   0.658   0.072
 3640SOL    HW211820   3.334   0.574   0.033
 3641SOL     OW11821   4.952   3.302   4.176
 3641SOL    HW111822   4.879   3.249   4.220
 3641SOL    HW211823   4.952   3.284   4.078
 3642SOL     OW11824   4.885   0.632   0.428
 3642SOL    HW111825   4.949   0.668   0.497
 3642SOL    HW211826   4.794   0.625   0.467
 3643SOL     OW11827   3.152   5.791   4.918
 3643SOL    HW111828   3.161   5.722   4.846
 3643SOL    HW211829   3.233   5.790   4.976
 3644SOL     OW11830   6.429   1.563   1.757
 3644SOL    HW111831   6.373   1.639   1.790
 3644SOL    HW211832   6.430   1.490   1.825
 3645SOL     OW11833   6.885   2.679   4.098
 3645SOL    HW111834   6.904   2.744   4.024
 3645SOL    HW211835   6.890   2.586   4.063
 3646SOL     OW11836   6.236   3.976   6.923
 3646SOL    HW111837   6.193   3.896   6.964
 3646SOL    HW211838   6.306   3.947   6.858
 3647SOL     OW11839   2.015   3.437   0.282
 3647SOL    HW111840   2.012   3.406   0.377
 3647SOL    HW211841   1.943   3.391   0.230
 3648SOL     OW11842   2.959   4.950   2.841
 3648SOL    HW111843   2.936   4.868   2.894
 3648SOL    HW211844   2.880   5.012   2.839
 3649SOL     OW11845   5.100   3.287   2.267
 3649SOL    HW111846   5.138   3.379   2.255
 3649SOL    HW211847   5.046   3.262   2.187
 3650SOL     OW11848   0.372   4.391   0.758
 3650SOL    HW111849   0.294   4.352   0.807
 3650SOL    HW211850   0.395   4.332   0.680
 3651SOL     OW11851   0.707   6.875   4.120
 3651SOL    HW111852   0.704   6.891   4.022
 3651SOL    HW211853   0.765   6.944   4.164
 3652SOL     OW11854   5.867   6.065   3.110
 3652SOL    HW111855   5.845   5.985   3.167
 3652SOL    HW211856   5.805   6.140   3.131
 3653SOL     OW11857   0.614   1.391   4.568
 3653SOL    HW111858   0.626   1.302   4.524
 3653SOL    HW211859   0.608   1.462   4.498
 3654SOL     OW11860   2.728   5.573   0.319
 3654SOL    HW111861   2.689   5.662   0.344
 3654SOL    HW211862   2.668   5.500   0.350
 3655SOL     OW11863   2.484   6.965   3.691
 3655SOL    HW111864   2.414   6.975   3.762
 3655SOL    HW211865   2.448   6.909   3.617
 3656SOL     OW11866   0.987   3.517   2.099
 3656SOL    HW111867   0.974   3.417   2.102
 3656SOL    HW211868   0.979   3.554   2.192
 3657SOL     OW11869   4.974   5.125   6.340
 3657SOL    HW111870   4.949   5.029   6.353
 3657SOL    HW211871   5.064   5.131   6.297
 3658SOL     OW11872   1.552   6.179   4.339
 3658SOL    HW111873   1.619   6.170   4.265
 3658SOL    HW211874   1.584   6.131   4.420
 3659SOL     OW11875   1.972   3.330   5.346
 3659SOL    HW111876   1.898   3.320   5.279
 3659SOL    HW211877   1.955   3.268   5.423
 3660SOL     OW11878   4.742   0.061   2.651
 3660SOL    HW111879   4.689   0.104   2.724
 3660SOL    HW211880   4.714   6.990   2.641
 3661SOL     OW11881   5.289   1.259   6.188
 3661SOL    HW111882   5.378   1.219   6.167
 3661SOL    HW211883   5.217   1.194   6.164
 3662SOL     OW11884   3.727   0.613   3.750
 3662SOL    HW111885   3.817   0.640   3.785
 3662SOL    HW211886   3.729   0.517   3.722
 3663SOL     OW11887   1.473   2.455   0.457
 3663SOL    HW111888   1.379   2.460   0.492
 3663SOL    HW211889   1.520   2.378   0.500
 3664SOL     OW11890   5.006   1.811   2.339
 3664SOL    HW111891   4.969   1.727   2.377
 3664SOL    HW211892   5.102   1.798   2.316
 3665SOL     OW11893   1.852   6.147   5.384
 3665SOL    HW111894   1.777   6.184   5.329
 3665SOL    HW211895   1.816   6.106   5.468
 3666SOL     OW11896   1.224   3.909   3.428
 3666SOL    HW111897   1.184   3.861   3.506
 3666SOL    HW211898   1.163   3.902   3.349
 3667SOL     OW11899   7.004   1.326   1.634
 3667SOL    HW111900   6.915   1.291   1.605
 3667SOL    HW211901   0.025   1.370   1.557
 3668SOL     OW11902   1.577   1.331   2.134
 3668SOL    HW111903   1.544   1.237   2.126
 3668SOL    HW211904   1.654   1.345   2.071
 3669SOL     OW11905   5.478   1.443   3.253
 3669SOL    HW111906   5.419   1.365   3.274
 3669SOL    HW211907   5.437   1.498   3.181
 3670SOL     OW11908   2.254   4.514   0.622
 3670SOL    HW111909   2.327   4.529   0.554
 3670SOL    HW211910   2.212   4.602   0.645
 3671SOL     OW11911   6.045   0.035   4.156
 3671SOL    HW111912   6.001   0.075   4.075
 3671SOL    HW211913   6.047   0.103   4.229
 3672SOL     OW11914   5.601   2.283   1.638
 3672SOL    HW111915   5.515   2.324   1.606
 3672SOL    HW211916   5.606   2.289   1.737
 3673SOL     OW11917   4.185   6.751   6.585
 3673SOL    HW111918   4.271   6.797   6.604
 3673SOL    HW211919   4.113   6.790   6.643
 3674SOL     OW11920   0.735   6.888   5.152
 3674SOL    HW111921   0.796   6.808   5.147
 3674SOL    HW211922   0.685   6.896   5.066
 3675SOL     OW11923   1.666   3.286   4.897
 3675SOL    HW111924   1.704   3.246   4.814
 3675SOL    HW211925   1.674   3.386   4.894
 3676SOL     OW11926   5.168   4.791   4.568
 3676SOL    HW111927   5.133   4.702   4.539
 3676SOL    HW211928   5.100   4.862   4.546
 3677SOL     OW11929   2.027   6.325   3.017
 3677SOL    HW111930   2.107   6.320   3.077
 3677SOL    HW211931   2.046   6.279   2.931
 3678SOL     OW11932   0.051   2.579   5.205
 3678SOL    HW111933   0.147   2.596   5.181
 3678SOL    HW211934   0.008   2.526   5.133
 3679SOL     OW11935   1.501   0.736   2.923
 3679SOL    HW111936   1.474   0.647   2.962
 3679SOL    HW211937   1.444   0.756   2.844
 3680SOL     OW11938   5.429   2.082   3.568
 3680SOL    HW111939   5.330   2.095   3.565
 3680SOL    HW211940   5.462   2.052   3.479
 3681SOL     OW11941   0.347   0.298   5.312
 3681SOL    HW111942   0.281   0.230   5.344
 3681SOL    HW211943   0.318   0.389   5.340
 3682SOL     OW11944   5.689   2.264   7.000
 3682SOL    HW111945   5.626   2.321   0.028
 3682SOL    HW211946   5.704   2.306   6.910
 3683SOL     OW11947   0.129   0.021   3.404
 3683SOL    HW111948   0.126   0.077   3.321
 3683SOL    HW211949   0.185   6.965   3.388
 3684SOL     OW11950   1.648   4.972   6.814
 3684SOL    HW111951   1.642   4.878   6.780
 3684SOL    HW211952   1.645   5.035   6.737
 3685SOL     OW11953   6.850   6.217   6.202
 3685SOL    HW111954   6.769   6.215   6.261
 3685SOL    HW211955   6.898   6.304   6.214
 3686SOL     OW11956   5.705   6.020   3.488
 3686SOL    HW111957   5.701   5.994   3.584
 3686SOL    HW211958   5.778   5.968   3.442
 3687SOL     OW11959   3.969   6.183   5.194
 3687SOL    HW111960   3.885   6.135   5.167
 3687SOL    HW211961   4.047   6.144   5.145
 3688SOL     OW11962   6.141   3.560   6.825
 3688SOL    HW111963   6.057   3.586   6.871
 3688SOL    HW211964   6.119   3.506   6.744
 3689SOL     OW11965   2.170   0.768   6.946
 3689SOL    HW111966   2.120   0.707   7.008
 3689SOL    HW211967   2.120   0.775   6.859
 3690SOL     OW11968   4.901   6.333   0.452
 3690SOL    HW111969   4.955   6.251   0.466
 3690SOL    HW211970   4.962   6.411   0.438
 3691SOL     OW11971   3.127   2.924   0.275
 3691SOL    HW111972   3.059   2.883   0.215
 3691SOL    HW211973   3.140   3.020   0.251
 3692SOL     OW11974   0.491   5.905   4.973
 3692SOL    HW111975   0.554   5.966   4.926
 3692SOL    HW211976   0.515   5.900   5.070
 3693SOL     OW11977   1.892   2.608   2.787
 3693SOL    HW111978   1.844   2.584   2.702
 3693SOL    HW211979   1.988   2.579   2.781
 3694SOL     OW11980   1.292   5.137   2.898
 3694SOL    HW111981   1.322   5.095   2.984
 3694SOL    HW211982   1.214   5.086   2.861
 3695SOL     OW11983   6.840   3.065   2.081
 3695SOL    HW111984   6.931   3.090   2.113
 3695SOL    HW211985   6.838   2.967   2.060
 3696SOL     OW11986   3.244   5.420   5.054
 3696SOL    HW111987   3.315   5.487   5.033
 3696SOL    HW211988   3.286   5.338   5.092
 3697SOL     OW11989   0.028   6.290   3.104
 3697SOL    HW111990   0.071   6.340   3.030
 3697SOL    HW211991   7.019   6.202   3.070
 3698SOL     OW11992   2.178   0.505   4.616
 3698SOL    HW111993   2.131   0.519   4.528
 3698SOL    HW211994   2.112   0.518   4.690
 3699SOL     OW11995   0.786   3.262   3.619
 3699SOL    HW111996   0.746   3.270   3.710
 3699SOL    HW211997   0.886   3.257   3.626
 3700SOL     OW11998   0.295   6.989   5.104
 3700SOL    HW111999   0.371   0.013   5.060
 3700SOL    HW212000   0.209   7.013   5.059
 3701SOL     OW12001   1.414   0.391   3.856
 3701SOL    HW112002   1.416   0.316   3.922
 3701SOL    HW212003   1.326   0.439   3.862
 3702SOL     OW12004   5.664   6.423   2.623
 3702SOL    HW112005   5.633   6.369   2.544
 3702SOL    HW212006   5.638   6.519   2.609
 3703SOL     OW12007   4.641   1.518   6.382
 3703SOL    HW112008   4.690   1.489   6.300
 3703SOL    HW212009   4.544   1.529   6.361
 3704SOL     OW12010   3.702   1.409   1.881
 3704SOL    HW112011   3.636   1.458   1.938
 3704SOL    HW212012   3.794   1.432   1.911
 3705SOL     OW12013   4.911   5.800   3.603
 3705SOL    HW112014   4.814   5.795   3.628
 3705SOL    HW212015   4.959   5.857   3.670
 3706SOL     OW12016   1.492   3.912   5.321
 3706SOL    HW112017   1.550   3.874   5.394
 3706SOL    HW212018   1.407   3.947   5.362
 3707SOL     OW12019   5.208   4.245   5.401
 3707SOL    HW112020   5.145   4.297   5.343
 3707SOL    HW212021   5.162   4.221   5.487
 3708SOL     OW12022   6.833   1.154   6.391
 3708SOL    HW112023   6.769   1.078   6.378
 3708SOL    HW212024   6.887   1.138   6.474
 3709SOL     OW12025   3.483   0.712   1.104
 3709SOL    HW112026   3.416   0.769   1.057
 3709SOL    HW212027   3.533   0.658   1.038
 3710SOL     OW12028   6.729   5.365   6.643
 3710SOL    HW112029   6.775   5.287   6.602
 3710SOL    HW212030   6.646   5.385   6.591
 3711SOL     OW12031   0.666   0.184   3.820
 3711SOL    HW112032   0.744   0.221   3.769
 3711SOL    HW212033   0.681   0.086   3.836
 3712SOL     OW12034   0.011   6.013   6.903
 3712SOL    HW112035   0.045   6.104   6.879
 3712SOL    HW212036   0.064   5.943   6.855
 3713SOL     OW12037   1.672   6.416   4.895
 3713SOL    HW112038   1.599   6.448   4.955
 3713SOL    HW212039   1.638   6.410   4.801
 3714SOL     OW12040   4.577   5.924   5.621
 3714SOL    HW112041   4.583   6.024   5.630
 3714SOL    HW212042   4.504   5.890   5.680
 3715SOL     OW12043   6.088   3.986   2.579
 3715SOL    HW112044   6.054   3.960   2.489
 3715SOL    HW212045   6.170   3.933   2.600
 3716SOL     OW12046   6.380   6.523   5.319
 3716SOL    HW112047   6.297   6.570   5.290
 3716SOL    HW212048   6.390   6.530   5.419
 3717SOL     OW12049   5.545   5.938   0.020
 3717SOL    HW112050   5.528   5.957   0.117
 3717SOL    HW212051   5.634   5.975   7.019
 3718SOL     OW12052   1.665   0.653   0.245
 3718SOL    HW112053   1.611   0.631   0.163
 3718SOL    HW212054   1.607   0.644   0.325
 3719SOL     OW12055   5.427   4.646   0.774
 3719SOL    HW112056   5.364   4.708   0.727
 3719SOL    HW212057   5.521   4.669   0.748
 3720SOL     OW12058   6.632   2.358   6.288
 3720SOL    HW112059   6.537   2.380   6.265
 3720SOL    HW212060   6.648   2.375   6.385
 3721SOL     OW12061   5.047   4.494   1.821
 3721SOL    HW112062   5.082   4.416   1.769
 3721SOL    HW212063   5.003   4.462   1.905
 3722SOL     OW12064   6.495   6.188   1.112
 3722SOL    HW112065   6.591   6.198   1.086
 3722SOL    HW212066   6.461   6.274   1.149
 3723SOL     OW12067   6.662   6.400   2.129
 3723SOL    HW112068   6.668   6.371   2.033
 3723SOL    HW212069   6.682   6.322   2.188
 3724SOL     OW12070   2.002   4.262   4.764
 3724SOL    HW112071   2.010   4.361   4.771
 3724SOL    HW212072   2.091   4.220   4.779
 3725SOL     OW12073   6.306   5.464   1.103
 3725SOL    HW112074   6.316   5.393   1.173
 3725SOL    HW212075   6.263   5.424   1.022
 3726SOL     OW12076   6.331   4.253   1.032
 3726SOL    HW112077   6.327   4.183   0.960
 3726SOL    HW212078   6.348   4.342   0.991
 3727SOL     OW12079   0.006   1.950   5.482
 3727SOL    HW112080   7.001   1.920   5.573
 3727SOL    HW212081   7.014   1.876   5.416
 3728SOL     OW12082   0.851   4.198   6.799
 3728SOL    HW112083   0.846   4.185   6.898
 3728SOL    HW212084   0.882   4.290   6.779
 3729SOL     OW12085   1.165   1.937   3.680
 3729SOL    HW112086   1.065   1.936   3.689
 3729SOL    HW212087   1.199   1.844   3.680
 3730SOL     OW12088   2.668   5.054   6.167
 3730SOL    HW112089   2.710   5.017   6.249
 3730SOL    HW212090   2.737   5.061   6.094
 3731SOL     OW12091   5.722   0.245   1.169
 3731SOL    HW112092   5.654   0.177   1.141
 3731SOL    HW212093   5.679   0.313   1.229
 3732SOL     OW12094   2.701   1.941   6.084
 3732SOL    HW112095   2.704   2.017   6.019
 3732SOL    HW212096   2.784   1.942   6.140
 3733SOL     OW12097   1.398   3.431   1.931
 3733SOL    HW112098   1.423   3.435   1.834
 3733SOL    HW212099   1.390   3.335   1.959
 3734SOL     OW12100   4.897   1.010   2.010
 3734SOL    HW112101   4.950   1.090   2.036
 3734SOL    HW212102   4.918   0.935   2.073
 3735SOL     OW12103   2.617   0.934   3.461
 3735SOL    HW112104   2.692   0.869   3.448
 3735SOL    HW212105   2.653   1.028   3.459
 3736SOL     OW12106   6.962   2.428   0.522
 3736SOL    HW112107   6.876   2.446   0.571
 3736SOL    HW212108   6.943   2.378   0.438
 3737SOL     OW12109   4.585   0.048   3.388
 3737SOL    HW112110   4.512   0.107   3.424
 3737SOL    HW212111   4.658   0.041   3.455
 3738SOL     OW12112   0.272   5.925   1.872
 3738SOL    HW112113   0.245   5.855   1.806
 3738SOL    HW212114   0.330   5.993   1.826
 3739SOL     OW12115   2.426   4.645   1.343
 3739SOL    HW112116   2.517   4.619   1.310
 3739SOL    HW212117   2.415   4.615   1.438
 3740SOL     OW12118   5.820   0.741   0.462
 3740SOL    HW112119   5.807   0.648   0.497
 3740SOL    HW212120   5.822   0.805   0.539
 3741SOL     OW12121   5.561   3.014   1.563
 3741SOL    HW112122   5.586   2.974   1.651
 3741SOL    HW212123   5.546   3.112   1.574
 3742SOL     OW12124   2.498   2.265   6.731
 3742SOL    HW112125   2.487   2.233   6.636
 3742SOL    HW212126   2.528   2.189   6.788
 3743SOL     OW12127   5.161   2.919   1.052
 3743SOL    HW112128   5.119   2.835   1.016
 3743SOL    HW212129   5.224   2.957   0.984
 3744SOL     OW12130   0.667   6.197   2.998
 3744SOL    HW112131   0.705   6.126   3.058
 3744SOL    HW212132   0.610   6.153   2.928
 3745SOL     OW12133   3.758   4.924   1.861
 3745SOL    HW112134   3.689   4.865   1.902
 3745SOL    HW212135   3.729   4.949   1.769
 3746SOL     OW12136   5.728   1.141   2.824
 3746SOL    HW112137   5.812   1.170   2.869
 3746SOL    HW212138   5.656   1.127   2.892
 3747SOL     OW12139   2.837   0.111   5.337
 3747SOL    HW112140   2.918   0.153   5.296
 3747SOL    HW212141   2.866   0.037   5.399
 3748SOL     OW12142   5.931   0.432   1.650
 3748SOL    HW112143   5.906   0.528   1.659
 3748SOL    HW212144   5.907   0.384   1.734
 3749SOL     OW12145   1.744   5.874   4.117
 3749SOL    HW112146   1.822   5.814   4.132
 3749SOL    HW212147   1.663   5.820   4.093
 3750SOL     OW12148   1.442   4.079   0.584
 3750SOL    HW112149   1.474   4.132   0.663
 3750SOL    HW212150   1.356   4.033   0.607
 3751SOL     OW12151   6.912   3.832   2.050
 3751SOL    HW112152   6.842   3.761   2.064
 3751SOL    HW212153   6.957   3.852   2.137
 3752SOL     OW12154   5.393   0.764   6.591
 3752SOL    HW112155   5.308   0.815   6.576
 3752SOL    HW212156   5.387   0.675   6.545
 3753SOL     OW12157   6.800   0.639   5.820
 3753SOL    HW112158   6.728   0.681   5.875
 3753SOL    HW212159   6.792   0.672   5.725
 3754SOL     OW12160   1.808   0.252   1.368
 3754SOL    HW112161   1.838   0.257   1.463
 3754SOL    HW212162   1.761   0.165   1.353
 3755SOL     OW12163   4.440   5.331   5.037
 3755SOL    HW112164   4.372   5.350   5.109
 3755SOL    HW212165   4.509   5.268   5.073
 3756SOL     OW12166   3.028   5.376   6.223
 3756SOL    HW112167   3.022   5.333   6.313
 3756SOL    HW212168   2.948   5.434   6.208
 3757SOL     OW12169   6.337   4.985   1.878
 3757SOL    HW112170   6.419   4.933   1.856
 3757SOL    HW212171   6.257   4.924   1.875
 3758SOL     OW12172   2.281   1.386   4.848
 3758SOL    HW112173   2.210   1.428   4.905
 3758SOL    HW212174   2.370   1.398   4.891
 3759SOL     OW12175   4.097   0.366   5.913
 3759SOL    HW112176   4.169   0.299   5.930
 3759SOL    HW212177   4.109   0.444   5.974
 3760SOL     OW12178   1.159   1.587   4.198
 3760SOL    HW112179   1.096   1.660   4.171
 3760SOL    HW212180   1.142   1.505   4.143
 3761SOL     OW12181   6.661   1.371   5.446
 3761SOL    HW112182   6.673   1.274   5.425
 3761SOL    HW212183   6.672   1.426   5.363
 3762SOL     OW12184   1.594   4.602   0.995
 3762SOL    HW112185   1.539   4.682   0.971
 3762SOL    HW212186   1.687   4.613   0.959
 3763SOL     OW12187   0.607   3.475   7.000
 3763SOL    HW112188   0.611   3.544   0.048
 3763SOL    HW212189   0.564   3.515   6.919
 3764SOL     OW12190   1.168   6.957   2.501
 3764SOL    HW112191   1.184   6.873   2.449
 3764SOL    HW212192   1.116   7.022   2.446
 3765SOL     OW12193   5.945   1.439   0.954
 3765SOL    HW112194   5.932   1.507   1.026
 3765SOL    HW212195   5.889   1.462   0.875
 3766SOL     OW12196   2.124   2.317   4.438
 3766SOL    HW112197   2.213   2.312   4.392
 3766SOL    HW212198   2.136   2.294   4.535
 3767SOL     OW12199   3.077   4.273   6.961
 3767SOL    HW112200   3.157   4.317   7.002
 3767SOL    HW212201   3.098   4.248   6.867
 3768SOL     OW12202   0.734   6.825   4.754
 3768SOL    HW112203   0.769   6.784   4.670
 3768SOL    HW212204   0.795   6.898   4.784
 3769SOL     OW12205   6.227   5.082   4.958
 3769SOL    HW112206   6.227   4.990   4.996
 3769SOL    HW212207   6.262   5.147   5.026
 3770SOL     OW12208   0.897   0.620   7.006
 3770SOL    HW112209   0.894   0.691   0.051
 3770SOL    HW212210   0.819   0.559   7.017
 3771SOL     OW12211   5.156   4.274   0.136
 3771SOL    HW112212   5.084   4.343   0.138
 3771SOL    HW212213   5.241   4.314   0.171
 3772SOL     OW12214   0.164   0.468   0.354
 3772SOL    HW112215   0.175   0.403   0.279
 3772SOL    HW212216   0.074   0.458   0.395
 3773SOL     OW12217   6.060   3.829   5.344
 3773SOL    HW112218   6.058   3.740   5.298
 3773SOL    HW212219   5.968   3.868   5.345
 3774SOL     OW12220   5.703   5.520   1.599
 3774SOL    HW112221   5.622   5.545   1.652
 3774SOL    HW212222   5.694   5.556   1.506
 3775SOL     OW12223   4.717   5.393   2.693
 3775SOL    HW112224   4.804   5.394   2.644
 3775SOL    HW212225   4.728   5.343   2.779
 3776SOL     OW12226   3.799   2.539   6.548
 3776SOL    HW112227   3.753   2.596   6.615
 3776SOL    HW212228   3.896   2.532   6.570
 3777SOL     OW12229   3.189   4.953   3.228
 3777SOL    HW112230   3.257   4.965   3.299
 3777SOL    HW212231   3.233   4.959   3.138
 3778SOL     OW12232   2.718   5.075   3.109
 3778SOL    HW112233   2.786   5.034   3.170
 3778SOL    HW212234   2.628   5.035   3.127
 3779SOL     OW12235   0.762   4.743   0.952
 3779SOL    HW112236   0.857   4.765   0.976
 3779SOL    HW212237   0.700   4.787   1.018
 3780SOL     OW12238   6.101   4.269   4.608
 3780SOL    HW112239   6.185   4.269   4.553
 3780SOL    HW212240   6.053   4.355   4.596
 3781SOL     OW12241   0.182   6.703   3.621
 3781SOL    HW112242   0.164   6.607   3.599
 3781SOL    HW212243   0.176   6.716   3.720
 3782SOL     OW12244   2.391   0.443   2.821
 3782SOL    HW112245   2.472   0.479   2.867
 3782SOL    HW212246   2.309   0.481   2.863
 3783SOL     OW12247   6.007   5.249   4.163
 3783SOL    HW112248   5.953   5.186   4.219
 3783SOL    HW212249   6.098   5.209   4.147
 3784SOL     OW12250   5.036   2.808   2.939
 3784SOL    HW112251   5.046   2.739   3.011
 3784SOL    HW212252   4.940   2.817   2.914
 3785SOL     OW12253   1.455   3.335   5.309
 3785SOL    HW112254   1.516   3.407   5.273
 3785SOL    HW212255   1.439   3.351   5.406
 3786SOL     OW12256   2.278   4.183   2.897
 3786SOL    HW112257   2.280   4.269   2.947
 3786SOL    HW212258   2.267   4.201   2.799
 3787SOL     OW12259   5.830   0.981   2.219
 3787SOL    HW112260   5.802   1.068   2.260
 3787SOL    HW212261   5.749   0.925   2.201
 3788SOL     OW12262   6.992   4.388   5.171
 3788SOL    HW112263   0.060   4.377   5.137
 3788SOL    HW212264   6.957   4.478   5.143
 3789SOL     OW12265   0.009   3.859   4.094
 3789SOL    HW112266   0.103   3.885   4.073
 3789SOL    HW212267   7.011   3.775   4.045
 3790SOL     OW12268   1.186   4.973   5.891
 3790SOL    HW112269   1.180   4.880   5.854
 3790SOL    HW212270   1.100   4.996   5.936
 3791SOL     OW12271   5.188   1.756   6.663
 3791SOL    HW112272   5.283   1.751   6.694
 3791SOL    HW212273   5.149   1.844   6.689
 3792SOL     OW12274   1.410   1.800   3.377
 3792SOL    HW112275   1.387   1.726   3.439
 3792SOL    HW212276   1.488   1.773   3.320
 3793SOL     OW12277   4.480   6.799   2.160
 3793SOL    HW112278   4.421   6.845   2.094
 3793SOL    HW212279   4.554   6.860   2.187
 3794SOL     OW12280   2.542   2.849   1.696
 3794SOL    HW112281   2.480   2.921   1.667
 3794SOL    HW212282   2.500   2.795   1.769
 3795SOL     OW12283   5.030   5.940   1.050
 3795SOL    HW112284   4.943   5.949   1.001
 3795SOL    HW212285   5.053   5.844   1.060
 3796SOL     OW12286   4.328   1.884   2.743
 3796SOL    HW112287   4.298   1.873   2.837
 3796SOL    HW212288   4.249   1.873   2.681
 3797SOL     OW12289   0.580   3.234   2.880
 3797SOL    HW112290   0.628   3.225   2.968
 3797SOL    HW212291   0.633   3.190   2.808
 3798SOL     OW12292   2.416   6.083   2.635
 3798SOL    HW112293   2.401   6.174   2.596
 3798SOL    HW212294   2.475   6.091   2.716
 3799SOL     OW12295   6.147   2.917   3.581
 3799SOL    HW112296   6.112   2.839   3.530
 3799SOL    HW212297   6.221   2.960   3.531
 3800SOL     OW12298   5.393   1.514   3.555
 3800SOL    HW112299   5.321   1.515   3.486
 3800SOL    HW212300   5.383   1.593   3.616
 3801SOL     OW12301   6.010   6.708   1.995
 3801SOL    HW112302   5.916   6.739   1.977
 3801SOL    HW212303   6.015   6.609   1.983
 3802SOL     OW12304   1.183   2.235   1.389
 3802SOL    HW112305   1.278   2.221   1.415
 3802SOL    HW212306   1.178   2.251   1.290
 3803SOL     OW12307   4.050   3.148   2.828
 3803SOL    HW112308   4.122   3.212   2.802
 3803SOL    HW212309   4.016   3.101   2.747
 3804SOL     OW12310   4.108   1.022   3.164
 3804SOL    HW112311   4.040   1.081   3.209
 3804SOL    HW212312   4.165   0.978   3.233
 3805SOL     OW12313   1.880   3.257   1.654
 3805SOL    HW112314   1.958   3.300   1.700
 3805SOL    HW212315   1.910   3.219   1.567
 3806SOL     OW12316   3.700   3.823   5.767
 3806SOL    HW112317   3.697   3.723   5.765
 3806SOL    HW212318   3.728   3.858   5.678
 3807SOL     OW12319   2.051   5.237   2.851
 3807SOL    HW112320   1.978   5.304   2.869
 3807SOL    HW212321   2.140   5.279   2.869
 3808SOL     OW12322   4.065   1.015   0.390
 3808SOL    HW112323   4.009   0.991   0.311
 3808SOL    HW212324   4.154   0.970   0.383
 3809SOL     OW12325   5.625   2.692   1.381
 3809SOL    HW112326   5.634   2.696   1.480
 3809SOL    HW212327   5.688   2.623   1.344
 3810SOL     OW12328   5.467   2.747   3.766
 3810SOL    HW112329   5.500   2.653   3.756
 3810SOL    HW212330   5.403   2.768   3.692
 3811SOL     OW12331   6.881   6.212   4.364
 3811SOL    HW112332   6.872   6.124   4.410
 3811SOL    HW212333   6.871   6.286   4.431
 3812SOL     OW12334   4.260   5.011   5.051
 3812SOL    HW112335   4.216   5.048   4.970
 3812SOL    HW212336   4.191   4.976   5.114
 3813SOL     OW12337   5.307   3.902   0.033
 3813SOL    HW112338   5.258   3.950   0.106
 3813SOL    HW212339   5.262   3.815   0.014
 3814SOL     OW12340   6.684   0.424   5.623
 3814SOL    HW112341   6.612   0.493   5.635
 3814SOL    HW212342   6.707   0.416   5.526
 3815SOL     OW12343   3.590   1.791   1.115
 3815SOL    HW112344   3.577   1.784   1.016
 3815SOL    HW212345   3.519   1.850   1.153
 3816SOL     OW12346   1.363   5.158   6.415
 3816SOL    HW112347   1.275   5.114   6.431
 3816SOL    HW212348   1.423   5.097   6.363
 3817SOL     OW12349   4.883   3.530   2.333
 3817SOL    HW112350   4.981   3.534   2.315
 3817SOL    HW212351   4.848   3.440   2.310
 3818SOL     OW12352   6.242   1.123   0.304
 3818SOL    HW112353   6.318   1.183   0.327
 3818SOL    HW212354   6.170   1.131   0.373
 3819SOL     OW12355   5.853   5.542   2.598
 3819SOL    HW112356   5.837   5.634   2.632
 3819SOL    HW212357   5.816   5.475   2.663
 3820SOL     OW12358   4.959   0.354   4.280
 3820SOL    HW112359   4.928   0.259   4.284
 3820SOL    HW212360   4.886   0.414   4.313
 3821SOL     OW12361   1.879   1.132   1.722
 3821SOL    HW112362   1.828   1.200   1.775
 3821SOL    HW212363   1.816   1.084   1.661
 3822SOL     OW12364   2.367   6.813   0.568
 3822SOL    HW112365   2.464   6.790   0.555
 3822SOL    HW212366   2.342   6.801   0.664
 3823SOL     OW12367   2.815   3.778   6.102
 3823SOL    HW112368   2.722   3.762   6.071
 3823SOL    HW212369   2.853   3.857   6.054
 3824SOL     OW12370   0.661   2.957   0.288
 3824SOL    HW112371   0.733   3.026   0.291
 3824SOL    HW212372   0.699   2.868   0.314
 3825SOL     OW12373   0.638   5.092   0.353
 3825SOL    HW112374   0.571   5.048   0.292
 3825SOL    HW212375   0.658   5.031   0.430
 3826SOL     OW12376   0.949   3.800   0.724
 3826SOL    HW112377   0.894   3.875   0.762
 3826SOL    HW212378   0.928   3.716   0.773
 3827SOL     OW12379   1.732   0.783   1.891
 3827SOL    HW112380   1.792   0.752   1.818
 3827SOL    HW212381   1.640   0.745   1.878
 3828SOL     OW12382   3.551   3.195   3.701
 3828SOL    HW112383   3.585   3.269   3.643
 3828SOL    HW212384   3.608   3.113   3.688
 3829SOL     OW12385   0.875   4.836   2.330
 3829SOL    HW112386   0.786   4.849   2.375
 3829SOL    HW212387   0.901   4.740   2.336
 3830SOL     OW12388   1.053   0.604   5.417
 3830SOL    HW112389   1.004   0.558   5.343
 3830SOL    HW212390   1.086   0.693   5.385
 3831SOL     OW12391   4.705   2.238   2.884
 3831SOL    HW112392   4.682   2.262   2.978
 3831SOL    HW212393   4.799   2.205   2.880
 3832SOL     OW12394   0.506   0.790   2.987
 3832SOL    HW112395   0.466   0.796   3.078
 3832SOL    HW212396   0.440   0.749   2.924
 3833SOL     OW12397   0.217   5.886   6.731
 3833SOL    HW112398   0.211   5.838   6.819
 3833SOL    HW212399   0.229   5.820   6.657
 3834SOL     OW12400   3.795   3.956   1.042
 3834SOL    HW112401   3.703   3.930   1.071
 3834SOL    HW212402   3.851   3.875   1.030
 3835SOL     OW12403   3.975   6.022   4.527
 3835SOL    HW112404   3.904   5.966   4.486
 3835SOL    HW212405   3.959   6.118   4.504
 3836SOL     OW12406   0.474   4.620   5.936
 3836SOL    HW112407   0.522   4.631   5.849
 3836SOL    HW212408   0.375   4.618   5.920
 3837SOL     OW12409   4.534   4.368   6.450
 3837SOL    HW112410   4.484   4.284   6.427
 3837SOL    HW212411   4.514   4.438   6.382
 3838SOL     OW12412   1.058   3.245   3.713
 3838SOL    HW112413   1.012   3.175   3.768
 3838SOL    HW212414   1.124   3.294   3.770
 3839SOL     OW12415   5.549   1.795   3.086
 3839SOL    HW112416   5.610   1.796   3.165
 3839SOL    HW212417   5.603   1.787   3.002
 3840SOL     OW12418   3.031   1.555   6.542
 3840SOL    HW112419   2.967   1.490   6.582
 3840SOL    HW212420   3.066   1.519   6.456
 3841SOL     OW12421   0.557   2.993   4.835
 3841SOL    HW112422   0.641   2.972   4.785
 3841SOL    HW212423   0.564   3.084   4.876
 3842SOL     OW12424   1.973   2.629   2.185
 3842SOL    HW112425   1.974   2.686   2.267
 3842SOL    HW212426   2.051   2.567   2.186
 3843SOL     OW12427   5.471   4.501   2.523
 3843SOL    HW112428   5.498   4.522   2.618
 3843SOL    HW212429   5.382   4.541   2.504
 3844SOL     OW12430   1.414   2.465   5.323
 3844SOL    HW112431   1.362   2.383   5.300
 3844SOL    HW212432   1.350   2.539   5.347
 3845SOL     OW12433   3.479   4.232   5.611
 3845SOL    HW112434   3.383   4.207   5.599
 3845SOL    HW212435   3.525   4.229   5.523
 3846SOL     OW12436   6.906   5.078   3.011
 3846SOL    HW112437   6.830   5.104   2.952
 3846SOL    HW212438   6.974   5.152   3.013
 3847SOL     OW12439   5.043   2.981   4.184
 3847SOL    HW112440   5.125   2.956   4.132
 3847SOL    HW212441   5.067   2.993   4.280
 3848SOL     OW12442   4.409   4.896   2.609
 3848SOL    HW112443   4.468   4.855   2.539
 3848SOL    HW212444   4.397   4.994   2.588
 3849SOL     OW12445   1.141   1.342   5.935
 3849SOL    HW112446   1.071   1.293   5.987
 3849SOL    HW212447   1.098   1.390   5.859
 3850SOL     OW12448   2.418   3.631   1.643
 3850SOL    HW112449   2.412   3.556   1.709
 3850SOL    HW212450   2.359   3.706   1.672
 3851SOL     OW12451   0.952   4.416   2.417
 3851SOL    HW112452   0.985   4.363   2.494
 3851SOL    HW212453   0.876   4.368   2.373
 3852SOL     OW12454   4.298   6.312   4.146
 3852SOL    HW112455   4.395   6.318   4.171
 3852SOL    HW212456   4.243   6.303   4.229
 3853SOL     OW12457   0.440   4.249   3.689
 3853SOL    HW112458   0.509   4.227   3.759
 3853SOL    HW212459   0.482   4.304   3.617
 3854SOL     OW12460   1.590   2.040   2.800
 3854SOL    HW112461   1.684   2.025   2.769
 3854SOL    HW212462   1.553   1.955   2.836
 3855SOL     OW12463   5.324   6.474   6.197
 3855SOL    HW112464   5.264   6.461   6.276
 3855SOL    HW212465   5.270   6.470   6.113
 3856SOL     OW12466   6.731   0.440   6.372
 3856SOL    HW112467   6.822   0.398   6.382
 3856SOL    HW212468   6.681   0.393   6.300
 3857SOL     OW12469   0.544   6.188   0.057
 3857SOL    HW112470   0.513   6.283   0.059
 3857SOL    HW212471   0.505   6.139   0.136
 3858SOL     OW12472   2.529   0.851   5.768
 3858SOL    HW112473   2.561   0.896   5.685
 3858SOL    HW212474   2.594   0.866   5.842
 3859SOL     OW12475   5.361   1.068   2.204
 3859SOL    HW112476   5.437   1.052   2.140
 3859SOL    HW212477   5.336   1.165   2.202
 3860SOL     OW12478   2.249   1.114   5.092
 3860SOL    HW112479   2.179   1.092   5.023
 3860SOL    HW212480   2.340   1.100   5.052
 3861SOL     OW12481   4.359   5.244   2.974
 3861SOL    HW112482   4.395   5.333   3.001
 3861SOL    HW212483   4.435   5.179   2.964
 3862SOL     OW12484   0.650   0.603   5.221
 3862SOL    HW112485   0.553   0.591   5.200
 3862SOL    HW212486   0.667   0.698   5.249
 3863SOL     OW12487   5.781   2.852   6.810
 3863SOL    HW112488   5.738   2.930   6.763
 3863SOL    HW212489   5.826   2.884   6.893
 3864SOL     OW12490   2.444   0.874   5.419
 3864SOL    HW112491   2.360   0.821   5.427
 3864SOL    HW212492   2.421   0.972   5.419
 3865SOL     OW12493   3.355   0.819   0.526
 3865SOL    HW112494   3.361   0.909   0.483
 3865SOL    HW212495   3.404   0.752   0.470
 3866SOL     OW12496   3.199   0.393   1.328
 3866SOL    HW112497   3.182   0.361   1.421
 3866SOL    HW212498   3.189   0.317   1.264
 3867SOL     OW12499   0.579   5.148   3.846
 3867SOL    HW112500   0.489   5.191   3.855
 3867SOL    HW212501   0.650   5.218   3.844
 3868SOL     OW12502   2.871   6.839   0.165
 3868SOL    HW112503   2.829   6.905   0.228
 3868SOL    HW212504   2.860   6.747   0.201
 3869SOL     OW12505   6.071   4.116   4.860
 3869SOL    HW112506   6.091   4.147   4.768
 3869SOL    HW212507   6.019   4.030   4.856
 3870SOL     OW12508   5.800   5.879   0.298
 3870SOL    HW112509   5.834   5.966   0.262
 3870SOL    HW212510   5.850   5.856   0.382
 3871SOL     OW12511   3.045   0.104   2.649
 3871SOL    HW112512   3.140   0.076   2.664
 3871SOL    HW212513   2.983   0.041   2.697
 3872SOL     OW12514   3.868   2.994   3.966
 3872SOL    HW112515   3.793   3.000   4.032
 3872SOL    HW212516   3.946   2.949   4.007
 3873SOL     OW12517   6.595   2.895   1.101
 3873SOL    HW112518   6.619   2.828   1.030
 3873SOL    HW212519   6.519   2.951   1.068
 3874SOL     OW12520   4.145   6.169   6.872
 3874SOL    HW112521   4.088   6.210   6.801
 3874SOL    HW212522   4.118   6.205   6.961
 3875SOL     OW12523   1.955   3.165   2.390
 3875SOL    HW112524   1.986   3.140   2.481
 3875SOL    HW212525   2.033   3.162   2.327
 3876SOL     OW12526   3.924   5.536   1.217
 3876SOL    HW112527   4.011   5.524   1.170
 3876SOL    HW212528   3.877   5.448   1.225
 3877SOL     OW12529   5.705   2.709   0.762
 3877SOL    HW112530   5.633   2.709   0.693
 3877SOL    HW212531   5.789   2.747   0.723
 3878SOL     OW12532   3.282   0.110   4.406
 3878SOL    HW112533   3.341   0.191   4.409
 3878SOL    HW212534   3.262   0.088   4.310
 3879SOL     OW12535   5.506   5.354   1.347
 3879SOL    HW112536   5.524   5.307   1.434
 3879SOL    HW212537   5.449   5.296   1.289
 3880SOL     OW12538   5.465   4.934   4.376
 3880SOL    HW112539   5.528   4.881   4.319
 3880SOL    HW212540   5.484   4.915   4.472
 3881SOL     OW12541   1.457   3.527   1.668
 3881SOL    HW112542   1.505   3.604   1.626
 3881SOL    HW212543   1.407   3.477   1.597
 3882SOL     OW12544   1.341   1.060   5.785
 3882SOL    HW112545   1.380   0.990   5.844
 3882SOL    HW212546   1.313   1.138   5.840
 3883SOL     OW12547   3.903   0.669   3.079
 3883SOL    HW112548   3.928   0.721   2.997
 3883SOL    HW212549   3.982   0.665   3.141
 3884SOL     OW12550   0.523   5.450   3.398
 3884SOL    HW112551   0.445   5.388   3.389
 3884SOL    HW212552   0.552   5.479   3.306
 3885SOL     OW12553   6.546   0.162   2.908
 3885SOL    HW112554   6.627   0.145   2.852
 3885SOL    HW212555   6.532   0.085   2.970
 3886SOL     OW12556   6.087   5.990   5.158
 3886SOL    HW112557   6.080   5.895   5.190
 3886SOL    HW212558   6.016   6.007   5.090
 3887SOL     OW12559   6.990   0.758   6.189
 3887SOL    HW112560   0.050   0.721   6.149
 3887SOL    HW212561   6.951   0.826   6.127
 3888SOL     OW12562   6.849   0.578   5.416
 3888SOL    HW112563   6.792   0.506   5.376
 3888SOL    HW212564   6.927   0.595   5.355
 3889SOL     OW12565   0.184   3.604   6.270
 3889SOL    HW112566   0.248   3.584   6.344
 3889SOL    HW212567   0.137   3.690   6.289
 3890SOL     OW12568   5.512   5.397   2.771
 3890SOL    HW112569   5.609   5.373   2.761
 3890SOL    HW212570   5.489   5.401   2.868
 3891SOL     OW12571   5.504   4.705   4.881
 3891SOL    HW112572   5.449   4.631   4.919
 3891SOL    HW212573   5.524   4.772   4.953
 3892SOL     OW12574   0.452   2.067   1.246
 3892SOL    HW112575   0.536   2.014   1.257
 3892SOL    HW212576   0.475   2.164   1.238
 3893SOL     OW12577   4.385   3.802   1.340
 3893SOL    HW112578   4.478   3.772   1.319
 3893SOL    HW212579   4.387   3.896   1.375
 3894SOL     OW12580   3.207   2.042   1.474
 3894SOL    HW112581   3.184   2.136   1.448
 3894SOL    HW212582   3.193   2.029   1.572
 3895SOL     OW12583   1.762   0.706   5.831
 3895SOL    HW112584   1.665   0.729   5.825
 3895SOL    HW212585   1.773   0.614   5.868
 3896SOL     OW12586   0.173   0.405   5.809
 3896SOL    HW112587   0.096   0.450   5.764
 3896SOL    HW212588   0.216   0.340   5.746
 3897SOL     OW12589   3.577   5.772   2.304
 3897SOL    HW112590   3.653   5.725   2.347
 3897SOL    HW212591   3.611   5.827   2.227
 3898SOL     OW12592   3.198   3.743   4.692
 3898SOL    HW112593   3.140   3.776   4.766
 3898SOL    HW212594   3.183   3.800   4.611
 3899SOL     OW12595   5.833   0.267   4.753
 3899SOL    HW112596   5.915   0.239   4.801
 3899SOL    HW212597   5.758   0.279   4.818
 3900SOL     OW12598   5.233   2.675   4.202
 3900SOL    HW112599   5.211   2.704   4.109
 3900SOL    HW212600   5.152   2.636   4.245
 3901SOL     OW12601   3.005   0.457   5.401
 3901SOL    HW112602   2.947   0.479   5.480
 3901SOL    HW212603   3.092   0.505   5.411
 3902SOL     OW12604   5.912   3.671   2.383
 3902SOL    HW112605   5.966   3.604   2.332
 3902SOL    HW212606   5.950   3.762   2.370
 3903SOL     OW12607   4.452   5.455   0.217
 3903SOL    HW112608   4.432   5.550   0.197
 3903SOL    HW212609   4.428   5.434   0.312
 3904SOL     OW12610   1.866   0.161   4.615
 3904SOL    HW112611   1.868   0.207   4.704
 3904SOL    HW212612   1.824   0.221   4.547
 3905SOL     OW12613   6.756   6.994   5.756
 3905SOL    HW112614   6.784   0.065   5.744
 3905SOL    HW212615   6.741   6.975   5.853
 3906SOL     OW12616   3.632   5.439   4.860
 3906SOL    HW112617   3.703   5.392   4.809
 3906SOL    HW212618   3.543   5.424   4.816
 3907SOL     OW12619   6.763   6.679   5.453
 3907SOL    HW112620   6.753   6.775   5.480
 3907SOL    HW212621   6.846   6.641   5.495
 3908SOL     OW12622   0.999   0.900   0.442
 3908SOL    HW112623   1.017   0.806   0.470
 3908SOL    HW212624   0.976   0.955   0.523
 3909SOL     OW12625   0.281   5.765   5.286
 3909SOL    HW112626   0.227   5.685   5.258
 3909SOL    HW212627   0.220   5.834   5.324
 3910SOL     OW12628   3.662   3.839   2.007
 3910SOL    HW112629   3.653   3.824   2.105
 3910SOL    HW212630   3.678   3.936   1.989
 3911SOL     OW12631   4.195   1.309   0.051
 3911SOL    HW112632   4.186   1.237   7.007
 3911SOL    HW212633   4.106   1.355   0.063
 3912SOL     OW12634   2.876   0.767   6.273
 3912SOL    HW112635   2.871   0.760   6.373
 3912SOL    HW212636   2.805   0.829   6.240
 3913SOL     OW12637   2.190   5.845   6.288
 3913SOL    HW112638   2.145   5.808   6.206
 3913SOL    HW212639   2.264   5.906   6.261
 3914SOL     OW12640   3.945   1.229   1.161
 3914SOL    HW112641   3.906   1.248   1.251
 3914SOL    HW212642   3.896   1.154   1.118
 3915SOL     OW12643   3.697   6.309   1.664
 3915SOL    HW112644   3.680   6.291   1.567
 3915SOL    HW212645   3.685   6.406   1.682
 3916SOL     OW12646   1.506   6.269   2.867
 3916SOL    HW112647   1.540   6.295   2.958
 3916SOL    HW212648   1.549   6.327   2.798
 3917SOL     OW12649   1.628   4.696   6.729
 3917SOL    HW112650   1.548   4.639   6.749
 3917SOL    HW212651   1.711   4.647   6.755
 3918SOL     OW12652   5.532   6.654   2.604
 3918SOL    HW112653   5.496   6.735   2.652
 3918SOL    HW212654   5.458   6.588   2.591
 3919SOL     OW12655   3.008   6.104   6.688
 3919SOL    HW112656   3.080   6.072   6.749
 3919SOL    HW212657   3.029   6.076   6.594
 3920SOL     OW12658   3.153   2.437   6.429
 3920SOL    HW112659   3.165   2.340   6.408
 3920SOL    HW212660   3.119   2.446   6.522
 3921SOL     OW12661   7.003   3.010   0.811
 3921SOL    HW112662   7.004   3.102   0.771
 3921SOL    HW212663   6.999   3.016   0.910
 3922SOL     OW12664   5.613   4.463   1.328
 3922SOL    HW112665   5.540   4.399   1.349
 3922SOL    HW212666   5.593   4.510   1.242
 3923SOL     OW12667   6.812   1.921   0.521
 3923SOL    HW112668   6.841   1.825   0.529
 3923SOL    HW212669   6.769   1.950   0.607
 3924SOL     OW12670   0.245   5.646   3.164
 3924SOL    HW112671   0.313   5.715   3.189
 3924SOL    HW212672   0.159   5.691   3.138
 3925SOL     OW12673   3.640   4.090   0.781
 3925SOL    HW112674   3.545   4.072   0.806
 3925SOL    HW212675   3.674   4.166   0.836
 3926SOL     OW12676   6.433   5.778   2.714
 3926SOL    HW112677   6.507   5.840   2.687
 3926SOL    HW212678   6.347   5.809   2.673
 3927SOL     OW12679   0.271   3.693   3.690
 3927SOL    HW112680   0.182   3.651   3.673
 3927SOL    HW212681   0.258   3.788   3.720
 3928SOL     OW12682   3.037   5.250   4.953
 3928SOL    HW112683   3.015   5.184   5.025
 3928SOL    HW212684   3.110   5.311   4.985
 3929SOL     OW12685   0.459   2.230   6.677
 3929SOL    HW112686   0.373   2.278   6.695
 3929SOL    HW212687   0.526   2.253   6.748
 3930SOL     OW12688   1.925   1.603   3.725
 3930SOL    HW112689   1.951   1.698   3.739
 3930SOL    HW212690   1.849   1.597   3.661
 3931SOL     OW12691   2.216   1.652   2.823
 3931SOL    HW112692   2.143   1.673   2.758
 3931SOL    HW212693   2.292   1.714   2.809
 3932SOL     OW12694   1.507   4.270   3.041
 3932SOL    HW112695   1.476   4.176   3.054
 3932SOL    HW212696   1.459   4.330   3.106
 3933SOL     OW12697   2.541   6.896   6.546
 3933SOL    HW112698   2.553   6.974   6.608
 3933SOL    HW212699   2.629   6.850   6.533
 3934SOL     OW12700   0.481   0.902   1.269
 3934SOL    HW112701   0.454   0.870   1.178
 3934SOL    HW212702   0.541   0.834   1.312
 3935SOL     OW12703   2.067   0.090   5.531
 3935SOL    HW112704   1.978   0.131   5.515
 3935SOL    HW212705   2.100   0.114   5.622
 3936SOL     OW12706   0.180   5.598   5.618
 3936SOL    HW112707   0.219   5.525   5.674
 3936SOL    HW212708   0.114   5.559   5.554
 3937SOL     OW12709   0.455   0.434   2.340
 3937SOL    HW112710   0.380   0.501   2.347
 3937SOL    HW212711   0.542   0.481   2.352
 3938SOL     OW12712   6.651   2.494   3.999
 3938SOL    HW112713   6.742   2.451   4.002
 3938SOL    HW212714   6.621   2.516   4.092
 3939SOL     OW12715   3.034   1.748   2.501
 3939SOL    HW112716   3.005   1.663   2.545
 3939SOL    HW212717   3.101   1.728   2.430
 3940SOL     OW12718   3.987   4.802   2.114
 3940SOL    HW112719   4.006   4.812   2.016
 3940SOL    HW212720   3.888   4.801   2.129
 3941SOL     OW12721   5.374   1.516   6.332
 3941SOL    HW112722   5.361   1.452   6.256
 3941SOL    HW212723   5.453   1.574   6.313
 3942SOL     OW12724   0.668   6.757   5.523
 3942SOL    HW112725   0.760   6.776   5.559
 3942SOL    HW212726   0.637   6.836   5.471
 3943SOL     OW12727   0.871   3.763   2.669
 3943SOL    HW112728   0.947   3.699   2.657
 3943SOL    HW212729   0.812   3.759   2.589
 3944SOL     OW12730   5.874   4.053   5.812
 3944SOL    HW112731   5.945   4.077   5.746
 3944SOL    HW212732   5.892   3.962   5.849
 3945SOL     OW12733   1.136   2.376   2.250
 3945SOL    HW112734   1.062   2.404   2.189
 3945SOL    HW212735   1.126   2.279   2.272
 3946SOL     OW12736   6.420   4.529   6.081
 3946SOL    HW112737   6.342   4.591   6.078
 3946SOL    HW212738   6.395   4.446   6.131
 3947SOL     OW12739   5.985   5.267   1.702
 3947SOL    HW112740   5.951   5.228   1.788
 3947SOL    HW212741   6.084   5.280   1.708
 3948SOL     OW12742   1.126   5.005   1.171
 3948SOL    HW112743   1.076   5.060   1.103
 3948SOL    HW212744   1.224   5.008   1.150
 3949SOL     OW12745   5.666   0.826   2.827
 3949SOL    HW112746   5.628   0.872   2.907
 3949SOL    HW212747   5.596   0.818   2.756
 3950SOL     OW12748   3.310   3.863   1.687
 3950SOL    HW112749   3.265   3.946   1.722
 3950SOL    HW212750   3.361   3.819   1.761
 3951SOL     OW12751   0.074   6.708   0.138
 3951SOL    HW112752   0.057   6.789   0.082
 3951SOL    HW212753   0.031   6.720   0.227
 3952SOL     OW12754   6.872   3.968   4.352
 3952SOL    HW112755   6.784   3.949   4.396
 3952SOL    HW212756   6.867   3.942   4.256
 3953SOL     OW12757   3.021   4.302   0.637
 3953SOL    HW112758   2.956   4.332   0.567
 3953SOL    HW212759   3.093   4.370   0.647
 3954SOL     OW12760   6.093   5.373   5.779
 3954SOL    HW112761   6.046   5.314   5.844
 3954SOL    HW212762   6.033   5.449   5.753
 3955SOL     OW12763   3.880   6.777   0.112
 3955SOL    HW112764   3.889   6.753   0.015
 3955SOL    HW212765   3.925   6.706   0.167
 3956SOL     OW12766   0.741   2.393   3.461
 3956SOL    HW112767   0.823   2.451   3.450
 3956SOL    HW212768   0.768   2.305   3.500
 3957SOL     OW12769   5.063   6.756   3.233
 3957SOL    HW112770   5.037   6.710   3.318
 3957SOL    HW212771   5.011   6.718   3.157
 3958SOL     OW12772   5.707   0.213   6.099
 3958SOL    HW112773   5.788   0.212   6.041
 3958SOL    HW212774   5.692   0.123   6.138
 3959SOL     OW12775   3.380   6.696   0.905
 3959SOL    HW112776   3.391   6.678   0.808
 3959SOL    HW212777   3.299   6.649   0.939
 3960SOL     OW12778   5.194   1.764   6.375
 3960SOL    HW112779   5.175   1.726   6.466
 3960SOL    HW212780   5.250   1.699   6.323
 3961SOL     OW12781   5.558   2.683   2.204
 3961SOL    HW112782   5.635   2.722   2.254
 3961SOL    HW212783   5.473   2.719   2.241
 3962SOL     OW12784   1.698   5.193   6.642
 3962SOL    HW112785   1.741   5.195   6.552
 3962SOL    HW212786   1.764   5.221   6.711
 3963SOL     OW12787   4.569   4.667   3.819
 3963SOL    HW112788   4.470   4.660   3.810
 3963SOL    HW212789   4.603   4.596   3.880
 3964SOL     OW12790   4.634   4.959   3.949
 3964SOL    HW112791   4.671   4.866   3.946
 3964SOL    HW212792   4.687   5.013   4.015
 3965SOL     OW12793   3.875   3.296   6.155
 3965SOL    HW112794   3.803   3.277   6.222
 3965SOL    HW212795   3.850   3.255   6.067
 3966SOL     OW12796   6.275   5.520   0.380
 3966SOL    HW112797   6.304   5.425   0.396
 3966SOL    HW212798   6.212   5.522   0.302
 3967SOL     OW12799   1.530   3.946   2.619
 3967SOL    HW112800   1.613   4.001   2.605
 3967SOL    HW212801   1.520   3.881   2.544
 3968SOL     OW12802   6.645   0.092   1.459
 3968SOL    HW112803   6.605   0.177   1.426
 3968SOL    HW212804   6.671   0.035   1.381
 3969SOL     OW12805   1.475   3.515   2.287
 3969SOL    HW112806   1.395   3.520   2.227
 3969SOL    HW212807   1.476   3.593   2.349
 3970SOL     OW12808   4.723   5.247   3.889
 3970SOL    HW112809   4.817   5.277   3.906
 3970SOL    HW212810   4.703   5.167   3.947
 3971SOL     OW12811   2.630   4.980   2.194
 3971SOL    HW112812   2.631   4.888   2.155
 3971SOL    HW212813   2.564   5.036   2.144
 3972SOL     OW12814   1.566   5.458   1.029
 3972SOL    HW112815   1.638   5.428   1.092
 3972SOL    HW212816   1.522   5.540   1.066
 3973SOL     OW12817   1.854   4.229   5.422
 3973SOL    HW112818   1.849   4.305   5.357
 3973SOL    HW212819   1.899   4.151   5.378
 3974SOL     OW12820   1.090   0.051   5.157
 3974SOL    HW112821   1.128   0.104   5.233
 3974SOL    HW212822   0.991   0.066   5.153
 3975SOL     OW12823   5.347   0.164   6.167
 3975SOL    HW112824   5.283   0.211   6.228
 3975SOL    HW212825   5.387   0.230   6.104
 3976SOL     OW12826   1.334   5.296   1.691
 3976SOL    HW112827   1.320   5.386   1.733
 3976SOL    HW212828   1.273   5.286   1.612
 3977SOL     OW12829   3.093   4.768   5.418
 3977SOL    HW112830   3.005   4.800   5.385
 3977SOL    HW212831   3.080   4.695   5.485
 3978SOL     OW12832   5.266   0.213   4.575
 3978SOL    HW112833   5.334   0.264   4.523
 3978SOL    HW212834   5.310   0.174   4.656
 3979SOL     OW12835   2.821   6.068   1.863
 3979SOL    HW112836   2.761   6.045   1.787
 3979SOL    HW212837   2.912   6.030   1.846
 3980SOL     OW12838   0.531   4.951   6.847
 3980SOL    HW112839   0.590   4.916   6.920
 3980SOL    HW212840   0.588   4.995   6.778
 3981SOL     OW12841   1.800   1.478   6.063
 3981SOL    HW112842   1.779   1.402   6.002
 3981SOL    HW212843   1.895   1.471   6.094
 3982SOL     OW12844   2.031   0.755   4.180
 3982SOL    HW112845   2.082   0.670   4.194
 3982SOL    HW212846   2.080   0.813   4.115
 3983SOL     OW12847   4.376   5.239   4.001
 3983SOL    HW112848   4.438   5.222   3.925
 3983SOL    HW212849   4.419   5.212   4.087
 3984SOL     OW12850   1.169   0.636   2.959
 3984SOL    HW112851   1.192   0.723   3.002
 3984SOL    HW212852   1.198   0.561   3.018
 3985SOL     OW12853   4.000   4.602   6.245
 3985SOL    HW112854   4.055   4.531   6.289
 3985SOL    HW212855   4.057   4.654   6.181
 3986SOL     OW12856   6.819   2.326   2.658
 3986SOL    HW112857   6.909   2.369   2.666
 3986SOL    HW212858   6.791   2.290   2.747
 3987SOL     OW12859   3.040   5.570   4.296
 3987SOL    HW112860   3.084   5.485   4.323
 3987SOL    HW212861   2.943   5.554   4.281
 3988SOL     OW12862   3.849   3.223   6.857
 3988SOL    HW112863   3.925   3.243   6.795
 3988SOL    HW212864   3.806   3.136   6.831
 3989SOL     OW12865   6.661   1.615   0.142
 3989SOL    HW112866   6.692   1.523   0.165
 3989SOL    HW212867   6.674   1.675   0.221
 3990SOL     OW12868   5.406   2.245   2.910
 3990SOL    HW112869   5.401   2.304   2.830
 3990SOL    HW212870   5.498   2.205   2.915
 3991SOL     OW12871   5.765   1.335   1.850
 3991SOL    HW112872   5.730   1.268   1.784
 3991SOL    HW212873   5.863   1.318   1.864
 3992SOL     OW12874   3.911   2.446   6.831
 3992SOL    HW112875   3.889   2.361   6.784
 3992SOL    HW212876   4.009   2.450   6.850
 3993SOL     OW12877   0.410   2.683   3.097
 3993SOL    HW112878   0.316   2.672   3.067
 3993SOL    HW212879   0.427   2.626   3.177
 3994SOL     OW12880   1.195   1.807   6.580
 3994SOL    HW112881   1.249   1.725   6.558
 3994SOL    HW212882   1.152   1.842   6.496
 3995SOL     OW12883   1.933   3.849   3.849
 3995SOL    HW112884   1.861   3.888   3.907
 3995SOL    HW212885   1.895   3.773   3.796
 3996SOL     OW12886   0.713   1.181   4.868
 3996SOL    HW112887   0.741   1.108   4.807
 3996SOL    HW212888   0.699   1.144   4.960
 3997SOL     OW12889   4.759   2.424   3.408
 3997SOL    HW112890   4.853   2.416   3.443
 3997SOL    HW212891   4.732   2.521   3.408
 3998SOL     OW12892   4.206   1.153   2.526
 3998SOL    HW112893   4.246   1.196   2.445
 3998SOL    HW212894   4.106   1.156   2.520
 3999SOL     OW12895   5.305   3.334   4.006
 3999SOL    HW112896   5.252   3.259   4.045
 3999SOL    HW212897   5.361   3.376   4.077
 4000SOL     OW12898   2.886   4.747   3.033
 4000SOL    HW112899   2.826   4.700   2.969
 4000SOL    HW212900   2.873   4.708   3.124
 4001SOL     OW12901   2.237   2.190   4.077
 4001SOL    HW112902   2.190   2.191   3.989
 4001SOL    HW212903   2.215   2.105   4.126
 4002SOL     OW12904   3.009   2.443   0.371
 4002SOL    HW112905   2.969   2.488   0.290
 4002SOL    HW212906   3.069   2.368   0.341
 4003SOL     OW12907   2.677   6.604   5.153
 4003SOL    HW112908   2.678   6.703   5.167
 4003SOL    HW212909   2.638   6.560   5.234
 4004SOL     OW12910   6.011   1.885   4.013
 4004SOL    HW112911   6.011   1.892   4.113
 4004SOL    HW212912   5.918   1.897   3.978
 4005SOL     OW12913   5.670   5.487   0.953
 4005SOL    HW112914   5.683   5.585   0.967
 4005SOL    HW212915   5.736   5.454   0.885
 4006SOL     OW12916   3.891   5.133   2.280
 4006SOL    HW112917   3.987   5.126   2.308
 4006SOL    HW212918   3.832   5.093   2.350
 4007SOL     OW12919   0.982   3.194   1.504
 4007SOL    HW112920   0.920   3.138   1.559
 4007SOL    HW212921   0.930   3.242   1.433
 4008SOL     OW12922   3.832   2.080   4.256
 4008SOL    HW112923   3.740   2.052   4.229
 4008SOL    HW212924   3.899   2.042   4.192
 4009SOL     OW12925   5.113   3.020   0.141
 4009SOL    HW112926   5.151   3.111   0.124
 4009SOL    HW212927   5.024   3.012   0.095
 4010SOL     OW12928   2.285   3.208   1.230
 4010SOL    HW112929   2.253   3.144   1.299
 4010SOL    HW212930   2.323   3.289   1.276
 4011SOL     OW12931   0.663   0.751   1.398
 4011SOL    HW112932   0.670   0.714   1.490
 4011SOL    HW212933   0.739   0.814   1.381
 4012SOL     OW12934   4.417   5.395   1.992
 4012SOL    HW112935   4.404   5.347   1.905
 4012SOL    HW212936   4.515   5.410   2.006
 4013SOL     OW12937   2.748   0.281   0.546
 4013SOL    HW112938   2.753   0.326   0.457
 4013SOL    HW212939   2.826   0.311   0.602
 4014SOL     OW12940   4.071   5.846   3.257
 4014SOL    HW112941   3.978   5.839   3.220
 4014SOL    HW212942   4.078   5.927   3.314
 4015SOL     OW12943   4.335   5.844   6.323
 4015SOL    HW112944   4.301   5.798   6.405
 4015SOL    HW212945   4.427   5.812   6.301
 4016SOL     OW12946   1.800   5.879   6.067
 4016SOL    HW112947   1.840   5.946   6.129
 4016SOL    HW212948   1.701   5.873   6.083
 4017SOL     OW12949   0.130   6.497   0.403
 4017SOL    HW112950   0.161   6.520   0.310
 4017SOL    HW212951   0.052   6.434   0.397
 4018SOL     OW12952   5.745   6.751   2.419
 4018SOL    HW112953   5.683   6.707   2.484
 4018SOL    HW212954   5.772   6.840   2.455
 4019SOL     OW12955   5.928   3.354   3.201
 4019SOL    HW112956   5.995   3.392   3.137
 4019SOL    HW212957   5.941   3.395   3.291
 4020SOL     OW12958   5.708   2.454   5.024
 4020SOL    HW112959   5.757   2.540   5.013
 4020SOL    HW212960   5.639   2.446   4.952
 4021SOL     OW12961   3.036   3.365   5.522
 4021SOL    HW112962   2.957   3.388   5.578
 4021SOL    HW212963   3.052   3.266   5.525
 4022SOL     OW12964   4.666   0.360   0.114
 4022SOL    HW112965   4.587   0.393   0.165
 4022SOL    HW212966   4.637   0.294   0.045
 4023SOL     OW12967   6.411   1.967   5.176
 4023SOL    HW112968   6.453   1.900   5.115
 4023SOL    HW212969   6.357   1.920   5.246
 4024SOL     OW12970   2.970   5.303   4.021
 4024SOL    HW112971   2.913   5.361   4.080
 4024SOL    HW212972   2.961   5.208   4.050
 4025SOL     OW12973   0.796   6.215   4.460
 4025SOL    HW112974   0.791   6.116   4.475
 4025SOL    HW212975   0.729   6.242   4.390
 4026SOL     OW12976   6.091   5.947   3.913
 4026SOL    HW112977   6.033   5.926   3.993
 4026SOL    HW212978   6.038   5.932   3.830
 4027SOL     OW12979   3.410   3.975   2.241
 4027SOL    HW112980   3.361   3.991   2.156
 4027SOL    HW212981   3.347   3.941   2.310
 4028SOL     OW12982   1.617   2.362   4.042
 4028SOL    HW112983   1.541   2.306   4.010
 4028SOL    HW212984   1.643   2.427   3.970
 4029SOL     OW12985   2.564   4.341   6.482
 4029SOL    HW112986   2.567   4.436   6.450
 4029SOL    HW212987   2.571   4.280   6.403
 4030SOL     OW12988   1.659   1.632   6.521
 4030SOL    HW112989   1.748   1.632   6.566
 4030SOL    HW212990   1.661   1.570   6.443
 4031SOL     OW12991   4.469   5.881   2.927
 4031SOL    HW112992   4.548   5.832   2.963
 4031SOL    HW212993   4.442   5.952   2.991
 4032SOL     OW12994   5.928   0.452   2.995
 4032SOL    HW112995   6.003   0.407   2.947
 4032SOL    HW212996   5.886   0.388   3.059
 4033SOL     OW12997   3.034   3.427   2.772
 4033SOL    HW112998   2.944   3.416   2.731
 4033SOL    HW212999   3.096   3.468   2.705
 4034SOL     OW13000   6.114   1.860   4.912
 4034SOL    HW113001   6.173   1.939   4.931
 4034SOL    HW213002   6.051   1.847   4.988
 4035SOL     OW13003   0.223   2.890   0.826
 4035SOL    HW113004   0.139   2.925   0.786
 4035SOL    HW213005   0.294   2.885   0.756
 4036SOL     OW13006   5.651   0.012   2.828
 4036SOL    HW113007   5.575   0.013   2.894
 4036SOL    HW213008   5.618   7.001   2.741
 4037SOL     OW13009   2.096   2.304   0.331
 4037SOL    HW113010   2.139   2.216   0.313
 4037SOL    HW213011   2.038   2.330   0.254
 4038SOL     OW13012   4.790   4.758   1.828
 4038SOL    HW113013   4.823   4.810   1.907
 4038SOL    HW213014   4.758   4.668   1.859
 4039SOL     OW13015   5.093   4.622   1.416
 4039SOL    HW113016   5.074   4.712   1.457
 4039SOL    HW213017   5.179   4.586   1.453
 4040SOL     OW13018   3.209   0.064   6.330
 4040SOL    HW113019   3.297   0.060   6.378
 4040SOL    HW213020   3.225   0.070   6.232
 4041SOL     OW13021   1.922   5.797   1.512
 4041SOL    HW113022   1.904   5.749   1.426
 4041SOL    HW213023   1.839   5.795   1.569
 4042SOL     OW13024   5.972   4.570   2.722
 4042SOL    HW113025   5.973   4.511   2.803
 4042SOL    HW213026   5.984   4.666   2.751
 4043SOL     OW13027   5.077   2.338   4.447
 4043SOL    HW113028   5.141   2.357   4.521
 4043SOL    HW213029   5.051   2.241   4.449
 4044SOL     OW13030   4.549   0.414   4.142
 4044SOL    HW113031   4.556   0.481   4.215
 4044SOL    HW213032   4.592   0.450   4.059
 4045SOL     OW13033   2.879   4.368   6.407
 4045SOL    HW113034   2.839   4.303   6.471
 4045SOL    HW213035   2.886   4.327   6.316
 4046SOL     OW13036   0.759   1.353   3.666
 4046SOL    HW113037   0.716   1.291   3.732
 4046SOL    HW213038   0.772   1.305   3.579
 4047SOL     OW13039   3.030   2.539   1.310
 4047SOL    HW113040   3.090   2.571   1.237
 4047SOL    HW213041   2.934   2.549   1.282
 4048SOL     OW13042   5.598   1.380   2.138
 4048SOL    HW113043   5.650   1.368   2.054
 4048SOL    HW213044   5.571   1.477   2.146
 4049SOL     OW13045   6.179   6.170   6.768
 4049SOL    HW113046   6.197   6.076   6.797
 4049SOL    HW213047   6.164   6.228   6.848
 4050SOL     OW13048   2.064   6.556   0.428
 4050SOL    HW113049   2.044   6.593   0.337
 4050SOL    HW213050   2.030   6.462   0.434
 4051SOL     OW13051   4.116   2.971   0.083
 4051SOL    HW113052   4.120   2.928   0.173
 4051SOL    HW213053   4.027   2.954   0.042
 4052SOL     OW13054   0.824   0.818   1.679
 4052SOL    HW113055   0.747   0.876   1.655
 4052SOL    HW213056   0.812   0.782   1.771
 4053SOL     OW13057   3.547   5.083   3.946
 4053SOL    HW113058   3.454   5.117   3.961
 4053SOL    HW213059   3.564   5.078   3.847
 4054SOL     OW13060   1.296   2.905   1.100
 4054SOL    HW113061   1.222   2.894   1.034
 4054SOL    HW213062   1.261   2.886   1.192
 4055SOL     OW13063   3.161   3.595   5.695
 4055SOL    HW113064   3.110   3.681   5.688
 4055SOL    HW213065   3.233   3.594   5.625
 4056SOL     OW13066   4.557   2.521   6.961
 4056SOL    HW113067   4.630   2.461   6.992
 4056SOL    HW213068   4.510   2.480   6.883
 4057SOL     OW13069   5.215   2.626   6.834
 4057SOL    HW113070   5.143   2.625   6.764
 4057SOL    HW213071   5.191   2.692   6.905
 4058SOL     OW13072   1.600   1.604   4.752
 4058SOL    HW113073   1.524   1.647   4.799
 4058SOL    HW213074   1.637   1.667   4.684
 4059SOL     OW13075   1.657   2.288   3.287
 4059SOL    HW113076   1.755   2.291   3.303
 4059SOL    HW213077   1.638   2.239   3.202
 4060SOL     OW13078   4.298   5.397   5.244
 4060SOL    HW113079   4.297   5.401   5.344
 4060SOL    HW213080   4.216   5.441   5.208
 4061SOL     OW13081   3.382   4.845   1.726
 4061SOL    HW113082   3.448   4.804   1.790
 4061SOL    HW213083   3.432   4.888   1.650
 4062SOL     OW13084   3.330   1.524   3.223
 4062SOL    HW113085   3.369   1.558   3.308
 4062SOL    HW213086   3.370   1.574   3.146
 4063SOL     OW13087   4.993   0.235   5.318
 4063SOL    HW113088   5.013   0.182   5.236
 4063SOL    HW213089   4.895   0.232   5.336
 4064SOL     OW13090   1.750   0.002   3.232
 4064SOL    HW113091   1.698   6.946   3.202
 4064SOL    HW213092   1.758   0.067   3.157
 4065SOL     OW13093   1.419   6.696   0.137
 4065SOL    HW113094   1.419   6.738   0.228
 4065SOL    HW213095   1.349   6.625   0.133
 4066SOL     OW13096   4.993   4.835   2.623
 4066SOL    HW113097   4.915   4.773   2.619
 4066SOL    HW213098   4.962   4.928   2.605
 4067SOL     OW13099   5.946   2.980   2.245
 4067SOL    HW113100   6.006   3.012   2.172
 4067SOL    HW213101   5.902   3.059   2.289
 4068SOL     OW13102   4.271   0.513   4.701
 4068SOL    HW113103   4.248   0.417   4.682
 4068SOL    HW213104   4.324   0.550   4.625
 4069SOL     OW13105   4.303   3.484   6.672
 4069SOL    HW113106   4.366   3.562   6.668
 4069SOL    HW213107   4.215   3.510   6.632
 4070SOL     OW13108   1.316   3.585   2.733
 4070SOL    HW113109   1.378   3.597   2.810
 4070SOL    HW213110   1.288   3.490   2.727
 4071SOL     OW13111   1.430   0.880   4.807
 4071SOL    HW113112   1.523   0.853   4.785
 4071SOL    HW213113   1.376   0.884   4.722
 4072SOL     OW13114   0.836   6.555   3.737
 4072SOL    HW113115   0.775   6.591   3.665
 4072SOL    HW213116   0.926   6.597   3.729
 4073SOL     OW13117   2.378   5.404   5.793
 4073SOL    HW113118   2.436   5.350   5.854
 4073SOL    HW213119   2.320   5.343   5.739
 4074SOL     OW13120   1.025   2.567   2.535
 4074SOL    HW113121   0.996   2.566   2.630
 4074SOL    HW213122   1.115   2.524   2.527
 4075SOL     OW13123   5.035   2.399   2.788
 4075SOL    HW113124   4.980   2.421   2.868
 4075SOL    HW213125   5.082   2.481   2.755
 4076SOL     OW13126   1.926   4.085   5.936
 4076SOL    HW113127   1.885   4.015   5.878
 4076SOL    HW213128   1.956   4.043   6.022
 4077SOL     OW13129   3.157   6.591   0.424
 4077SOL    HW113130   3.153   6.491   0.424
 4077SOL    HW213131   3.067   6.628   0.401
 4078SOL     OW13132   6.549   5.349   1.902
 4078SOL    HW113133   6.496   5.431   1.927
 4078SOL    HW213134   6.489   5.269   1.905
 4079SOL     OW13135   1.272   1.132   3.457
 4079SOL    HW113136   1.269   1.195   3.535
 4079SOL    HW213137   1.347   1.067   3.470
 4080SOL     OW13138   2.923   3.136   0.598
 4080SOL    HW113139   2.840   3.109   0.648
 4080SOL    HW213140   2.965   3.055   0.558
 4081SOL     OW13141   1.919   1.129   4.287
 4081SOL    HW113142   1.878   1.151   4.375
 4081SOL    HW213143   1.856   1.072   4.234
 4082SOL     OW13144   1.721   1.774   0.594
 4082SOL    HW113145   1.785   1.697   0.601
 4082SOL    HW213146   1.772   1.860   0.602
 4083SOL     OW13147   6.083   4.277   3.537
 4083SOL    HW113148   6.168   4.237   3.571
 4083SOL    HW213149   6.017   4.283   3.612
 4084SOL     OW13150   5.345   3.132   3.297
 4084SOL    HW113151   5.335   3.072   3.217
 4084SOL    HW213152   5.388   3.218   3.269
 4085SOL     OW13153   2.968   5.416   0.418
 4085SOL    HW113154   2.892   5.481   0.418
 4085SOL    HW213155   2.938   5.329   0.379
 4086SOL     OW13156   0.499   4.783   0.517
 4086SOL    HW113157   0.514   4.721   0.594
 4086SOL    HW213158   0.555   4.755   0.439
 4087SOL     OW13159   2.283   1.131   2.683
 4087SOL    HW113160   2.270   1.219   2.728
 4087SOL    HW213161   2.283   1.143   2.584
 4088SOL     OW13162   6.297   0.983   5.737
 4088SOL    HW113163   6.368   1.029   5.790
 4088SOL    HW213164   6.280   0.892   5.776
 4089SOL     OW13165   6.837   5.951   4.475
 4089SOL    HW113166   6.753   5.983   4.430
 4089SOL    HW213167   6.815   5.920   4.568
 4090SOL     OW13168   1.593   5.699   5.125
 4090SOL    HW113169   1.598   5.619   5.066
 4090SOL    HW213170   1.665   5.695   5.194
 4091SOL     OW13171   0.839   5.638   6.908
 4091SOL    HW113172   0.904   5.704   6.946
 4091SOL    HW213173   0.751   5.683   6.894
 4092SOL     OW13174   5.703   2.737   4.120
 4092SOL    HW113175   5.792   2.777   4.141
 4092SOL    HW213176   5.712   2.638   4.115
 4093SOL     OW13177   5.359   6.566   1.475
 4093SOL    HW113178   5.314   6.653   1.455
 4093SOL    HW213179   5.291   6.498   1.499
 4094SOL     OW13180   1.085   4.895   6.357
 4094SOL    HW113181   1.006   4.858   6.307
 4094SOL    HW213182   1.054   4.966   6.419
 4095SOL     OW13183   1.039   3.629   0.243
 4095SOL    HW113184   0.987   3.638   0.158
 4095SOL    HW213185   1.017   3.705   0.304
 4096SOL     OW13186   2.681   0.915   6.175
 4096SOL    HW113187   2.617   0.875   6.241
 4096SOL    HW213188   2.631   0.940   6.092
 4097SOL     OW13189   5.887   4.913   5.287
 4097SOL    HW113190   5.844   5.003   5.296
 4097SOL    HW213191   5.986   4.924   5.284
 4098SOL     OW13192   1.481   3.234   1.073
 4098SOL    HW113193   1.387   3.256   1.100
 4098SOL    HW213194   1.482   3.147   1.024
 4099SOL     OW13195   3.075   4.807   0.212
 4099SOL    HW113196   3.138   4.748   0.162
 4099SOL    HW213197   3.126   4.880   0.258
 4100SOL     OW13198   1.163   0.793   4.350
 4100SOL    HW113199   1.132   0.794   4.445
 4100SOL    HW213200   1.262   0.781   4.348
 4101SOL     OW13201   0.472   1.170   6.711
 4101SOL    HW113202   0.427   1.259   6.708
 4101SOL    HW213203   0.473   1.137   6.806
 4102SOL     OW13204   1.634   0.590   0.509
 4102SOL    HW113205   1.640   0.628   0.601
 4102SOL    HW213206   1.722   0.549   0.484
 4103SOL     OW13207   6.928   6.660   2.044
 4103SOL    HW113208   6.933   6.606   1.960
 4103SOL    HW213209   6.832   6.672   2.069
 4104SOL     OW13210   0.521   5.521   3.662
 4104SOL    HW113211   0.523   5.513   3.562
 4104SOL    HW213212   0.587   5.458   3.702
 4105SOL     OW13213   5.325   0.562   2.383
 4105SOL    HW113214   5.343   0.555   2.481
 4105SOL    HW213215   5.289   0.475   2.349
 4106SOL     OW13216   0.910   1.892   3.679
 4106SOL    HW113217   0.908   1.951   3.598
 4106SOL    HW213218   0.876   1.801   3.656
 4107SOL     OW13219   1.493   6.077   0.233
 4107SOL    HW113220   1.511   6.134   0.313
 4107SOL    HW213221   1.429   6.005   0.257
 4108SOL     OW13222   6.883   4.918   4.704
 4108SOL    HW113223   6.981   4.911   4.725
 4108SOL    HW213224   6.871   4.975   4.623
 4109SOL     OW13225   5.447   6.669   4.540
 4109SOL    HW113226   5.411   6.640   4.628
 4109SOL    HW213227   5.411   6.760   4.517
 4110SOL     OW13228   3.885   3.008   6.353
 4110SOL    HW113229   3.850   2.918   6.379
 4110SOL    HW213230   3.809   3.073   6.347
 4111SOL     OW13231   5.987   4.990   6.317
 4111SOL    HW113232   5.976   5.001   6.218
 4111SOL    HW213233   6.075   4.947   6.336
 4112SOL     OW13234   4.567   6.706   4.371
 4112SOL    HW113235   4.594   6.690   4.467
 4112SOL    HW213236   4.649   6.717   4.315
 4113SOL     OW13237   4.690   5.729   4.898
 4113SOL    HW113238   4.628   5.675   4.955
 4113SOL    HW213239   4.767   5.761   4.953
 4114SOL     OW13240   6.871   1.777   3.019
 4114SOL    HW113241   6.896   1.705   2.955
 4114SOL    HW213242   6.953   1.810   3.066
 4115SOL     OW13243   3.007   5.303   3.561
 4115SOL    HW113244   3.089   5.288   3.615
 4115SOL    HW213245   2.926   5.295   3.620
 4116SOL     OW13246   4.484   1.715   3.416
 4116SOL    HW113247   4.570   1.665   3.417
 4116SOL    HW213248   4.443   1.711   3.507
 4117SOL     OW13249   1.081   2.474   3.643
 4117SOL    HW113250   1.050   2.421   3.722
 4117SOL    HW213251   1.178   2.456   3.626
 4118SOL     OW13252   5.257   6.707   6.618
 4118SOL    HW113253   5.240   6.773   6.544
 4118SOL    HW213254   5.352   6.713   6.646
 4119SOL     OW13255   3.060   1.700   3.397
 4119SOL    HW113256   3.059   1.650   3.483
 4119SOL    HW213257   3.031   1.639   3.323
 4120SOL     OW13258   3.308   1.334   6.016
 4120SOL    HW113259   3.208   1.326   6.013
 4120SOL    HW213260   3.348   1.243   6.022
 4121SOL     OW13261   6.116   0.321   3.207
 4121SOL    HW113262   6.079   0.387   3.142
 4121SOL    HW213263   6.198   0.279   3.168
 4122SOL     OW13264   2.011   6.663   4.533
 4122SOL    HW113265   1.930   6.607   4.551
 4122SOL    HW213266   2.062   6.676   4.617
 4123SOL     OW13267   4.290   4.947   4.387
 4123SOL    HW113268   4.345   4.890   4.447
 4123SOL    HW213269   4.218   4.992   4.440
 4124SOL     OW13270   6.705   6.999   1.231
 4124SOL    HW113271   6.624   7.014   1.174
 4124SOL    HW213272   6.782   6.971   1.174
 4125SOL     OW13273   4.558   2.053   2.728
 4125SOL    HW113274   4.493   1.985   2.760
 4125SOL    HW213275   4.580   2.116   2.802
 4126SOL     OW13276   2.172   3.271   2.933
 4126SOL    HW113277   2.223   3.341   2.982
 4126SOL    HW213278   2.081   3.306   2.909
 4127SOL     OW13279   5.632   2.899   4.951
 4127SOL    HW113280   5.562   2.930   5.015
 4127SOL    HW213281   5.688   2.977   4.923
 4128SOL     OW13282   0.867   3.434   1.354
 4128SOL    HW113283   0.908   3.490   1.426
 4128SOL    HW213284   0.815   3.493   1.292
 4129SOL     OW13285   3.175   1.216   0.201
 4129SOL    HW113286   3.077   1.230   0.211
 4129SOL    HW213287   3.193   1.123   0.170
 4130SOL     OW13288   6.082   2.221   0.531
 4130SOL    HW113289   6.120   2.131   0.510
 4130SOL    HW213290   6.039   2.219   0.621
 4131SOL     OW13291   0.504   1.425   2.913
 4131SOL    HW113292   0.430   1.409   2.847
 4131SOL    HW213293   0.469   1.417   3.006
 4132SOL     OW13294   5.127   3.820   4.531
 4132SOL    HW113295   5.137   3.725   4.500
 4132SOL    HW213296   5.039   3.856   4.501
 4133SOL     OW13297   4.063   6.057   1.584
 4133SOL    HW113298   3.984   6.065   1.645
 4133SOL    HW213299   4.136   6.006   1.630
 4134SOL     OW13300   2.246   3.954   0.724
 4134SOL    HW113301   2.175   3.896   0.763
 4134SOL    HW213302   2.204   4.023   0.665
 4135SOL     OW13303   0.424   2.713   2.060
 4135SOL    HW113304   0.338   2.705   2.110
 4135SOL    HW213305   0.479   2.785   2.101
 4136SOL     OW13306   1.037   3.658   2.403
 4136SOL    HW113307   1.107   3.586   2.406
 4136SOL    HW213308   1.068   3.737   2.456
 4137SOL     OW13309   1.981   3.811   0.529
 4137SOL    HW113310   1.907   3.748   0.506
 4137SOL    HW213311   1.978   3.831   0.627
 4138SOL     OW13312   3.434   5.072   2.360
 4138SOL    HW113313   3.411   5.043   2.267
 4138SOL    HW213314   3.445   5.172   2.362
 4139SOL     OW13315   1.490   1.499   3.955
 4139SOL    HW113316   1.438   1.505   4.040
 4139SOL    HW213317   1.497   1.590   3.913
 4140SOL     OW13318   3.444   1.579   4.286
 4140SOL    HW113319   3.351   1.550   4.262
 4140SOL    HW213320   3.476   1.525   4.364
 4141SOL     OW13321   5.529   6.992   1.073
 4141SOL    HW113322   5.576   6.925   1.016
 4141SOL    HW213323   5.512   6.953   1.163
 4142SOL     OW13324   6.233   3.729   1.494
 4142SOL    HW113325   6.200   3.731   1.399
 4142SOL    HW213326   6.252   3.822   1.525
 4143SOL     OW13327   5.750   2.769   0.262
 4143SOL    HW113328   5.786   2.821   0.184
 4143SOL    HW213329   5.666   2.811   0.295
 4144SOL     OW13330   4.878   1.528   0.433
 4144SOL    HW113331   4.944   1.577   0.375
 4144SOL    HW213332   4.846   1.447   0.384
 4145SOL     OW13333   1.078   5.946   0.181
 4145SOL    HW113334   1.128   5.899   0.254
 4145SOL    HW213335   1.141   6.007   0.132
 4146SOL     OW13336   6.665   0.571   3.447
 4146SOL    HW113337   6.702   0.606   3.532
 4146SOL    HW213338   6.637   0.647   3.388
 4147SOL     OW13339   4.486   4.617   6.291
 4147SOL    HW113340   4.582   4.616   6.320
 4147SOL    HW213341   4.479   4.657   6.199
 4148SOL     OW13342   2.573   0.548   5.094
 4148SOL    HW113343   2.647   0.590   5.043
 4148SOL    HW213344   2.607   0.466   5.140
 4149SOL     OW13345   0.102   3.694   1.577
 4149SOL    HW113346   0.141   3.775   1.532
 4149SOL    HW213347   0.046   3.644   1.511
 4150SOL     OW13348   6.997   1.437   5.339
 4150SOL    HW113349   6.940   1.376   5.285
 4150SOL    HW213350   6.951   1.458   5.425
 4151SOL     OW13351   2.971   6.031   6.124
 4151SOL    HW113352   2.913   6.004   6.202
 4151SOL    HW213353   2.937   5.987   6.041
 4152SOL     OW13354   3.830   5.409   0.811
 4152SOL    HW113355   3.888   5.404   0.729
 4152SOL    HW213356   3.876   5.364   0.887
 4153SOL     OW13357   5.945   5.443   1.388
 4153SOL    HW113358   6.036   5.413   1.361
 4153SOL    HW213359   5.877   5.407   1.324
 4154SOL     OW13360   0.210   5.977   4.038
 4154SOL    HW113361   0.134   6.041   4.040
 4154SOL    HW213362   0.233   5.949   4.131
 4155SOL     OW13363   0.217   1.172   0.813
 4155SOL    HW113364   0.243   1.225   0.894
 4155SOL    HW213365   0.297   1.125   0.777
 4156SOL     OW13366   6.036   5.283   5.384
 4156SOL    HW113367   6.117   5.285   5.444
 4156SOL    HW213368   6.057   5.330   5.299
 4157SOL     OW13369   4.976   6.319   3.543
 4157SOL    HW113370   4.898   6.262   3.516
 4157SOL    HW213371   5.060   6.265   3.538
 4158SOL     OW13372   0.490   3.170   2.243
 4158SOL    HW113373   0.557   3.210   2.305
 4158SOL    HW213374   0.398   3.185   2.279
 4159SOL     OW13375   1.495   2.754   3.381
 4159SOL    HW113376   1.465   2.844   3.415
 4159SOL    HW213377   1.546   2.766   3.296
 4160SOL     OW13378   5.598   6.733   6.946
 4160SOL    HW113379   5.563   6.641   6.925
 4160SOL    HW213380   5.697   6.730   6.951
 4161SOL     OW13381   1.532   2.250   1.435
 4161SOL    HW113382   1.557   2.279   1.528
 4161SOL    HW213383   1.577   2.308   1.368
 4162SOL     OW13384   5.946   5.815   0.528
 4162SOL    HW113385   5.929   5.732   0.581
 4162SOL    HW213386   5.955   5.893   0.590
 4163SOL     OW13387   5.398   0.726   3.045
 4163SOL    HW113388   5.399   0.740   3.144
 4163SOL    HW213389   5.377   0.631   3.025
 4164SOL     OW13390   1.416   0.208   4.543
 4164SOL    HW113391   1.489   0.238   4.482
 4164SOL    HW213392   1.373   0.126   4.505
 4165SOL     OW13393   4.821   0.553   5.744
 4165SOL    HW113394   4.845   0.564   5.648
 4165SOL    HW213395   4.868   0.623   5.798
 4166SOL     OW13396   4.816   0.930   1.116
 4166SOL    HW113397   4.870   0.920   1.199
 4166SOL    HW213398   4.743   0.861   1.115
 4167SOL     OW13399   3.563   4.666   0.060
 4167SOL    HW113400   3.479   4.689   0.011
 4167SOL    HW213401   3.638   4.659   7.019
 4168SOL     OW13402   0.217   3.764   0.545
 4168SOL    HW113403   0.309   3.752   0.582
 4168SOL    HW213404   0.154   3.700   0.589
 4169SOL     OW13405   6.208   4.726   4.488
 4169SOL    HW113406   6.298   4.683   4.497
 4169SOL    HW213407   6.145   4.685   4.553
 4170SOL     OW13408   5.122   3.302   5.547
 4170SOL    HW113409   5.047   3.369   5.549
 4170SOL    HW213410   5.209   3.349   5.541
 4171SOL     OW13411   6.649   5.046   0.620
 4171SOL    HW113412   6.570   5.007   0.668
 4171SOL    HW213413   6.694   4.975   0.567
 4172SOL     OW13414   2.232   2.099   0.169
 4172SOL    HW113415   2.317   2.147   0.145
 4172SOL    HW213416   2.211   2.032   0.098
 4173SOL     OW13417   5.465   3.936   4.838
 4173SOL    HW113418   5.369   3.911   4.851
 4173SOL    HW213419   5.478   4.032   4.863
 4174SOL     OW13420   4.574   1.857   2.382
 4174SOL    HW113421   4.548   1.786   2.448
 4174SOL    HW213422   4.596   1.941   2.431
 4175SOL     OW13423   2.230   4.673   4.070
 4175SOL    HW113424   2.313   4.715   4.033
 4175SOL    HW213425   2.227   4.577   4.044
 4176SOL     OW13426   4.283   6.648   1.289
 4176SOL    HW113427   4.198   6.701   1.300
 4176SOL    HW213428   4.263   6.551   1.303
 4177SOL     OW13429   5.839   5.160   5.621
 4177SOL    HW113430   5.769   5.229   5.639
 4177SOL    HW213431   5.845   5.144   5.522
 4178SOL     OW13432   4.077   6.867   3.770
 4178SOL    HW113433   4.067   6.966   3.784
 4178SOL    HW213434   4.010   6.837   3.702
 4179SOL     OW13435   5.428   3.601   3.102
 4179SOL    HW113436   5.337   3.640   3.117
 4179SOL    HW213437   5.428   3.548   3.017
 4180SOL     OW13438   4.822   2.854   0.736
 4180SOL    HW113439   4.738   2.803   0.716
 4180SOL    HW213440   4.803   2.952   0.735
 4181SOL     OW13441   4.091   0.699   6.365
 4181SOL    HW113442   4.132   0.756   6.436
 4181SOL    HW213443   4.076   0.753   6.283
 4182SOL     OW13444   0.602   5.825   3.528
 4182SOL    HW113445   0.515   5.776   3.520
 4182SOL    HW213446   0.642   5.808   3.618
 4183SOL     OW13447   2.284   1.793   0.313
 4183SOL    HW113448   2.191   1.816   0.341
 4183SOL    HW213449   2.343   1.873   0.327
 4184SOL     OW13450   2.936   6.848   2.282
 4184SOL    HW113451   2.968   6.754   2.271
 4184SOL    HW213452   2.905   6.862   2.377
 4185SOL     OW13453   0.784   4.586   3.228
 4185SOL    HW113454   0.804   4.488   3.236
 4185SOL    HW213455   0.690   4.603   3.258
 4186SOL     OW13456   2.451   4.886   6.659
 4186SOL    HW113457   2.426   4.856   6.751
 4186SOL    HW213458   2.412   4.824   6.592
 4187SOL     OW13459   2.764   3.158   5.641
 4187SOL    HW113460   2.809   3.180   5.555
 4187SOL    HW213461   2.781   3.063   5.665
 4188SOL     OW13462   5.089   0.882   5.237
 4188SOL    HW113463   5.035   0.814   5.287
 4188SOL    HW213464   5.075   0.972   5.278
 4189SOL     OW13465   2.968   5.246   4.394
 4189SOL    HW113466   2.909   5.179   4.438
 4189SOL    HW213467   3.052   5.200   4.363
 4190SOL     OW13468   0.799   0.194   1.031
 4190SOL    HW113469   0.885   0.154   1.061
 4190SOL    HW213470   0.729   0.177   1.101
 4191SOL     OW13471   4.870   4.380   4.178
 4191SOL    HW113472   4.858   4.281   4.169
 4191SOL    HW213473   4.948   4.409   4.122
 4192SOL     OW13474   0.917   1.718   2.922
 4192SOL    HW113475   0.819   1.704   2.935
 4192SOL    HW213476   0.965   1.631   2.937
 4193SOL     OW13477   6.380   0.396   0.717
 4193SOL    HW113478   6.321   0.380   0.638
 4193SOL    HW213479   6.327   0.384   0.801
 4194SOL     OW13480   4.423   0.522   4.916
 4194SOL    HW113481   4.491   0.450   4.902
 4194SOL    HW213482   4.360   0.524   4.838
 4195SOL     OW13483   3.590   5.457   1.487
 4195SOL    HW113484   3.656   5.457   1.562
 4195SOL    HW213485   3.632   5.420   1.404
 4196SOL     OW13486   6.129   2.890   2.725
 4196SOL    HW113487   6.058   2.873   2.793
 4196SOL    HW213488   6.093   2.951   2.654
 4197SOL     OW13489   4.737   5.655   5.831
 4197SOL    HW113490   4.747   5.695   5.740
 4197SOL    HW213491   4.675   5.712   5.885
 4198SOL     OW13492   6.224   1.985   0.482
 4198SOL    HW113493   6.262   1.958   0.394
 4198SOL    HW213494   6.208   1.904   0.538
 4199SOL     OW13495   1.273   2.731   6.171
 4199SOL    HW113496   1.341   2.707   6.102
 4199SOL    HW213497   1.262   2.831   6.174
 4200SOL     OW13498   2.937   0.119   6.172
 4200SOL    HW113499   2.876   0.124   6.251
 4200SOL    HW213500   2.889   0.152   6.091
 4201SOL     OW13501   5.689   6.801   3.614
 4201SOL    HW113502   5.742   6.747   3.548
 4201SOL    HW213503   5.751   6.840   3.682
 4202SOL     OW13504   3.267   5.636   6.017
 4202SOL    HW113505   3.289   5.546   6.053
 4202SOL    HW213506   3.168   5.643   6.001
 4203SOL     OW13507   4.150   4.095   0.209
 4203SOL    HW113508   4.165   4.070   0.114
 4203SOL    HW213509   4.060   4.137   0.219
 4204SOL     OW13510   4.079   3.551   3.875
 4204SOL    HW113511   4.100   3.455   3.894
 4204SOL    HW213512   4.060   3.563   3.778
 4205SOL     OW13513   4.520   6.420   4.288
 4205SOL    HW113514   4.604   6.369   4.271
 4205SOL    HW213515   4.543   6.511   4.322
 4206SOL     OW13516   6.407   0.688   5.304
 4206SOL    HW113517   6.490   0.744   5.295
 4206SOL    HW213518   6.341   0.735   5.362
 4207SOL     OW13519   1.857   2.314   1.978
 4207SOL    HW113520   1.825   2.408   1.971
 4207SOL    HW213521   1.884   2.296   2.073
 4208SOL     OW13522   0.058   3.525   5.178
 4208SOL    HW113523   0.000   3.537   5.097
 4208SOL    HW213524   0.144   3.574   5.165
 4209SOL     OW13525   6.972   7.011   4.045
 4209SOL    HW113526   6.929   6.921   4.056
 4209SOL    HW213527   6.938   0.030   3.962
 4210SOL     OW13528   4.074   3.591   2.231
 4210SOL    HW113529   4.039   3.678   2.197
 4210SOL    HW213530   4.133   3.607   2.309
 4211SOL     OW13531   3.535   0.482   6.151
 4211SOL    HW113532   3.462   0.415   6.159
 4211SOL    HW213533   3.563   0.513   6.242
 4212SOL     OW13534   6.564   1.962   2.737
 4212SOL    HW113535   6.518   2.048   2.759
 4212SOL    HW213536   6.663   1.973   2.749
 4213SOL     OW13537   2.030   0.538   2.540
 4213SOL    HW113538   2.010   0.598   2.463
 4213SOL    HW213539   2.122   0.500   2.530
 4214SOL     OW13540   1.187   5.807   5.449
 4214SOL    HW113541   1.151   5.714   5.463
 4214SOL    HW213542   1.247   5.807   5.369
 4215SOL     OW13543   4.759   0.287   6.378
 4215SOL    HW113544   4.711   0.330   6.454
 4215SOL    HW213545   4.731   0.330   6.292
 4216SOL     OW13546   1.492   0.983   3.162
 4216SOL    HW113547   1.562   0.920   3.128
 4216SOL    HW213548   1.419   0.992   3.095
 4217SOL     OW13549   0.961   0.756   2.806
 4217SOL    HW113550   1.029   0.710   2.862
 4217SOL    HW213551   0.870   0.722   2.830
 4218SOL     OW13552   4.134   1.298   1.914
 4218SOL    HW113553   4.050   1.321   1.963
 4218SOL    HW213554   4.205   1.364   1.937
 4219SOL     OW13555   3.956   6.093   4.002
 4219SOL    HW113556   3.916   6.172   3.956
 4219SOL    HW213557   3.905   6.011   3.976
 4220SOL     OW13558   6.353   3.058   3.431
 4220SOL    HW113559   6.284   3.112   3.382
 4220SOL    HW213560   6.368   2.972   3.383
 4221SOL     OW13561   6.062   5.310   6.332
 4221SOL    HW113562   6.128   5.348   6.267
 4221SOL    HW213563   6.046   5.213   6.312
 4222SOL     OW13564   0.257   1.427   2.299
 4222SOL    HW113565   0.355   1.439   2.314
 4222SOL    HW213566   0.207   1.504   2.340
 4223SOL     OW13567   3.591   3.354   0.312
 4223SOL    HW113568   3.613   3.451   0.319
 4223SOL    HW213569   3.662   3.307   0.258
 4224SOL     OW13570   5.325   4.353   4.040
 4224SOL    HW113571   5.371   4.403   3.966
 4224SOL    HW213572   5.348   4.256   4.034
 4225SOL     OW13573   2.769   2.618   5.734
 4225SOL    HW113574   2.698   2.652   5.671
 4225SOL    HW213575   2.859   2.645   5.700
 4226SOL     OW13576   0.917   0.009   2.973
 4226SOL    HW113577   0.993   6.981   3.013
 4226SOL    HW213578   0.946   0.048   2.885
 4227SOL     OW13579   3.825   5.094   1.571
 4227SOL    HW113580   3.845   5.156   1.495
 4227SOL    HW213581   3.877   5.010   1.559
 4228SOL     OW13582   1.084   5.414   5.266
 4228SOL    HW113583   1.130   5.470   5.197
 4228SOL    HW213584   1.105   5.450   5.357
 4229SOL     OW13585   5.273   6.642   5.976
 4229SOL    HW113586   5.270   6.599   5.886
 4229SOL    HW213587   5.195   6.704   5.986
 4230SOL     OW13588   0.564   5.576   2.577
 4230SOL    HW113589   0.618   5.620   2.649
 4230SOL    HW213590   0.563   5.633   2.495
 4231SOL     OW13591   5.951   6.720   5.846
 4231SOL    HW113592   5.988   6.649   5.905
 4231SOL    HW213593   5.930   6.681   5.756
 4232SOL     OW13594   6.983   4.825   2.948
 4232SOL    HW113595   6.950   4.918   2.964
 4232SOL    HW213596   6.911   4.759   2.972
 4233SOL     OW13597   6.695   6.972   6.024
 4233SOL    HW113598   6.746   0.004   6.089
 4233SOL    HW213599   6.638   6.907   6.074
 4234SOL     OW13600   2.460   6.259   4.939
 4234SOL    HW113601   2.509   6.344   4.920
 4234SOL    HW213602   2.381   6.278   4.997
 4235SOL     OW13603   5.637   4.357   5.695
 4235SOL    HW113604   5.728   4.318   5.678
 4235SOL    HW213605   5.634   4.395   5.788
 4236SOL     OW13606   6.336   3.552   2.345
 4236SOL    HW113607   6.355   3.639   2.300
 4236SOL    HW213608   6.269   3.500   2.291
 4237SOL     OW13609   5.716   5.660   3.444
 4237SOL    HW113610   5.623   5.661   3.480
 4237SOL    HW213611   5.734   5.571   3.401
 4238SOL     OW13612   2.513   6.416   2.673
 4238SOL    HW113613   2.444   6.462   2.728
 4238SOL    HW213614   2.537   6.473   2.595
 4239SOL     OW13615   5.180   1.214   2.556
 4239SOL    HW113616   5.123   1.201   2.637
 4239SOL    HW213617   5.122   1.237   2.477
 4240SOL     OW13618   2.638   5.792   0.463
 4240SOL    HW113619   2.680   5.858   0.525
 4240SOL    HW213620   2.560   5.834   0.417
 4241SOL     OW13621   6.183   1.428   0.530
 4241SOL    HW113622   6.136   1.355   0.580
 4241SOL    HW213623   6.281   1.425   0.549
 4242SOL     OW13624   3.196   1.440   4.132
 4242SOL    HW113625   3.213   1.422   4.035
 4242SOL    HW213626   3.176   1.354   4.179
 4243SOL     OW13627   6.366   2.934   2.853
 4243SOL    HW113628   6.290   2.906   2.796
 4243SOL    HW213629   6.332   2.980   2.935
 4244SOL     OW13630   4.392   4.337   1.592
 4244SOL    HW113631   4.418   4.313   1.686
 4244SOL    HW213632   4.331   4.267   1.555
 4245SOL     OW13633   7.000   1.179   6.640
 4245SOL    HW113634   0.020   1.091   6.656
 4245SOL    HW213635   0.045   1.248   6.618
 4246SOL     OW13636   6.999   4.046   3.281
 4246SOL    HW113637   7.018   3.969   3.342
 4246SOL    HW213638   6.969   4.011   3.193
 4247SOL     OW13639   2.965   6.015   3.725
 4247SOL    HW113640   2.997   6.042   3.816
 4247SOL    HW213641   3.030   5.951   3.685
 4248SOL     OW13642   3.622   1.621   3.214
 4248SOL    HW113643   3.680   1.549   3.174
 4248SOL    HW213644   3.563   1.659   3.143
 4249SOL     OW13645   5.879   2.179   3.915
 4249SOL    HW113646   5.829   2.118   3.854
 4249SOL    HW213647   5.901   2.264   3.868
 4250SOL     OW13648   6.347   4.601   3.094
 4250SOL    HW113649   6.433   4.586   3.046
 4250SOL    HW213650   6.280   4.533   3.065
 4251SOL     OW13651   5.392   4.668   1.424
 4251SOL    HW113652   5.390   4.707   1.516
 4251SOL    HW213653   5.453   4.589   1.422
 4252SOL     OW13654   5.598   6.341   6.222
 4252SOL    HW113655   5.629   6.294   6.139
 4252SOL    HW213656   5.556   6.428   6.197
 4253SOL     OW13657   3.784   6.610   0.816
 4253SOL    HW113658   3.749   6.672   0.745
 4253SOL    HW213659   3.732   6.623   0.900
 4254SOL     OW13660   0.603   3.242   1.765
 4254SOL    HW113661   0.630   3.314   1.830
 4254SOL    HW213662   0.631   3.153   1.800
 4255SOL     OW13663   6.889   4.352   3.573
 4255SOL    HW113664   6.988   4.359   3.586
 4255SOL    HW213665   6.868   4.276   3.512
 4256SOL     OW13666   2.237   6.375   0.144
 4256SOL    HW113667   2.279   6.286   0.123
 4256SOL    HW213668   2.187   6.408   0.064
 4257SOL     OW13669   2.994   0.700   4.566
 4257SOL    HW113670   3.062   0.637   4.528
 4257SOL    HW213671   2.904   0.678   4.529
 4258SOL     OW13672   4.650   6.252   1.034
 4258SOL    HW113673   4.742   6.290   1.026
 4258SOL    HW213674   4.595   6.309   1.095
 4259SOL     OW13675   2.750   0.959   0.880
 4259SOL    HW113676   2.704   0.892   0.822
 4259SOL    HW213677   2.814   1.012   0.825
 4260SOL     OW13678   5.310   0.135   1.050
 4260SOL    HW113679   5.393   0.080   1.045
 4260SOL    HW213680   5.272   0.145   0.958
 4261SOL     OW13681   1.770   0.355   2.010
 4261SOL    HW113682   1.862   0.389   2.023
 4261SOL    HW213683   1.705   0.431   2.015
 4262SOL     OW13684   0.808   4.857   5.579
 4262SOL    HW113685   0.885   4.795   5.566
 4262SOL    HW213686   0.818   4.906   5.665
 4263SOL     OW13687   3.046   6.161   3.334
 4263SOL    HW113688   3.083   6.123   3.419
 4263SOL    HW213689   3.005   6.087   3.281
 4264SOL     OW13690   0.226   2.543   2.958
 4264SOL    HW113691   0.127   2.525   2.962
 4264SOL    HW213692   0.275   2.456   2.955
 4265SOL     OW13693   5.277   1.855   0.925
 4265SOL    HW113694   5.306   1.760   0.936
 4265SOL    HW213695   5.185   1.867   0.962
 4266SOL     OW13696   2.066   5.489   0.387
 4266SOL    HW113697   2.110   5.576   0.405
 4266SOL    HW213698   2.000   5.469   0.461
 4267SOL     OW13699   1.805   3.181   4.688
 4267SOL    HW113700   1.895   3.220   4.706
 4267SOL    HW213701   1.814   3.085   4.664
 4268SOL     OW13702   1.605   5.948   6.370
 4268SOL    HW113703   1.680   5.882   6.376
 4268SOL    HW213704   1.641   6.036   6.338
 4269SOL     OW13705   2.651   0.910   1.673
 4269SOL    HW113706   2.592   0.988   1.651
 4269SOL    HW213707   2.672   0.859   1.589
 4270SOL     OW13708   4.089   3.328   3.501
 4270SOL    HW113709   4.051   3.390   3.570
 4270SOL    HW213710   4.139   3.255   3.547
 4271SOL     OW13711   6.492   1.168   0.022
 4271SOL    HW113712   6.453   1.141   0.110
 4271SOL    HW213713   6.525   1.262   0.029
 4272SOL     OW13714   6.254   2.701   3.848
 4272SOL    HW113715   6.350   2.676   3.837
 4272SOL    HW213716   6.244   2.801   3.839
 4273SOL     OW13717   4.553   0.092   4.765
 4273SOL    HW113718   4.583   0.187   4.762
 4273SOL    HW213719   4.632   0.032   4.748
 4274SOL     OW13720   0.860   6.142   1.486
 4274SOL    HW113721   0.908   6.199   1.419
 4274SOL    HW213722   0.765   6.129   1.457
 4275SOL     OW13723   6.481   0.821   3.722
 4275SOL    HW113724   6.539   0.771   3.659
 4275SOL    HW213725   6.527   0.829   3.811
 4276SOL     OW13726   1.655   4.921   3.153
 4276SOL    HW113727   1.656   4.898   3.250
 4276SOL    HW213728   1.677   5.018   3.141
 4277SOL     OW13729   6.067   4.358   3.915
 4277SOL    HW113730   5.988   4.348   3.854
 4277SOL    HW213731   6.045   4.425   3.986
 4278SOL     OW13732   6.962   0.379   4.434
 4278SOL    HW113733   6.944   0.282   4.452
 4278SOL    HW213734   7.010   0.387   4.347
 4279SOL     OW13735   3.145   0.504   4.454
 4279SOL    HW113736   3.170   0.507   4.357
 4279SOL    HW213737   3.138   0.409   4.484
 4280SOL     OW13738   4.501   0.549   5.934
 4280SOL    HW113739   4.597   0.565   5.957
 4280SOL    HW213740   4.448   0.632   5.950
 4281SOL     OW13741   0.209   4.822   3.538
 4281SOL    HW113742   0.261   4.744   3.575
 4281SOL    HW213743   0.258   4.860   3.460
 4282SOL     OW13744   2.987   4.173   5.775
 4282SOL    HW113745   3.051   4.249   5.780
 4282SOL    HW213746   2.905   4.202   5.725
 4283SOL     OW13747   1.240   0.562   3.738
 4283SOL    HW113748   1.175   0.529   3.806
 4283SOL    HW213749   1.238   0.662   3.735
 4284SOL     OW13750   3.926   4.801   1.587
 4284SOL    HW113751   3.844   4.744   1.587
 4284SOL    HW213752   4.002   4.750   1.546
 4285SOL     OW13753   1.030   0.727   6.021
 4285SOL    HW113754   0.995   0.646   6.068
 4285SOL    HW213755   1.081   0.699   5.940
 4286SOL     OW13756   4.707   6.446   6.153
 4286SOL    HW113757   4.712   6.544   6.133
 4286SOL    HW213758   4.655   6.400   6.081
 4287SOL     OW13759   6.155   2.611   6.402
 4287SOL    HW113760   6.142   2.699   6.447
 4287SOL    HW213761   6.164   2.626   6.303
 4288SOL     OW13762   0.774   6.075   3.881
 4288SOL    HW113763   0.685   6.042   3.915
 4288SOL    HW213764   0.759   6.152   3.818
 4289SOL     OW13765   6.857   2.760   0.205
 4289SOL    HW113766   6.905   2.817   0.138
 4289SOL    HW213767   6.828   2.674   0.161
 4290SOL     OW13768   1.338   6.714   2.597
 4290SOL    HW113769   1.278   6.781   2.641
 4290SOL    HW213770   1.285   6.658   2.534
 4291SOL     OW13771   4.849   3.312   0.986
 4291SOL    HW113772   4.828   3.223   0.945
 4291SOL    HW213773   4.937   3.345   0.951
 4292SOL     OW13774   6.193   3.835   0.407
 4292SOL    HW113775   6.177   3.823   0.505
 4292SOL    HW213776   6.149   3.760   0.356
 4293SOL     OW13777   2.303   3.045   0.558
 4293SOL    HW113778   2.247   3.000   0.488
 4293SOL    HW213779   2.332   3.135   0.525
 4294SOL     OW13780   2.219   2.985   6.926
 4294SOL    HW113781   2.120   2.970   6.918
 4294SOL    HW213782   2.237   3.083   6.925
 4295SOL     OW13783   4.264   5.403   4.408
 4295SOL    HW113784   4.250   5.347   4.326
 4295SOL    HW213785   4.311   5.487   4.382
 4296SOL     OW13786   3.417   0.392   0.374
 4296SOL    HW113787   3.416   0.489   0.399
 4296SOL    HW213788   3.324   0.355   0.380
 4297SOL     OW13789   4.816   0.925   6.971
 4297SOL    HW113790   4.781   0.922   0.040
 4297SOL    HW213791   4.757   0.871   6.911
 4298SOL     OW13792   3.639   5.304   0.574
 4298SOL    HW113793   3.644   5.344   0.483
 4298SOL    HW213794   3.720   5.331   0.627
 4299SOL     OW13795   1.071   2.914   6.437
 4299SOL    HW113796   1.163   2.874   6.429
 4299SOL    HW213797   1.072   3.007   6.399
 4300SOL     OW13798   3.866   0.592   6.939
 4300SOL    HW113799   3.829   0.540   6.861
 4300SOL    HW213800   3.963   0.610   6.924
 4301SOL     OW13801   4.295   0.906   1.616
 4301SOL    HW113802   4.219   0.966   1.643
 4301SOL    HW213803   4.291   0.821   1.669
 4302SOL     OW13804   1.654   6.636   6.399
 4302SOL    HW113805   1.722   6.564   6.412
 4302SOL    HW213806   1.643   6.656   6.302
 4303SOL     OW13807   0.184   5.033   3.962
 4303SOL    HW113808   0.209   4.955   4.019
 4303SOL    HW213809   0.138   5.001   3.880
 4304SOL     OW13810   3.080   3.991   3.356
 4304SOL    HW113811   3.172   3.987   3.316
 4304SOL    HW213812   3.086   4.022   3.451
 4305SOL     OW13813   6.623   0.118   5.217
 4305SOL    HW113814   6.659   0.030   5.187
 4305SOL    HW213815   6.528   0.128   5.187
 4306SOL     OW13816   5.656   4.066   6.246
 4306SOL    HW113817   5.624   4.000   6.314
 4306SOL    HW213818   5.682   4.151   6.293
 4307SOL     OW13819   3.941   4.052   6.020
 4307SOL    HW113820   3.898   4.107   5.949
 4307SOL    HW213821   3.876   3.984   6.054
 4308SOL     OW13822   6.405   5.364   0.019
 4308SOL    HW113823   6.477   5.335   6.980
 4308SOL    HW213824   6.420   5.460   0.044
 4309SOL     OW13825   1.372   1.530   0.176
 4309SOL    HW113826   1.389   1.615   0.126
 4309SOL    HW213827   1.274   1.521   0.194
 4310SOL     OW13828   1.246   2.884   2.668
 4310SOL    HW113829   1.342   2.872   2.644
 4310SOL    HW213830   1.207   2.796   2.693
 4311SOL     OW13831   1.779   6.150   3.017
 4311SOL    HW113832   1.732   6.180   2.934
 4311SOL    HW213833   1.872   6.186   3.017
 4312SOL     OW13834   1.375   5.007   1.039
 4312SOL    HW113835   1.416   5.096   1.020
 4312SOL    HW213836   1.404   4.941   0.969
 4313SOL     OW13837   5.175   1.541   2.096
 4313SOL    HW113838   5.199   1.601   2.020
 4313SOL    HW213839   5.079   1.515   2.089
 4314SOL     OW13840   6.086   0.846   4.843
 4314SOL    HW113841   6.139   0.826   4.925
 4314SOL    HW213842   6.084   0.766   4.784
 4315SOL     OW13843   1.923   6.859   1.768
 4315SOL    HW113844   1.928   6.903   1.857
 4315SOL    HW213845   2.012   6.820   1.745
 4316SOL     OW13846   5.256   0.258   1.753
 4316SOL    HW113847   5.238   0.209   1.667
 4316SOL    HW213848   5.322   0.332   1.736
 4317SOL     OW13849   5.000   2.084   4.455
 4317SOL    HW113850   4.900   2.077   4.454
 4317SOL    HW213851   5.036   2.040   4.537
 4318SOL     OW13852   0.408   3.446   4.985
 4318SOL    HW113853   0.401   3.517   5.054
 4318SOL    HW213854   0.366   3.478   4.899
 4319SOL     OW13855   2.231   2.522   0.984
 4319SOL    HW113856   2.160   2.575   1.031
 4319SOL    HW213857   2.309   2.582   0.964
 4320SOL     OW13858   6.461   5.645   1.343
 4320SOL    HW113859   6.363   5.656   1.358
 4320SOL    HW213860   6.479   5.556   1.302
 4321SOL     OW13861   6.999   6.588   5.541
 4321SOL    HW113862   0.051   6.612   5.602
 4321SOL    HW213863   0.010   6.538   5.462
 4322SOL     OW13864   6.720   2.941   6.623
 4322SOL    HW113865   6.727   2.945   6.723
 4322SOL    HW213866   6.646   2.879   6.597
 4323SOL     OW13867   4.255   3.676   0.968
 4323SOL    HW113868   4.208   3.685   1.056
 4323SOL    HW213869   4.352   3.697   0.979
 4324SOL     OW13870   5.525   4.667   6.992
 4324SOL    HW113871   5.519   4.615   6.907
 4324SOL    HW213872   5.450   4.732   6.996
 4325SOL     OW13873   2.192   1.434   1.455
 4325SOL    HW113874   2.187   1.351   1.399
 4325SOL    HW213875   2.252   1.500   1.410
 4326SOL     OW13876   4.922   5.064   5.177
 4326SOL    HW113877   4.986   5.047   5.102
 4326SOL    HW213878   4.881   4.977   5.206
 4327SOL     OW13879   5.909   6.401   1.769
 4327SOL    HW113880   5.949   6.472   1.711
 4327SOL    HW213881   5.954   6.402   1.858
 4328SOL     OW13882   4.764   3.827   5.258
 4328SOL    HW113883   4.846   3.806   5.312
 4328SOL    HW213884   4.724   3.741   5.225
 4329SOL     OW13885   4.481   1.835   5.781
 4329SOL    HW113886   4.500   1.793   5.870
 4329SOL    HW213887   4.387   1.867   5.778
 4330SOL     OW13888   2.506   0.211   4.949
 4330SOL    HW113889   2.465   0.122   4.969
 4330SOL    HW213890   2.448   0.260   4.884
 4331SOL     OW13891   5.153   2.254   1.385
 4331SOL    HW113892   5.073   2.302   1.421
 4331SOL    HW213893   5.145   2.156   1.404
 4332SOL     OW13894   5.160   4.175   2.535
 4332SOL    HW113895   5.147   4.098   2.599
 4332SOL    HW213896   5.102   4.251   2.562
 4333SOL     OW13897   3.637   0.496   5.091
 4333SOL    HW113898   3.689   0.445   5.159
 4333SOL    HW213899   3.697   0.560   5.044
 4334SOL     OW13900   1.537   2.587   2.669
 4334SOL    HW113901   1.620   2.575   2.615
 4334SOL    HW213902   1.561   2.588   2.767
 4335SOL     OW13903   3.415   3.646   2.379
 4335SOL    HW113904   3.373   3.736   2.382
 4335SOL    HW213905   3.381   3.591   2.456
 4336SOL     OW13906   2.114   6.488   6.957
 4336SOL    HW113907   2.046   6.469   6.886
 4336SOL    HW213908   2.100   6.581   6.993
 4337SOL     OW13909   0.178   4.152   0.756
 4337SOL    HW113910   0.271   4.117   0.758
 4337SOL    HW213911   0.123   4.106   0.826
 4338SOL     OW13912   5.911   5.533   4.976
 4338SOL    HW113913   5.922   5.459   4.910
 4338SOL    HW213914   5.828   5.585   4.954
 4339SOL     OW13915   5.597   3.757   4.973
 4339SOL    HW113916   5.532   3.683   4.990
 4339SOL    HW213917   5.553   3.829   4.920
 4340SOL     OW13918   6.823   3.275   0.990
 4340SOL    HW113919   6.807   3.334   1.070
 4340SOL    HW213920   6.862   3.188   1.020
 4341SOL     OW13921   0.732   6.018   1.846
 4341SOL    HW113922   0.809   6.006   1.909
 4341SOL    HW213923   0.764   6.059   1.761
 4342SOL     OW13924   6.143   3.979   4.227
 4342SOL    HW113925   6.108   3.954   4.318
 4342SOL    HW213926   6.117   4.073   4.206
 4343SOL     OW13927   2.541   5.696   5.205
 4343SOL    HW113928   2.512   5.728   5.114
 4343SOL    HW213929   2.631   5.734   5.226
 4344SOL     OW13930   1.046   4.622   2.232
 4344SOL    HW113931   1.026   4.560   2.307
 4344SOL    HW213932   1.141   4.610   2.203
 4345SOL     OW13933   2.978   3.582   5.324
 4345SOL    HW113934   3.037   3.532   5.388
 4345SOL    HW213935   2.887   3.591   5.363
 4346SOL     OW13936   1.751   3.016   2.453
 4346SOL    HW113937   1.778   3.028   2.549
 4346SOL    HW213938   1.821   3.057   2.394
 4347SOL     OW13939   6.740   6.887   2.915
 4347SOL    HW113940   6.795   6.905   2.996
 4347SOL    HW213941   6.734   6.970   2.859
 4348SOL     OW13942   6.696   4.465   3.305
 4348SOL    HW113943   6.679   4.443   3.209
 4348SOL    HW213944   6.636   4.541   3.332
 4349SOL     OW13945   0.215   1.504   2.631
 4349SOL    HW113946   0.116   1.517   2.621
 4349SOL    HW213947   0.232   1.429   2.695
 4350SOL     OW13948   4.775   1.329   4.046
 4350SOL    HW113949   4.754   1.363   3.954
 4350SOL    HW213950   4.854   1.269   4.042
 4351SOL     OW13951   1.900   5.290   1.019
 4351SOL    HW113952   1.991   5.331   1.006
 4351SOL    HW213953   1.845   5.349   1.077
 4352SOL     OW13954   6.775   3.274   2.239
 4352SOL    HW113955   6.722   3.237   2.315
 4352SOL    HW213956   6.788   3.203   2.170
 4353SOL     OW13957   3.960   3.364   6.436
 4353SOL    HW113958   3.981   3.306   6.357
 4353SOL    HW213959   4.001   3.324   6.518
 4354SOL     OW13960   2.473   6.657   5.560
 4354SOL    HW113961   2.479   6.751   5.523
 4354SOL    HW213962   2.381   6.642   5.596
 4355SOL     OW13963   2.326   0.504   2.462
 4355SOL    HW113964   2.374   0.570   2.520
 4355SOL    HW213965   2.383   0.482   2.382
 4356SOL     OW13966   5.120   3.898   0.865
 4356SOL    HW113967   5.213   3.862   0.876
 4356SOL    HW213968   5.117   3.993   0.897
 4357SOL     OW13969   6.936   1.215   0.694
 4357SOL    HW113970   6.923   1.148   0.621
 4357SOL    HW213971   0.004   1.253   0.688
 4358SOL     OW13972   0.484   6.457   0.060
 4358SOL    HW113973   0.431   6.512   0.124
 4358SOL    HW213974   0.576   6.496   0.051
 4359SOL     OW13975   2.226   1.853   0.019
 4359SOL    HW113976   2.282   1.818   0.095
 4359SOL    HW213977   2.283   1.861   6.962
 4360SOL     OW13978   1.528   2.048   3.462
 4360SOL    HW113979   1.553   2.138   3.426
 4360SOL    HW213980   1.488   1.993   3.389
 4361SOL     OW13981   2.041   3.426   1.259
 4361SOL    HW113982   2.130   3.386   1.238
 4361SOL    HW213983   2.040   3.522   1.232
 4362SOL     OW13984   6.112   5.567   2.708
 4362SOL    HW113985   6.037   5.555   2.644
 4362SOL    HW213986   6.076   5.592   2.798
 4363SOL     OW13987   5.178   2.824   0.314
 4363SOL    HW113988   5.130   2.836   0.401
 4363SOL    HW213989   5.167   2.906   0.258
 4364SOL     OW13990   2.940   3.387   4.697
 4364SOL    HW113991   2.952   3.292   4.666
 4364SOL    HW213992   2.972   3.395   4.791
 4365SOL     OW13993   2.224   1.550   2.076
 4365SOL    HW113994   2.270   1.593   1.998
 4365SOL    HW213995   2.176   1.619   2.129
 4366SOL     OW13996   5.884   0.065   0.097
 4366SOL    HW113997   5.951   0.139   0.086
 4366SOL    HW213998   5.905   0.014   0.180
 4367SOL     OW13999   2.174   4.408   4.010
 4367SOL    HW114000   2.266   4.394   4.045
 4367SOL    HW214001   2.119   4.326   4.024
 4368SOL     OW14002   3.801   4.224   0.606
 4368SOL    HW114003   3.824   4.297   0.670
 4368SOL    HW214004   3.745   4.156   0.653
 4369SOL     OW14005   4.323   5.359   2.732
 4369SOL    HW114006   4.314   5.303   2.814
 4369SOL    HW214007   4.401   5.420   2.742
 4370SOL     OW14008   4.196   5.407   2.332
 4370SOL    HW114009   4.152   5.375   2.248
 4370SOL    HW214010   4.173   5.345   2.407
 4371SOL     OW14011   0.918   2.304   1.559
 4371SOL    HW114012   0.847   2.234   1.551
 4371SOL    HW214013   0.997   2.278   1.505
 4372SOL     OW14014   3.512   1.393   2.496
 4372SOL    HW114015   3.416   1.366   2.507
 4372SOL    HW214016   3.519   1.493   2.501
 4373SOL     OW14017   6.520   2.413   6.536
 4373SOL    HW114018   6.438   2.431   6.589
 4373SOL    HW214019   6.595   2.470   6.570
 4374SOL     OW14020   1.463   1.978   1.801
 4374SOL    HW114021   1.552   1.936   1.785
 4374SOL    HW214022   1.475   2.060   1.858
 4375SOL     OW14023   4.654   6.940   3.050
 4375SOL    HW114024   4.617   6.906   3.137
 4375SOL    HW214025   4.590   7.005   3.010
 4376SOL     OW14026   7.012   0.011   1.118
 4376SOL    HW114027   6.994   0.094   1.172
 4376SOL    HW214028   0.026   0.037   1.030
 4377SOL     OW14029   5.291   4.762   0.549
 4377SOL    HW114030   5.284   4.862   0.554
 4377SOL    HW214031   5.204   4.721   0.578
 4378SOL     OW14032   2.096   2.433   3.162
 4378SOL    HW114033   2.054   2.368   3.098
 4378SOL    HW214034   2.195   2.422   3.161
 4379SOL     OW14035   1.884   1.525   2.819
 4379SOL    HW114036   1.874   1.577   2.735
 4379SOL    HW214037   1.873   1.585   2.898
 4380SOL     OW14038   0.582   6.928   2.455
 4380SOL    HW114039   0.571   6.833   2.484
 4380SOL    HW214040   0.494   6.974   2.457
 4381SOL     OW14041   1.021   5.571   5.506
 4381SOL    HW114042   1.068   5.516   5.576
 4381SOL    HW214043   0.963   5.639   5.551
 4382SOL     OW14044   6.997   2.941   5.609
 4382SOL    HW114045   6.945   3.000   5.547
 4382SOL    HW214046   0.055   2.909   5.563
 4383SOL     OW14047   0.885   3.334   6.091
 4383SOL    HW114048   0.854   3.315   5.997
 4383SOL    HW214049   0.892   3.249   6.142
 4384SOL     OW14050   5.328   0.950   4.522
 4384SOL    HW114051   5.352   0.998   4.606
 4384SOL    HW214052   5.412   0.923   4.475
 4385SOL     OW14053   5.769   2.440   4.647
 4385SOL    HW114054   5.681   2.487   4.661
 4385SOL    HW214055   5.801   2.403   4.734
 4386SOL     OW14056   1.843   3.779   5.792
 4386SOL    HW114057   1.864   3.684   5.769
 4386SOL    HW214058   1.876   3.839   5.719
 4387SOL     OW14059   0.155   1.722   1.190
 4387SOL    HW114060   0.237   1.761   1.148
 4387SOL    HW214061   0.129   1.775   1.270
 4388SOL     OW14062   4.682   2.414   6.116
 4388SOL    HW114063   4.682   2.456   6.206
 4388SOL    HW214064   4.614   2.341   6.113
 4389SOL     OW14065   6.506   2.968   0.635
 4389SOL    HW114066   6.462   3.046   0.680
 4389SOL    HW214067   6.604   2.969   0.654
 4390SOL     OW14068   4.268   0.044   1.513
 4390SOL    HW114069   4.175   0.028   1.546
 4390SOL    HW214070   4.275   0.013   1.418
 4391SOL     OW14071   2.505   5.335   6.760
 4391SOL    HW114072   2.582   5.324   6.697
 4391SOL    HW214073   2.488   5.432   6.775
 4392SOL     OW14074   6.615   3.565   4.911
 4392SOL    HW114075   6.584   3.649   4.955
 4392SOL    HW214076   6.648   3.586   4.819
 4393SOL     OW14077   6.152   0.909   2.910
 4393SOL    HW114078   6.076   0.848   2.931
 4393SOL    HW214079   6.117   1.001   2.894
 4394SOL     OW14080   0.008   5.188   2.454
 4394SOL    HW114081   0.089   5.206   2.399
 4394SOL    HW214082   6.951   5.191   2.396
 4395SOL     OW14083   1.467   7.022   2.564
 4395SOL    HW114084   1.451   0.046   2.478
 4395SOL    HW214085   1.419   6.935   2.563
 4396SOL     OW14086   2.644   1.912   4.108
 4396SOL    HW114087   2.635   1.824   4.063
 4396SOL    HW214088   2.741   1.932   4.123
 4397SOL     OW14089   1.123   2.099   4.225
 4397SOL    HW114090   1.103   2.056   4.313
 4397SOL    HW214091   1.136   2.197   4.238
 4398SOL     OW14092   0.584   3.552   6.197
 4398SOL    HW114093   0.543   3.462   6.210
 4398SOL    HW214094   0.564   3.610   6.276
 4399SOL     OW14095   2.610   0.163   2.728
 4399SOL    HW114096   2.613   0.083   2.788
 4399SOL    HW214097   2.524   0.164   2.678
 4400SOL     OW14098   2.807   6.886   5.488
 4400SOL    HW114099   2.851   6.799   5.465
 4400SOL    HW214100   2.738   6.870   5.558
 4401SOL     OW14101   2.776   0.113   5.876
 4401SOL    HW114102   2.820   0.169   5.806
 4401SOL    HW214103   2.792   0.016   5.856
 4402SOL     OW14104   1.724   1.039   2.006
 4402SOL    HW114105   1.756   1.033   2.100
 4402SOL    HW214106   1.747   0.955   1.957
 4403SOL     OW14107   0.753   0.514   0.709
 4403SOL    HW114108   0.804   0.466   0.781
 4403SOL    HW214109   0.655   0.510   0.729
 4404SOL     OW14110   1.719   5.998   5.604
 4404SOL    HW114111   1.620   5.986   5.598
 4404SOL    HW214112   1.752   5.955   5.688
 4405SOL     OW14113   1.800   4.411   1.783
 4405SOL    HW114114   1.711   4.368   1.792
 4405SOL    HW214115   1.815   4.473   1.860
 4406SOL     OW14116   0.618   3.221   1.240
 4406SOL    HW114117   0.573   3.132   1.234
 4406SOL    HW214118   0.649   3.236   1.333
 4407SOL     OW14119   6.305   5.862   0.672
 4407SOL    HW114120   6.287   5.940   0.612
 4407SOL    HW214121   6.371   5.888   0.742
 4408SOL     OW14122   2.465   0.708   1.075
 4408SOL    HW114123   2.424   0.642   1.012
 4408SOL    HW214124   2.560   0.680   1.094
 4409SOL     OW14125   4.611   1.615   2.050
 4409SOL    HW114126   4.614   1.612   1.950
 4409SOL    HW214127   4.640   1.705   2.081
 4410SOL     OW14128   1.431   4.997   6.989
 4410SOL    HW114129   1.494   4.983   6.913
 4410SOL    HW214130   1.342   4.955   6.968
 4411SOL     OW14131   3.637   4.090   5.152
 4411SOL    HW114132   3.642   3.994   5.178
 4411SOL    HW214133   3.575   4.100   5.074
 4412SOL     OW14134   4.742   6.057   4.069
 4412SOL    HW114135   4.729   6.080   4.165
 4412SOL    HW214136   4.718   6.135   4.012
 4413SOL     OW14137   5.639   5.049   4.601
 4413SOL    HW114138   5.543   5.034   4.626
 4413SOL    HW214139   5.696   4.977   4.641
 4414SOL     OW14140   3.544   5.035   1.295
 4414SOL    HW114141   3.629   5.075   1.261
 4414SOL    HW214142   3.519   4.957   1.237
 4415SOL     OW14143   5.311   2.967   0.654
 4415SOL    HW114144   5.265   2.979   0.742
 4415SOL    HW214145   5.399   3.015   0.655
 4416SOL     OW14146   3.703   1.558   4.178
 4416SOL    HW114147   3.739   1.539   4.087
 4416SOL    HW214148   3.604   1.572   4.173
 4417SOL     OW14149   5.570   4.230   3.710
 4417SOL    HW114150   5.602   4.184   3.793
 4417SOL    HW214151   5.541   4.162   3.643
 4418SOL     OW14152   6.280   1.666   2.158
 4418SOL    HW114153   6.228   1.735   2.209
 4418SOL    HW214154   6.340   1.711   2.093
 4419SOL     OW14155   5.750   6.770   6.099
 4419SOL    HW114156   5.661   6.725   6.093
 4419SOL    HW214157   5.818   6.704   6.130
 4420SOL     OW14158   4.744   1.179   1.816
 4420SOL    HW114159   4.799   1.125   1.880
 4420SOL    HW214160   4.803   1.219   1.746
 4421SOL     OW14161   2.025   1.479   5.010
 4421SOL    HW114162   1.939   1.428   5.019
 4421SOL    HW214163   2.006   1.577   5.013
 4422SOL     OW14164   1.791   3.746   0.247
 4422SOL    HW114165   1.728   3.731   0.323
 4422SOL    HW214166   1.844   3.829   0.263
 4423SOL     OW14167   6.859   3.104   5.467
 4423SOL    HW114168   6.784   3.110   5.533
 4423SOL    HW214169   6.908   3.191   5.463
 4424SOL     OW14170   5.583   1.234   4.236
 4424SOL    HW114171   5.529   1.150   4.239
 4424SOL    HW214172   5.668   1.218   4.186
 4425SOL     OW14173   2.826   4.125   0.046
 4425SOL    HW114174   2.906   4.183   0.028
 4425SOL    HW214175   2.836   4.039   7.021
 4426SOL     OW14176   0.537   1.211   4.234
 4426SOL    HW114177   0.631   1.231   4.207
 4426SOL    HW214178   0.537   1.153   4.315
 4427SOL     OW14179   6.992   6.245   2.161
 4427SOL    HW114180   6.895   6.235   2.181
 4427SOL    HW214181   7.021   6.339   2.180
 4428SOL     OW14182   3.459   1.210   3.705
 4428SOL    HW114183   3.431   1.182   3.614
 4428SOL    HW214184   3.554   1.183   3.721
 4429SOL     OW14185   2.839   6.836   2.548
 4429SOL    HW114186   2.843   6.747   2.594
 4429SOL    HW214187   2.859   6.908   2.615
 4430SOL     OW14188   4.888   4.781   5.230
 4430SOL    HW114189   4.828   4.732   5.166
 4430SOL    HW214190   4.970   4.726   5.247
 4431SOL     OW14191   2.914   1.087   2.673
 4431SOL    HW114192   2.958   1.158   2.617
 4431SOL    HW214193   2.947   0.997   2.645
 4432SOL     OW14194   2.650   3.464   6.106
 4432SOL    HW114195   2.712   3.450   6.183
 4432SOL    HW214196   2.592   3.384   6.095
 4433SOL     OW14197   5.555   1.886   4.533
 4433SOL    HW114198   5.633   1.867   4.472
 4433SOL    HW214199   5.470   1.862   4.486
 4434SOL     OW14200   5.486   1.117   2.991
 4434SOL    HW114201   5.458   1.091   3.083
 4434SOL    HW214202   5.412   1.167   2.947
 4435SOL     OW14203   4.978   3.642   1.191
 4435SOL    HW114204   4.976   3.657   1.289
 4435SOL    HW214205   4.948   3.725   1.143
 4436SOL     OW14206   4.491   0.576   1.353
 4436SOL    HW114207   4.566   0.614   1.407
 4436SOL    HW214208   4.412   0.563   1.413
 4437SOL     OW14209   0.347   3.204   2.752
 4437SOL    HW114210   0.349   3.108   2.723
 4437SOL    HW214211   0.441   3.235   2.771
 4438SOL     OW14212   4.870   7.018   6.146
 4438SOL    HW114213   4.878   0.084   6.188
 4438SOL    HW214214   4.774   6.999   6.125
 4439SOL     OW14215   0.111   3.946   1.780
 4439SOL    HW114216   0.156   3.871   1.829
 4439SOL    HW214217   0.013   3.939   1.793
 4440SOL     OW14218   2.935   4.612   0.408
 4440SOL    HW114219   3.033   4.618   0.423
 4440SOL    HW214220   2.912   4.651   0.318
 4441SOL     OW14221   0.698   1.919   2.275
 4441SOL    HW114222   0.609   1.886   2.308
 4441SOL    HW214223   0.686   2.008   2.231
 4442SOL     OW14224   1.913   5.183   4.040
 4442SOL    HW114225   1.878   5.208   3.950
 4442SOL    HW214226   1.890   5.087   4.059
 4443SOL     OW14227   1.459   3.580   6.315
 4443SOL    HW114228   1.505   3.532   6.241
 4443SOL    HW214229   1.400   3.516   6.365
 4444SOL     OW14230   3.348   4.012   5.386
 4444SOL    HW114231   3.329   4.095   5.334
 4444SOL    HW214232   3.439   3.978   5.363
 4445SOL     OW14233   1.650   6.361   6.870
 4445SOL    HW114234   1.638   6.282   6.810
 4445SOL    HW214235   1.602   6.345   6.956
 4446SOL     OW14236   5.068   1.091   1.243
 4446SOL    HW114237   5.114   1.103   1.331
 4446SOL    HW214238   5.136   1.093   1.170
 4447SOL     OW14239   4.738   4.608   6.077
 4447SOL    HW114240   4.733   4.704   6.105
 4447SOL    HW214241   4.709   4.598   5.982
 4448SOL     OW14242   2.391   4.557   1.594
 4448SOL    HW114243   2.458   4.584   1.663
 4448SOL    HW214244   2.310   4.519   1.640
 4449SOL     OW14245   4.853   1.056   6.186
 4449SOL    HW114246   4.792   0.991   6.231
 4449SOL    HW214247   4.827   1.149   6.212
 4450SOL     OW14248   3.718   2.851   5.888
 4450SOL    HW114249   3.756   2.889   5.803
 4450SOL    HW214250   3.787   2.852   5.959
 4451SOL     OW14251   6.111   4.624   3.386
 4451SOL    HW114252   6.086   4.702   3.443
 4451SOL    HW214253   6.135   4.656   3.294
 4452SOL     OW14254   5.610   5.898   4.370
 4452SOL    HW114255   5.599   5.976   4.308
 4452SOL    HW214256   5.524   5.882   4.418
 4453SOL     OW14257   0.890   2.913   1.143
 4453SOL    HW114258   0.889   3.012   1.152
 4453SOL    HW214259   0.906   2.888   1.047
 4454SOL     OW14260   1.239   1.899   0.237
 4454SOL    HW114261   1.156   1.885   0.183
 4454SOL    HW214262   1.318   1.873   0.182
 4455SOL     OW14263   5.180   5.862   5.754
 4455SOL    HW114264   5.110   5.888   5.820
 4455SOL    HW214265   5.176   5.763   5.738
 4456SOL     OW14266   2.507   5.900   2.363
 4456SOL    HW114267   2.481   5.956   2.285
 4456SOL    HW214268   2.606   5.884   2.361
 4457SOL     OW14269   3.735   1.099   2.821
 4457SOL    HW114270   3.835   1.088   2.823
 4457SOL    HW214271   3.698   1.048   2.744
 4458SOL     OW14272   1.875   2.678   0.239
 4458SOL    HW114273   1.831   2.748   0.295
 4458SOL    HW214274   1.974   2.683   0.250
 4459SOL     OW14275   4.112   1.691   3.984
 4459SOL    HW114276   4.087   1.599   3.954
 4459SOL    HW214277   4.195   1.687   4.039
 4460SOL     OW14278   1.687   2.560   6.424
 4460SOL    HW114279   1.593   2.553   6.390
 4460SOL    HW214280   1.749   2.574   6.346
 4461SOL     OW14281   2.026   0.452   0.915
 4461SOL    HW114282   2.038   0.368   0.968
 4461SOL    HW214283   2.110   0.506   0.919
 4462SOL     OW14284   6.287   5.019   2.345
 4462SOL    HW114285   6.355   4.946   2.337
 4462SOL    HW214286   6.274   5.062   2.255
 4463SOL     OW14287   5.005   1.165   0.756
 4463SOL    HW114288   4.950   1.084   0.775
 4463SOL    HW214289   4.983   1.236   0.823
 4464SOL     OW14290   7.014   5.265   0.203
 4464SOL    HW114291   6.922   5.298   0.185
 4464SOL    HW214292   0.003   5.256   0.302
 4465SOL     OW14293   3.406   4.877   1.094
 4465SOL    HW114294   3.383   4.940   1.019
 4465SOL    HW214295   3.346   4.798   1.090
 4466SOL     OW14296   1.339   1.545   3.065
 4466SOL    HW114297   1.277   1.516   2.992
 4466SOL    HW214298   1.297   1.618   3.118
 4467SOL     OW14299   1.669   5.624   2.615
 4467SOL    HW114300   1.644   5.699   2.676
 4467SOL    HW214301   1.748   5.651   2.560
 4468SOL     OW14302   1.780   4.151   0.271
 4468SOL    HW114303   1.857   4.094   0.299
 4468SOL    HW214304   1.812   4.243   0.251
 4469SOL     OW14305   3.309   0.391   2.185
 4469SOL    HW114306   3.316   0.345   2.274
 4469SOL    HW214307   3.234   0.457   2.187
 4470SOL     OW14308   0.279   2.205   2.075
 4470SOL    HW114309   0.366   2.254   2.066
 4470SOL    HW214310   0.255   2.197   2.171
 4471SOL     OW14311   1.148   2.447   6.470
 4471SOL    HW114312   1.177   2.533   6.512
 4471SOL    HW214313   1.189   2.371   6.520
 4472SOL     OW14314   0.407   3.576   2.048
 4472SOL    HW114315   0.405   3.562   1.949
 4472SOL    HW214316   0.499   3.561   2.082
 4473SOL     OW14317   5.652   2.909   3.890
 4473SOL    HW114318   5.586   2.864   3.829
 4473SOL    HW214319   5.675   2.847   3.964
 4474SOL     OW14320   2.271   0.735   2.111
 4474SOL    HW114321   2.294   0.650   2.062
 4474SOL    HW214322   2.355   0.774   2.150
 4475SOL     OW14323   1.177   4.254   2.114
 4475SOL    HW114324   1.111   4.179   2.124
 4475SOL    HW214325   1.199   4.291   2.204
 4476SOL     OW14326   5.811   0.803   3.255
 4476SOL    HW114327   5.867   0.801   3.172
 4476SOL    HW214328   5.847   0.872   3.318
 4477SOL     OW14329   1.830   0.279   5.564
 4477SOL    HW114330   1.827   0.303   5.467
 4477SOL    HW214331   1.904   0.330   5.609
 4478SOL     OW14332   3.217   6.799   2.469
 4478SOL    HW114333   3.167   6.747   2.398
 4478SOL    HW214334   3.179   6.777   2.559
 4479SOL     OW14335   0.354   2.320   0.786
 4479SOL    HW114336   0.258   2.298   0.768
 4479SOL    HW214337   0.393   2.253   0.849
 4480SOL     OW14338   0.231   4.326   5.051
 4480SOL    HW114339   0.303   4.308   5.118
 4480SOL    HW214340   0.273   4.347   4.962
 4481SOL     OW14341   3.609   5.840   4.507
 4481SOL    HW114342   3.546   5.775   4.551
 4481SOL    HW214343   3.658   5.794   4.433
 4482SOL     OW14344   1.792   3.280   5.150
 4482SOL    HW114345   1.776   3.272   5.052
 4482SOL    HW214346   1.779   3.191   5.193
 4483SOL     OW14347   5.920   2.422   2.174
 4483SOL    HW114348   5.864   2.353   2.221
 4483SOL    HW214349   5.876   2.512   2.182
 4484SOL     OW14350   3.466   2.496   6.658
 4484SOL    HW114351   3.489   2.525   6.565
 4484SOL    HW214352   3.470   2.574   6.720
 4485SOL     OW14353   5.840   2.473   4.163
 4485SOL    HW114354   5.918   2.487   4.102
 4485SOL    HW214355   5.870   2.483   4.258
 4486SOL     OW14356   6.398   5.471   5.407
 4486SOL    HW114357   6.480   5.512   5.449
 4486SOL    HW214358   6.376   5.522   5.324
 4487SOL     OW14359   2.899   2.866   6.236
 4487SOL    HW114360   2.953   2.863   6.321
 4487SOL    HW214361   2.943   2.810   6.167
 4488SOL     OW14362   0.115   3.677   5.849
 4488SOL    HW114363   0.209   3.679   5.883
 4488SOL    HW214364   0.109   3.611   5.774
 4489SOL     OW14365   4.817   5.729   5.293
 4489SOL    HW114366   4.778   5.721   5.385
 4489SOL    HW214367   4.894   5.667   5.284
 4490SOL     OW14368   5.530   2.312   2.309
 4490SOL    HW114369   5.486   2.358   2.232
 4490SOL    HW214370   5.461   2.273   2.369
 4491SOL     OW14371   0.366   3.440   3.619
 4491SOL    HW114372   0.304   3.366   3.645
 4491SOL    HW214373   0.327   3.528   3.648
 4492SOL     OW14374   5.858   4.639   2.277
 4492SOL    HW114375   5.871   4.544   2.249
 4492SOL    HW214376   5.943   4.690   2.262
 4493SOL     OW14377   4.855   5.483   4.627
 4493SOL    HW114378   4.858   5.583   4.636
 4493SOL    HW214379   4.837   5.442   4.717
 4494SOL     OW14380   0.550   0.742   6.666
 4494SOL    HW114381   0.609   0.684   6.611
 4494SOL    HW214382   0.531   0.827   6.617
 4495SOL     OW14383   4.017   0.016   4.015
 4495SOL    HW114384   4.072   0.099   4.017
 4495SOL    HW214385   4.077   6.961   4.026
 4496SOL     OW14386   5.917   6.522   1.347
 4496SOL    HW114387   5.827   6.539   1.308
 4496SOL    HW214388   5.914   6.535   1.446
 4497SOL     OW14389   4.867   2.415   6.794
 4497SOL    HW114390   4.780   2.424   6.746
 4497SOL    HW214391   4.849   2.400   6.891
 4498SOL     OW14392   0.137   3.209   0.381
 4498SOL    HW114393   0.056   3.262   0.406
 4498SOL    HW214394   0.219   3.263   0.401
 4499SOL     OW14395   5.993   3.795   4.098
 4499SOL    HW114396   5.936   3.766   4.175
 4499SOL    HW214397   6.067   3.853   4.131
 4500SOL     OW14398   3.149   2.997   4.556
 4500SOL    HW114399   3.200   3.055   4.493
 4500SOL    HW214400   3.111   3.052   4.630
 4501SOL     OW14401   6.958   3.346   2.725
 4501SOL    HW114402   7.007   3.385   2.647
 4501SOL    HW214403   7.023   3.323   2.797
 4502SOL     OW14404   0.661   2.926   0.004
 4502SOL    HW114405   0.702   2.835   7.018
 4502SOL    HW214406   0.664   2.953   0.100
 4503SOL     OW14407   3.725   6.720   1.872
 4503SOL    HW114408   3.638   6.673   1.884
 4503SOL    HW214409   3.780   6.709   1.956
 4504SOL     OW14410   6.975   1.147   4.563
 4504SOL    HW114411   6.967   1.246   4.549
 4504SOL    HW214412   6.902   1.115   4.622
 4505SOL     OW14413   6.661   5.471   2.223
 4505SOL    HW114414   6.740   5.518   2.185
 4505SOL    HW214415   6.675   5.372   2.218
 4506SOL     OW14416   4.889   2.936   3.667
 4506SOL    HW114417   4.968   2.983   3.629
 4506SOL    HW214418   4.874   2.966   3.761
 4507SOL     OW14419   6.270   4.696   3.802
 4507SOL    HW114420   6.281   4.653   3.713
 4507SOL    HW214421   6.174   4.719   3.816
 4508SOL     OW14422   1.489   5.400   6.900
 4508SOL    HW114423   1.482   5.333   6.975
 4508SOL    HW214424   1.481   5.352   6.813
 4509SOL     OW14425   4.971   2.456   3.051
 4509SOL    HW114426   4.986   2.358   3.059
 4509SOL    HW214427   4.894   2.483   3.109
 4510SOL     OW14428   4.231   2.031   4.317
 4510SOL    HW114429   4.193   2.108   4.368
 4510SOL    HW214430   4.226   2.050   4.219
 4511SOL     OW14431   5.903   3.966   6.172
 4511SOL    HW114432   5.905   3.902   6.249
 4511SOL    HW214433   5.824   4.026   6.180
 4512SOL     OW14434   2.680   1.110   5.970
 4512SOL    HW114435   2.617   1.174   5.928
 4512SOL    HW214436   2.758   1.094   5.908
 4513SOL     OW14437   0.538   4.959   6.409
 4513SOL    HW114438   0.492   4.963   6.320
 4513SOL    HW214439   0.475   4.922   6.477
 4514SOL     OW14440   3.484   1.980   6.090
 4514SOL    HW114441   3.521   2.007   6.001
 4514SOL    HW214442   3.494   2.055   6.155
 4515SOL     OW14443   5.962   2.038   5.209
 4515SOL    HW114444   5.967   2.114   5.274
 4515SOL    HW214445   6.015   1.961   5.245
 4516SOL     OW14446   2.363   0.024   0.021
 4516SOL    HW114447   2.399   0.077   0.097
 4516SOL    HW214448   2.370   6.951   0.042
 4517SOL     OW14449   4.815   6.816   6.865
 4517SOL    HW114450   4.912   6.794   6.855
 4517SOL    HW214451   4.797   6.843   6.959
 4518SOL     OW14452   6.714   6.956   2.478
 4518SOL    HW114453   6.702   7.009   2.394
 4518SOL    HW214454   6.637   6.893   2.488
 4519SOL     OW14455   6.139   0.040   1.401
 4519SOL    HW114456   6.230   0.062   1.437
 4519SOL    HW214457   6.127   6.965   1.397
 4520SOL     OW14458   4.416   6.301   5.574
 4520SOL    HW114459   4.419   6.235   5.648
 4520SOL    HW214460   4.355   6.377   5.600
 4521SOL     OW14461   5.924   2.308   4.824
 4521SOL    HW114462   5.858   2.299   4.899
 4521SOL    HW214463   5.946   2.217   4.788
 4522SOL     OW14464   5.442   4.994   3.769
 4522SOL    HW114465   5.394   5.028   3.688
 4522SOL    HW214466   5.388   4.920   3.810
 4523SOL     OW14467   1.176   4.853   6.929
 4523SOL    HW114468   1.174   4.776   6.992
 4523SOL    HW214469   1.178   4.818   6.835
 4524SOL     OW14470   6.581   2.817   1.990
 4524SOL    HW114471   6.673   2.780   2.003
 4524SOL    HW214472   6.557   2.872   2.070
 4525SOL     OW14473   5.025   2.457   5.243
 4525SOL    HW114474   5.098   2.505   5.194
 4525SOL    HW214475   4.957   2.523   5.275
 4526SOL     OW14476   6.724   0.487   6.647
 4526SOL    HW114477   6.803   0.440   6.685
 4526SOL    HW214478   6.709   0.456   6.553
 4527SOL     OW14479   6.884   1.149   3.062
 4527SOL    HW114480   6.802   1.204   3.079
 4527SOL    HW214481   6.933   1.134   3.148
 4528SOL     OW14482   4.485   0.517   6.712
 4528SOL    HW114483   4.509   0.434   6.761
 4528SOL    HW214484   4.542   0.525   6.630
 4529SOL     OW14485   2.111   0.644   5.017
 4529SOL    HW114486   2.055   0.617   4.939
 4529SOL    HW214487   2.051   0.671   5.093
 4530SOL     OW14488   1.949   5.722   4.221
 4530SOL    HW114489   1.915   5.640   4.176
 4530SOL    HW214490   1.896   5.740   4.304
 4531SOL     OW14491   0.778   2.862   5.470
 4531SOL    HW114492   0.760   2.955   5.503
 4531SOL    HW214493   0.704   2.833   5.409
 4532SOL     OW14494   6.552   1.486   2.175
 4532SOL    HW114495   6.488   1.498   2.251
 4532SOL    HW214496   6.605   1.570   2.163
 4533SOL     OW14497   1.732   1.134   2.456
 4533SOL    HW114498   1.741   1.234   2.459
 4533SOL    HW214499   1.668   1.105   2.528
 4534SOL     OW14500   5.786   4.208   4.906
 4534SOL    HW114501   5.758   4.194   5.001
 4534SOL    HW214502   5.885   4.217   4.900
 4535SOL     OW14503   3.725   0.642   2.014
 4535SOL    HW114504   3.707   0.718   1.951
 4535SOL    HW214505   3.694   0.667   2.105
 4536SOL     OW14506   4.661   1.561   4.463
 4536SOL    HW114507   4.570   1.551   4.504
 4536SOL    HW214508   4.697   1.471   4.439
 4537SOL     OW14509   4.146   3.476   0.796
 4537SOL    HW114510   4.199   3.526   0.864
 4537SOL    HW214511   4.062   3.525   0.776
 4538SOL     OW14512   2.170   0.835   2.690
 4538SOL    HW114513   2.228   0.872   2.762
 4538SOL    HW214514   2.106   0.769   2.729
 4539SOL     OW14515   3.327   6.147   4.775
 4539SOL    HW114516   3.239   6.099   4.780
 4539SOL    HW214517   3.381   6.108   4.700
 4540SOL     OW14518   2.274   2.531   6.908
 4540SOL    HW114519   2.265   2.561   6.813
 4540SOL    HW214520   2.230   2.442   6.919
 4541SOL     OW14521   5.851   1.749   6.619
 4541SOL    HW114522   5.770   1.690   6.622
 4541SOL    HW214523   5.934   1.692   6.619
 4542SOL     OW14524   0.193   2.216   1.652
 4542SOL    HW114525   0.205   2.142   1.586
 4542SOL    HW214526   0.095   2.226   1.674
 4543SOL     OW14527   4.453   2.674   1.016
 4543SOL    HW114528   4.461   2.643   1.111
 4543SOL    HW214529   4.364   2.718   1.003
 4544SOL     OW14530   3.283   5.534   6.559
 4544SOL    HW114531   3.372   5.525   6.514
 4544SOL    HW214532   3.294   5.586   6.644
 4545SOL     OW14533   5.958   3.281   4.265
 4545SOL    HW114534   5.989   3.372   4.292
 4545SOL    HW214535   5.928   3.283   4.170
 4546SOL     OW14536   2.715   0.576   3.881
 4546SOL    HW114537   2.765   0.569   3.794
 4546SOL    HW214538   2.673   0.488   3.902
 4547SOL     OW14539   6.395   2.035   0.683
 4547SOL    HW114540   6.326   2.011   0.615
 4547SOL    HW214541   6.352   2.081   0.760
 4548SOL     OW14542   1.944   2.939   3.757
 4548SOL    HW114543   1.853   2.964   3.724
 4548SOL    HW214544   2.007   3.016   3.745
 4549SOL     OW14545   5.549   4.028   2.552
 4549SOL    HW114546   5.517   3.951   2.498
 4549SOL    HW214547   5.528   4.114   2.504
 4550SOL     OW14548   1.243   5.365   3.359
 4550SOL    HW114549   1.205   5.396   3.271
 4550SOL    HW214550   1.168   5.351   3.424
 4551SOL     OW14551   0.918   3.250   4.698
 4551SOL    HW114552   0.854   3.325   4.679
 4551SOL    HW214553   0.902   3.217   4.791
 4552SOL     OW14554   5.852   2.083   1.188
 4552SOL    HW114555   5.767   2.136   1.191
 4552SOL    HW214556   5.912   2.112   1.263
 4553SOL     OW14557   4.590   4.228   0.463
 4553SOL    HW114558   4.621   4.312   0.419
 4553SOL    HW214559   4.506   4.246   0.514
 4554SOL     OW14560   6.439   6.555   2.069
 4554SOL    HW114561   6.521   6.503   2.091
 4554SOL    HW214562   6.383   6.563   2.151
 4555SOL     OW14563   1.797   1.946   5.080
 4555SOL    HW114564   1.782   1.954   4.982
 4555SOL    HW214565   1.814   2.037   5.119
 4556SOL     OW14566   5.349   3.974   4.491
 4556SOL    HW114567   5.389   4.016   4.572
 4556SOL    HW214568   5.271   3.917   4.518
 4557SOL     OW14569   4.869   5.765   4.681
 4557SOL    HW114570   4.803   5.763   4.756
 4557SOL    HW214571   4.924   5.849   4.687
 4558SOL     OW14572   6.922   4.287   4.652
 4558SOL    HW114573   6.876   4.375   4.662
 4558SOL    HW214574   6.891   4.225   4.725
 4559SOL     OW14575   6.901   3.428   2.431
 4559SOL    HW114576   6.857   3.367   2.365
 4559SOL    HW214577   6.841   3.441   2.510
 4560SOL     OW14578   5.828   3.844   0.968
 4560SOL    HW114579   5.757   3.836   0.898
 4560SOL    HW214580   5.802   3.915   1.034
 4561SOL     OW14581   3.314   1.893   3.127
 4561SOL    HW114582   3.325   1.796   3.109
 4561SOL    HW214583   3.239   1.929   3.071
 4562SOL     OW14584   2.042   6.797   6.743
 4562SOL    HW114585   1.950   6.797   6.705
 4562SOL    HW214586   2.095   6.722   6.703
 4563SOL     OW14587   0.089   2.474   1.233
 4563SOL    HW114588   0.011   2.534   1.252
 4563SOL    HW214589   0.148   2.469   1.314
 4564SOL     OW14590   0.062   6.192   1.906
 4564SOL    HW114591   0.130   6.256   1.869
 4564SOL    HW214592   0.041   6.217   2.000
 4565SOL     OW14593   0.954   0.414   4.629
 4565SOL    HW114594   1.029   0.481   4.636
 4565SOL    HW214595   0.870   0.461   4.601
 4566SOL     OW14596   0.286   2.984   0.549
 4566SOL    HW114597   0.349   2.960   0.475
 4566SOL    HW214598   0.195   3.003   0.511
 4567SOL     OW14599   6.276   1.087   6.625
 4567SOL    HW114600   6.221   1.004   6.615
 4567SOL    HW214601   6.218   1.167   6.612
 4568SOL     OW14602   1.895   3.510   5.696
 4568SOL    HW114603   1.994   3.501   5.687
 4568SOL    HW214604   1.862   3.443   5.763
 4569SOL     OW14605   2.374   1.071   3.118
 4569SOL    HW114606   2.375   1.161   3.162
 4569SOL    HW214607   2.331   1.005   3.179
 4570SOL     OW14608   6.806   6.541   2.502
 4570SOL    HW114609   6.904   6.541   2.483
 4570SOL    HW214610   6.773   6.447   2.507
 4571SOL     OW14611   4.278   3.823   6.113
 4571SOL    HW114612   4.330   3.759   6.171
 4571SOL    HW214613   4.304   3.808   6.017
 4572SOL     OW14614   1.604   0.807   6.362
 4572SOL    HW114615   1.631   0.887   6.415
 4572SOL    HW214616   1.668   0.794   6.287
 4573SOL     OW14617   6.720   0.631   0.465
 4573SOL    HW114618   6.627   0.657   0.439
 4573SOL    HW214619   6.728   0.629   0.565
 4574SOL     OW14620   5.812   3.993   0.576
 4574SOL    HW114621   5.875   3.985   0.653
 4574SOL    HW214622   5.828   4.080   0.529
 4575SOL     OW14623   5.708   0.626   5.562
 4575SOL    HW114624   5.688   0.720   5.535
 4575SOL    HW214625   5.627   0.585   5.605
 4576SOL     OW14626   3.704   5.792   5.545
 4576SOL    HW114627   3.690   5.757   5.452
 4576SOL    HW214628   3.750   5.722   5.600
 4577SOL     OW14629   0.846   1.799   4.301
 4577SOL    HW114630   0.894   1.777   4.386
 4577SOL    HW214631   0.785   1.876   4.317
 4578SOL     OW14632   0.886   2.454   5.160
 4578SOL    HW114633   0.891   2.546   5.197
 4578SOL    HW214634   0.885   2.387   5.234
 4579SOL     OW14635   3.892   0.372   3.214
 4579SOL    HW114636   3.834   0.391   3.135
 4579SOL    HW214637   3.964   0.307   3.189
 4580SOL     OW14638   5.647   4.246   0.910
 4580SOL    HW114639   5.724   4.294   0.867
 4580SOL    HW214640   5.564   4.299   0.896
 4581SOL     OW14641   1.927   6.083   2.341
 4581SOL    HW114642   1.928   5.997   2.290
 4581SOL    HW214643   2.008   6.137   2.317
 4582SOL     OW14644   4.445   0.848   4.955
 4582SOL    HW114645   4.437   0.754   4.988
 4582SOL    HW214646   4.403   0.855   4.865
 4583SOL     OW14647   3.063   1.804   6.843
 4583SOL    HW114648   3.093   1.899   6.830
 4583SOL    HW214649   2.987   1.801   6.907
 4584SOL     OW14650   1.012   4.778   5.221
 4584SOL    HW114651   0.998   4.875   5.243
 4584SOL    HW214652   0.961   4.755   5.138
 4585SOL     OW14653   1.617   5.591   3.243
 4585SOL    HW114654   1.573   5.505   3.269
 4585SOL    HW214655   1.593   5.614   3.149
 4586SOL     OW14656   3.852   4.327   0.876
 4586SOL    HW114657   3.783   4.393   0.906
 4586SOL    HW214658   3.936   4.340   0.929
 4587SOL     OW14659   3.414   4.139   3.593
 4587SOL    HW114660   3.441   4.172   3.684
 4587SOL    HW214661   3.316   4.120   3.592
 4588SOL     OW14662   2.698   3.657   5.367
 4588SOL    HW114663   2.675   3.744   5.325
 4588SOL    HW214664   2.619   3.597   5.365
 4589SOL     OW14665   6.253   0.723   2.143
 4589SOL    HW114666   6.208   0.791   2.200
 4589SOL    HW214667   6.223   0.735   2.048
 4590SOL     OW14668   4.404   5.290   1.343
 4590SOL    HW114669   4.356   5.378   1.339
 4590SOL    HW214670   4.497   5.305   1.376
 4591SOL     OW14671   1.986   0.530   4.799
 4591SOL    HW114672   1.908   0.589   4.780
 4591SOL    HW214673   1.954   0.436   4.815
 4592SOL     OW14674   3.037   1.489   3.213
 4592SOL    HW114675   3.133   1.462   3.205
 4592SOL    HW214676   2.979   1.407   3.210
 4593SOL     OW14677   4.886   6.206   2.009
 4593SOL    HW114678   4.858   6.148   2.086
 4593SOL    HW214679   4.820   6.280   1.999
 4594SOL     OW14680   2.630   1.435   3.240
 4594SOL    HW114681   2.708   1.496   3.247
 4594SOL    HW214682   2.653   1.347   3.282
 4595SOL     OW14683   4.789   3.232   5.675
 4595SOL    HW114684   4.841   3.274   5.749
 4595SOL    HW214685   4.851   3.183   5.614
 4596SOL     OW14686   6.418   1.217   2.678
 4596SOL    HW114687   6.470   1.174   2.751
 4596SOL    HW214688   6.408   1.315   2.697
 4597SOL     OW14689   3.735   5.534   6.604
 4597SOL    HW114690   3.676   5.499   6.677
 4597SOL    HW214691   3.821   5.483   6.604
 4598SOL     OW14692   1.210   6.038   0.897
 4598SOL    HW114693   1.192   6.083   0.809
 4598SOL    HW214694   1.262   5.954   0.882
 4599SOL     OW14695   1.594   4.886   0.143
 4599SOL    HW114696   1.530   4.939   0.086
 4599SOL    HW214697   1.687   4.905   0.114
 4600SOL     OW14698   0.522   5.893   5.251
 4600SOL    HW114699   0.570   5.854   5.330
 4600SOL    HW214700   0.440   5.840   5.232
 4601SOL     OW14701   1.532   1.393   5.455
 4601SOL    HW114702   1.580   1.478   5.478
 4601SOL    HW214703   1.491   1.401   5.364
 4602SOL     OW14704   3.375   6.727   0.312
 4602SOL    HW114705   3.306   6.663   0.347
 4602SOL    HW214706   3.349   6.820   0.335
 4603SOL     OW14707   3.697   6.081   0.826
 4603SOL    HW114708   3.638   6.074   0.907
 4603SOL    HW214709   3.793   6.084   0.855
 4604SOL     OW14710   4.539   0.113   7.010
 4604SOL    HW114711   4.461   0.108   0.047
 4604SOL    HW214712   4.614   0.056   0.021
 4605SOL     OW14713   1.465   6.171   2.470
 4605SOL    HW114714   1.449   6.109   2.393
 4605SOL    HW214715   1.558   6.205   2.467
 4606SOL     OW14716   0.398   0.245   2.532
 4606SOL    HW114717   0.339   0.179   2.486
 4606SOL    HW214718   0.421   0.319   2.469
 4607SOL     OW14719   2.223   3.021   2.794
 4607SOL    HW114720   2.227   2.939   2.851
 4607SOL    HW214721   2.208   3.101   2.852
 4608SOL     OW14722   0.458   5.669   3.884
 4608SOL    HW114723   0.367   5.701   3.860
 4608SOL    HW214724   0.494   5.612   3.810
 4609SOL     OW14725   4.904   5.174   6.941
 4609SOL    HW114726   4.975   5.184   6.871
 4609SOL    HW214727   4.838   5.249   6.934
 4610SOL     OW14728   5.010   1.668   0.250
 4610SOL    HW114729   5.049   1.760   0.251
 4610SOL    HW214730   4.949   1.658   0.171
 4611SOL     OW14731   0.928   6.795   6.025
 4611SOL    HW114732   0.843   6.791   6.078
 4611SOL    HW214733   1.003   6.762   6.082
 4612SOL     OW14734   1.374   6.311   0.911
 4612SOL    HW114735   1.299   6.271   0.857
 4612SOL    HW214736   1.439   6.240   0.936
 4613SOL     OW14737   1.255   5.600   2.333
 4613SOL    HW114738   1.320   5.673   2.313
 4613SOL    HW214739   1.283   5.552   2.416
 4614SOL     OW14740   5.910   3.355   3.679
 4614SOL    HW114741   5.891   3.404   3.764
 4614SOL    HW214742   5.941   3.262   3.701
 4615SOL     OW14743   1.467   1.030   6.972
 4615SOL    HW114744   1.510   0.987   0.026
 4615SOL    HW214745   1.464   1.129   6.986
 4616SOL     OW14746   6.594   1.300   4.492
 4616SOL    HW114747   6.558   1.234   4.426
 4616SOL    HW214748   6.562   1.391   4.468
 4617SOL     OW14749   1.129   1.892   2.549
 4617SOL    HW114750   1.166   1.915   2.638
 4617SOL    HW214751   1.072   1.810   2.557
 4618SOL     OW14752   2.365   2.969   5.431
 4618SOL    HW114753   2.401   3.019   5.510
 4618SOL    HW214754   2.433   2.966   5.359
 4619SOL     OW14755   3.144   6.150   3.898
 4619SOL    HW114756   3.174   6.104   3.982
 4619SOL    HW214757   3.224   6.173   3.842
 4620SOL     OW14758   1.249   5.261   0.751
 4620SOL    HW114759   1.306   5.200   0.695
 4620SOL    HW214760   1.227   5.343   0.699
 4621SOL     OW14761   4.592   0.669   2.669
 4621SOL    HW114762   4.511   0.622   2.633
 4621SOL    HW214763   4.616   0.745   2.609
 4622SOL     OW14764   3.767   4.985   0.889
 4622SOL    HW114765   3.707   5.064   0.901
 4622SOL    HW214766   3.856   5.016   0.855
 4623SOL     OW14767   5.091   5.813   1.842
 4623SOL    HW114768   5.138   5.901   1.839
 4623SOL    HW214769   5.025   5.807   1.767
 4624SOL     OW14770   3.444   7.017   3.121
 4624SOL    HW114771   3.437   0.079   3.171
 4624SOL    HW214772   3.538   7.002   3.092
 4625SOL     OW14773   1.573   4.761   1.592
 4625SOL    HW114774   1.672   4.764   1.607
 4625SOL    HW214775   1.553   4.703   1.513
 4626SOL     OW14776   4.869   3.921   1.973
 4626SOL    HW114777   4.844   4.018   1.970
 4626SOL    HW214778   4.825   3.872   1.898
 4627SOL     OW14779   1.946   4.972   4.813
 4627SOL    HW114780   1.895   4.969   4.899
 4627SOL    HW214781   1.982   5.064   4.798
 4628SOL     OW14782   4.874   4.354   4.942
 4628SOL    HW114783   4.807   4.337   5.014
 4628SOL    HW214784   4.836   4.419   4.876
 4629SOL     OW14785   3.023   5.535   5.516
 4629SOL    HW114786   3.050   5.500   5.606
 4629SOL    HW214787   2.948   5.480   5.480
 4630SOL     OW14788   2.174   6.276   2.191
 4630SOL    HW114789   2.097   6.340   2.193
 4630SOL    HW214790   2.260   6.327   2.201
 4631SOL     OW14791   1.250   5.797   3.247
 4631SOL    HW114792   1.261   5.698   3.257
 4631SOL    HW214793   1.213   5.818   3.156
 4632SOL     OW14794   2.475   4.497   2.607
 4632SOL    HW114795   2.470   4.468   2.702
 4632SOL    HW214796   2.391   4.470   2.559
 4633SOL     OW14797   6.138   0.438   4.496
 4633SOL    HW114798   6.058   0.419   4.553
 4633SOL    HW214799   6.222   0.417   4.547
 4634SOL     OW14800   2.659   3.908   5.247
 4634SOL    HW114801   2.647   3.985   5.310
 4634SOL    HW214802   2.581   3.904   5.185
 4635SOL     OW14803   4.717   3.843   1.768
 4635SOL    HW114804   4.647   3.772   1.770
 4635SOL    HW214805   4.674   3.933   1.769
 4636SOL     OW14806   2.485   4.545   0.473
 4636SOL    HW114807   2.503   4.490   0.391
 4636SOL    HW214808   2.571   4.559   0.523
 4637SOL     OW14809   0.135   6.744   0.874
 4637SOL    HW114810   0.066   6.785   0.935
 4637SOL    HW214811   0.139   6.645   0.891
 4638SOL     OW14812   4.050   5.064   6.979
 4638SOL    HW114813   4.055   5.027   6.886
 4638SOL    HW214814   4.018   4.993   0.017
 4639SOL     OW14815   3.541   3.512   6.349
 4639SOL    HW114816   3.635   3.545   6.365
 4639SOL    HW214817   3.490   3.581   6.299
 4640SOL     OW14818   4.836   4.100   4.243
 4640SOL    HW114819   4.899   4.054   4.306
 4640SOL    HW214820   4.751   4.122   4.292
 4641SOL     OW14821   3.055   0.796   4.825
 4641SOL    HW114822   3.085   0.705   4.856
 4641SOL    HW214823   3.045   0.795   4.726
 4642SOL     OW14824   1.324   7.010   3.099
 4642SOL    HW114825   1.237   6.960   3.096
 4642SOL    HW214826   1.312   0.074   3.053
 4643SOL     OW14827   6.621   2.340   0.488
 4643SOL    HW114828   6.571   2.305   0.568
 4643SOL    HW214829   6.627   2.440   0.493
 4644SOL     OW14830   1.101   6.564   5.302
 4644SOL    HW114831   1.014   6.599   5.268
 4644SOL    HW214832   1.101   6.464   5.296
 4645SOL     OW14833   0.729   0.598   4.579
 4645SOL    HW114834   0.716   0.666   4.507
 4645SOL    HW214835   0.699   0.508   4.546
 4646SOL     OW14836   2.154   5.417   3.193
 4646SOL    HW114837   2.205   5.487   3.242
 4646SOL    HW214838   2.188   5.412   3.099
 4647SOL     OW14839   1.799   0.222   2.753
 4647SOL    HW114840   1.873   0.183   2.698
 4647SOL    HW214841   1.810   0.193   2.848
 4648SOL     OW14842   3.565   0.279   2.664
 4648SOL    HW114843   3.472   0.305   2.639
 4648SOL    HW214844   3.564   0.228   2.750
 4649SOL     OW14845   5.386   0.875   0.327
 4649SOL    HW114846   5.361   0.896   0.233
 4649SOL    HW214847   5.453   0.800   0.329
 4650SOL     OW14848   4.780   5.782   2.060
 4650SOL    HW114849   4.759   5.722   2.137
 4650SOL    HW214850   4.707   5.776   1.992
 4651SOL     OW14851   6.311   3.874   6.635
 4651SOL    HW114852   6.322   3.821   6.550
 4651SOL    HW214853   6.390   3.933   6.647
 4652SOL     OW14854   5.960   6.069   4.636
 4652SOL    HW114855   5.988   6.004   4.565
 4652SOL    HW214856   5.947   6.159   4.595
 4653SOL     OW14857   5.297   5.818   1.173
 4653SOL    HW114858   5.294   5.918   1.167
 4653SOL    HW214859   5.215   5.785   1.219
 4654SOL     OW14860   0.708   5.931   6.154
 4654SOL    HW114861   0.714   5.974   6.244
 4654SOL    HW214862   0.703   6.001   6.083
 4655SOL     OW14863   5.910   3.603   0.964
 4655SOL    HW114864   5.916   3.600   0.864
 4655SOL    HW214865   5.864   3.687   0.993
 4656SOL     OW14866   1.281   0.872   1.528
 4656SOL    HW114867   1.194   0.909   1.560
 4656SOL    HW214868   1.269   0.835   1.435
 4657SOL     OW14869   4.529   5.781   1.481
 4657SOL    HW114870   4.478   5.713   1.534
 4657SOL    HW214871   4.518   5.871   1.523
 4658SOL     OW14872   3.069   0.247   4.529
 4658SOL    HW114873   3.134   0.175   4.504
 4658SOL    HW214874   2.984   0.205   4.560
 4659SOL     OW14875   2.541   4.290   5.723
 4659SOL    HW114876   2.463   4.307   5.663
 4659SOL    HW214877   2.531   4.200   5.766
 4660SOL     OW14878   0.821   6.012   4.914
 4660SOL    HW114879   0.824   5.970   5.005
 4660SOL    HW214880   0.906   5.996   4.866
 4661SOL     OW14881   3.507   4.064   6.465
 4661SOL    HW114882   3.489   4.100   6.373
 4661SOL    HW214883   3.433   4.092   6.526
 4662SOL     OW14884   2.766   0.220   5.615
 4662SOL    HW114885   2.783   0.319   5.605
 4662SOL    HW214886   2.782   0.175   5.528
 4663SOL     OW14887   0.450   1.143   1.360
 4663SOL    HW114888   0.536   1.194   1.352
 4663SOL    HW214889   0.466   1.048   1.335
 4664SOL     OW14890   1.271   1.048   0.440
 4664SOL    HW114891   1.309   0.966   0.484
 4664SOL    HW214892   1.196   1.021   0.380
 4665SOL     OW14893   3.893   6.766   6.382
 4665SOL    HW114894   3.976   6.808   6.419
 4665SOL    HW214895   3.843   6.721   6.455
 4666SOL     OW14896   2.730   2.662   6.865
 4666SOL    HW114897   2.708   2.649   6.961
 4666SOL    HW214898   2.704   2.755   6.837
 4667SOL     OW14899   6.418   3.890   2.008
 4667SOL    HW114900   6.504   3.934   1.982
 4667SOL    HW214901   6.437   3.796   2.036
 4668SOL     OW14902   5.106   1.304   3.568
 4668SOL    HW114903   5.168   1.297   3.647
 4668SOL    HW214904   5.119   1.392   3.523
 4669SOL     OW14905   4.607   6.102   0.717
 4669SOL    HW114906   4.531   6.075   0.776
 4669SOL    HW214907   4.575   6.168   0.650
 4670SOL     OW14908   1.457   2.295   6.317
 4670SOL    HW114909   1.436   2.392   6.331
 4670SOL    HW214910   1.455   2.247   6.405
 4671SOL     OW14911   1.054   3.462   6.567
 4671SOL    HW114912   1.151   3.454   6.547
 4671SOL    HW214913   1.005   3.492   6.484
 4672SOL     OW14914   2.685   4.871   5.712
 4672SOL    HW114915   2.710   4.832   5.801
 4672SOL    HW214916   2.749   4.839   5.642
 4673SOL     OW14917   5.102   6.912   1.649
 4673SOL    HW114918   5.156   6.877   1.726
 4673SOL    HW214919   5.050   6.993   1.679
 4674SOL     OW14920   5.034   1.236   0.289
 4674SOL    HW114921   4.959   1.221   0.352
 4674SOL    HW214922   5.096   1.158   0.291
 4675SOL     OW14923   2.335   0.921   0.415
 4675SOL    HW114924   2.317   0.996   0.352
 4675SOL    HW214925   2.335   0.955   0.509
 4676SOL     OW14926   6.395   6.465   3.986
 4676SOL    HW114927   6.461   6.404   3.942
 4676SOL    HW214928   6.328   6.496   3.918
 4677SOL     OW14929   2.621   0.867   0.124
 4677SOL    HW114930   2.710   0.870   0.169
 4677SOL    HW214931   2.598   0.958   0.090
 4678SOL     OW14932   1.848   4.223   2.795
 4678SOL    HW114933   1.905   4.186   2.722
 4678SOL    HW214934   1.885   4.195   2.883
 4679SOL     OW14935   3.518   1.462   0.091
 4679SOL    HW114936   3.502   1.549   0.045
 4679SOL    HW214937   3.604   1.422   0.058
 4680SOL     OW14938   2.215   1.090   1.556
 4680SOL    HW114939   2.154   1.059   1.629
 4680SOL    HW214940   2.309   1.094   1.590
 4681SOL     OW14941   6.024   5.762   5.731
 4681SOL    HW114942   6.013   5.769   5.830
 4681SOL    HW214943   6.116   5.791   5.706
 4682SOL     OW14944   4.253   4.437   6.248
 4682SOL    HW114945   4.340   4.474   6.280
 4682SOL    HW214946   4.257   4.423   6.149
 4683SOL     OW14947   4.271   4.635   2.593
 4683SOL    HW114948   4.274   4.574   2.672
 4683SOL    HW214949   4.314   4.722   2.617
 4684SOL     OW14950   0.001   1.759   4.687
 4684SOL    HW114951   7.010   1.727   4.780
 4684SOL    HW214952   0.026   1.856   4.688
 4685SOL     OW14953   0.263   6.505   5.109
 4685SOL    HW114954   0.354   6.521   5.146
 4685SOL    HW214955   0.234   6.584   5.055
 4686SOL     OW14956   5.435   5.419   0.371
 4686SOL    HW114957   5.498   5.475   0.425
 4686SOL    HW214958   5.488   5.361   0.309
 4687SOL     OW14959   6.712   4.878   5.246
 4687SOL    HW114960   6.700   4.977   5.250
 4687SOL    HW214961   6.752   4.853   5.157
 4688SOL     OW14962   6.418   3.749   5.519
 4688SOL    HW114963   6.478   3.699   5.456
 4688SOL    HW214964   6.425   3.847   5.500
 4689SOL     OW14965   5.994   0.743   0.241
 4689SOL    HW114966   5.927   0.768   0.311
 4689SOL    HW214967   5.961   0.772   0.151
 4690SOL     OW14968   1.217   0.884   6.961
 4690SOL    HW114969   1.284   0.957   6.975
 4690SOL    HW214970   1.131   0.924   6.930
 4691SOL     OW14971   2.938   4.790   2.128
 4691SOL    HW114972   2.942   4.879   2.084
 4691SOL    HW214973   2.880   4.729   2.075
 4692SOL     OW14974   6.729   5.908   2.293
 4692SOL    HW114975   6.756   5.903   2.197
 4692SOL    HW214976   6.716   5.816   2.330
 4693SOL     OW14977   0.921   0.502   3.713
 4693SOL    HW114978   0.946   0.414   3.753
 4693SOL    HW214979   0.822   0.516   3.721
 4694SOL     OW14980   2.649   0.771   0.657
 4694SOL    HW114981   2.654   0.680   0.698
 4694SOL    HW214982   2.615   0.763   0.563
 4695SOL     OW14983   2.385   3.308   1.605
 4695SOL    HW114984   2.398   3.351   1.694
 4695SOL    HW214985   2.454   3.342   1.541
 4696SOL     OW14986   0.448   4.277   5.816
 4696SOL    HW114987   0.488   4.354   5.767
 4696SOL    HW214988   0.360   4.304   5.854
 4697SOL     OW14989   2.421   2.691   0.605
 4697SOL    HW114990   2.357   2.616   0.619
 4697SOL    HW214991   2.406   2.732   0.515
 4698SOL     OW14992   3.953   5.989   2.834
 4698SOL    HW114993   3.997   5.914   2.785
 4698SOL    HW214994   3.911   5.953   2.917
 4699SOL     OW14995   0.938   6.184   1.914
 4699SOL    HW114996   0.984   6.239   1.984
 4699SOL    HW214997   0.843   6.214   1.904
 4700SOL     OW14998   6.638   1.499   2.570
 4700SOL    HW114999   6.737   1.487   2.561
 4700SOL    HW215000   6.591   1.425   2.522
 4701SOL     OW15001   2.279   2.254   1.035
 4701SOL    HW115002   2.288   2.350   1.062
 4701SOL    HW215003   2.341   2.198   1.089
 4702SOL     OW15004   5.751   4.764   6.647
 4702SOL    HW115005   5.700   4.696   6.594
 4702SOL    HW215006   5.736   4.855   6.608
 4703SOL     OW15007   1.315   2.699   1.958
 4703SOL    HW115008   1.223   2.714   1.992
 4703SOL    HW215009   1.381   2.724   2.029
 4704SOL     OW15010   1.080   6.794   6.983
 4704SOL    HW115011   1.136   6.796   6.900
 4704SOL    HW215012   1.050   6.700   7.000
 4705SOL     OW15013   3.296   3.268   2.518
 4705SOL    HW115014   3.312   3.184   2.570
 4705SOL    HW215015   3.296   3.248   2.420
 4706SOL     OW15016   3.830   6.463   6.050
 4706SOL    HW115017   3.910   6.504   6.094
 4706SOL    HW215018   3.838   6.363   6.052
 4707SOL     OW15019   2.972   5.786   0.898
 4707SOL    HW115020   3.028   5.712   0.936
 4707SOL    HW215021   2.906   5.748   0.834
 4708SOL     OW15022   1.422   2.566   6.363
 4708SOL    HW115023   1.378   2.592   6.449
 4708SOL    HW215024   1.387   2.623   6.289
 4709SOL     OW15025   4.355   6.141   5.783
 4709SOL    HW115026   4.283   6.194   5.828
 4709SOL    HW215027   4.319   6.050   5.761
 4710SOL     OW15028   3.856   1.225   5.890
 4710SOL    HW115029   3.874   1.222   5.988
 4710SOL    HW215030   3.855   1.132   5.853
 4711SOL     OW15031   5.579   1.057   2.003
 4711SOL    HW115032   5.615   0.974   1.961
 4711SOL    HW215033   5.503   1.092   1.948
 4712SOL     OW15034   3.436   3.899   0.219
 4712SOL    HW115035   3.362   3.832   0.216
 4712SOL    HW215036   3.468   3.910   0.313
 4713SOL     OW15037   3.331   3.411   1.312
 4713SOL    HW115038   3.423   3.381   1.335
 4713SOL    HW215039   3.327   3.511   1.316
 4714SOL     OW15040   1.632   2.535   6.860
 4714SOL    HW115041   1.673   2.607   6.804
 4714SOL    HW215042   1.536   2.526   6.838
 4715SOL     OW15043   6.654   3.122   1.690
 4715SOL    HW115044   6.647   3.029   1.653
 4715SOL    HW215045   6.616   3.124   1.782
 4716SOL     OW15046   4.590   6.352   6.408
 4716SOL    HW115047   4.598   6.253   6.406
 4716SOL    HW215048   4.635   6.391   6.327
 4717SOL     OW15049   0.035   6.474   3.332
 4717SOL    HW115050   0.053   6.422   3.249
 4717SOL    HW215051   0.025   6.571   3.309
 4718SOL     OW15052   5.538   2.203   0.758
 4718SOL    HW115053   5.470   2.243   0.698
 4718SOL    HW215054   5.605   2.273   0.783
 4719SOL     OW15055   5.266   3.027   2.348
 4719SOL    HW115056   5.225   3.108   2.309
 4719SOL    HW215057   5.364   3.025   2.327
 4720SOL     OW15058   1.838   5.695   5.336
 4720SOL    HW115059   1.933   5.709   5.308
 4720SOL    HW215060   1.809   5.770   5.396
 4721SOL     OW15061   6.706   2.368   1.070
 4721SOL    HW115062   6.694   2.464   1.097
 4721SOL    HW215063   6.619   2.332   1.036
 4722SOL     OW15064   0.921   6.132   6.648
 4722SOL    HW115065   0.962   6.101   6.734
 4722SOL    HW215066   0.867   6.214   6.666
 4723SOL     OW15067   1.438   4.831   5.682
 4723SOL    HW115068   1.471   4.791   5.767
 4723SOL    HW215069   1.493   4.911   5.660
 4724SOL     OW15070   5.180   6.148   2.999
 4724SOL    HW115071   5.188   6.081   3.073
 4724SOL    HW215072   5.083   6.170   2.985
 4725SOL     OW15073   6.266   6.606   2.657
 4725SOL    HW115074   6.190   6.611   2.721
 4725SOL    HW215075   6.347   6.568   2.703
 4726SOL     OW15076   1.603   2.956   6.319
 4726SOL    HW115077   1.622   3.054   6.327
 4726SOL    HW215078   1.521   2.934   6.371
 4727SOL     OW15079   0.836   6.238   0.009
 4727SOL    HW115080   0.826   6.263   6.937
 4727SOL    HW215081   0.746   6.239   0.053
 4728SOL     OW15082   5.163   0.482   0.608
 4728SOL    HW115083   5.158   0.578   0.635
 4728SOL    HW215084   5.168   0.476   0.508
 4729SOL     OW15085   2.348   1.636   1.854
 4729SOL    HW115086   2.316   1.694   1.779
 4729SOL    HW215087   2.428   1.585   1.825
 4730SOL     OW15088   3.090   6.007   4.707
 4730SOL    HW115089   3.112   5.929   4.766
 4730SOL    HW215090   2.993   6.002   4.681
 4731SOL     OW15091   4.280   0.196   6.019
 4731SOL    HW115092   4.230   0.109   6.018
 4731SOL    HW215093   4.335   0.202   6.102
 4732SOL     OW15094   0.331   3.668   5.483
 4732SOL    HW115095   0.281   3.748   5.450
 4732SOL    HW215096   0.414   3.697   5.531
 4733SOL     OW15097   1.543   4.330   3.758
 4733SOL    HW115098   1.633   4.373   3.755
 4733SOL    HW215099   1.500   4.335   3.668
 4734SOL     OW15100   5.176   2.538   6.492
 4734SOL    HW115101   5.268   2.567   6.467
 4734SOL    HW215102   5.131   2.610   6.545
 4735SOL     OW15103   0.316   6.217   4.383
 4735SOL    HW115104   0.249   6.227   4.309
 4735SOL    HW215105   0.398   6.270   4.361
 4736SOL     OW15106   6.807   1.941   6.669
 4736SOL    HW115107   6.753   2.023   6.649
 4736SOL    HW215108   6.874   1.926   6.597
 4737SOL     OW15109   1.818   4.930   2.230
 4737SOL    HW115110   1.856   4.855   2.284
 4737SOL    HW215111   1.819   4.905   2.133
 4738SOL     OW15112   6.701   6.201   2.912
 4738SOL    HW115113   6.756   6.271   2.866
 4738SOL    HW215114   6.760   6.143   2.968
 4739SOL     OW15115   4.721   6.647   3.277
 4739SOL    HW115116   4.712   6.560   3.325
 4739SOL    HW215117   4.790   6.637   3.205
 4740SOL     OW15118   1.155   1.694   0.741
 4740SOL    HW115119   1.085   1.761   0.717
 4740SOL    HW215120   1.213   1.730   0.813
 4741SOL     OW15121   3.566   2.836   1.962
 4741SOL    HW115122   3.503   2.879   1.898
 4741SOL    HW215123   3.655   2.883   1.958
 4742SOL     OW15124   2.562   6.476   5.373
 4742SOL    HW115125   2.480   6.420   5.360
 4742SOL    HW215126   2.543   6.548   5.440
 4743SOL     OW15127   2.177   4.012   3.119
 4743SOL    HW115128   2.181   3.913   3.132
 4743SOL    HW215129   2.233   4.038   3.040
 4744SOL     OW15130   2.377   4.879   0.644
 4744SOL    HW115131   2.461   4.841   0.683
 4744SOL    HW215132   2.298   4.842   0.692
 4745SOL     OW15133   2.991   3.984   6.280
 4745SOL    HW115134   2.907   3.991   6.334
 4745SOL    HW215135   3.049   3.911   6.318
 4746SOL     OW15136   4.665   6.526   3.618
 4746SOL    HW115137   4.622   6.613   3.640
 4746SOL    HW215138   4.748   6.515   3.673
 4747SOL     OW15139   1.537   3.784   0.042
 4747SOL    HW115140   1.573   3.788   6.973
 4747SOL    HW215141   1.534   3.876   0.081
 4748SOL     OW15142   1.808   5.598   1.189
 4748SOL    HW115143   1.898   5.563   1.215
 4748SOL    HW215144   1.738   5.560   1.250
 4749SOL     OW15145   2.133   6.599   6.541
 4749SOL    HW115146   2.110   6.627   6.447
 4749SOL    HW215147   2.090   6.512   6.561
 4750SOL     OW15148   6.905   3.500   4.957
 4750SOL    HW115149   6.916   3.403   4.935
 4750SOL    HW215150   6.807   3.520   4.969
 4751SOL     OW15151   4.261   2.115   3.190
 4751SOL    HW115152   4.276   2.106   3.289
 4751SOL    HW215153   4.313   2.193   3.155
 4752SOL     OW15154   4.874   1.273   0.065
 4752SOL    HW115155   4.927   1.238   0.143
 4752SOL    HW215156   4.793   1.321   0.098
 4753SOL     OW15157   0.646   0.340   4.486
 4753SOL    HW115158   0.700   0.300   4.412
 4753SOL    HW215159   0.591   0.268   4.529
 4754SOL     OW15160   5.390   4.386   4.438
 4754SOL    HW115161   5.371   4.306   4.381
 4754SOL    HW215162   5.455   4.446   4.391
 4755SOL     OW15163   2.716   1.105   0.424
 4755SOL    HW115164   2.728   1.037   0.352
 4755SOL    HW215165   2.689   1.059   0.509
 4756SOL     OW15166   6.046   3.696   6.067
 4756SOL    HW115167   5.964   3.744   6.034
 4756SOL    HW215168   6.073   3.627   6.000
 4757SOL     OW15169   2.364   2.470   1.281
 4757SOL    HW115170   2.265   2.463   1.295
 4757SOL    HW215171   2.407   2.509   1.362
 4758SOL     OW15172   1.512   6.630   3.036
 4758SOL    HW115173   1.513   6.701   2.966
 4758SOL    HW215174   1.572   6.555   3.009
 4759SOL     OW15175   0.839   4.924   6.229
 4759SOL    HW115176   0.824   4.841   6.177
 4759SOL    HW215177   0.890   4.990   6.173
 4760SOL     OW15178   2.039   1.836   0.454
 4760SOL    HW115179   2.081   1.813   0.541
 4760SOL    HW215180   1.948   1.875   0.470
 4761SOL     OW15181   1.122   6.771   0.218
 4761SOL    HW115182   1.115   6.805   0.125
 4761SOL    HW215183   1.068   6.688   0.229
 4762SOL     OW15184   1.216   5.397   2.147
 4762SOL    HW115185   1.237   5.477   2.204
 4762SOL    HW215186   1.273   5.320   2.177
 4763SOL     OW15187   5.020   0.657   2.749
 4763SOL    HW115188   4.929   0.687   2.719
 4763SOL    HW215189   5.074   0.737   2.777
 4764SOL     OW15190   4.266   3.923   5.278
 4764SOL    HW115191   4.250   3.837   5.325
 4764SOL    HW215192   4.213   3.926   5.193
 4765SOL     OW15193   3.443   0.992   5.595
 4765SOL    HW115194   3.359   0.939   5.596
 4765SOL    HW215195   3.437   1.063   5.526
 4766SOL     OW15196   5.513   5.389   3.599
 4766SOL    HW115197   5.612   5.378   3.612
 4766SOL    HW215198   5.465   5.354   3.679
 4767SOL     OW15199   3.183   5.006   4.824
 4767SOL    HW115200   3.184   4.975   4.729
 4767SOL    HW215201   3.169   5.105   4.827
 4768SOL     OW15202   4.052   2.634   6.261
 4768SOL    HW115203   4.141   2.632   6.306
 4768SOL    HW215204   4.045   2.556   6.199
 4769SOL     OW15205   4.506   5.531   0.487
 4769SOL    HW115206   4.451   5.602   0.531
 4769SOL    HW215207   4.591   5.571   0.452
 4770SOL     OW15208   0.395   2.099   4.467
 4770SOL    HW115209   0.430   2.187   4.498
 4770SOL    HW215210   0.345   2.111   4.381
 4771SOL     OW15211   2.923   6.494   5.893
 4771SOL    HW115212   2.830   6.531   5.897
 4771SOL    HW215213   2.930   6.416   5.954
 4772SOL     OW15214   3.748   4.871   6.984
 4772SOL    HW115215   3.818   4.805   7.011
 4772SOL    HW215216   3.703   4.908   0.040
 4773SOL     OW15217   0.518   5.010   5.492
 4773SOL    HW115218   0.519   4.975   5.586
 4773SOL    HW215219   0.564   5.099   5.491
 4774SOL     OW15220   1.489   3.922   0.834
 4774SOL    HW115221   1.420   3.928   0.762
 4774SOL    HW215222   1.504   4.013   0.873
 4775SOL     OW15223   5.261   6.258   3.459
 4775SOL    HW115224   5.228   6.315   3.384
 4775SOL    HW215225   5.328   6.192   3.424
 4776SOL     OW15226   0.900   0.437   5.226
 4776SOL    HW115227   0.868   0.358   5.278
 4776SOL    HW215228   0.822   0.493   5.198
 4777SOL     OW15229   1.740   5.113   0.471
 4777SOL    HW115230   1.816   5.147   0.527
 4777SOL    HW215231   1.675   5.188   0.454
 4778SOL     OW15232   6.798   2.677   4.695
 4778SOL    HW115233   6.702   2.702   4.705
 4778SOL    HW215234   6.830   2.700   4.604
 4779SOL     OW15235   5.354   0.223   3.584
 4779SOL    HW115236   5.328   0.288   3.513
 4779SOL    HW215237   5.360   0.270   3.672
 4780SOL     OW15238   6.437   3.094   6.931
 4780SOL    HW115239   6.387   3.047   6.858
 4780SOL    HW215240   6.402   3.187   6.941
 4781SOL     OW15241   2.924   5.064   2.038
 4781SOL    HW115242   2.933   5.161   2.063
 4781SOL    HW215243   2.836   5.050   1.994
 4782SOL     OW15244   6.136   5.095   6.816
 4782SOL    HW115245   6.221   5.137   6.782
 4782SOL    HW215246   6.089   5.160   6.876
 4783SOL     OW15247   5.400   3.387   6.632
 4783SOL    HW115248   5.453   3.334   6.566
 4783SOL    HW215249   5.303   3.367   6.620
 4784SOL     OW15250   6.444   1.902   6.525
 4784SOL    HW115251   6.349   1.924   6.504
 4784SOL    HW215252   6.491   1.983   6.560
 4785SOL     OW15253   0.339   6.083   3.135
 4785SOL    HW115254   0.269   6.132   3.083
 4785SOL    HW215255   0.428   6.097   3.091
 4786SOL     OW15256   2.604   6.939   0.240
 4786SOL    HW115257   2.576   6.874   0.170
 4786SOL    HW215258   2.569   0.005   0.217
 4787SOL     OW15259   3.769   1.866   2.813
 4787SOL    HW115260   3.818   1.952   2.793
 4787SOL    HW215261   3.672   1.886   2.827
 4788SOL     OW15262   6.991   6.736   0.399
 4788SOL    HW115263   0.011   6.648   0.413
 4788SOL    HW215264   6.969   6.777   0.488
 4789SOL     OW15265   5.037   1.152   1.753
 4789SOL    HW115266   5.115   1.176   1.812
 4789SOL    HW215267   5.000   1.235   1.713
 4790SOL     OW15268   6.083   1.482   5.571
 4790SOL    HW115269   6.129   1.540   5.638
 4790SOL    HW215270   6.078   1.388   5.606
 4791SOL     OW15271   6.882   2.975   1.610
 4791SOL    HW115272   6.829   3.059   1.611
 4791SOL    HW215273   6.977   2.996   1.586
 4792SOL     OW15274   2.512   4.488   3.917
 4792SOL    HW115275   2.493   4.578   3.878
 4792SOL    HW215276   2.491   4.418   3.849
 4793SOL     OW15277   1.537   2.772   5.409
 4793SOL    HW115278   1.627   2.729   5.421
 4793SOL    HW215279   1.549   2.870   5.394
 4794SOL     OW15280   4.576   0.153   4.298
 4794SOL    HW115281   4.576   0.223   4.227
 4794SOL    HW215282   4.665   0.107   4.299
 4795SOL     OW15283   6.263   1.579   4.501
 4795SOL    HW115284   6.351   1.562   4.457
 4795SOL    HW215285   6.277   1.627   4.587
 4796SOL     OW15286   3.878   0.967   5.803
 4796SOL    HW115287   3.891   0.902   5.877
 4796SOL    HW215288   3.940   0.944   5.728
 4797SOL     OW15289   0.197   6.719   4.949
 4797SOL    HW115290   0.140   6.797   4.974
 4797SOL    HW215291   0.215   6.721   4.851
 4798SOL     OW15292   0.201   4.612   5.883
 4798SOL    HW115293   0.178   4.516   5.900
 4798SOL    HW215294   0.121   4.659   5.846
 4799SOL     OW15295   4.425   1.729   0.549
 4799SOL    HW115296   4.507   1.729   0.605
 4799SOL    HW215297   4.448   1.761   0.457
 4800SOL     OW15298   2.048   3.265   6.602
 4800SOL    HW115299   2.117   3.216   6.549
 4800SOL    HW215300   1.957   3.247   6.565
 4801SOL     OW15301   3.217   2.589   0.054
 4801SOL    HW115302   3.139   2.590   7.016
 4801SOL    HW215303   3.280   2.516   0.027
 4802SOL     OW15304   0.749   6.773   1.872
 4802SOL    HW115305   0.761   6.790   1.970
 4802SOL    HW215306   0.651   6.772   1.850
 4803SOL     OW15307   0.467   4.218   0.554
 4803SOL    HW115308   0.448   4.124   0.529
 4803SOL    HW215309   0.521   4.262   0.482
 4804SOL     OW15310   6.446   6.191   1.730
 4804SOL    HW115311   6.462   6.104   1.682
 4804SOL    HW215312   6.449   6.266   1.664
 4805SOL     OW15313   6.135   1.148   2.693
 4805SOL    HW115314   6.094   1.118   2.607
 4805SOL    HW215315   6.234   1.158   2.681
 4806SOL     OW15316   0.872   4.348   2.910
 4806SOL    HW115317   0.897   4.368   2.815
 4806SOL    HW215318   0.774   4.335   2.916
 4807SOL     OW15319   0.723   4.981   6.606
 4807SOL    HW115320   0.787   5.057   6.612
 4807SOL    HW215321   0.649   5.005   6.543
 4808SOL     OW15322   4.080   5.437   0.672
 4808SOL    HW115323   4.066   5.434   0.573
 4808SOL    HW215324   4.177   5.424   0.692
 4809SOL     OW15325   3.703   4.523   0.996
 4809SOL    HW115326   3.739   4.616   0.989
 4809SOL    HW215327   3.669   4.507   1.089
 4810SOL     OW15328   1.434   4.077   3.396
 4810SOL    HW115329   1.351   4.024   3.412
 4810SOL    HW215330   1.429   4.163   3.447
 4811SOL     OW15331   3.732   3.438   2.878
 4811SOL    HW115332   3.816   3.492   2.869
 4811SOL    HW215333   3.750   3.344   2.851
 4812SOL     OW15334   0.729   0.516   2.295
 4812SOL    HW115335   0.784   0.523   2.212
 4812SOL    HW215336   0.787   0.534   2.375
 4813SOL     OW15337   5.967   1.529   6.731
 4813SOL    HW115338   5.874   1.494   6.736
 4813SOL    HW215339   6.032   1.454   6.738
 4814SOL     OW15340   6.776   2.988   1.273
 4814SOL    HW115341   6.826   2.913   1.316
 4814SOL    HW215342   6.697   2.952   1.224
 4815SOL     OW15343   5.513   4.196   3.228
 4815SOL    HW115344   5.613   4.196   3.223
 4815SOL    HW215345   5.476   4.197   3.135
 4816SOL     OW15346   2.400   5.510   1.082
 4816SOL    HW115347   2.453   5.593   1.065
 4816SOL    HW215348   2.454   5.430   1.053
 4817SOL     OW15349   2.250   1.213   1.252
 4817SOL    HW115350   2.324   1.278   1.230
 4817SOL    HW215351   2.290   1.131   1.294
 4818SOL     OW15352   0.862   1.167   4.420
 4818SOL    HW115353   0.831   1.074   4.436
 4818SOL    HW215354   0.878   1.181   4.322
 4819SOL     OW15355   2.458   2.395   1.628
 4819SOL    HW115356   2.485   2.465   1.562
 4819SOL    HW215357   2.502   2.413   1.716
 4820SOL     OW15358   6.616   1.739   1.147
 4820SOL    HW115359   6.701   1.789   1.160
 4820SOL    HW215360   6.634   1.640   1.150
 4821SOL     OW15361   0.213   0.677   1.364
 4821SOL    HW115362   0.294   0.661   1.308
 4821SOL    HW215363   0.217   0.770   1.402
 4822SOL     OW15364   1.797   3.190   3.602
 4822SOL    HW115365   1.703   3.219   3.621
 4822SOL    HW215366   1.859   3.267   3.617
 4823SOL     OW15367   0.899   1.494   3.876
 4823SOL    HW115368   0.839   1.555   3.928
 4823SOL    HW215369   0.847   1.453   3.800
 4824SOL     OW15370   5.755   1.821   4.348
 4824SOL    HW115371   5.776   1.764   4.268
 4824SOL    HW215372   5.785   1.915   4.331
 4825SOL     OW15373   1.726   2.566   4.618
 4825SOL    HW115374   1.734   2.649   4.673
 4825SOL    HW215375   1.787   2.496   4.655
 4826SOL     OW15376   0.296   0.361   6.057
 4826SOL    HW115377   0.266   0.265   6.057
 4826SOL    HW215378   0.265   0.405   5.973
 4827SOL     OW15379   5.975   2.105   1.807
 4827SOL    HW115380   6.032   2.185   1.789
 4827SOL    HW215381   6.018   2.050   1.879
 4828SOL     OW15382   5.571   3.138   1.060
 4828SOL    HW115383   5.597   3.229   1.028
 4828SOL    HW215384   5.625   3.115   1.141
 4829SOL     OW15385   3.860   6.698   6.876
 4829SOL    HW115386   3.767   6.691   6.841
 4829SOL    HW215387   3.906   6.610   6.863
 4830SOL     OW15388   4.893   6.456   3.773
 4830SOL    HW115389   4.951   6.435   3.852
 4830SOL    HW215390   4.932   6.414   3.691
 4831SOL     OW15391   0.327   4.825   6.562
 4831SOL    HW115392   0.312   4.755   6.492
 4831SOL    HW215393   0.335   4.782   6.652
 4832SOL     OW15394   2.592   2.710   5.549
 4832SOL    HW115395   2.593   2.728   5.451
 4832SOL    HW215396   2.498   2.697   5.580
 4833SOL     OW15397   4.815   1.073   2.433
 4833SOL    HW115398   4.884   1.012   2.395
 4833SOL    HW215399   4.792   1.045   2.526
 4834SOL     OW15400   3.650   0.558   0.943
 4834SOL    HW115401   3.641   0.459   0.933
 4834SOL    HW215402   3.698   0.595   0.864
 4835SOL     OW15403   0.610   1.643   6.463
 4835SOL    HW115404   0.605   1.709   6.388
 4835SOL    HW215405   0.668   1.566   6.435
 4836SOL     OW15406   5.055   2.494   3.765
 4836SOL    HW115407   4.989   2.500   3.841
 4836SOL    HW215408   5.017   2.541   3.685
 4837SOL     OW15409   4.932   3.415   1.879
 4837SOL    HW115410   4.937   3.510   1.847
 4837SOL    HW215411   4.853   3.370   1.837
 4838SOL     OW15412   0.986   4.757   1.615
 4838SOL    HW115413   1.057   4.690   1.592
 4838SOL    HW215414   0.987   4.832   1.549
 4839SOL     OW15415   1.226   3.259   5.806
 4839SOL    HW115416   1.156   3.288   5.871
 4839SOL    HW215417   1.218   3.161   5.789
 4840SOL     OW15418   0.975   6.052   5.702
 4840SOL    HW115419   1.022   6.136   5.729
 4840SOL    HW215420   0.876   6.067   5.704
 4841SOL     OW15421   3.008   6.304   1.526
 4841SOL    HW115422   3.063   6.251   1.463
 4841SOL    HW215423   3.017   6.267   1.619
 4842SOL     OW15424   3.162   5.024   1.899
 4842SOL    HW115425   3.075   5.044   1.944
 4842SOL    HW215426   3.234   5.017   1.969
 4843SOL     OW15427   6.117   3.098   0.601
 4843SOL    HW115428   6.046   3.159   0.635
 4843SOL    HW215429   6.074   3.015   0.564
 4844SOL     OW15430   6.801   3.661   5.365
 4844SOL    HW115431   6.845   3.750   5.368
 4844SOL    HW215432   6.707   3.671   5.335
 4845SOL     OW15433   6.273   5.611   4.914
 4845SOL    HW115434   6.220   5.581   4.993
 4845SOL    HW215435   6.356   5.658   4.945
 4846SOL     OW15436   6.398   3.132   3.157
 4846SOL    HW115437   6.352   3.063   3.213
 4846SOL    HW215438   6.454   3.191   3.215
 4847SOL     OW15439   3.032   1.347   6.031
 4847SOL    HW115440   3.004   1.257   6.065
 4847SOL    HW215441   2.986   1.365   5.944
 4848SOL     OW15442   1.422   1.301   4.224
 4848SOL    HW115443   1.378   1.234   4.285
 4848SOL    HW215444   1.456   1.378   4.278
 4849SOL     OW15445   1.182   6.614   6.469
 4849SOL    HW115446   1.261   6.641   6.524
 4849SOL    HW215447   1.143   6.694   6.425
 4850SOL     OW15448   3.867   1.607   2.735
 4850SOL    HW115449   3.809   1.688   2.743
 4850SOL    HW215450   3.814   1.526   2.758
 4851SOL     OW15451   4.075   6.137   5.568
 4851SOL    HW115452   4.162   6.093   5.589
 4851SOL    HW215453   4.029   6.087   5.495
 4852SOL     OW15454   1.234   0.132   5.383
 4852SOL    HW115455   1.228   0.075   5.464
 4852SOL    HW215456   1.302   0.203   5.397
 4853SOL     OW15457   2.902   1.261   3.217
 4853SOL    HW115458   2.921   1.195   3.144
 4853SOL    HW215459   2.894   1.213   3.304
 4854SOL     OW15460   5.361   6.893   1.840
 4854SOL    HW115461   5.414   6.870   1.921
 4854SOL    HW215462   5.331   6.988   1.845
 4855SOL     OW15463   6.556   2.940   2.653
 4855SOL    HW115464   6.466   2.939   2.698
 4855SOL    HW215465   6.569   2.855   2.603
 4856SOL     OW15466   1.840   3.982   2.151
 4856SOL    HW115467   1.800   3.953   2.239
 4856SOL    HW215468   1.766   4.001   2.086
 4857SOL     OW15469   1.629   2.415   5.541
 4857SOL    HW115470   1.706   2.477   5.557
 4857SOL    HW215471   1.575   2.448   5.463
 4858SOL     OW15472   1.132   0.988   4.721
 4858SOL    HW115473   1.220   1.007   4.678
 4858SOL    HW215474   1.074   1.069   4.714
 4859SOL     OW15475   1.045   0.753   4.613
 4859SOL    HW115476   1.102   0.686   4.660
 4859SOL    HW215477   1.058   0.843   4.654
 4860SOL     OW15478   3.892   4.418   1.334
 4860SOL    HW115479   3.802   4.453   1.307
 4860SOL    HW215480   3.909   4.442   1.429
 4861SOL     OW15481   5.065   4.843   6.832
 4861SOL    HW115482   5.100   4.843   6.738
 4861SOL    HW215483   4.993   4.912   6.840
 4862SOL     OW15484   2.816   4.740   4.777
 4862SOL    HW115485   2.824   4.681   4.857
 4862SOL    HW215486   2.863   4.698   4.699
 4863SOL     OW15487   6.293   3.846   2.249
 4863SOL    HW115488   6.321   3.881   2.160
 4863SOL    HW215489   6.349   3.889   2.320
 4864SOL     OW15490   3.947   1.128   3.444
 4864SOL    HW115491   3.859   1.099   3.408
 4864SOL    HW215492   3.977   1.064   3.515
 4865SOL     OW15493   1.901   0.661   5.221
 4865SOL    HW115494   1.973   0.674   5.290
 4865SOL    HW215495   1.815   0.699   5.255
 4866SOL     OW15496   6.346   1.609   1.039
 4866SOL    HW115497   6.417   1.635   1.105
 4866SOL    HW215498   6.376   1.632   0.947
 4867SOL     OW15499   3.549   5.337   2.327
 4867SOL    HW115500   3.501   5.420   2.299
 4867SOL    HW215501   3.579   5.347   2.422
 4868SOL     OW15502   6.411   4.773   2.342
 4868SOL    HW115503   6.345   4.739   2.409
 4868SOL    HW215504   6.367   4.779   2.252
 4869SOL     OW15505   1.108   1.767   2.197
 4869SOL    HW115506   1.147   1.782   2.106
 4869SOL    HW215507   1.167   1.704   2.248
 4870SOL     OW15508   0.404   6.358   1.664
 4870SOL    HW115509   0.503   6.354   1.654
 4870SOL    HW215510   0.367   6.433   1.609
 4871SOL     OW15511   1.333   0.854   4.041
 4871SOL    HW115512   1.389   0.799   3.979
 4871SOL    HW215513   1.248   0.880   3.996
 4872SOL     OW15514   6.255   0.051   3.778
 4872SOL    HW115515   6.291   7.019   3.853
 4872SOL    HW215516   6.158   0.030   3.764
 4873SOL     OW15517   6.282   5.347   4.005
 4873SOL    HW115518   6.373   5.337   3.966
 4873SOL    HW215519   6.260   5.264   4.057
 4874SOL     OW15520   6.402   3.327   2.925
 4874SOL    HW115521   6.442   3.272   2.998
 4874SOL    HW215522   6.424   3.287   2.836
 4875SOL     OW15523   5.774   1.593   0.793
 4875SOL    HW115524   5.797   1.689   0.774
 4875SOL    HW215525   5.681   1.588   0.831
 4876SOL     OW15526   5.759   2.462   2.877
 4876SOL    HW115527   5.710   2.484   2.962
 4876SOL    HW215528   5.854   2.491   2.885
 4877SOL     OW15529   1.543   1.891   6.394
 4877SOL    HW115530   1.543   1.866   6.297
 4877SOL    HW215531   1.578   1.814   6.448
 4878SOL     OW15532   6.178   1.126   2.083
 4878SOL    HW115533   6.091   1.084   2.058
 4878SOL    HW215534   6.251   1.086   2.028
 4879SOL     OW15535   4.310   0.911   2.890
 4879SOL    HW115536   4.357   0.825   2.905
 4879SOL    HW215537   4.213   0.894   2.869
 4880SOL     OW15538   5.398   3.430   6.900
 4880SOL    HW115539   5.402   3.420   6.801
 4880SOL    HW215540   5.491   3.443   6.936
 4881SOL     OW15541   1.097   1.243   0.227
 4881SOL    HW115542   1.022   1.182   0.199
 4881SOL    HW215543   1.062   1.336   0.237
 4882SOL     OW15544   4.712   0.865   5.066
 4882SOL    HW115545   4.771   0.922   5.008
 4882SOL    HW215546   4.618   0.871   5.033
 4883SOL     OW15547   5.074   5.148   1.630
 4883SOL    HW115548   5.061   5.100   1.543
 4883SOL    HW215549   5.003   5.217   1.641
 4884SOL     OW15550   2.792   6.572   1.231
 4884SOL    HW115551   2.754   6.656   1.192
 4884SOL    HW215552   2.753   6.558   1.322
 4885SOL     OW15553   2.278   5.488   1.762
 4885SOL    HW115554   2.319   5.544   1.690
 4885SOL    HW215555   2.197   5.535   1.799
 4886SOL     OW15556   1.170   6.388   1.490
 4886SOL    HW115557   1.233   6.313   1.474
 4886SOL    HW215558   1.090   6.378   1.431
 4887SOL     OW15559   0.139   0.101   1.895
 4887SOL    HW115560   0.103   0.190   1.865
 4887SOL    HW215561   0.120   0.032   1.825
 4888SOL     OW15562   2.839   0.391   4.346
 4888SOL    HW115563   2.775   0.442   4.404
 4888SOL    HW215564   2.904   0.341   4.404
 4889SOL     OW15565   7.007   2.201   5.329
 4889SOL    HW115566   6.913   2.236   5.329
 4889SOL    HW215567   7.013   2.122   5.390
 4890SOL     OW15568   0.068   0.912   6.668
 4890SOL    HW115569   0.087   0.862   6.584
 4890SOL    HW215570   7.012   0.874   6.712
 4891SOL     OW15571   2.399   4.490   0.098
 4891SOL    HW115572   2.474   4.536   0.146
 4891SOL    HW215573   2.437   4.419   0.038
 4892SOL     OW15574   3.138   6.193   2.521
 4892SOL    HW115575   3.157   6.096   2.533
 4892SOL    HW215576   3.146   6.217   2.424
 4893SOL     OW15577   6.554   3.087   1.403
 4893SOL    HW115578   6.651   3.071   1.386
 4893SOL    HW215579   6.543   3.146   1.483
 4894SOL     OW15580   2.841   0.801   3.400
 4894SOL    HW115581   2.918   0.750   3.439
 4894SOL    HW215582   2.833   0.780   3.303
 4895SOL     OW15583   0.960   4.958   4.392
 4895SOL    HW115584   1.014   4.883   4.431
 4895SOL    HW215585   1.021   5.020   4.343
 4896SOL     OW15586   1.621   4.844   2.002
 4896SOL    HW115587   1.551   4.866   2.071
 4896SOL    HW215588   1.577   4.808   1.920
 4897SOL     OW15589   1.742   4.563   5.506
 4897SOL    HW115590   1.839   4.545   5.489
 4897SOL    HW215591   1.714   4.517   5.590
 4898SOL     OW15592   4.397   1.001   4.695
 4898SOL    HW115593   4.339   0.936   4.647
 4898SOL    HW215594   4.449   1.054   4.629
 4899SOL     OW15595   5.567   5.131   3.076
 4899SOL    HW115596   5.469   5.142   3.093
 4899SOL    HW215597   5.611   5.220   3.072
 4900SOL     OW15598   3.423   6.195   5.037
 4900SOL    HW115599   3.417   6.204   4.937
 4900SOL    HW215600   3.349   6.247   5.080
 4901SOL     OW15601   2.976   1.257   5.280
 4901SOL    HW115602   3.062   1.291   5.317
 4901SOL    HW215603   2.990   1.221   5.188
 4902SOL     OW15604   1.734   1.994   4.796
 4902SOL    HW115605   1.771   1.929   4.730
 4902SOL    HW215606   1.638   2.011   4.776
 4903SOL     OW15607   3.653   5.646   0.069
 4903SOL    HW115608   3.608   5.637   0.158
 4903SOL    HW215609   3.620   5.728   0.023
 4904SOL     OW15610   2.327   0.494   4.948
 4904SOL    HW115611   2.263   0.561   4.986
 4904SOL    HW215612   2.419   0.511   4.983
 4905SOL     OW15613   3.207   0.593   2.747
 4905SOL    HW115614   3.139   0.523   2.727
 4905SOL    HW215615   3.263   0.564   2.825
 4906SOL     OW15616   5.453   1.846   6.784
 4906SOL    HW115617   5.506   1.880   6.862
 4906SOL    HW215618   5.398   1.921   6.747
 4907SOL     OW15619   4.026   6.119   2.439
 4907SOL    HW115620   4.017   6.129   2.538
 4907SOL    HW215621   4.120   6.091   2.417
 4908SOL     OW15622   5.572   6.196   0.510
 4908SOL    HW115623   5.652   6.165   0.561
 4908SOL    HW215624   5.601   6.227   0.419
 4909SOL     OW15625   0.348   6.847   4.396
 4909SOL    HW115626   0.270   6.791   4.424
 4909SOL    HW215627   0.377   6.821   4.304
 4910SOL     OW15628   5.360   1.012   4.999
 4910SOL    HW115629   5.342   1.095   5.053
 4910SOL    HW215630   5.384   1.038   4.906
 4911SOL     OW15631   1.157   4.411   3.840
 4911SOL    HW115632   1.067   4.454   3.845
 4911SOL    HW215633   1.227   4.481   3.825
 4912SOL     OW15634   5.640   1.503   6.496
 4912SOL    HW115635   5.570   1.435   6.474
 4912SOL    HW215636   5.606   1.594   6.473
 4913SOL     OW15637   4.136   2.999   5.377
 4913SOL    HW115638   4.228   2.980   5.411
 4913SOL    HW215639   4.072   3.004   5.453
 4914SOL     OW15640   3.304   0.261   4.744
 4914SOL    HW115641   3.254   0.303   4.669
 4914SOL    HW215642   3.400   0.249   4.718
 4915SOL     OW15643   3.502   6.315   5.877
 4915SOL    HW115644   3.536   6.244   5.816
 4915SOL    HW215645   3.454   6.273   5.954
 4916SOL     OW15646   1.155   0.405   4.305
 4916SOL    HW115647   1.235   0.436   4.254
 4916SOL    HW215648   1.072   0.436   4.259
 4917SOL     OW15649   2.293   5.921   1.697
 4917SOL    HW115650   2.226   5.949   1.628
 4917SOL    HW215651   2.334   6.002   1.737
 4918SOL     OW15652   4.800   5.855   2.911
 4918SOL    HW115653   4.858   5.827   2.835
 4918SOL    HW215654   4.832   5.811   2.995
 4919SOL     OW15655   3.505   2.542   0.907
 4919SOL    HW115656   3.490   2.596   0.825
 4919SOL    HW215657   3.573   2.471   0.889
 4920SOL     OW15658   5.381   0.639   4.522
 4920SOL    HW115659   5.371   0.634   4.621
 4920SOL    HW215660   5.357   0.730   4.490
 4921SOL     OW15661   1.163   5.488   0.646
 4921SOL    HW115662   1.146   5.512   0.550
 4921SOL    HW215663   1.095   5.534   0.704
 4922SOL     OW15664   2.721   2.527   5.374
 4922SOL    HW115665   2.819   2.539   5.388
 4922SOL    HW215666   2.685   2.603   5.320
 4923SOL     OW15667   3.850   2.125   2.800
 4923SOL    HW115668   3.920   2.170   2.856
 4923SOL    HW215669   3.761   2.134   2.844
 4924SOL     OW15670   3.922   1.130   4.893
 4924SOL    HW115671   3.888   1.177   4.811
 4924SOL    HW215672   3.873   1.162   4.973
 4925SOL     OW15673   6.750   0.043   2.731
 4925SOL    HW115674   6.738   7.020   2.644
 4925SOL    HW215675   6.833   0.099   2.728
 4926SOL     OW15676   4.858   0.891   0.382
 4926SOL    HW115677   4.862   0.791   0.385
 4926SOL    HW215678   4.787   0.919   0.317
 4927SOL     OW15679   3.451   3.968   4.552
 4927SOL    HW115680   3.353   3.992   4.554
 4927SOL    HW215681   3.461   3.870   4.537
 4928SOL     OW15682   2.166   0.023   6.831
 4928SOL    HW115683   2.226   7.006   6.900
 4928SOL    HW215684   2.112   6.975   6.787
 4929SOL     OW15685   6.898   6.843   4.473
 4929SOL    HW115686   6.838   6.857   4.552
 4929SOL    HW215687   6.895   6.747   4.446
 4930SOL     OW15688   5.212   0.838   2.848
 4930SOL    HW115689   5.245   0.893   2.771
 4930SOL    HW215690   5.291   0.805   2.901
 4931SOL     OW15691   6.851   6.639   0.834
 4931SOL    HW115692   6.771   6.666   0.888
 4931SOL    HW215693   6.822   6.577   0.760
 4932SOL     OW15694   3.086   2.965   2.207
 4932SOL    HW115695   3.044   3.042   2.158
 4932SOL    HW215696   3.028   2.884   2.198
 4933SOL     OW15697   2.547   6.631   2.510
 4933SOL    HW115698   2.472   6.693   2.488
 4933SOL    HW215699   2.609   6.675   2.575
 4934SOL     OW15700   3.205   5.640   2.990
 4934SOL    HW115701   3.199   5.553   2.942
 4934SOL    HW215702   3.278   5.695   2.949
 4935SOL     OW15703   2.111   1.872   6.313
 4935SOL    HW115704   2.130   1.940   6.384
 4935SOL    HW215705   2.197   1.829   6.285
 4936SOL     OW15706   2.658   4.990   1.620
 4936SOL    HW115707   2.661   5.033   1.530
 4936SOL    HW215708   2.691   4.896   1.614
 4937SOL     OW15709   5.682   2.988   5.566
 4937SOL    HW115710   5.584   2.998   5.581
 4937SOL    HW215711   5.698   2.909   5.506
 4938SOL     OW15712   2.247   5.223   5.650
 4938SOL    HW115713   2.278   5.131   5.672
 4938SOL    HW215714   2.228   5.229   5.552
 4939SOL     OW15715   6.186   2.325   4.432
 4939SOL    HW115716   6.237   2.403   4.396
 4939SOL    HW215717   6.240   2.242   4.421
 4940SOL     OW15718   0.207   1.451   4.818
 4940SOL    HW115719   0.258   1.452   4.733
 4940SOL    HW215720   0.263   1.409   4.890
 4941SOL     OW15721   5.027   2.114   5.965
 4941SOL    HW115722   5.126   2.121   5.975
 4941SOL    HW215723   4.982   2.175   6.031
 4942SOL     OW15724   4.944   2.345   6.118
 4942SOL    HW115725   4.858   2.365   6.073
 4942SOL    HW215726   4.937   2.369   6.215
 4943SOL     OW15727   4.807   3.256   6.627
 4943SOL    HW115728   4.845   3.310   6.702
 4943SOL    HW215729   4.718   3.219   6.655
 4944SOL     OW15730   1.852   4.761   1.631
 4944SOL    HW115731   1.870   4.664   1.645
 4944SOL    HW215732   1.850   4.781   1.532
 4945SOL     OW15733   1.388   0.529   4.167
 4945SOL    HW115734   1.375   0.584   4.084
 4945SOL    HW215735   1.411   0.590   4.243
 4946SOL     OW15736   0.976   3.841   0.418
 4946SOL    HW115737   0.922   3.900   0.359
 4946SOL    HW215738   1.004   3.892   0.500
 4947SOL     OW15739   2.115   0.885   1.149
 4947SOL    HW115740   2.211   0.865   1.129
 4947SOL    HW215741   2.107   0.979   1.183
 4948SOL     OW15742   1.517   2.120   2.392
 4948SOL    HW115743   1.441   2.098   2.331
 4948SOL    HW215744   1.601   2.081   2.355
 4949SOL     OW15745   4.718   6.818   6.385
 4949SOL    HW115746   4.750   6.802   6.291
 4949SOL    HW215747   4.653   6.746   6.411
 4950SOL     OW15748   2.583   5.416   4.341
 4950SOL    HW115749   2.584   5.320   4.369
 4950SOL    HW215750   2.541   5.472   4.413
 4951SOL     OW15751   5.201   1.414   4.350
 4951SOL    HW115752   5.136   1.490   4.345
 4951SOL    HW215753   5.289   1.448   4.384
 4952SOL     OW15754   0.026   1.053   5.420
 4952SOL    HW115755   7.013   1.112   5.492
 4952SOL    HW215756   0.055   0.966   5.459
 4953SOL     OW15757   1.947   6.454   2.126
 4953SOL    HW115758   1.988   6.495   2.045
 4953SOL    HW215759   1.881   6.518   2.167
 4954SOL     OW15760   4.318   3.352   6.950
 4954SOL    HW115761   4.243   3.316   7.005
 4954SOL    HW215762   4.282   3.394   6.867
 4955SOL     OW15763   2.719   6.064   6.723
 4955SOL    HW115764   2.673   6.137   6.672
 4955SOL    HW215765   2.818   6.077   6.718
 4956SOL     OW15766   2.440   6.914   4.936
 4956SOL    HW115767   2.346   6.943   4.955
 4956SOL    HW215768   2.439   6.831   4.880
 4957SOL     OW15769   6.783   2.088   2.477
 4957SOL    HW115770   6.821   2.179   2.492
 4957SOL    HW215771   6.825   2.047   2.396
 4958SOL     OW15772   6.780   5.139   5.091
 4958SOL    HW115773   6.867   5.096   5.109
 4958SOL    HW215774   6.788   5.198   5.010
 4959SOL     OW15775   6.396   1.351   6.354
 4959SOL    HW115776   6.476   1.353   6.294
 4959SOL    HW215777   6.420   1.386   6.444
 4960SOL     OW15778   3.845   5.896   3.077
 4960SOL    HW115779   3.761   5.842   3.076
 4960SOL    HW215780   3.825   5.989   3.110
 4961SOL     OW15781   4.986   1.585   6.159
 4961SOL    HW115782   5.061   1.615   6.099
 4961SOL    HW215783   5.021   1.570   6.251
 4962SOL     OW15784   6.603   2.618   0.517
 4962SOL    HW115785   6.540   2.643   0.591
 4962SOL    HW215786   6.686   2.672   0.525
 4963SOL     OW15787   6.216   5.921   6.855
 4963SOL    HW115788   6.252   5.896   6.945
 4963SOL    HW215789   6.186   5.838   6.808
 4964SOL     OW15790   3.265   0.011   4.148
 4964SOL    HW115791   3.192   0.019   4.081
 4964SOL    HW215792   3.336   0.079   4.128
 4965SOL     OW15793   0.298   0.433   3.573
 4965SOL    HW115794   0.355   0.415   3.653
 4965SOL    HW215795   0.337   0.507   3.519
 4966SOL     OW15796   2.487   0.453   4.716
 4966SOL    HW115797   2.413   0.468   4.782
 4966SOL    HW215798   2.569   0.501   4.747
 4967SOL     OW15799   3.680   3.674   6.098
 4967SOL    HW115800   3.768   3.665   6.051
 4967SOL    HW215801   3.694   3.674   6.197
 4968SOL     OW15802   5.919   2.447   3.479
 4968SOL    HW115803   5.926   2.461   3.578
 4968SOL    HW215804   5.822   2.441   3.453
 4969SOL     OW15805   2.492   0.756   2.257
 4969SOL    HW115806   2.585   0.791   2.265
 4969SOL    HW215807   2.434   0.798   2.326
 4970SOL     OW15808   1.849   1.836   3.925
 4970SOL    HW115809   1.856   1.737   3.933
 4970SOL    HW215810   1.790   1.859   3.848
 4971SOL     OW15811   6.207   6.500   3.516
 4971SOL    HW115812   6.204   6.599   3.525
 4971SOL    HW215813   6.208   6.458   3.607
 4972SOL     OW15814   2.376   2.786   6.994
 4972SOL    HW115815   2.350   2.700   6.952
 4972SOL    HW215816   2.299   2.850   6.990
 4973SOL     OW15817   0.342   0.387   2.795
 4973SOL    HW115818   0.325   0.373   2.698
 4973SOL    HW215819   0.439   0.370   2.815
 4974SOL     OW15820   5.769   4.871   1.454
 4974SOL    HW115821   5.827   4.811   1.399
 4974SOL    HW215822   5.709   4.815   1.513
 4975SOL     OW15823   5.457   5.365   5.921
 4975SOL    HW115824   5.382   5.301   5.906
 4975SOL    HW215825   5.421   5.458   5.929
 4976SOL     OW15826   2.868   6.905   4.575
 4976SOL    HW115827   2.939   6.881   4.642
 4976SOL    HW215828   2.911   6.933   4.490
 4977SOL     OW15829   4.140   3.846   0.766
 4977SOL    HW115830   4.086   3.929   0.783
 4977SOL    HW215831   4.166   3.805   0.854
 4978SOL     OW15832   0.003   3.957   5.596
 4978SOL    HW115833   6.978   4.044   5.596
 4978SOL    HW215834   7.022   3.915   5.687
 4979SOL     OW15835   0.595   0.203   5.289
 4979SOL    HW115836   0.504   0.234   5.314
 4979SOL    HW215837   0.662   0.272   5.317
 4980SOL     OW15838   4.657   6.390   3.367
 4980SOL    HW115839   4.582   6.340   3.323
 4980SOL    HW215840   4.627   6.423   3.456
 4981SOL     OW15841   4.990   5.725   6.362
 4981SOL    HW115842   4.987   5.639   6.413
 4981SOL    HW215843   5.081   5.765   6.370
 4982SOL     OW15844   2.629   2.202   6.249
 4982SOL    HW115845   2.607   2.145   6.328
 4982SOL    HW215846   2.706   2.262   6.271
 4983SOL     OW15847   5.294   2.260   4.201
 4983SOL    HW115848   5.218   2.318   4.172
 4983SOL    HW215849   5.379   2.311   4.194
 4984SOL     OW15850   6.074   4.253   4.264
 4984SOL    HW115851   6.116   4.307   4.337
 4984SOL    HW215852   6.079   4.304   4.178
 4985SOL     OW15853   5.990   6.576   3.262
 4985SOL    HW115854   6.037   6.557   3.175
 4985SOL    HW215855   5.986   6.492   3.316
 4986SOL     OW15856   5.971   4.358   2.917
 4986SOL    HW115857   5.873   4.381   2.911
 4986SOL    HW215858   5.987   4.269   2.876
 4987SOL     OW15859   1.128   1.556   1.010
 4987SOL    HW115860   1.033   1.586   0.997
 4987SOL    HW215861   1.188   1.636   1.007
 4988SOL     OW15862   6.000   1.266   3.319
 4988SOL    HW115863   6.051   1.312   3.392
 4988SOL    HW215864   5.950   1.335   3.266
 4989SOL     OW15865   5.538   0.450   1.300
 4989SOL    HW115866   5.501   0.446   1.207
 4989SOL    HW215867   5.512   0.537   1.343
 4990SOL     OW15868   1.993   1.658   5.385
 4990SOL    HW115869   1.979   1.574   5.437
 4990SOL    HW215870   1.962   1.736   5.439
 4991SOL     OW15871   0.373   3.305   4.555
 4991SOL    HW115872   0.328   3.220   4.583
 4991SOL    HW215873   0.468   3.304   4.587
 4992SOL     OW15874   5.043   0.961   4.774
 4992SOL    HW115875   5.070   0.900   4.699
 4992SOL    HW215876   5.075   0.924   4.861
 4993SOL     OW15877   3.870   5.256   3.787
 4993SOL    HW115878   3.969   5.250   3.780
 4993SOL    HW215879   3.838   5.200   3.863
 4994SOL     OW15880   0.958   0.519   2.454
 4994SOL    HW115881   0.971   0.489   2.549
 4994SOL    HW215882   1.002   0.454   2.393
 4995SOL     OW15883   6.606   2.958   5.928
 4995SOL    HW115884   6.620   2.864   5.899
 4995SOL    HW215885   6.690   3.011   5.913
 4996SOL     OW15886   1.361   0.867   2.696
 4996SOL    HW115887   1.301   0.927   2.748
 4996SOL    HW215888   1.322   0.853   2.604
 4997SOL     OW15889   6.616   1.313   3.066
 4997SOL    HW115890   6.588   1.402   3.031
 4997SOL    HW215891   6.566   1.294   3.150
 4998SOL     OW15892   2.312   3.705   5.245
 4998SOL    HW115893   2.324   3.793   5.199
 4998SOL    HW215894   2.255   3.646   5.188
 4999SOL     OW15895   5.633   4.991   1.250
 4999SOL    HW115896   5.705   5.046   1.210
 4999SOL    HW215897   5.666   4.949   1.335
 5000SOL     OW15898   2.199   6.611   4.093
 5000SOL    HW115899   2.280   6.637   4.039
 5000SOL    HW215900   2.186   6.677   4.167
 5001SOL     OW15901   1.578   4.413   0.178
 5001SOL    HW115902   1.568   4.358   0.261
 5001SOL    HW215903   1.609   4.505   0.202
 5002SOL     OW15904   1.393   3.378   3.122
 5002SOL    HW115905   1.425   3.432   3.045
 5002SOL    HW215906   1.446   3.294   3.129
 5003SOL     OW15907   2.254   6.534   2.818
 5003SOL    HW115908   2.207   6.566   2.736
 5003SOL    HW215909   2.227   6.439   2.837
 5004SOL     OW15910   3.182   5.095   5.901
 5004SOL    HW115911   3.228   5.181   5.876
 5004SOL    HW215912   3.199   5.027   5.830
 5005SOL     OW15913   3.540   2.130   0.894
 5005SOL    HW115914   3.631   2.164   0.920
 5005SOL    HW215915   3.471   2.194   0.926
 5006SOL     OW15916   4.732   6.466   6.807
 5006SOL    HW115917   4.655   6.450   6.746
 5006SOL    HW215918   4.699   6.468   6.902
 5007SOL     OW15919   1.984   0.358   6.756
 5007SOL    HW115920   1.987   0.269   6.800
 5007SOL    HW215921   1.916   0.416   6.801
 5008SOL     OW15922   6.372   0.618   3.311
 5008SOL    HW115923   6.411   0.541   3.362
 5008SOL    HW215924   6.340   0.587   3.222
 5009SOL     OW15925   1.674   6.139   1.682
 5009SOL    HW115926   1.697   6.212   1.746
 5009SOL    HW215927   1.698   6.050   1.722
 5010SOL     OW15928   3.314   2.938   2.907
 5010SOL    HW115929   3.398   2.884   2.912
 5010SOL    HW215930   3.254   2.913   2.983
 5011SOL     OW15931   1.794   3.579   2.509
 5011SOL    HW115932   1.791   3.513   2.584
 5011SOL    HW215933   1.849   3.543   2.435
 5012SOL     OW15934   5.169   3.224   6.580
 5012SOL    HW115935   5.201   3.155   6.645
 5012SOL    HW215936   5.092   3.186   6.527
 5013SOL     OW15937   5.242   1.915   0.632
 5013SOL    HW115938   5.266   1.905   0.728
 5013SOL    HW215939   5.323   1.939   0.579
 5014SOL     OW15940   5.423   4.373   0.801
 5014SOL    HW115941   5.329   4.350   0.827
 5014SOL    HW215942   5.428   4.470   0.779
 5015SOL     OW15943   4.811   2.079   3.840
 5015SOL    HW115944   4.721   2.100   3.879
 5015SOL    HW215945   4.869   2.038   3.911
 5016SOL     OW15946   2.867   1.873   0.723
 5016SOL    HW115947   2.878   1.774   0.734
 5016SOL    HW215948   2.952   1.919   0.747
 5017SOL     OW15949   1.869   2.386   6.814
 5017SOL    HW115950   1.923   2.355   6.892
 5017SOL    HW215951   1.796   2.447   6.846
 5018SOL     OW15952   0.771   4.539   1.202
 5018SOL    HW115953   0.685   4.488   1.207
 5018SOL    HW215954   0.758   4.620   1.144
 5019SOL     OW15955   2.092   4.972   6.743
 5019SOL    HW115956   2.185   5.008   6.744
 5019SOL    HW215957   2.089   4.883   6.788
 5020SOL     OW15958   4.735   6.743   6.125
 5020SOL    HW115959   4.677   6.818   6.094
 5020SOL    HW215960   4.802   6.721   6.055
 5021SOL     OW15961   1.911   1.882   5.591
 5021SOL    HW115962   1.983   1.873   5.660
 5021SOL    HW215963   1.824   1.900   5.636
 5022SOL     OW15964   1.950   0.294   0.190
 5022SOL    HW115965   1.966   0.249   0.102
 5022SOL    HW215966   1.946   0.393   0.176
 5023SOL     OW15967   6.223   2.580   1.259
 5023SOL    HW115968   6.199   2.630   1.342
 5023SOL    HW215969   6.322   2.586   1.243
 5024SOL     OW15970   6.621   4.840   3.180
 5024SOL    HW115971   6.689   4.855   3.251
 5024SOL    HW215972   6.639   4.902   3.103
 5025SOL     OW15973   3.889   2.061   1.985
 5025SOL    HW115974   3.801   2.107   1.987
 5025SOL    HW215975   3.882   1.977   1.931
 5026SOL     OW15976   5.634   6.198   6.443
 5026SOL    HW115977   5.720   6.148   6.431
 5026SOL    HW215978   5.615   6.252   6.361
 5027SOL     OW15979   0.344   0.008   2.374
 5027SOL    HW115980   0.293   6.946   2.372
 5027SOL    HW215981   0.347   0.046   2.281
 5028SOL     OW15982   0.330   6.555   3.184
 5028SOL    HW115983   0.415   6.600   3.210
 5028SOL    HW215984   0.281   6.524   3.265
 5029SOL     OW15985   6.749   3.894   3.495
 5029SOL    HW115986   6.749   3.944   3.581
 5029SOL    HW215987   6.841   3.895   3.455
 5030SOL     OW15988   6.984   0.390   6.704
 5030SOL    HW115989   6.979   0.371   6.802
 5030SOL    HW215990   0.028   0.461   6.687
 5031SOL     OW15991   5.109   0.815   4.542
 5031SOL    HW115992   5.041   0.816   4.469
 5031SOL    HW215993   5.188   0.869   4.515
 5032SOL     OW15994   1.338   4.364   1.253
 5032SOL    HW115995   1.408   4.302   1.289
 5032SOL    HW215996   1.252   4.350   1.302
 5033SOL     OW15997   1.709   4.773   6.382
 5033SOL    HW115998   1.742   4.697   6.437
 5033SOL    HW215999   1.786   4.835   6.362
 5034SOL     OW16000   6.507   2.532   2.863
 5034SOL    HW116001   6.430   2.588   2.831
 5034SOL    HW216002   6.541   2.476   2.787
 5035SOL     OW16003   6.144   4.425   0.667
 5035SOL    HW116004   6.180   4.351   0.610
 5035SOL    HW216005   6.049   4.404   0.692
 5036SOL     OW16006   0.033   4.585   0.348
 5036SOL    HW116007   0.069   4.626   0.264
 5036SOL    HW216008   6.959   4.571   0.338
 5037SOL     OW16009   4.885   2.089   2.337
 5037SOL    HW116010   4.797   2.083   2.384
 5037SOL    HW216011   4.936   2.004   2.349
 5038SOL     OW16012   2.122   4.996   5.367
 5038SOL    HW116013   2.220   4.984   5.383
 5038SOL    HW216014   2.103   4.983   5.269
 5039SOL     OW16015   2.005   3.906   5.592
 5039SOL    HW116016   2.045   3.997   5.575
 5039SOL    HW216017   2.022   3.847   5.513
 5040SOL     OW16018   2.033   4.499   6.312
 5040SOL    HW116019   2.100   4.562   6.273
 5040SOL    HW216020   2.078   4.413   6.334
 5041SOL     OW16021   1.526   3.262   1.367
 5041SOL    HW116022   1.458   3.314   1.418
 5041SOL    HW216023   1.501   3.262   1.270
 5042SOL     OW16024   6.789   3.191   0.100
 5042SOL    HW116025   6.876   3.240   0.097
 5042SOL    HW216026   6.793   3.119   0.169
 5043SOL     OW16027   2.730   1.486   6.086
 5043SOL    HW116028   2.772   1.430   6.157
 5043SOL    HW216029   2.783   1.571   6.075
 5044SOL     OW16030   6.022   6.789   2.463
 5044SOL    HW116031   6.043   6.840   2.546
 5044SOL    HW216032   5.933   6.745   2.472
 5045SOL     OW16033   5.702   3.165   6.944
 5045SOL    HW116034   5.635   3.164   6.870
 5045SOL    HW216035   5.678   3.236   7.010
 5046SOL     OW16036   3.290   4.196   5.168
 5046SOL    HW116037   3.199   4.214   5.131
 5046SOL    HW216038   3.354   4.177   5.094
 5047SOL     OW16039   0.194   2.689   2.246
 5047SOL    HW116040   0.145   2.609   2.279
 5047SOL    HW216041   0.138   2.771   2.259
 5048SOL     OW16042   6.804   1.317   1.448
 5048SOL    HW116043   6.719   1.356   1.484
 5048SOL    HW216044   6.864   1.391   1.418
 5049SOL     OW16045   6.521   1.552   4.350
 5049SOL    HW116046   6.583   1.629   4.337
 5049SOL    HW216047   6.527   1.491   4.271
 5050SOL     OW16048   1.062   1.228   1.943
 5050SOL    HW116049   0.984   1.284   1.914
 5050SOL    HW216050   1.143   1.286   1.954
 5051SOL     OW16051   4.325   3.305   0.230
 5051SOL    HW116052   4.398   3.247   0.195
 5051SOL    HW216053   4.248   3.304   0.167
 5052SOL     OW16054   2.557   5.243   5.937
 5052SOL    HW116055   2.516   5.153   5.926
 5052SOL    HW216056   2.558   5.268   6.033
 5053SOL     OW16057   1.704   4.040   3.432
 5053SOL    HW116058   1.609   4.050   3.402
 5053SOL    HW216059   1.754   4.125   3.417
 5054SOL     OW16060   3.520   5.498   5.290
 5054SOL    HW116061   3.536   5.447   5.375
 5054SOL    HW216062   3.424   5.525   5.285
 5055SOL     OW16063   0.678   0.881   5.259
 5055SOL    HW116064   0.735   0.958   5.228
 5055SOL    HW216065   0.605   0.915   5.318
 5056SOL     OW16066   6.184   3.771   0.688
 5056SOL    HW116067   6.127   3.693   0.712
 5056SOL    HW216068   6.277   3.757   0.723
 5057SOL     OW16069   0.883   5.613   4.152
 5057SOL    HW116070   0.932   5.697   4.173
 5057SOL    HW216071   0.787   5.634   4.134
 5058SOL     OW16072   2.542   4.184   6.274
 5058SOL    HW116073   2.510   4.102   6.227
 5058SOL    HW216074   2.548   4.260   6.209
 5059SOL     OW16075   5.587   3.566   3.848
 5059SOL    HW116076   5.551   3.638   3.907
 5059SOL    HW216077   5.622   3.491   3.904
 5060SOL     OW16078   0.138   2.796   5.448
 5060SOL    HW116079   0.230   2.764   5.468
 5060SOL    HW216080   0.080   2.717   5.427
 5061SOL     OW16081   3.304   2.971   4.015
 5061SOL    HW116082   3.245   3.039   4.059
 5061SOL    HW216083   3.282   2.966   3.918
 5062SOL     OW16084   4.977   1.214   2.759
 5062SOL    HW116085   4.878   1.208   2.774
 5062SOL    HW216086   5.024   1.201   2.846
 5063SOL     OW16087   1.232   6.293   1.806
 5063SOL    HW116088   1.285   6.278   1.722
 5063SOL    HW216089   1.141   6.326   1.782
 5064SOL     OW16090   4.909   4.262   1.594
 5064SOL    HW116091   4.941   4.240   1.502
 5064SOL    HW216092   4.833   4.327   1.588
 5065SOL     OW16093   1.243   1.917   2.805
 5065SOL    HW116094   1.243   2.005   2.854
 5065SOL    HW216095   1.315   1.859   2.842
 5066SOL     OW16096   3.244   4.079   1.830
 5066SOL    HW116097   3.195   4.164   1.810
 5066SOL    HW216098   3.343   4.097   1.833
 5067SOL     OW16099   3.307   0.857   2.764
 5067SOL    HW116100   3.335   0.875   2.858
 5067SOL    HW216101   3.299   0.758   2.750
 5068SOL     OW16102   3.615   4.938   0.196
 5068SOL    HW116103   3.607   4.839   0.185
 5068SOL    HW216104   3.603   4.962   0.292
 5069SOL     OW16105   1.685   2.845   6.099
 5069SOL    HW116106   1.628   2.897   6.162
 5069SOL    HW216107   1.749   2.787   6.151
 5070SOL     OW16108   5.267   5.219   5.199
 5070SOL    HW116109   5.364   5.229   5.221
 5070SOL    HW216110   5.246   5.122   5.186
 5071SOL     OW16111   4.015   1.956   4.044
 5071SOL    HW116112   4.021   1.856   4.049
 5071SOL    HW216113   3.937   1.981   3.987
 5072SOL     OW16114   1.549   1.557   1.469
 5072SOL    HW116115   1.504   1.525   1.552
 5072SOL    HW216116   1.525   1.497   1.393
 5073SOL     OW16117   1.841   4.990   0.982
 5073SOL    HW116118   1.794   5.002   1.070
 5073SOL    HW216119   1.863   5.080   0.944
 5074SOL     OW16120   3.491   2.045   2.204
 5074SOL    HW116121   3.545   2.127   2.188
 5074SOL    HW216122   3.459   2.008   2.117
 5075SOL     OW16123   1.046   1.874   0.018
 5075SOL    HW116124   0.972   1.817   7.007
 5075SOL    HW216125   1.126   1.865   6.983
 5076SOL     OW16126   5.393   6.972   0.604
 5076SOL    HW116127   5.380   6.975   0.504
 5076SOL    HW216128   5.480   7.014   0.627
 5077SOL     OW16129   0.874   4.076   6.411
 5077SOL    HW116130   0.776   4.059   6.414
 5077SOL    HW216131   0.913   4.028   6.332
 5078SOL     OW16132   0.661   1.231   3.882
 5078SOL    HW116133   0.585   1.266   3.937
 5078SOL    HW216134   0.699   1.149   3.925
 5079SOL     OW16135   2.581   2.752   5.245
 5079SOL    HW116136   2.581   2.844   5.205
 5079SOL    HW216137   2.505   2.699   5.207
 5080SOL     OW16138   6.219   6.090   5.431
 5080SOL    HW116139   6.195   6.080   5.334
 5080SOL    HW216140   6.275   6.172   5.443
 5081SOL     OW16141   2.901   4.214   6.154
 5081SOL    HW116142   2.963   4.148   6.196
 5081SOL    HW216143   2.845   4.169   6.085
 5082SOL     OW16144   5.514   0.235   0.843
 5082SOL    HW116145   5.437   0.260   0.784
 5082SOL    HW216146   5.576   0.174   0.793
 5083SOL     OW16147   2.962   0.386   2.335
 5083SOL    HW116148   2.954   0.417   2.430
 5083SOL    HW216149   3.021   0.306   2.330
 5084SOL     OW16150   0.908   5.147   3.679
 5084SOL    HW116151   0.867   5.067   3.636
 5084SOL    HW216152   0.837   5.213   3.701
 5085SOL     OW16153   6.850   2.676   5.578
 5085SOL    HW116154   6.882   2.768   5.601
 5085SOL    HW216155   6.927   2.623   5.541
 5086SOL     OW16156   1.455   4.575   2.679
 5086SOL    HW116157   1.364   4.552   2.645
 5086SOL    HW216158   1.487   4.502   2.739
 5087SOL     OW16159   0.272   5.354   1.646
 5087SOL    HW116160   0.205   5.304   1.590
 5087SOL    HW216161   0.285   5.445   1.607
 5088SOL     OW16162   5.292   0.004   3.713
 5088SOL    HW116163   5.311   0.022   3.809
 5088SOL    HW216164   5.294   0.090   3.662
 5089SOL     OW16165   6.232   4.515   4.171
 5089SOL    HW116166   6.297   4.445   4.201
 5089SOL    HW216167   6.273   4.606   4.182
 5090SOL     OW16168   1.848   1.750   2.655
 5090SOL    HW116169   1.753   1.721   2.665
 5090SOL    HW216170   1.869   1.819   2.724
 5091SOL     OW16171   6.401   1.051   1.946
 5091SOL    HW116172   6.439   1.080   2.034
 5091SOL    HW216173   6.467   0.996   1.897
 5092SOL     OW16174   3.722   3.349   3.558
 5092SOL    HW116175   3.717   3.298   3.472
 5092SOL    HW216176   3.814   3.338   3.597
 5093SOL     OW16177   3.606   1.235   0.489
 5093SOL    HW116178   3.541   1.277   0.426
 5093SOL    HW216179   3.692   1.286   0.489
 5094SOL     OW16180   2.354   5.941   5.891
 5094SOL    HW116181   2.381   5.857   5.937
 5094SOL    HW216182   2.263   5.969   5.923
 5095SOL     OW16183   6.942   2.543   2.958
 5095SOL    HW116184   6.896   2.612   3.014
 5095SOL    HW216185   6.923   2.452   2.996
 5096SOL     OW16186   4.641   4.900   6.785
 5096SOL    HW116187   4.580   4.974   6.814
 5096SOL    HW216188   4.659   4.908   6.687
 5097SOL     OW16189   0.518   6.862   6.652
 5097SOL    HW116190   0.613   6.856   6.622
 5097SOL    HW216191   0.508   6.818   6.742
 5098SOL     OW16192   2.539   1.106   1.976
 5098SOL    HW116193   2.533   1.204   1.996
 5098SOL    HW216194   2.610   1.065   2.033
 5099SOL     OW16195   0.529   6.831   1.339
 5099SOL    HW116196   0.484   6.806   1.253
 5099SOL    HW216197   0.599   6.763   1.361
 5100SOL     OW16198   3.406   5.256   4.717
 5100SOL    HW116199   3.451   5.279   4.631
 5100SOL    HW216200   3.316   5.300   4.722
 5101SOL     OW16201   4.139   6.994   5.995
 5101SOL    HW116202   4.215   6.948   5.949
 5101SOL    HW216203   4.059   6.994   5.935
 5102SOL     OW16204   4.931   6.876   4.342
 5102SOL    HW116205   5.019   6.885   4.297
 5102SOL    HW216206   4.874   6.811   4.292
 5103SOL     OW16207   0.149   1.495   4.148
 5103SOL    HW116208   0.245   1.488   4.174
 5103SOL    HW216209   0.133   1.583   4.103
 5104SOL     OW16210   1.905   0.049   1.951
 5104SOL    HW116211   1.875   0.054   2.047
 5104SOL    HW216212   1.954   0.133   1.928
 5105SOL     OW16213   3.411   2.688   0.283
 5105SOL    HW116214   3.328   2.669   0.230
 5105SOL    HW216215   3.391   2.754   0.354
 5106SOL     OW16216   4.654   1.548   0.909
 5106SOL    HW116217   4.673   1.451   0.895
 5106SOL    HW216218   4.740   1.598   0.918
 5107SOL     OW16219   4.621   2.897   1.396
 5107SOL    HW116220   4.652   2.805   1.374
 5107SOL    HW216221   4.559   2.929   1.325
 5108SOL     OW16222   4.054   3.896   5.063
 5108SOL    HW116223   4.010   3.985   5.050
 5108SOL    HW216224   3.986   3.831   5.097
 5109SOL     OW16225   0.936   2.116   0.075
 5109SOL    HW116226   0.977   2.032   0.040
 5109SOL    HW216227   0.861   2.092   0.138
 5110SOL     OW16228   0.307   0.421   6.352
 5110SOL    HW116229   0.377   0.358   6.386
 5110SOL    HW216230   0.283   0.397   6.258
 5111SOL     OW16231   1.614   1.041   4.489
 5111SOL    HW116232   1.667   1.124   4.473
 5111SOL    HW216233   1.606   0.990   4.403
 5112SOL     OW16234   1.043   0.481   2.779
 5112SOL    HW116235   0.963   0.455   2.833
 5112SOL    HW216236   1.095   0.551   2.828
 5113SOL     OW16237   2.299   5.692   1.296
 5113SOL    HW116238   2.250   5.760   1.241
 5113SOL    HW216239   2.316   5.611   1.241
 5114SOL     OW16240   3.985   0.154   6.482
 5114SOL    HW116241   4.064   0.142   6.543
 5114SOL    HW216242   4.004   0.109   6.395
 5115SOL     OW16243   1.468   5.317   3.557
 5115SOL    HW116244   1.435   5.326   3.463
 5115SOL    HW216245   1.391   5.298   3.618
 5116SOL     OW16246   0.899   6.576   0.502
 5116SOL    HW116247   0.815   6.533   0.534
 5116SOL    HW216248   0.974   6.552   0.564
 5117SOL     OW16249   1.582   3.636   3.875
 5117SOL    HW116250   1.558   3.730   3.851
 5117SOL    HW216251   1.501   3.578   3.868
 5118SOL     OW16252   5.293   0.960   0.083
 5118SOL    HW116253   5.198   0.937   0.065
 5118SOL    HW216254   5.302   1.059   0.091
 5119SOL     OW16255   4.548   0.841   2.407
 5119SOL    HW116256   4.492   0.886   2.476
 5119SOL    HW216257   4.556   0.899   2.326
 5120SOL     OW16258   3.844   0.269   4.633
 5120SOL    HW116259   3.829   0.310   4.723
 5120SOL    HW216260   3.776   0.305   4.568
 5121SOL     OW16261   3.830   2.910   0.059
 5121SOL    HW116262   3.811   2.904   0.157
 5121SOL    HW216263   3.762   2.855   0.009
 5122SOL     OW16264   3.518   6.032   3.177
 5122SOL    HW116265   3.435   6.085   3.163
 5122SOL    HW216266   3.596   6.081   3.136
 5123SOL     OW16267   4.802   2.056   4.196
 5123SOL    HW116268   4.731   2.038   4.264
 5123SOL    HW216269   4.840   1.970   4.164
 5124SOL     OW16270   1.527   5.959   4.983
 5124SOL    HW116271   1.542   5.870   5.027
 5124SOL    HW216272   1.446   5.954   4.924
 5125SOL     OW16273   6.428   3.771   3.774
 5125SOL    HW116274   6.390   3.795   3.864
 5125SOL    HW216275   6.440   3.672   3.769
 5126SOL     OW16276   6.468   5.862   6.734
 5126SOL    HW116277   6.377   5.896   6.759
 5126SOL    HW216278   6.469   5.762   6.737
 5127SOL     OW16279   0.011   3.818   0.212
 5127SOL    HW116280   6.955   3.762   0.232
 5127SOL    HW216281   0.006   3.903   0.265
 5128SOL     OW16282   0.188   6.946   6.474
 5128SOL    HW116283   0.242   6.875   6.429
 5128SOL    HW216284   0.109   6.904   6.520
 5129SOL     OW16285   6.340   6.909   2.651
 5129SOL    HW116286   6.325   6.827   2.706
 5129SOL    HW216287   6.391   6.884   2.568
 5130SOL     OW16288   0.182   5.391   3.324
 5130SOL    HW116289   0.187   5.474   3.269
 5130SOL    HW216290   0.211   5.410   3.418
 5131SOL     OW16291   2.433   4.732   3.854
 5131SOL    HW116292   2.469   4.823   3.874
 5131SOL    HW216293   2.349   4.740   3.801
 5132SOL     OW16294   3.919   2.875   6.790
 5132SOL    HW116295   3.979   2.907   6.716
 5132SOL    HW216296   3.836   2.931   6.791
 5133SOL     OW16297   1.851   4.899   7.005
 5133SOL    HW116298   1.866   4.989   0.022
 5133SOL    HW216299   1.772   4.903   6.944
 5134SOL     OW16300   0.246   3.402   2.238
 5134SOL    HW116301   0.329   3.437   2.194
 5134SOL    HW216302   0.179   3.476   2.247
 5135SOL     OW16303   6.267   2.654   4.821
 5135SOL    HW116304   6.214   2.578   4.783
 5135SOL    HW216305   6.204   2.718   4.866
 5136SOL     OW16306   3.830   0.914   6.087
 5136SOL    HW116307   3.925   0.928   6.115
 5136SOL    HW216308   3.778   0.998   6.102
 5137SOL     OW16309   5.579   3.403   5.940
 5137SOL    HW116310   5.561   3.495   5.977
 5137SOL    HW216311   5.652   3.409   5.872
 5138SOL     OW16312   3.236   2.858   5.751
 5138SOL    HW116313   3.287   2.908   5.682
 5138SOL    HW216314   3.227   2.914   5.833
 5139SOL     OW16315   2.031   0.760   3.023
 5139SOL    HW116316   2.016   0.708   2.940
 5139SOL    HW216317   2.019   0.858   3.004
 5140SOL     OW16318   4.147   2.076   0.430
 5140SOL    HW116319   4.170   2.015   0.505
 5140SOL    HW216320   4.114   2.023   0.352
 5141SOL     OW16321   6.521   3.776   0.110
 5141SOL    HW116322   6.472   3.781   0.023
 5141SOL    HW216323   6.610   3.822   0.100
 5142SOL     OW16324   6.239   0.307   3.926
 5142SOL    HW116325   6.252   0.231   3.862
 5142SOL    HW216326   6.141   0.325   3.937
 5143SOL     OW16327   6.700   4.322   4.444
 5143SOL    HW116328   6.674   4.387   4.372
 5143SOL    HW216329   6.799   4.306   4.440
 5144SOL     OW16330   1.020   4.716   6.104
 5144SOL    HW116331   1.111   4.749   6.129
 5144SOL    HW216332   1.024   4.668   6.016
 5145SOL     OW16333   2.424   5.000   5.299
 5145SOL    HW116334   2.397   4.905   5.311
 5145SOL    HW216335   2.494   5.024   5.366
 5146SOL     OW16336   3.924   4.116   4.991
 5146SOL    HW116337   3.917   4.113   4.891
 5146SOL    HW216338   3.836   4.140   5.030
 5147SOL     OW16339   6.603   5.017   2.672
 5147SOL    HW116340   6.684   5.067   2.702
 5147SOL    HW216341   6.626   4.963   2.591
 5148SOL     OW16342   0.335   6.355   1.146
 5148SOL    HW116343   0.359   6.427   1.211
 5148SOL    HW216344   0.322   6.269   1.195
 5149SOL     OW16345   6.455   5.914   3.337
 5149SOL    HW116346   6.410   5.955   3.258
 5149SOL    HW216347   6.554   5.911   3.321
 5150SOL     OW16348   2.410   5.128   2.564
 5150SOL    HW116349   2.319   5.121   2.525
 5150SOL    HW216350   2.445   5.221   2.553
 5151SOL     OW16351   5.646   2.557   0.987
 5151SOL    HW116352   5.556   2.585   1.021
 5151SOL    HW216353   5.652   2.577   0.889
 5152SOL     OW16354   2.133   5.051   0.145
 5152SOL    HW116355   2.054   5.061   0.206
 5152SOL    HW216356   2.175   4.962   0.161
 5153SOL     OW16357   2.249   0.358   0.053
 5153SOL    HW116358   2.200   0.279   0.015
 5153SOL    HW216359   2.338   0.328   0.089
 5154SOL     OW16360   1.056   3.518   6.295
 5154SOL    HW116361   1.097   3.607   6.276
 5154SOL    HW216362   1.002   3.488   6.217
 5155SOL     OW16363   4.306   6.421   2.199
 5155SOL    HW116364   4.231   6.357   2.181
 5155SOL    HW216365   4.270   6.501   2.247
 5156SOL     OW16366   6.509   3.343   5.920
 5156SOL    HW116367   6.470   3.345   6.012
 5156SOL    HW216368   6.500   3.433   5.878
 5157SOL     OW16369   4.300   1.661   3.649
 5157SOL    HW116370   4.235   1.726   3.689
 5157SOL    HW216371   4.256   1.571   3.642
 5158SOL     OW16372   3.909   0.781   1.755
 5158SOL    HW116373   3.915   0.839   1.835
 5158SOL    HW216374   3.978   0.708   1.761
 5159SOL     OW16375   6.939   3.371   3.719
 5159SOL    HW116376   6.871   3.366   3.645
 5159SOL    HW216377   6.893   3.355   3.806
 5160SOL     OW16378   6.966   4.525   3.274
 5160SOL    HW116379   6.867   4.524   3.258
 5160SOL    HW216380   6.985   4.572   3.360
 5161SOL     OW16381   1.426   4.173   5.197
 5161SOL    HW116382   1.507   4.142   5.147
 5161SOL    HW216383   1.398   4.103   5.262
 5162SOL     OW16384   1.174   5.463   3.129
 5162SOL    HW116385   1.105   5.525   3.165
 5162SOL    HW216386   1.179   5.471   3.029
 5163SOL     OW16387   3.867   6.331   0.311
 5163SOL    HW116388   3.875   6.232   0.317
 5163SOL    HW216389   3.790   6.362   0.366
 5164SOL     OW16390   4.636   2.408   6.646
 5164SOL    HW116391   4.594   2.336   6.701
 5164SOL    HW216392   4.565   2.469   6.610
 5165SOL     OW16393   5.928   4.494   5.738
 5165SOL    HW116394   5.850   4.537   5.784
 5165SOL    HW216395   5.978   4.564   5.687
 5166SOL     OW16396   0.380   5.441   2.982
 5166SOL    HW116397   0.363   5.343   2.998
 5166SOL    HW216398   0.316   5.495   3.036
 5167SOL     OW16399   6.312   5.802   5.624
 5167SOL    HW116400   6.344   5.730   5.564
 5167SOL    HW216401   6.373   5.881   5.618
 5168SOL     OW16402   4.935   3.673   2.820
 5168SOL    HW116403   5.033   3.690   2.817
 5168SOL    HW216404   4.899   3.671   2.727
 5169SOL     OW16405   4.522   1.570   4.772
 5169SOL    HW116406   4.552   1.495   4.831
 5169SOL    HW216407   4.577   1.651   4.791
 5170SOL     OW16408   0.442   4.359   5.228
 5170SOL    HW116409   0.518   4.420   5.251
 5170SOL    HW216410   0.366   4.376   5.290
 5171SOL     OW16411   1.462   5.783   4.056
 5171SOL    HW116412   1.497   5.795   3.964
 5171SOL    HW216413   1.380   5.725   4.053
 5172SOL     OW16414   0.499   2.573   2.341
 5172SOL    HW116415   0.446   2.655   2.320
 5172SOL    HW216416   0.486   2.548   2.437
 5173SOL     OW16417   5.647   4.951   6.154
 5173SOL    HW116418   5.617   5.039   6.117
 5173SOL    HW216419   5.627   4.948   6.252
 5174SOL     OW16420   2.461   4.448   2.864
 5174SOL    HW116421   2.449   4.366   2.920
 5174SOL    HW216422   2.402   4.521   2.900
 5175SOL     OW16423   2.174   3.756   6.909
 5175SOL    HW116424   2.168   3.855   6.923
 5175SOL    HW216425   2.089   3.722   6.868
 5176SOL     OW16426   4.926   3.220   6.368
 5176SOL    HW116427   4.868   3.236   6.448
 5176SOL    HW216428   4.925   3.301   6.309
 5177SOL     OW16429   5.084   6.987   0.016
 5177SOL    HW116430   5.027   0.037   0.051
 5177SOL    HW216431   5.029   6.903   0.012
 5178SOL     OW16432   1.245   3.717   1.428
 5178SOL    HW116433   1.333   3.720   1.381
 5178SOL    HW216434   1.257   3.673   1.517
 5179SOL     OW16435   4.347   5.932   4.334
 5179SOL    HW116436   4.277   5.962   4.269
 5179SOL    HW216437   4.325   5.970   4.424
 5180SOL     OW16438   3.348   2.941   0.438
 5180SOL    HW116439   3.275   2.927   0.371
 5180SOL    HW216440   3.307   2.955   0.528
 5181SOL     OW16441   5.224   2.014   2.159
 5181SOL    HW116442   5.126   2.005   2.141
 5181SOL    HW216443   5.259   2.097   2.116
 5182SOL     OW16444   3.913   4.460   1.592
 5182SOL    HW116445   3.857   4.543   1.590
 5182SOL    HW216446   4.007   4.483   1.618
 5183SOL     OW16447   4.137   1.621   2.720
 5183SOL    HW116448   4.048   1.586   2.747
 5183SOL    HW216449   4.128   1.715   2.686
 5184SOL     OW16450   0.332   2.396   4.427
 5184SOL    HW116451   0.238   2.412   4.397
 5184SOL    HW216452   0.396   2.438   4.363
 5185SOL     OW16453   5.242   0.833   2.269
 5185SOL    HW116454   5.306   0.756   2.271
 5185SOL    HW216455   5.292   0.917   2.248
 5186SOL     OW16456   5.948   2.797   0.658
 5186SOL    HW116457   5.976   2.816   0.564
 5186SOL    HW216458   5.959   2.699   0.678
 5187SOL     OW16459   0.318   0.228   4.001
 5187SOL    HW116460   0.244   0.286   4.036
 5187SOL    HW216461   0.278   0.146   3.958
 5188SOL     OW16462   0.590   5.794   0.296
 5188SOL    HW116463   0.659   5.839   0.239
 5188SOL    HW216464   0.572   5.851   0.376
 5189SOL     OW16465   4.855   4.950   1.023
 5189SOL    HW116466   4.953   4.935   1.008
 5189SOL    HW216467   4.803   4.915   0.945
 5190SOL     OW16468   0.022   3.204   4.289
 5190SOL    HW116469   6.954   3.200   4.325
 5190SOL    HW216470   0.021   3.241   4.196
 5191SOL     OW16471   3.973   0.331   1.785
 5191SOL    HW116472   3.965   0.260   1.715
 5191SOL    HW216473   3.889   0.333   1.839
 5192SOL     OW16474   2.828   5.300   2.999
 5192SOL    HW116475   2.801   5.207   3.025
 5192SOL    HW216476   2.910   5.326   3.050
 5193SOL     OW16477   5.333   4.239   4.727
 5193SOL    HW116478   5.243   4.197   4.712
 5193SOL    HW216479   5.360   4.290   4.646
 5194SOL     OW16480   3.691   1.067   0.274
 5194SOL    HW116481   3.685   1.093   0.370
 5194SOL    HW216482   3.774   1.106   0.234
 5195SOL     OW16483   6.472   5.831   4.236
 5195SOL    HW116484   6.527   5.786   4.167
 5195SOL    HW216485   6.531   5.867   4.308
 5196SOL     OW16486   1.974   4.190   0.664
 5196SOL    HW116487   1.931   4.254   0.600
 5196SOL    HW216488   2.053   4.147   0.620
 5197SOL     OW16489   2.397   5.377   4.934
 5197SOL    HW116490   2.320   5.326   4.972
 5197SOL    HW216491   2.438   5.433   5.006
 5198SOL     OW16492   4.503   6.830   3.257
 5198SOL    HW116493   4.518   6.909   3.317
 5198SOL    HW216494   4.570   6.759   3.278
 5199SOL     OW16495   1.502   6.341   0.066
 5199SOL    HW116496   1.437   6.401   0.112
 5199SOL    HW216497   1.589   6.341   0.116
 5200SOL     OW16498   1.551   1.805   5.627
 5200SOL    HW116499   1.531   1.741   5.701
 5200SOL    HW216500   1.602   1.883   5.662
 5201SOL     OW16501   6.207   6.193   4.157
 5201SOL    HW116502   6.150   6.275   4.169
 5201SOL    HW216503   6.209   6.168   4.060
 5202SOL     OW16504   5.726   4.642   5.831
 5202SOL    HW116505   5.688   4.735   5.827
 5202SOL    HW216506   5.729   4.613   5.927
 5203SOL     OW16507   2.394   0.666   0.107
 5203SOL    HW116508   2.433   0.758   0.114
 5203SOL    HW216509   2.365   0.649   0.013
 5204SOL     OW16510   4.166   6.545   6.946
 5204SOL    HW116511   4.234   6.619   6.950
 5204SOL    HW216512   4.180   6.492   6.862
 5205SOL     OW16513   6.793   5.777   0.182
 5205SOL    HW116514   6.752   5.710   0.120
 5205SOL    HW216515   6.726   5.804   0.251
 5206SOL     OW16516   0.301   4.647   6.789
 5206SOL    HW116517   0.293   4.720   6.857
 5206SOL    HW216518   0.371   4.582   6.819
 5207SOL     OW16519   1.328   6.813   3.958
 5207SOL    HW116520   1.407   6.786   3.903
 5207SOL    HW216521   1.356   6.826   4.053
 5208SOL     OW16522   4.804   2.080   6.952
 5208SOL    HW116523   4.891   2.127   6.971
 5208SOL    HW216524   4.743   2.090   0.006
 5209SOL     OW16525   5.580   0.677   1.467
 5209SOL    HW116526   5.621   0.743   1.403
 5209SOL    HW216527   5.631   0.680   1.554
 5210SOL     OW16528   4.562   3.487   0.432
 5210SOL    HW116529   4.462   3.487   0.436
 5210SOL    HW216530   4.592   3.486   0.337
 5211SOL     OW16531   4.351   1.952   5.139
 5211SOL    HW116532   4.312   1.903   5.217
 5211SOL    HW216533   4.295   2.031   5.117
 5212SOL     OW16534   1.562   3.705   0.984
 5212SOL    HW116535   1.659   3.684   0.991
 5212SOL    HW216536   1.549   3.783   0.923
 5213SOL     OW16537   4.532   3.251   0.822
 5213SOL    HW116538   4.454   3.250   0.760
 5213SOL    HW216539   4.605   3.308   0.785
 5214SOL     OW16540   5.752   2.745   6.259
 5214SOL    HW116541   5.663   2.778   6.291
 5214SOL    HW216542   5.790   2.682   6.326
 5215SOL     OW16543   1.116   4.741   4.039
 5215SOL    HW116544   1.035   4.773   4.089
 5215SOL    HW216545   1.142   4.651   4.075
 5216SOL     OW16546   4.817   4.904   1.386
 5216SOL    HW116547   4.807   4.833   1.316
 5216SOL    HW216548   4.874   4.870   1.461
 5217SOL     OW16549   3.466   5.641   4.614
 5217SOL    HW116550   3.367   5.635   4.628
 5217SOL    HW216551   3.502   5.550   4.592
 5218SOL     OW16552   0.673   1.277   1.288
 5218SOL    HW116553   0.705   1.207   1.224
 5218SOL    HW216554   0.751   1.325   1.327
 5219SOL     OW16555   3.438   1.525   5.024
 5219SOL    HW116556   3.487   1.531   5.112
 5219SOL    HW216557   3.474   1.595   4.962
 5220SOL     OW16558   1.200   5.599   2.828
 5220SOL    HW116559   1.221   5.511   2.785
 5220SOL    HW216560   1.113   5.634   2.792
 5221SOL     OW16561   6.543   0.805   3.357
 5221SOL    HW116562   6.580   0.841   3.271
 5221SOL    HW216563   6.473   0.736   3.337
 5222SOL     OW16564   3.934   6.694   2.052
 5222SOL    HW116565   3.969   6.606   2.020
 5222SOL    HW216566   4.008   6.762   2.048
 5223SOL     OW16567   0.042   2.697   6.856
 5223SOL    HW116568   0.037   2.760   6.934
 5223SOL    HW216569   7.014   2.615   6.876
 5224SOL     OW16570   6.607   3.298   4.499
 5224SOL    HW116571   6.533   3.240   4.533
 5224SOL    HW216572   6.580   3.340   4.413
 5225SOL     OW16573   6.807   1.188   3.908
 5225SOL    HW116574   6.806   1.277   3.862
 5225SOL    HW216575   6.866   1.125   3.858
 5226SOL     OW16576   0.230   6.771   4.705
 5226SOL    HW116577   0.161   6.825   4.656
 5226SOL    HW216578   0.319   6.785   4.661
 5227SOL     OW16579   0.568   3.803   5.832
 5227SOL    HW116580   0.626   3.772   5.907
 5227SOL    HW216581   0.616   3.789   5.745
 5228SOL     OW16582   0.507   2.373   0.053
 5228SOL    HW116583   0.556   2.336   6.998
 5228SOL    HW216584   0.419   2.328   0.062
 5229SOL     OW16585   3.059   6.757   0.604
 5229SOL    HW116586   3.078   6.743   0.701
 5229SOL    HW216587   3.130   6.713   0.549
 5230SOL     OW16588   6.726   5.981   2.000
 5230SOL    HW116589   6.686   5.936   1.920
 5230SOL    HW216590   6.749   6.076   1.977
 5231SOL     OW16591   4.331   2.336   4.161
 5231SOL    HW116592   4.378   2.381   4.086
 5231SOL    HW216593   4.271   2.264   4.125
 5232SOL     OW16594   1.219   3.955   6.126
 5232SOL    HW116595   1.235   3.891   6.201
 5232SOL    HW216596   1.127   3.994   6.134
 5233SOL     OW16597   3.705   1.397   2.787
 5233SOL    HW116598   3.607   1.411   2.795
 5233SOL    HW216599   3.724   1.298   2.790
 5234SOL     OW16600   2.801   2.522   6.003
 5234SOL    HW116601   2.791   2.545   5.906
 5234SOL    HW216602   2.870   2.451   6.013
 5235SOL     OW16603   1.717   2.447   0.890
 5235SOL    HW116604   1.764   2.482   0.809
 5235SOL    HW216605   1.633   2.400   0.863
 5236SOL     OW16606   3.759   5.786   2.081
 5236SOL    HW116607   3.823   5.765   2.008
 5236SOL    HW216608   3.796   5.859   2.138
 5237SOL     OW16609   0.859   0.816   4.965
 5237SOL    HW116610   0.807   0.854   5.041
 5237SOL    HW216611   0.957   0.831   4.981
 5238SOL     OW16612   1.010   5.112   0.271
 5238SOL    HW116613   0.951   5.043   0.313
 5238SOL    HW216614   0.954   5.183   0.230
 5239SOL     OW16615   3.611   2.573   6.339
 5239SOL    HW116616   3.661   2.525   6.412
 5239SOL    HW216617   3.515   2.581   6.365
 5240SOL     OW16618   3.291   2.123   5.329
 5240SOL    HW116619   3.372   2.072   5.302
 5240SOL    HW216620   3.254   2.173   5.250
 5241SOL     OW16621   0.503   6.014   3.966
 5241SOL    HW116622   0.411   5.980   3.985
 5241SOL    HW216623   0.508   6.111   3.990
 5242SOL     OW16624   6.253   6.970   1.154
 5242SOL    HW116625   6.322   0.018   1.158
 5242SOL    HW216626   6.180   6.989   1.219
 5243SOL     OW16627   1.944   5.967   1.780
 5243SOL    HW116628   2.020   5.934   1.724
 5243SOL    HW216629   1.980   6.014   1.861
 5244SOL     OW16630   3.491   4.453   6.570
 5244SOL    HW116631   3.507   4.427   6.475
 5244SOL    HW216632   3.578   4.473   6.614
 5245SOL     OW16633   3.860   4.291   0.346
 5245SOL    HW116634   3.835   4.264   0.439
 5245SOL    HW216635   3.953   4.329   0.346
 5246SOL     OW16636   6.260   2.761   1.551
 5246SOL    HW116637   6.164   2.771   1.578
 5246SOL    HW216638   6.289   2.844   1.503
 5247SOL     OW16639   2.754   7.004   6.383
 5247SOL    HW116640   2.679   0.046   6.385
 5247SOL    HW216641   2.829   0.013   6.439
 5248SOL     OW16642   6.392   1.768   3.132
 5248SOL    HW116643   6.461   1.831   3.094
 5248SOL    HW216644   6.304   1.787   3.089
 5249SOL     OW16645   0.465   5.461   6.358
 5249SOL    HW116646   0.413   5.431   6.439
 5249SOL    HW216647   0.548   5.508   6.387
 5250SOL     OW16648   1.852   5.929   6.879
 5250SOL    HW116649   1.761   5.940   6.919
 5250SOL    HW216650   1.850   5.954   6.782
 5251SOL     OW16651   0.997   3.206   6.682
 5251SOL    HW116652   0.909   3.181   6.642
 5251SOL    HW216653   1.017   3.302   6.662
 5252SOL     OW16654   2.807   6.638   0.647
 5252SOL    HW116655   2.893   6.678   0.617
 5252SOL    HW216656   2.757   6.706   0.702
 5253SOL     OW16657   0.072   3.594   4.744
 5253SOL    HW116658   0.054   3.684   4.705
 5253SOL    HW216659   0.007   3.575   4.817
 5254SOL     OW16660   4.783   0.950   2.933
 5254SOL    HW116661   4.732   1.016   2.988
 5254SOL    HW216662   4.880   0.955   2.956
 5255SOL     OW16663   5.474   2.437   4.869
 5255SOL    HW116664   5.386   2.480   4.889
 5255SOL    HW216665   5.497   2.451   4.773
 5256SOL     OW16666   5.329   1.513   4.098
 5256SOL    HW116667   5.261   1.506   4.025
 5256SOL    HW216668   5.285   1.492   4.186
 5257SOL     OW16669   5.480   0.060   1.584
 5257SOL    HW116670   5.516   0.012   1.504
 5257SOL    HW216671   5.501   0.157   1.577
 5258SOL     OW16672   5.833   3.071   1.864
 5258SOL    HW116673   5.747   3.024   1.878
 5258SOL    HW216674   5.871   3.046   1.775
 5259SOL     OW16675   4.964   6.565   2.404
 5259SOL    HW116676   4.890   6.545   2.468
 5259SOL    HW216677   4.934   6.632   2.337
 5260SOL     OW16678   5.029   3.524   0.912
 5260SOL    HW116679   5.035   3.562   1.004
 5260SOL    HW216680   4.961   3.574   0.860
 5261SOL     OW16681   0.194   4.063   5.883
 5261SOL    HW116682   0.257   4.041   5.808
 5261SOL    HW216683   0.117   4.000   5.881
 5262SOL     OW16684   2.297   1.312   3.976
 5262SOL    HW116685   2.329   1.239   4.036
 5262SOL    HW216686   2.211   1.348   4.011
 5263SOL     OW16687   1.696   1.112   3.303
 5263SOL    HW116688   1.625   1.051   3.268
 5263SOL    HW216689   1.667   1.148   3.392
 5264SOL     OW16690   6.897   2.222   2.232
 5264SOL    HW116691   6.812   2.268   2.258
 5264SOL    HW216692   6.930   2.258   2.145
 5265SOL     OW16693   6.141   3.971   3.828
 5265SOL    HW116694   6.088   3.893   3.794
 5265SOL    HW216695   6.151   4.039   3.756
 5266SOL     OW16696   3.558   4.937   6.747
 5266SOL    HW116697   3.572   4.885   6.663
 5266SOL    HW216698   3.639   4.929   6.805
 5267SOL     OW16699   5.265   2.598   4.976
 5267SOL    HW116700   5.293   2.572   5.068
 5267SOL    HW216701   5.214   2.683   4.979
 5268SOL     OW16702   5.526   1.101   0.411
 5268SOL    HW116703   5.478   1.015   0.393
 5268SOL    HW216704   5.461   1.177   0.405
 5269SOL     OW16705   0.653   6.426   2.545
 5269SOL    HW116706   0.706   6.342   2.549
 5269SOL    HW216707   0.655   6.470   2.635
 5270SOL     OW16708   5.644   1.160   1.613
 5270SOL    HW116709   5.709   1.121   1.548
 5270SOL    HW216710   5.569   1.095   1.628
 5271SOL     OW16711   6.576   5.364   5.834
 5271SOL    HW116712   6.597   5.271   5.804
 5271SOL    HW216713   6.492   5.363   5.889
 5272SOL     OW16714   3.333   6.295   1.706
 5272SOL    HW116715   3.237   6.306   1.678
 5272SOL    HW216716   3.391   6.292   1.624
 5273SOL     OW16717   0.309   3.001   3.621
 5273SOL    HW116718   0.311   2.992   3.522
 5273SOL    HW216719   0.267   3.089   3.646
 5274SOL     OW16720   6.073   0.283   2.868
 5274SOL    HW116721   5.984   0.259   2.829
 5274SOL    HW216722   6.136   0.206   2.858
 5275SOL     OW16723   3.487   1.858   0.870
 5275SOL    HW116724   3.392   1.873   0.842
 5275SOL    HW216725   3.535   1.945   0.873
 5276SOL     OW16726   1.424   6.916   0.678
 5276SOL    HW116727   1.351   6.984   0.674
 5276SOL    HW216728   1.507   6.954   0.639
 5277SOL     OW16729   2.257   1.077   1.948
 5277SOL    HW116730   2.352   1.046   1.952
 5277SOL    HW216731   2.252   1.163   1.897
 5278SOL     OW16732   6.065   6.194   3.639
 5278SOL    HW116733   6.042   6.264   3.571
 5278SOL    HW216734   6.092   6.110   3.593
 5279SOL     OW16735   2.569   5.124   6.565
 5279SOL    HW116736   2.499   5.068   6.609
 5279SOL    HW216737   2.627   5.065   6.508
 5280SOL     OW16738   3.177   5.640   4.670
 5280SOL    HW116739   3.128   5.702   4.609
 5280SOL    HW216740   3.134   5.549   4.667
 5281SOL     OW16741   0.426   1.924   2.452
 5281SOL    HW116742   0.355   1.880   2.505
 5281SOL    HW216743   0.457   2.007   2.499
 5282SOL     OW16744   3.542   1.635   3.943
 5282SOL    HW116745   3.502   1.603   3.857
 5282SOL    HW216746   3.641   1.630   3.938
 5283SOL     OW16747   4.345   6.188   1.470
 5283SOL    HW116748   4.254   6.152   1.493
 5283SOL    HW216749   4.335   6.277   1.426
 5284SOL     OW16750   4.834   3.932   3.201
 5284SOL    HW116751   4.913   3.912   3.142
 5284SOL    HW216752   4.765   3.983   3.149
 5285SOL     OW16753   2.179   4.807   3.789
 5285SOL    HW116754   2.194   4.845   3.698
 5285SOL    HW216755   2.210   4.873   3.858
 5286SOL     OW16756   1.831   4.674   0.565
 5286SOL    HW116757   1.771   4.753   0.576
 5286SOL    HW216758   1.883   4.682   0.480
 5287SOL     OW16759   3.240   0.427   6.758
 5287SOL    HW116760   3.265   0.521   6.733
 5287SOL    HW216761   3.258   0.366   6.682
 5288SOL     OW16762   2.899   6.992   2.053
 5288SOL    HW116763   2.833   0.042   2.046
 5288SOL    HW216764   2.883   6.942   2.138
 5289SOL     OW16765   2.300   5.176   6.733
 5289SOL    HW116766   2.382   5.232   6.730
 5289SOL    HW216767   2.240   5.209   6.806
 5290SOL     OW16768   2.886   5.908   4.912
 5290SOL    HW116769   2.973   5.859   4.926
 5290SOL    HW216770   2.890   5.996   4.958
 5291SOL     OW16771   2.522   5.974   5.683
 5291SOL    HW116772   2.469   5.978   5.767
 5291SOL    HW216773   2.605   5.920   5.697
 5292SOL     OW16774   6.387   2.922   6.714
 5292SOL    HW116775   6.414   2.827   6.699
 5292SOL    HW216776   6.397   2.973   6.629
 5293SOL     OW16777   0.358   0.779   4.835
 5293SOL    HW116778   0.404   0.836   4.902
 5293SOL    HW216779   0.260   0.798   4.836
 5294SOL     OW16780   4.685   3.613   5.846
 5294SOL    HW116781   4.697   3.637   5.749
 5294SOL    HW216782   4.751   3.542   5.871
 5295SOL     OW16783   6.487   1.067   2.432
 5295SOL    HW116784   6.585   1.047   2.422
 5295SOL    HW216785   6.471   1.112   2.520
 5296SOL     OW16786   2.032   5.443   6.492
 5296SOL    HW116787   1.935   5.429   6.472
 5296SOL    HW216788   2.052   5.411   6.584
 5297SOL     OW16789   1.891   2.275   1.328
 5297SOL    HW116790   1.863   2.186   1.362
 5297SOL    HW216791   1.812   2.323   1.289
 5298SOL     OW16792   0.024   6.043   1.664
 5298SOL    HW116793   0.039   6.087   1.752
 5298SOL    HW216794   0.112   6.030   1.618
 5299SOL     OW16795   2.978   1.997   0.308
 5299SOL    HW116796   2.916   2.041   0.373
 5299SOL    HW216797   3.023   2.067   0.252
 5300SOL     OW16798   0.040   5.574   2.770
 5300SOL    HW116799   0.007   5.490   2.727
 5300SOL    HW216800   0.126   5.602   2.726
 5301SOL     OW16801   4.621   1.250   0.422
 5301SOL    HW116802   4.689   1.189   0.463
 5301SOL    HW216803   4.569   1.297   0.494
 5302SOL     OW16804   5.721   5.056   3.625
 5302SOL    HW116805   5.631   5.071   3.667
 5302SOL    HW216806   5.709   5.012   3.537
 5303SOL     OW16807   6.940   6.728   3.833
 5303SOL    HW116808   6.943   6.767   3.741
 5303SOL    HW216809   6.883   6.786   3.891
 5304SOL     OW16810   6.487   2.724   6.250
 5304SOL    HW116811   6.492   2.629   6.221
 5304SOL    HW216812   6.486   2.783   6.169
 5305SOL     OW16813   1.437   6.891   4.186
 5305SOL    HW116814   1.413   6.921   4.279
 5305SOL    HW216815   1.507   6.952   4.148
 5306SOL     OW16816   1.945   6.409   4.990
 5306SOL    HW116817   1.977   6.314   4.993
 5306SOL    HW216818   1.858   6.413   4.942
 5307SOL     OW16819   4.207   6.435   6.678
 5307SOL    HW116820   4.136   6.365   6.666
 5307SOL    HW216821   4.213   6.491   6.595
 5308SOL     OW16822   0.566   0.151   4.697
 5308SOL    HW116823   0.565   0.052   4.686
 5308SOL    HW216824   0.635   0.177   4.764
 5309SOL     OW16825   4.063   3.840   3.523
 5309SOL    HW116826   4.135   3.879   3.580
 5309SOL    HW216827   3.981   3.897   3.529
 5310SOL     OW16828   5.099   2.579   2.181
 5310SOL    HW116829   5.082   2.484   2.206
 5310SOL    HW216830   5.030   2.638   2.225
 5311SOL     OW16831   0.389   5.712   0.159
 5311SOL    HW116832   0.410   5.720   0.062
 5311SOL    HW216833   0.466   5.746   0.213
 5312SOL     OW16834   6.906   4.508   2.342
 5312SOL    HW116835   6.844   4.430   2.356
 5312SOL    HW216836   7.000   4.477   2.354
 5313SOL     OW16837   0.984   5.384   6.938
 5313SOL    HW116838   0.941   5.456   6.884
 5313SOL    HW216839   0.990   5.413   0.009
 5314SOL     OW16840   4.607   5.097   0.835
 5314SOL    HW116841   4.538   5.059   0.774
 5314SOL    HW216842   4.605   5.048   0.923
 5315SOL     OW16843   4.614   4.483   1.887
 5315SOL    HW116844   4.534   4.543   1.895
 5315SOL    HW216845   4.586   4.388   1.900
 5316SOL     OW16846   6.588   5.389   4.501
 5316SOL    HW116847   6.515   5.457   4.511
 5316SOL    HW216848   6.676   5.436   4.497
 5317SOL     OW16849   6.003   1.518   4.499
 5317SOL    HW116850   6.102   1.519   4.486
 5317SOL    HW216851   5.981   1.558   4.588
 5318SOL     OW16852   6.853   1.971   4.896
 5318SOL    HW116853   6.934   2.025   4.919
 5318SOL    HW216854   6.873   1.874   4.910
 5319SOL     OW16855   4.539   6.713   6.798
 5319SOL    HW116856   4.637   6.728   6.809
 5319SOL    HW216857   4.499   6.686   6.885
 5320SOL     OW16858   5.886   5.232   6.660
 5320SOL    HW116859   5.926   5.323   6.654
 5320SOL    HW216860   5.957   5.166   6.683
 5321SOL     OW16861   0.816   4.936   2.691
 5321SOL    HW116862   0.806   4.925   2.592
 5321SOL    HW216863   0.875   5.014   2.710
 5322SOL     OW16864   3.600   6.911   6.328
 5322SOL    HW116865   3.698   6.888   6.329
 5322SOL    HW216866   3.555   6.866   6.251
 5323SOL     OW16867   4.193   3.036   0.942
 5323SOL    HW116868   4.162   3.126   0.913
 5323SOL    HW216869   4.226   2.984   0.862
 5324SOL     OW16870   3.576   2.372   1.403
 5324SOL    HW116871   3.566   2.302   1.333
 5324SOL    HW216872   3.536   2.339   1.489
 5325SOL     OW16873   5.530   6.995   3.505
 5325SOL    HW116874   5.574   6.912   3.540
 5325SOL    HW216875   5.450   7.017   3.561
 5326SOL     OW16876   5.835   5.041   2.680
 5326SOL    HW116877   5.846   5.042   2.580
 5326SOL    HW216878   5.872   4.955   2.716
 5327SOL     OW16879   0.385   5.971   5.594
 5327SOL    HW116880   0.374   5.983   5.692
 5327SOL    HW216881   0.406   5.876   5.573
 5328SOL     OW16882   3.642   2.384   5.620
 5328SOL    HW116883   3.613   2.461   5.676
 5328SOL    HW216884   3.673   2.310   5.679
 5329SOL     OW16885   0.284   3.592   0.329
 5329SOL    HW116886   0.300   3.508   0.380
 5329SOL    HW216887   0.229   3.655   0.384
 5330SOL     OW16888   3.431   3.732   6.652
 5330SOL    HW116889   3.332   3.740   6.664
 5330SOL    HW216890   3.478   3.772   6.731
 5331SOL     OW16891   5.257   1.514   1.186
 5331SOL    HW116892   5.297   1.550   1.270
 5331SOL    HW216893   5.329   1.499   1.118
 5332SOL     OW16894   6.112   4.207   0.015
 5332SOL    HW116895   6.016   4.190   0.034
 5332SOL    HW216896   6.155   4.123   7.007
 5333SOL     OW16897   1.481   0.971   3.758
 5333SOL    HW116898   1.475   0.895   3.823
 5333SOL    HW216899   1.495   1.056   3.808
 5334SOL     OW16900   4.199   5.226   4.886
 5334SOL    HW116901   4.221   5.215   4.789
 5334SOL    HW216902   4.283   5.226   4.940
 5335SOL     OW16903   0.032   4.241   1.910
 5335SOL    HW116904   0.090   4.228   1.830
 5335SOL    HW216905   6.978   4.298   1.886
 5336SOL     OW16906   2.264   1.928   3.523
 5336SOL    HW116907   2.325   1.981   3.464
 5336SOL    HW216908   2.286   1.831   3.514
 5337SOL     OW16909   5.656   5.013   2.397
 5337SOL    HW116910   5.718   4.945   2.435
 5337SOL    HW216911   5.561   4.981   2.406
 5338SOL     OW16912   5.769   2.356   6.767
 5338SOL    HW116913   5.694   2.385   6.708
 5338SOL    HW216914   5.854   2.355   6.715
 5339SOL     OW16915   5.621   1.868   1.889
 5339SOL    HW116916   5.567   1.898   1.811
 5339SOL    HW216917   5.652   1.774   1.875
 5340SOL     OW16918   5.598   3.679   1.180
 5340SOL    HW116919   5.518   3.730   1.148
 5340SOL    HW216920   5.570   3.588   1.209
 5341SOL     OW16921   4.074   5.054   4.483
 5341SOL    HW116922   4.036   4.971   4.526
 5341SOL    HW216923   4.002   5.106   4.439
 5342SOL     OW16924   4.958   6.626   4.771
 5342SOL    HW116925   4.892   6.575   4.827
 5342SOL    HW216926   4.975   6.715   4.813
 5343SOL     OW16927   3.864   3.459   4.790
 5343SOL    HW116928   3.891   3.435   4.697
 5343SOL    HW216929   3.945   3.477   4.845
 5344SOL     OW16930   0.834   1.536   6.716
 5344SOL    HW116931   0.801   1.484   6.794
 5344SOL    HW216932   0.757   1.565   6.660
 5345SOL     OW16933   4.653   0.927   0.167
 5345SOL    HW116934   4.591   0.997   0.204
 5345SOL    HW216935   4.600   0.849   0.134
 5346SOL     OW16936   2.969   5.043   4.046
 5346SOL    HW116937   2.897   5.011   3.985
 5346SOL    HW216938   2.994   4.969   4.109
 5347SOL     OW16939   0.159   3.241   3.632
 5347SOL    HW116940   0.162   3.279   3.539
 5347SOL    HW216941   0.081   3.279   3.681
 5348SOL     OW16942   0.256   1.130   5.600
 5348SOL    HW116943   0.192   1.141   5.524
 5348SOL    HW216944   0.296   1.218   5.623
 5349SOL     OW16945   2.310   3.047   1.553
 5349SOL    HW116946   2.325   3.146   1.555
 5349SOL    HW216947   2.352   3.009   1.470
 5350SOL     OW16948   2.342   6.338   5.756
 5350SOL    HW116949   2.422   6.307   5.809
 5350SOL    HW216950   2.357   6.318   5.659
 5351SOL     OW16951   0.366   4.467   1.594
 5351SOL    HW116952   0.311   4.484   1.676
 5351SOL    HW216953   0.350   4.540   1.528
 5352SOL     OW16954   2.300   4.183   3.332
 5352SOL    HW116955   2.277   4.102   3.278
 5352SOL    HW216956   2.217   4.218   3.376
 5353SOL     OW16957   3.602   5.045   3.086
 5353SOL    HW116958   3.664   5.061   3.009
 5353SOL    HW216959   3.554   5.130   3.108
 5354SOL     OW16960   2.836   4.071   6.729
 5354SOL    HW116961   2.828   4.091   6.632
 5354SOL    HW216962   2.748   4.086   6.775
 5355SOL     OW16963   5.086   5.179   5.401
 5355SOL    HW116964   5.161   5.206   5.340
 5355SOL    HW216965   5.000   5.216   5.366
 5356SOL     OW16966   6.904   3.419   1.780
 5356SOL    HW116967   6.986   3.380   1.737
 5356SOL    HW216968   6.910   3.519   1.778
 5357SOL     OW16969   4.175   4.517   1.687
 5357SOL    HW116970   4.243   4.445   1.670
 5357SOL    HW216971   4.222   4.599   1.721
 5358SOL     OW16972   4.544   2.070   0.998
 5358SOL    HW116973   4.640   2.091   0.979
 5358SOL    HW216974   4.500   2.036   0.915
 5359SOL     OW16975   2.314   1.719   6.736
 5359SOL    HW116976   2.369   1.700   6.655
 5359SOL    HW216977   2.295   1.634   6.785
 5360SOL     OW16978   5.588   5.417   3.084
 5360SOL    HW116979   5.687   5.425   3.078
 5360SOL    HW216980   5.546   5.507   3.072
 5361SOL     OW16981   2.625   6.614   3.431
 5361SOL    HW116982   2.608   6.671   3.351
 5361SOL    HW216983   2.707   6.647   3.479
 5362SOL     OW16984   6.042   6.882   2.757
 5362SOL    HW116985   6.140   6.896   2.770
 5362SOL    HW216986   6.014   6.796   2.799
 5363SOL     OW16987   5.281   6.237   5.023
 5363SOL    HW116988   5.278   6.322   5.076
 5363SOL    HW216989   5.367   6.190   5.039
 5364SOL     OW16990   5.719   0.768   2.425
 5364SOL    HW116991   5.791   0.715   2.470
 5364SOL    HW216992   5.701   0.851   2.477
 5365SOL     OW16993   2.963   3.358   2.204
 5365SOL    HW116994   2.934   3.417   2.129
 5365SOL    HW216995   2.892   3.355   2.274
 5366SOL     OW16996   0.034   0.536   2.047
 5366SOL    HW116997   0.105   0.469   2.024
 5366SOL    HW216998   0.007   0.524   2.143
 5367SOL     OW16999   6.194   0.399   0.933
 5367SOL    HW117000   6.173   0.310   0.972
 5367SOL    HW217001   6.112   0.457   0.935
 5368SOL     OW17002   6.974   5.884   2.054
 5368SOL    HW117003   6.902   5.953   2.052
 5368SOL    HW217004   0.038   5.929   2.066
 5369SOL     OW17005   2.648   6.049   1.636
 5369SOL    HW117006   2.612   5.960   1.664
 5369SOL    HW217007   2.689   6.041   1.545
 5370SOL     OW17008   4.245   3.452   1.740
 5370SOL    HW117009   4.305   3.494   1.672
 5370SOL    HW217010   4.237   3.513   1.819
 5371SOL     OW17011   0.226   5.136   5.008
 5371SOL    HW117012   0.232   5.183   5.096
 5371SOL    HW217013   0.254   5.198   4.935
 5372SOL     OW17014   1.235   6.973   2.791
 5372SOL    HW117015   1.243   0.038   2.835
 5372SOL    HW217016   1.195   6.984   2.700
 5373SOL     OW17017   3.831   0.293   5.971
 5373SOL    HW117018   3.931   0.297   5.975
 5373SOL    HW217019   3.794   0.385   5.960
 5374SOL     OW17020   1.999   4.203   1.169
 5374SOL    HW117021   2.034   4.206   1.263
 5374SOL    HW217022   1.937   4.126   1.158
 5375SOL     OW17023   0.750   5.841   5.435
 5375SOL    HW117024   0.728   5.814   5.529
 5375SOL    HW217025   0.780   5.936   5.434
 5376SOL     OW17026   1.540   2.613   1.756
 5376SOL    HW117027   1.473   2.670   1.802
 5376SOL    HW217028   1.621   2.668   1.734
 5377SOL     OW17029   1.578   1.234   2.888
 5377SOL    HW117030   1.557   1.310   2.950
 5377SOL    HW217031   1.632   1.165   2.936
 5378SOL     OW17032   6.580   0.642   1.529
 5378SOL    HW117033   6.655   0.630   1.594
 5378SOL    HW217034   6.611   0.700   1.454
 5379SOL     OW17035   1.271   3.141   5.235
 5379SOL    HW117036   1.180   3.182   5.243
 5379SOL    HW217037   1.340   3.212   5.250
 5380SOL     OW17038   3.450   0.009   1.233
 5380SOL    HW117039   3.504   0.088   1.205
 5380SOL    HW217040   3.407   0.026   1.321
 5381SOL     OW17041   5.764   5.787   2.681
 5381SOL    HW117042   5.855   5.807   2.645
 5381SOL    HW217043   5.698   5.853   2.644
 5382SOL     OW17044   3.278   2.159   2.529
 5382SOL    HW117045   3.378   2.149   2.534
 5382SOL    HW217046   3.250   2.169   2.434
 5383SOL     OW17047   1.380   3.197   4.638
 5383SOL    HW117048   1.314   3.273   4.644
 5383SOL    HW217049   1.471   3.234   4.622
 5384SOL     OW17050   4.468   5.598   4.997
 5384SOL    HW117051   4.477   5.498   4.991
 5384SOL    HW217052   4.376   5.625   4.970
 5385SOL     OW17053   6.387   2.737   5.365
 5385SOL    HW117054   6.373   2.730   5.463
 5385SOL    HW217055   6.322   2.678   5.317
 5386SOL     OW17056   6.044   1.758   3.780
 5386SOL    HW117057   5.992   1.675   3.801
 5386SOL    HW217058   6.049   1.816   3.862
 5387SOL     OW17059   2.925   6.245   3.579
 5387SOL    HW117060   2.933   6.203   3.489
 5387SOL    HW217061   2.931   6.175   3.650
 5388SOL     OW17062   1.706   6.434   3.014
 5388SOL    HW117063   1.767   6.464   3.087
 5388SOL    HW217064   1.746   6.458   2.925
 5389SOL     OW17065   4.443   2.501   4.625
 5389SOL    HW117066   4.367   2.566   4.636
 5389SOL    HW217067   4.418   2.433   4.556
 5390SOL     OW17068   5.101   3.993   4.226
 5390SOL    HW117069   5.138   3.901   4.227
 5390SOL    HW217070   5.175   4.060   4.224
 5391SOL     OW17071   3.117   2.182   0.187
 5391SOL    HW117072   3.053   2.199   0.112
 5391SOL    HW217073   3.211   2.193   0.154
 5392SOL     OW17074   4.809   2.934   2.587
 5392SOL    HW117075   4.908   2.926   2.595
 5392SOL    HW217076   4.785   2.975   2.500
 5393SOL     OW17077   4.699   0.808   5.358
 5393SOL    HW117078   4.649   0.775   5.278
 5393SOL    HW217079   4.651   0.885   5.399
 5394SOL     OW17080   0.520   6.115   0.775
 5394SOL    HW117081   0.556   6.052   0.843
 5394SOL    HW217082   0.501   6.204   0.817
 5395SOL     OW17083   4.781   1.193   1.006
 5395SOL    HW117084   4.795   1.097   1.030
 5395SOL    HW217085   4.792   1.250   1.088
 5396SOL     OW17086   5.104   6.027   2.256
 5396SOL    HW117087   5.124   6.081   2.174
 5396SOL    HW217088   5.006   6.024   2.271
 5397SOL     OW17089   0.115   2.076   1.865
 5397SOL    HW117090   0.173   2.111   1.792
 5397SOL    HW217091   0.155   2.100   1.954
 5398SOL     OW17092   3.497   2.126   3.901
 5398SOL    HW117093   3.476   2.067   3.823
 5398SOL    HW217094   3.413   2.166   3.937
 5399SOL     OW17095   2.650   6.569   5.886
 5399SOL    HW117096   2.698   6.601   5.804
 5399SOL    HW217097   2.573   6.630   5.905
 5400SOL     OW17098   3.736   3.303   0.892
 5400SOL    HW117099   3.826   3.287   0.851
 5400SOL    HW217100   3.746   3.311   0.991
 5401SOL     OW17101   5.375   4.165   2.997
 5401SOL    HW117102   5.381   4.197   2.902
 5401SOL    HW217103   5.369   4.065   2.998
 5402SOL     OW17104   3.644   6.227   0.613
 5402SOL    HW117105   3.666   6.177   0.697
 5402SOL    HW217106   3.610   6.163   0.544
 5403SOL     OW17107   5.419   2.745   6.390
 5403SOL    HW117108   5.399   2.843   6.388
 5403SOL    HW217109   5.475   2.724   6.470
 5404SOL     OW17110   0.467   0.432   0.741
 5404SOL    HW117111   0.384   0.452   0.793
 5404SOL    HW217112   0.503   0.342   0.768
 5405SOL     OW17113   5.841   4.819   0.109
 5405SOL    HW117114   5.798   4.753   0.172
 5405SOL    HW217115   5.889   4.889   0.162
 5406SOL     OW17116   1.906   1.070   5.221
 5406SOL    HW117117   1.977   1.006   5.250
 5406SOL    HW217118   1.821   1.049   5.268
 5407SOL     OW17119   2.784   1.301   0.959
 5407SOL    HW117120   2.819   1.335   0.872
 5407SOL    HW217121   2.764   1.378   1.020
 5408SOL     OW17122   3.644   2.072   4.926
 5408SOL    HW117123   3.666   2.081   4.829
 5408SOL    HW217124   3.548   2.094   4.941
 5409SOL     OW17125   6.516   2.010   2.443
 5409SOL    HW117126   6.583   2.084   2.436
 5409SOL    HW217127   6.553   1.937   2.499
 5410SOL     OW17128   0.395   2.868   0.306
 5410SOL    HW117129   0.483   2.912   0.289
 5410SOL    HW217130   0.404   2.769   0.294
 5411SOL     OW17131   5.045   4.519   6.904
 5411SOL    HW117132   5.070   4.615   6.893
 5411SOL    HW217133   5.019   4.503   6.999
 5412SOL     OW17134   2.045   1.428   6.411
 5412SOL    HW117135   1.975   1.357   6.418
 5412SOL    HW217136   2.059   1.452   6.315
 5413SOL     OW17137   6.966   6.834   5.771
 5413SOL    HW117138   6.876   6.877   5.778
 5413SOL    HW217139   0.012   6.900   5.801
 5414SOL     OW17140   6.715   4.676   5.414
 5414SOL    HW117141   6.621   4.665   5.447
 5414SOL    HW217142   6.720   4.756   5.354
 5415SOL     OW17143   2.866   5.672   0.665
 5415SOL    HW117144   2.820   5.741   0.610
 5415SOL    HW217145   2.804   5.595   0.682
 5416SOL     OW17146   3.082   5.358   4.651
 5416SOL    HW117147   3.069   5.280   4.711
 5416SOL    HW217148   3.031   5.344   4.566
 5417SOL     OW17149   3.938   6.683   4.201
 5417SOL    HW117150   3.988   6.733   4.273
 5417SOL    HW217151   3.845   6.719   4.194
 5418SOL     OW17152   5.626   5.243   4.823
 5418SOL    HW117153   5.696   5.314   4.822
 5418SOL    HW217154   5.624   5.197   4.734
 5419SOL     OW17155   3.964   6.582   0.300
 5419SOL    HW117156   3.967   6.611   0.395
 5419SOL    HW217157   3.925   6.491   0.294
 5420SOL     OW17158   1.773   2.046   1.395
 5420SOL    HW117159   1.688   2.077   1.438
 5420SOL    HW217160   1.753   1.966   1.338
 5421SOL     OW17161   3.252   5.706   2.066
 5421SOL    HW117162   3.155   5.692   2.089
 5421SOL    HW217163   3.308   5.647   2.123
 5422SOL     OW17164   2.104   5.839   4.039
 5422SOL    HW117165   2.048   5.800   4.112
 5422SOL    HW217166   2.176   5.895   4.079
 5423SOL     OW17167   6.284   5.226   1.673
 5423SOL    HW117168   6.306   5.231   1.576
 5423SOL    HW217169   6.271   5.130   1.699
 5424SOL     OW17170   4.856   3.780   4.205
 5424SOL    HW117171   4.883   3.699   4.153
 5424SOL    HW217172   4.838   3.754   4.300
 5425SOL     OW17173   6.477   2.937   4.428
 5425SOL    HW117174   6.439   2.954   4.520
 5425SOL    HW217175   6.570   2.973   4.424
 5426SOL     OW17176   4.686   5.628   2.262
 5426SOL    HW117177   4.605   5.581   2.298
 5426SOL    HW217178   4.723   5.688   2.333
 5427SOL     OW17179   4.445   2.649   0.163
 5427SOL    HW117180   4.526   2.676   0.215
 5427SOL    HW217181   4.474   2.601   0.080
 5428SOL     OW17182   5.191   6.366   2.758
 5428SOL    HW117183   5.171   6.271   2.737
 5428SOL    HW217184   5.247   6.406   2.685
 5429SOL     OW17185   2.643   6.868   5.149
 5429SOL    HW117186   2.572   6.868   5.078
 5429SOL    HW217187   2.631   6.948   5.208
 5430SOL     OW17188   1.496   2.936   5.737
 5430SOL    HW117189   1.406   2.936   5.694
 5430SOL    HW217190   1.515   3.027   5.775
 5431SOL     OW17191   3.505   4.741   6.517
 5431SOL    HW117192   3.475   4.745   6.421
 5431SOL    HW217193   3.494   4.647   6.551
 5432SOL     OW17194   5.644   5.548   0.526
 5432SOL    HW117195   5.606   5.629   0.572
 5432SOL    HW217196   5.742   5.542   0.546
 5433SOL     OW17197   1.129   6.850   1.002
 5433SOL    HW117198   1.116   6.847   0.903
 5433SOL    HW217199   1.072   6.781   1.046
 5434SOL     OW17200   5.047   1.418   5.135
 5434SOL    HW117201   5.127   1.359   5.147
 5434SOL    HW217202   5.055   1.498   5.195
 5435SOL     OW17203   6.354   3.562   0.945
 5435SOL    HW117204   6.410   3.511   1.010
 5435SOL    HW217205   6.283   3.612   0.994
 5436SOL     OW17206   0.132   5.536   4.171
 5436SOL    HW117207   0.041   5.575   4.163
 5436SOL    HW217208   0.194   5.603   4.210
 5437SOL     OW17209   3.077   4.454   6.096
 5437SOL    HW117210   3.039   4.547   6.101
 5437SOL    HW217211   3.003   4.388   6.103
 5438SOL     OW17212   5.333   5.031   2.104
 5438SOL    HW117213   5.270   5.079   2.043
 5438SOL    HW217214   5.290   4.946   2.135
 5439SOL     OW17215   1.139   4.193   0.322
 5439SOL    HW117216   1.085   4.137   0.259
 5439SOL    HW217217   1.224   4.222   0.278
 5440SOL     OW17218   5.751   6.933   3.176
 5440SOL    HW117219   5.800   6.977   3.100
 5440SOL    HW217220   5.709   7.003   3.233
 5441SOL     OW17221   5.445   3.376   3.293
 5441SOL    HW117222   5.440   3.447   3.222
 5441SOL    HW217223   5.540   3.358   3.315
 5442SOL     OW17224   3.663   0.415   3.389
 5442SOL    HW117225   3.741   0.409   3.327
 5442SOL    HW217226   3.661   0.506   3.432
 5443SOL     OW17227   4.397   6.632   4.071
 5443SOL    HW117228   4.414   6.585   4.158
 5443SOL    HW217229   4.339   6.575   4.013
 5444SOL     OW17230   6.911   2.402   3.996
 5444SOL    HW117231   6.899   2.316   4.045
 5444SOL    HW217232   6.978   2.391   3.923
 5445SOL     OW17233   5.153   4.501   4.476
 5445SOL    HW117234   5.078   4.436   4.486
 5445SOL    HW217235   5.240   4.452   4.476
 5446SOL     OW17236   6.445   4.550   4.435
 5446SOL    HW117237   6.403   4.460   4.446
 5446SOL    HW217238   6.532   4.541   4.386
 5447SOL     OW17239   2.428   1.376   1.156
 5447SOL    HW117240   2.386   1.387   1.066
 5447SOL    HW217241   2.500   1.444   1.168
 5448SOL     OW17242   4.808   5.364   4.172
 5448SOL    HW117243   4.826   5.457   4.206
 5448SOL    HW217244   4.874   5.341   4.101
 5449SOL     OW17245   2.679   1.660   1.829
 5449SOL    HW117246   2.767   1.631   1.792
 5449SOL    HW217247   2.626   1.707   1.758
 5450SOL     OW17248   3.878   6.152   1.184
 5450SOL    HW117249   3.821   6.072   1.166
 5450SOL    HW217250   3.827   6.235   1.165
 5451SOL     OW17251   1.806   6.751   3.083
 5451SOL    HW117252   1.819   6.678   3.150
 5451SOL    HW217253   1.853   6.727   2.998
 5452SOL     OW17254   2.183   4.554   0.950
 5452SOL    HW117255   2.167   4.464   0.910
 5452SOL    HW217256   2.103   4.613   0.934
 5453SOL     OW17257   5.094   4.192   1.786
 5453SOL    HW117258   5.048   4.230   1.706
 5453SOL    HW217259   5.025   4.161   1.852
 5454SOL     OW17260   5.726   6.176   1.938
 5454SOL    HW117261   5.726   6.273   1.911
 5454SOL    HW217262   5.807   6.158   1.994
 5455SOL     OW17263   0.809   1.319   3.112
 5455SOL    HW117264   0.826   1.352   3.019
 5455SOL    HW217265   0.771   1.227   3.109
 5456SOL     OW17266   4.332   0.776   6.779
 5456SOL    HW117267   4.399   0.704   6.758
 5456SOL    HW217268   4.377   0.852   6.824
 5457SOL     OW17269   6.399   1.929   0.241
 5457SOL    HW117270   6.356   1.839   0.249
 5457SOL    HW217271   6.497   1.921   0.254
 5458SOL     OW17272   6.543   5.111   1.201
 5458SOL    HW117273   6.599   5.027   1.200
 5458SOL    HW217274   6.486   5.114   1.119
 5459SOL     OW17275   1.909   4.431   5.217
 5459SOL    HW117276   1.980   4.406   5.151
 5459SOL    HW217277   1.827   4.459   5.167
 5460SOL     OW17278   2.470   1.116   1.648
 5460SOL    HW117279   2.488   1.141   1.743
 5460SOL    HW217280   2.510   1.185   1.587
 5461SOL     OW17281   1.084   1.541   5.739
 5461SOL    HW117282   1.140   1.604   5.793
 5461SOL    HW217283   1.137   1.508   5.660
 5462SOL     OW17284   5.042   6.027   6.802
 5462SOL    HW117285   5.131   6.030   6.846
 5462SOL    HW217286   5.052   6.049   6.705
 5463SOL     OW17287   6.467   2.082   6.884
 5463SOL    HW117288   6.428   2.001   6.927
 5463SOL    HW217289   6.514   2.137   6.953
 5464SOL     OW17290   6.649   5.545   5.459
 5464SOL    HW117291   6.696   5.554   5.547
 5464SOL    HW217292   6.708   5.496   5.394
 5465SOL     OW17293   7.024   6.916   3.051
 5465SOL    HW117294   0.048   6.890   2.968
 5465SOL    HW217295   0.030   7.007   3.079
 5466SOL     OW17296   5.675   2.836   5.290
 5466SOL    HW117297   5.722   2.922   5.269
 5466SOL    HW217298   5.649   2.791   5.204
 5467SOL     OW17299   5.521   3.921   3.744
 5467SOL    HW117300   5.602   3.933   3.801
 5467SOL    HW217301   5.548   3.887   3.654
 5468SOL     OW17302   6.679   2.725   3.610
 5468SOL    HW117303   6.740   2.678   3.546
 5468SOL    HW217304   6.701   2.823   3.610
 5469SOL     OW17305   2.681   6.568   6.453
 5469SOL    HW117306   2.588   6.582   6.486
 5469SOL    HW217307   2.744   6.560   6.531
 5470SOL     OW17308   4.131   5.496   3.731
 5470SOL    HW117309   4.096   5.553   3.805
 5470SOL    HW217310   4.139   5.401   3.764
 5471SOL     OW17311   5.725   0.260   2.494
 5471SOL    HW117312   5.772   0.263   2.405
 5471SOL    HW217313   5.627   0.255   2.479
 5472SOL     OW17314   3.621   2.921   6.507
 5472SOL    HW117315   3.600   2.944   6.413
 5472SOL    HW217316   3.660   2.829   6.511
 5473SOL     OW17317   2.251   4.793   0.241
 5473SOL    HW117318   2.243   4.702   0.282
 5473SOL    HW217319   2.340   4.831   0.262
 5474SOL     OW17320   0.668   5.813   3.794
 5474SOL    HW117321   0.681   5.905   3.830
 5474SOL    HW217322   0.583   5.775   3.831
 5475SOL     OW17323   1.832   1.732   0.960
 5475SOL    HW117324   1.901   1.667   0.992
 5475SOL    HW217325   1.749   1.682   0.935
 5476SOL     OW17326   2.564   5.046   5.545
 5476SOL    HW117327   2.657   5.083   5.554
 5476SOL    HW217328   2.558   4.959   5.593
 5477SOL     OW17329   1.861   3.821   3.133
 5477SOL    HW117330   1.826   3.913   3.116
 5477SOL    HW217331   1.829   3.760   3.061
 5478SOL     OW17332   5.421   6.014   5.842
 5478SOL    HW117333   5.331   5.971   5.849
 5478SOL    HW217334   5.410   6.113   5.829
 5479SOL     OW17335   4.860   1.315   4.977
 5479SOL    HW117336   4.908   1.359   4.902
 5479SOL    HW217337   4.914   1.325   5.061
 5480SOL     OW17338   5.990   5.341   4.790
 5480SOL    HW117339   6.076   5.363   4.744
 5480SOL    HW217340   5.925   5.304   4.723
 5481SOL     OW17341   4.809   1.183   4.635
 5481SOL    HW117342   4.869   1.259   4.658
 5481SOL    HW217343   4.807   1.117   4.710
 5482SOL     OW17344   3.095   3.947   2.824
 5482SOL    HW117345   3.144   4.017   2.876
 5482SOL    HW217346   3.161   3.883   2.784
 5483SOL     OW17347   6.114   2.610   5.445
 5483SOL    HW117348   6.201   2.561   5.445
 5483SOL    HW217349   6.077   2.613   5.352
 5484SOL     OW17350   6.306   0.418   3.507
 5484SOL    HW117351   6.235   0.488   3.491
 5484SOL    HW217352   6.341   0.429   3.600
 5485SOL     OW17353   3.260   6.706   4.700
 5485SOL    HW117354   3.330   6.638   4.722
 5485SOL    HW217355   3.201   6.719   4.779
 5486SOL     OW17356   2.230   6.452   3.781
 5486SOL    HW117357   2.192   6.360   3.780
 5486SOL    HW217358   2.188   6.505   3.856
 5487SOL     OW17359   5.598   3.603   6.577
 5487SOL    HW117360   5.567   3.654   6.657
 5487SOL    HW217361   5.618   3.508   6.603
 5488SOL     OW17362   5.265   1.281   0.868
 5488SOL    HW117363   5.344   1.336   0.894
 5488SOL    HW217364   5.195   1.340   0.827
 5489SOL     OW17365   1.038   4.099   1.813
 5489SOL    HW117366   0.959   4.081   1.871
 5489SOL    HW217367   1.052   4.024   1.749
 5490SOL     OW17368   3.682   0.031   0.838
 5490SOL    HW117369   3.700   0.040   0.740
 5490SOL    HW217370   3.600   7.000   0.852
 5491SOL     OW17371   1.385   4.065   5.717
 5491SOL    HW117372   1.394   4.072   5.816
 5491SOL    HW217373   1.460   4.115   5.673
 5492SOL     OW17374   1.139   1.657   6.296
 5492SOL    HW117375   1.120   1.754   6.308
 5492SOL    HW217376   1.233   1.645   6.265
 5493SOL     OW17377   4.021   3.687   4.396
 5493SOL    HW117378   4.051   3.691   4.301
 5493SOL    HW217379   4.075   3.618   4.445
 5494SOL     OW17380   6.051   2.799   0.137
 5494SOL    HW117381   6.149   2.784   0.122
 5494SOL    HW217382   6.005   2.711   0.147
 5495SOL     OW17383   3.019   2.644   1.764
 5495SOL    HW117384   2.935   2.679   1.722
 5495SOL    HW217385   2.997   2.564   1.820
 5496SOL     OW17386   2.782   6.763   3.163
 5496SOL    HW117387   2.728   6.699   3.108
 5496SOL    HW217388   2.862   6.793   3.111
 5497SOL     OW17389   6.972   1.880   3.345
 5497SOL    HW117390   6.994   1.787   3.314
 5497SOL    HW217391   6.931   1.876   3.436
 5498SOL     OW17392   5.207   0.076   1.296
 5498SOL    HW117393   5.269   0.083   1.218
 5498SOL    HW217394   5.213   7.009   1.336
 5499SOL     OW17395   1.089   0.930   3.907
 5499SOL    HW117396   1.123   0.937   3.813
 5499SOL    HW217397   1.012   0.868   3.911
 5500SOL     OW17398   2.195   5.925   0.245
 5500SOL    HW117399   2.109   5.890   0.283
 5500SOL    HW217400   2.203   6.022   0.265
 5501SOL     OW17401   3.591   0.270   1.200
 5501SOL    HW117402   3.599   0.277   1.101
 5501SOL    HW217403   3.552   0.355   1.237
 5502SOL     OW17404   5.289   4.239   6.404
 5502SOL    HW117405   5.347   4.163   6.434
 5502SOL    HW217406   5.335   4.325   6.421
 5503SOL     OW17407   0.121   4.615   2.865
 5503SOL    HW117408   0.061   4.694   2.879
 5503SOL    HW217409   0.091   4.539   2.922
 5504SOL     OW17410   3.912   1.931   5.666
 5504SOL    HW117411   3.976   1.972   5.731
 5504SOL    HW217412   3.884   1.841   5.698
 5505SOL     OW17413   2.466   5.127   4.332
 5505SOL    HW117414   2.397   5.179   4.384
 5505SOL    HW217415   2.487   5.042   4.381
 5506SOL     OW17416   6.867   0.934   6.010
 5506SOL    HW117417   6.903   1.015   6.057
 5506SOL    HW217418   6.917   0.920   5.925
 5507SOL     OW17419   1.776   6.888   2.580
 5507SOL    HW117420   1.757   6.893   2.678
 5507SOL    HW217421   1.837   6.964   2.554
 5508SOL     OW17422   1.988   1.314   0.269
 5508SOL    HW117423   1.987   1.408   0.233
 5508SOL    HW217424   1.897   1.290   0.302
 5509SOL     OW17425   1.020   6.500   0.268
 5509SOL    HW117426   0.988   6.532   0.358
 5509SOL    HW217427   0.992   6.404   0.255
 5510SOL     OW17428   5.319   6.228   0.837
 5510SOL    HW117429   5.382   6.152   0.854
 5510SOL    HW217430   5.341   6.272   0.750
 5511SOL     OW17431   2.419   0.156   4.308
 5511SOL    HW117432   2.457   0.193   4.393
 5511SOL    HW217433   2.489   0.103   4.260
 5512SOL     OW17434   6.000   2.031   1.455
 5512SOL    HW117435   6.061   1.989   1.522
 5512SOL    HW217436   5.954   2.109   1.496
 5513SOL     OW17437   3.344   4.049   5.841
 5513SOL    HW117438   3.274   4.073   5.908
 5513SOL    HW217439   3.325   4.095   5.755
 5514SOL     OW17440   4.433   5.551   2.360
 5514SOL    HW117441   4.346   5.501   2.356
 5514SOL    HW217442   4.428   5.618   2.434
 5515SOL     OW17443   0.523   4.375   1.245
 5515SOL    HW117444   0.510   4.292   1.190
 5515SOL    HW217445   0.540   4.351   1.340
 5516SOL     OW17446   1.404   3.285   6.925
 5516SOL    HW117447   1.401   3.357   6.995
 5516SOL    HW217448   1.312   3.248   6.911
 5517SOL     OW17449   2.516   2.575   2.187
 5517SOL    HW117450   2.513   2.667   2.148
 5517SOL    HW217451   2.503   2.508   2.114
 5518SOL     OW17452   6.375   6.848   6.455
 5518SOL    HW117453   6.288   6.883   6.489
 5518SOL    HW217454   6.393   6.758   6.496
 5519SOL     OW17455   5.149   3.246   3.062
 5519SOL    HW117456   5.193   3.209   3.144
 5519SOL    HW217457   5.076   3.308   3.088
 5520SOL     OW17458   6.587   5.700   2.389
 5520SOL    HW117459   6.619   5.610   2.358
 5520SOL    HW217460   6.566   5.696   2.486
 5521SOL     OW17461   4.017   6.558   2.502
 5521SOL    HW117462   4.066   6.580   2.417
 5521SOL    HW217463   3.943   6.623   2.515
 5522SOL     OW17464   0.720   4.944   0.633
 5522SOL    HW117465   0.711   4.987   0.723
 5522SOL    HW217466   0.634   4.899   0.610
 5523SOL     OW17467   2.861   0.120   3.032
 5523SOL    HW117468   2.896   0.056   2.963
 5523SOL    HW217469   2.843   0.070   3.117
 5524SOL     OW17470   6.442   5.196   4.610
 5524SOL    HW117471   6.539   5.209   4.629
 5524SOL    HW217472   6.390   5.273   4.648
 5525SOL     OW17473   0.121   3.748   6.983
 5525SOL    HW117474   0.098   3.790   0.046
 5525SOL    HW217475   0.099   3.651   6.985
 5526SOL     OW17476   5.355   4.460   4.955
 5526SOL    HW117477   5.369   4.429   4.861
 5526SOL    HW217478   5.262   4.437   4.983
 5527SOL     OW17479   0.801   3.804   3.918
 5527SOL    HW117480   0.829   3.894   3.884
 5527SOL    HW217481   0.837   3.791   4.010
 5528SOL     OW17482   1.228   1.837   6.850
 5528SOL    HW117483   1.250   1.741   6.867
 5528SOL    HW217484   1.235   1.856   6.752
 5529SOL     OW17485   2.149   0.098   4.269
 5529SOL    HW117486   2.129   0.043   4.188
 5529SOL    HW217487   2.247   0.109   4.279
 5530SOL     OW17488   0.300   2.665   2.700
 5530SOL    HW117489   0.284   2.628   2.792
 5530SOL    HW217490   0.241   2.745   2.685
 5531SOL     OW17491   3.998   3.863   2.635
 5531SOL    HW117492   3.961   3.892   2.724
 5531SOL    HW217493   3.948   3.910   2.562
 5532SOL     OW17494   1.562   1.616   0.896
 5532SOL    HW117495   1.531   1.612   0.801
 5532SOL    HW217496   1.557   1.525   0.937
 5533SOL     OW17497   3.358   1.160   2.866
 5533SOL    HW117498   3.369   1.138   2.769
 5533SOL    HW217499   3.392   1.083   2.921
 5534SOL     OW17500   0.829   2.461   5.644
 5534SOL    HW117501   0.849   2.551   5.682
 5534SOL    HW217502   0.909   2.427   5.594
 5535SOL     OW17503   0.393   3.273   3.946
 5535SOL    HW117504   0.492   3.291   3.942
 5535SOL    HW217505   0.343   3.355   3.917
 5536SOL     OW17506   3.549   1.077   4.217
 5536SOL    HW117507   3.515   1.121   4.301
 5536SOL    HW217508   3.484   1.094   4.142
 5537SOL     OW17509   2.938   0.971   4.490
 5537SOL    HW117510   2.882   1.025   4.553
 5537SOL    HW217511   2.947   0.878   4.524
 5538SOL     OW17512   3.368   6.917   4.543
 5538SOL    HW117513   3.291   6.854   4.554
 5538SOL    HW217514   3.335   7.003   4.505
 5539SOL     OW17515   1.432   2.944   0.371
 5539SOL    HW117516   1.400   3.036   0.351
 5539SOL    HW217517   1.407   2.919   0.465
 5540SOL     OW17518   6.245   3.658   3.056
 5540SOL    HW117519   6.206   3.566   3.069
 5540SOL    HW217520   6.226   3.713   3.137
 5541SOL     OW17521   5.808   2.025   6.698
 5541SOL    HW117522   5.819   1.935   6.655
 5541SOL    HW217523   5.752   2.016   6.780
 5542SOL     OW17524   5.517   6.648   6.150
 5542SOL    HW117525   5.439   6.586   6.144
 5542SOL    HW217526   5.499   6.717   6.219
 5543SOL     OW17527   2.592   5.281   6.338
 5543SOL    HW117528   2.631   5.205   6.288
 5543SOL    HW217529   2.600   5.264   6.436
 5544SOL     OW17530   5.274   5.735   6.323
 5544SOL    HW117531   5.252   5.708   6.229
 5544SOL    HW217532   5.355   5.793   6.323
 5545SOL     OW17533   4.578   1.299   3.463
 5545SOL    HW117534   4.569   1.395   3.488
 5545SOL    HW217535   4.504   1.247   3.506
 5546SOL     OW17536   1.514   6.712   3.772
 5546SOL    HW117537   1.442   6.733   3.706
 5546SOL    HW217538   1.597   6.686   3.725
 5547SOL     OW17539   3.814   0.623   4.903
 5547SOL    HW117540   3.911   0.607   4.921
 5547SOL    HW217541   3.774   0.542   4.859
 5548SOL     OW17542   5.588   3.474   4.910
 5548SOL    HW117543   5.535   3.509   4.833
 5548SOL    HW217544   5.663   3.417   4.874
 5549SOL     OW17545   3.902   4.737   1.015
 5549SOL    HW117546   3.967   4.763   1.087
 5549SOL    HW217547   3.879   4.818   0.960
 5550SOL     OW17548   2.291   4.237   2.288
 5550SOL    HW117549   2.253   4.227   2.196
 5550SOL    HW217550   2.256   4.321   2.329
 5551SOL     OW17551   1.288   6.229   3.199
 5551SOL    HW117552   1.324   6.322   3.191
 5551SOL    HW217553   1.361   6.167   3.229
 5552SOL     OW17554   6.940   6.833   6.691
 5552SOL    HW117555   6.903   6.758   6.747
 5552SOL    HW217556   6.919   6.817   6.595
 5553SOL     OW17557   4.793   6.280   0.216
 5553SOL    HW117558   4.823   6.301   0.309
 5553SOL    HW217559   4.871   6.283   0.154
 5554SOL     OW17560   4.630   1.963   6.779
 5554SOL    HW117561   4.688   1.931   6.704
 5554SOL    HW217562   4.686   2.006   6.849
 5555SOL     OW17563   1.258   4.316   2.784
 5555SOL    HW117564   1.235   4.341   2.878
 5555SOL    HW217565   1.281   4.398   2.732
 5556SOL     OW17566   6.675   1.659   3.507
 5556SOL    HW117567   6.723   1.616   3.431
 5556SOL    HW217568   6.717   1.747   3.529
 5557SOL     OW17569   3.247   6.954   2.940
 5557SOL    HW117570   3.302   6.906   2.871
 5557SOL    HW217571   3.296   6.953   3.028
 5558SOL     OW17572   3.542   3.400   5.692
 5558SOL    HW117573   3.506   3.459   5.620
 5558SOL    HW217574   3.550   3.454   5.777
 5559SOL     OW17575   1.188   0.459   1.276
 5559SOL    HW117576   1.167   0.374   1.326
 5559SOL    HW217577   1.115   0.526   1.292
 5560SOL     OW17578   0.425   5.387   2.422
 5560SOL    HW117579   0.461   5.457   2.484
 5560SOL    HW217580   0.486   5.307   2.423
 5561SOL     OW17581   1.767   1.487   4.032
 5561SOL    HW117582   1.802   1.453   3.945
 5561SOL    HW217583   1.668   1.502   4.025
 5562SOL     OW17584   4.121   2.533   6.587
 5562SOL    HW117585   4.159   2.536   6.495
 5562SOL    HW217586   4.159   2.455   6.637
 5563SOL     OW17587   3.604   5.197   2.097
 5563SOL    HW117588   3.542   5.235   2.029
 5563SOL    HW217589   3.590   5.244   2.184
 5564SOL     OW17590   4.751   0.253   1.323
 5564SOL    HW117591   4.714   0.212   1.407
 5564SOL    HW217592   4.777   0.181   1.259
 5565SOL     OW17593   4.736   1.667   6.103
 5565SOL    HW117594   4.823   1.626   6.132
 5565SOL    HW217595   4.754   1.753   6.055
 5566SOL     OW17596   1.534   4.603   6.214
 5566SOL    HW117597   1.591   4.531   6.175
 5566SOL    HW217598   1.590   4.659   6.276
 5567SOL     OW17599   0.029   2.017   1.084
 5567SOL    HW117600   7.017   2.108   1.064
 5567SOL    HW217601   0.113   2.003   1.032
 5568SOL     OW17602   4.752   1.731   3.731
 5568SOL    HW117603   4.764   1.743   3.830
 5568SOL    HW217604   4.743   1.820   3.687
 5569SOL     OW17605   1.800   2.214   2.541
 5569SOL    HW117606   1.730   2.277   2.506
 5569SOL    HW217607   1.791   2.125   2.495
 5570SOL     OW17608   6.404   4.608   5.234
 5570SOL    HW117609   6.406   4.533   5.167
 5570SOL    HW217610   6.389   4.694   5.186
 5571SOL     OW17611   0.113   5.959   0.542
 5571SOL    HW117612   0.174   6.015   0.487
 5571SOL    HW217613   0.033   5.934   0.488
 5572SOL     OW17614   1.382   1.984   5.313
 5572SOL    HW117615   1.398   1.894   5.353
 5572SOL    HW217616   1.413   2.055   5.376
 5573SOL     OW17617   2.513   4.599   4.482
 5573SOL    HW117618   2.427   4.620   4.436
 5573SOL    HW217619   2.584   4.583   4.414
 5574SOL     OW17620   0.557   2.139   2.592
 5574SOL    HW117621   0.545   2.192   2.676
 5574SOL    HW217622   0.604   2.195   2.523
 5575SOL     OW17623   6.859   1.066   1.372
 5575SOL    HW117624   6.835   1.163   1.382
 5575SOL    HW217625   6.898   1.050   1.282
 5576SOL     OW17626   1.024   5.193   1.746
 5576SOL    HW117627   0.947   5.141   1.710
 5576SOL    HW217628   1.081   5.224   1.669
 5577SOL     OW17629   3.313   3.760   5.900
 5577SOL    HW117630   3.220   3.745   5.868
 5577SOL    HW217631   3.355   3.835   5.849
 5578SOL     OW17632   3.884   3.559   0.782
 5578SOL    HW117633   3.862   3.612   0.701
 5578SOL    HW217634   3.818   3.485   0.792
 5579SOL     OW17635   0.742   3.473   0.250
 5579SOL    HW117636   0.792   3.466   0.164
 5579SOL    HW217637   0.692   3.389   0.267
 5580SOL     OW17638   5.658   2.648   5.479
 5580SOL    HW117639   5.691   2.711   5.409
 5580SOL    HW217640   5.640   2.559   5.438
 5581SOL     OW17641   1.023   6.841   1.464
 5581SOL    HW117642   1.117   6.854   1.496
 5581SOL    HW217643   0.998   6.915   1.402
 5582SOL     OW17644   2.924   3.803   5.152
 5582SOL    HW117645   2.942   3.720   5.204
 5582SOL    HW217646   2.838   3.843   5.182
 5583SOL     OW17647   4.949   0.209   2.551
 5583SOL    HW117648   5.002   0.186   2.632
 5583SOL    HW217649   4.853   0.184   2.565
 5584SOL     OW17650   5.518   4.513   4.205
 5584SOL    HW117651   5.529   4.609   4.179
 5584SOL    HW217652   5.457   4.467   4.141
 5585SOL     OW17653   5.393   6.226   3.997
 5585SOL    HW117654   5.361   6.278   3.917
 5585SOL    HW217655   5.371   6.130   3.985
 5586SOL     OW17656   0.291   2.393   6.850
 5586SOL    HW117657   0.327   2.485   6.866
 5586SOL    HW217658   0.291   2.342   6.936
 5587SOL     OW17659   4.098   6.436   1.721
 5587SOL    HW117660   4.083   6.450   1.623
 5587SOL    HW217661   4.195   6.425   1.739
 5588SOL     OW17662   1.549   5.824   2.807
 5588SOL    HW117663   1.494   5.892   2.760
 5588SOL    HW217664   1.578   5.859   2.896
 5589SOL     OW17665   6.251   4.025   5.323
 5589SOL    HW117666   6.183   3.955   5.343
 5589SOL    HW217667   6.308   3.994   5.247
 5590SOL     OW17668   6.850   5.876   3.997
 5590SOL    HW117669   6.770   5.914   3.951
 5590SOL    HW217670   6.917   5.949   4.014
 5591SOL     OW17671   5.152   1.925   0.321
 5591SOL    HW117672   5.210   1.957   0.246
 5591SOL    HW217673   5.193   1.845   0.364
 5592SOL     OW17674   6.850   4.765   2.678
 5592SOL    HW117675   6.859   4.816   2.592
 5592SOL    HW217676   6.908   4.808   2.748
 5593SOL     OW17677   0.646   3.043   6.365
 5593SOL    HW117678   0.696   3.057   6.450
 5593SOL    HW217679   0.615   3.131   6.330
 5594SOL     OW17680   3.625   1.280   6.815
 5594SOL    HW117681   3.529   1.269   6.842
 5594SOL    HW217682   3.668   1.347   6.876
 5595SOL     OW17683   6.424   0.485   5.127
 5595SOL    HW117684   6.507   0.514   5.079
 5595SOL    HW217685   6.399   0.554   5.194
 5596SOL     OW17686   4.669   0.281   3.247
 5596SOL    HW117687   4.740   0.302   3.180
 5596SOL    HW217688   4.702   0.211   3.310
 5597SOL     OW17689   5.500   2.808   4.661
 5597SOL    HW117690   5.486   2.866   4.580
 5597SOL    HW217691   5.537   2.863   4.735
 5598SOL     OW17692   5.903   3.505   3.910
 5598SOL    HW117693   5.987   3.497   3.965
 5598SOL    HW217694   5.823   3.490   3.968
 5599SOL     OW17695   0.414   2.727   1.406
 5599SOL    HW117696   0.337   2.676   1.441
 5599SOL    HW217697   0.495   2.709   1.462
 5600SOL     OW17698   2.426   0.401   1.778
 5600SOL    HW117699   2.389   0.428   1.866
 5600SOL    HW217700   2.354   0.403   1.709
 5601SOL     OW17701   2.739   1.029   6.567
 5601SOL    HW117702   2.652   0.990   6.539
 5601SOL    HW217703   2.812   0.962   6.552
 5602SOL     OW17704   0.117   1.471   1.444
 5602SOL    HW117705   0.060   1.458   1.363
 5602SOL    HW217706   0.207   1.504   1.416
 5603SOL     OW17707   5.958   2.559   0.184
 5603SOL    HW117708   5.860   2.579   0.186
 5603SOL    HW217709   5.984   2.530   0.092
 5604SOL     OW17710   6.352   1.870   4.225
 5604SOL    HW117711   6.417   1.793   4.227
 5604SOL    HW217712   6.260   1.836   4.247
 5605SOL     OW17713   6.536   1.612   4.948
 5605SOL    HW117714   6.526   1.537   4.883
 5605SOL    HW217715   6.484   1.591   5.031
 5606SOL     OW17716   4.499   6.538   0.424
 5606SOL    HW117717   4.588   6.562   0.464
 5606SOL    HW217718   4.430   6.603   0.454
 5607SOL     OW17719   6.248   1.126   3.138
 5607SOL    HW117720   6.168   1.160   3.187
 5607SOL    HW217721   6.223   1.048   3.081
 5608SOL     OW17722   5.951   0.364   3.964
 5608SOL    HW117723   5.890   0.383   4.040
 5608SOL    HW217724   5.940   0.434   3.893
 5609SOL     OW17725   3.611   5.705   1.327
 5609SOL    HW117726   3.523   5.664   1.350
 5609SOL    HW217727   3.683   5.638   1.338
 5610SOL     OW17728   4.782   5.462   0.938
 5610SOL    HW117729   4.724   5.417   0.870
 5610SOL    HW217730   4.817   5.394   1.003
 5611SOL     OW17731   0.540   5.736   3.037
 5611SOL    HW117732   0.570   5.647   3.072
 5611SOL    HW217733   0.527   5.799   3.113
 5612SOL     OW17734   4.264   2.625   5.899
 5612SOL    HW117735   4.216   2.702   5.941
 5612SOL    HW217736   4.356   2.618   5.937
 5613SOL     OW17737   6.655   5.678   4.622
 5613SOL    HW117738   6.560   5.679   4.655
 5613SOL    HW217739   6.716   5.659   4.698
 5614SOL     OW17740   4.671   2.546   4.479
 5614SOL    HW117741   4.727   2.476   4.523
 5614SOL    HW217742   4.583   2.553   4.526
 5615SOL     OW17743   6.563   1.394   4.126
 5615SOL    HW117744   6.545   1.382   4.028
 5615SOL    HW217745   6.661   1.404   4.141
 5616SOL     OW17746   2.755   2.371   5.050
 5616SOL    HW117747   2.809   2.308   5.105
 5616SOL    HW217748   2.729   2.327   4.964
 5617SOL     OW17749   2.746   5.791   5.689
 5617SOL    HW117750   2.825   5.794   5.627
 5617SOL    HW217751   2.675   5.734   5.650
 5618SOL     OW17752   0.068   4.506   4.346
 5618SOL    HW117753   0.133   4.549   4.408
 5618SOL    HW217754   7.000   4.520   4.379
 5619SOL     OW17755   3.862   4.128   4.626
 5619SOL    HW117756   3.902   4.206   4.577
 5619SOL    HW217757   3.899   4.043   4.589
 5620SOL     OW17758   4.074   3.386   1.331
 5620SOL    HW117759   4.108   3.385   1.237
 5620SOL    HW217760   4.141   3.341   1.390
 5621SOL     OW17761   2.815   2.538   0.120
 5621SOL    HW117762   2.731   2.527   0.173
 5621SOL    HW217763   2.855   2.628   0.139
 5622SOL     OW17764   4.984   0.746   5.874
 5622SOL    HW117765   4.979   0.711   5.967
 5622SOL    HW217766   5.066   0.802   5.864
 5623SOL     OW17767   4.168   5.924   5.394
 5623SOL    HW117768   4.204   5.925   5.487
 5623SOL    HW217769   4.243   5.909   5.330
 5624SOL     OW17770   0.589   4.340   3.386
 5624SOL    HW117771   0.655   4.279   3.342
 5624SOL    HW217772   0.636   4.395   3.455
 5625SOL     OW17773   6.705   6.940   5.486
 5625SOL    HW117774   6.657   7.022   5.454
 5625SOL    HW217775   6.733   6.953   5.581
 5626SOL     OW17776   2.063   5.835   4.597
 5626SOL    HW117777   2.093   5.878   4.682
 5626SOL    HW217778   2.040   5.905   4.530
 5627SOL     OW17779   0.787   4.781   6.776
 5627SOL    HW117780   0.762   4.801   6.871
 5627SOL    HW217781   0.753   4.853   6.716
 5628SOL     OW17782   1.985   2.331   2.722
 5628SOL    HW117783   2.032   2.390   2.656
 5628SOL    HW217784   1.915   2.277   2.675
 5629SOL     OW17785   3.786   3.662   1.809
 5629SOL    HW117786   3.712   3.595   1.799
 5629SOL    HW217787   3.753   3.741   1.861
 5630SOL     OW17788   1.751   3.787   6.043
 5630SOL    HW117789   1.778   3.698   6.080
 5630SOL    HW217790   1.774   3.791   5.946
 5631SOL     OW17791   4.622   1.874   2.117
 5631SOL    HW117792   4.615   1.875   2.217
 5631SOL    HW217793   4.577   1.955   2.080
 5632SOL     OW17794   2.998   2.326   5.909
 5632SOL    HW117795   3.027   2.380   5.831
 5632SOL    HW217796   3.045   2.358   5.992
 5633SOL     OW17797   6.023   4.824   4.317
 5633SOL    HW117798   6.098   4.821   4.383
 5633SOL    HW217799   6.059   4.812   4.224
 5634SOL     OW17800   2.207   4.949   4.397
 5634SOL    HW117801   2.177   5.000   4.316
 5634SOL    HW217802   2.243   5.013   4.465
 5635SOL     OW17803   1.753   5.178   6.381
 5635SOL    HW117804   1.715   5.088   6.401
 5635SOL    HW217805   1.789   5.180   6.288
 5636SOL     OW17806   4.784   6.932   4.735
 5636SOL    HW117807   4.847   6.940   4.812
 5636SOL    HW217808   4.828   6.968   4.652
 5637SOL     OW17809   5.504   6.899   3.044
 5637SOL    HW117810   5.593   6.907   3.089
 5637SOL    HW217811   5.472   6.804   3.049
 5638SOL     OW17812   6.552   4.109   1.116
 5638SOL    HW117813   6.467   4.150   1.085
 5638SOL    HW217814   6.540   4.011   1.127
 5639SOL     OW17815   1.463   0.600   2.546
 5639SOL    HW117816   1.397   0.659   2.499
 5639SOL    HW217817   1.415   0.543   2.612
 5640SOL     OW17818   3.469   0.520   3.941
 5640SOL    HW117819   3.553   0.548   3.988
 5640SOL    HW217820   3.449   0.425   3.962
 5641SOL     OW17821   0.710   5.124   5.078
 5641SOL    HW117822   0.638   5.190   5.099
 5641SOL    HW217823   0.796   5.155   5.118
 5642SOL     OW17824   1.769   6.883   4.456
 5642SOL    HW117825   1.765   6.808   4.390
 5642SOL    HW217826   1.863   6.894   4.487
 5643SOL     OW17827   4.401   1.513   4.530
 5643SOL    HW117828   4.435   1.543   4.620
 5643SOL    HW217829   4.318   1.564   4.507
 5644SOL     OW17830   2.940   0.211   5.009
 5644SOL    HW117831   2.987   0.240   5.093
 5644SOL    HW217832   2.970   0.119   4.984
 5645SOL     OW17833   6.396   4.939   3.522
 5645SOL    HW117834   6.304   4.973   3.506
 5645SOL    HW217835   6.407   4.851   3.476
 5646SOL     OW17836   1.484   5.526   3.733
 5646SOL    HW117837   1.478   5.452   3.666
 5646SOL    HW217838   1.572   5.523   3.779
 5647SOL     OW17839   4.650   5.673   0.734
 5647SOL    HW117840   4.646   5.573   0.744
 5647SOL    HW217841   4.740   5.699   0.699
 5648SOL     OW17842   1.761   0.215   3.050
 5648SOL    HW117843   1.702   0.295   3.063
 5648SOL    HW217844   1.857   0.244   3.049
 5649SOL     OW17845   0.808   0.883   4.492
 5649SOL    HW117846   0.886   0.822   4.510
 5649SOL    HW217847   0.776   0.922   4.579
 5650SOL     OW17848   0.683   5.569   0.449
 5650SOL    HW117849   0.646   5.621   0.372
 5650SOL    HW217850   0.612   5.511   0.487
 5651SOL     OW17851   1.748   0.992   1.512
 5651SOL    HW117852   1.822   1.021   1.450
 5651SOL    HW217853   1.714   0.903   1.482
 5652SOL     OW17854   6.229   0.172   2.049
 5652SOL    HW117855   6.165   0.109   2.006
 5652SOL    HW217856   6.318   0.168   2.002
 5653SOL     OW17857   6.285   6.472   6.648
 5653SOL    HW117858   6.231   6.499   6.728
 5653SOL    HW217859   6.377   6.511   6.654
 5654SOL     OW17860   6.918   6.674   5.188
 5654SOL    HW117861   6.848   6.637   5.249
 5654SOL    HW217862   7.008   6.654   5.226
 5655SOL     OW17863   0.807   3.685   4.323
 5655SOL    HW117864   0.773   3.627   4.250
 5655SOL    HW217865   0.731   3.722   4.376
 5656SOL     OW17866   0.252   3.864   6.536
 5656SOL    HW117867   0.228   3.881   6.632
 5656SOL    HW217868   0.280   3.949   6.493
 5657SOL     OW17869   6.125   2.255   0.217
 5657SOL    HW117870   6.184   2.332   0.191
 5657SOL    HW217871   6.102   2.261   0.314
 5658SOL     OW17872   3.638   3.797   6.431
 5658SOL    HW117873   3.570   3.870   6.430
 5658SOL    HW217874   3.594   3.710   6.453
 5659SOL     OW17875   3.884   3.432   5.402
 5659SOL    HW117876   3.840   3.439   5.312
 5659SOL    HW217877   3.816   3.405   5.470
 5660SOL     OW17878   4.774   6.629   0.142
 5660SOL    HW117879   4.740   6.541   0.109
 5660SOL    HW217880   4.729   6.651   0.229
 5661SOL     OW17881   1.398   6.199   5.079
 5661SOL    HW117882   1.303   6.210   5.051
 5661SOL    HW217883   1.429   6.107   5.055
 5662SOL     OW17884   2.728   5.710   3.511
 5662SOL    HW117885   2.809   5.686   3.564
 5662SOL    HW217886   2.669   5.630   3.504
 5663SOL     OW17887   1.941   2.904   6.855
 5663SOL    HW117888   1.853   2.873   6.890
 5663SOL    HW217889   1.982   2.831   6.800
 5664SOL     OW17890   6.649   3.798   4.491
 5664SOL    HW117891   6.712   3.823   4.564
 5664SOL    HW217892   6.583   3.731   4.525
 5665SOL     OW17893   1.927   1.055   0.484
 5665SOL    HW117894   1.952   0.997   0.406
 5665SOL    HW217895   2.001   1.054   0.551
 5666SOL     OW17896   5.967   0.000   3.011
 5666SOL    HW117897   5.962   6.978   2.922
 5666SOL    HW217898   6.039   6.984   3.066
 5667SOL     OW17899   1.320   5.353   4.645
 5667SOL    HW117900   1.416   5.327   4.631
 5667SOL    HW217901   1.312   5.408   4.728
 5668SOL     OW17902   5.213   2.677   3.903
 5668SOL    HW117903   5.307   2.652   3.926
 5668SOL    HW217904   5.172   2.605   3.848
 5669SOL     OW17905   0.332   3.353   0.480
 5669SOL    HW117906   0.349   3.370   0.577
 5669SOL    HW217907   0.418   3.330   0.435
 5670SOL     OW17908   0.710   3.598   3.732
 5670SOL    HW117909   0.756   3.666   3.789
 5670SOL    HW217910   0.638   3.642   3.678
 5671SOL     OW17911   6.121   6.337   6.440
 5671SOL    HW117912   6.182   6.382   6.505
 5671SOL    HW217913   6.030   6.378   6.446
 5672SOL     OW17914   4.515   3.883   0.124
 5672SOL    HW117915   4.493   3.857   0.029
 5672SOL    HW217916   4.438   3.859   0.183
 5673SOL     OW17917   1.332   0.157   1.430
 5673SOL    HW117918   1.376   0.209   1.503
 5673SOL    HW217919   1.379   0.173   1.344
 5674SOL     OW17920   0.216   4.745   5.007
 5674SOL    HW117921   0.146   4.686   5.046
 5674SOL    HW217922   0.245   4.812   5.075
 5675SOL     OW17923   4.078   2.945   6.573
 5675SOL    HW117924   4.029   2.964   6.489
 5675SOL    HW217925   4.173   2.977   6.564
 5676SOL     OW17926   2.825   2.314   2.397
 5676SOL    HW117927   2.874   2.245   2.344
 5676SOL    HW217928   2.814   2.397   2.343
 5677SOL     OW17929   0.635   1.543   0.583
 5677SOL    HW117930   0.538   1.520   0.575
 5677SOL    HW217931   0.667   1.521   0.676
 5678SOL     OW17932   4.109   6.372   2.714
 5678SOL    HW117933   4.072   6.414   2.631
 5678SOL    HW217934   4.146   6.443   2.773
 5679SOL     OW17935   6.749   1.045   4.125
 5679SOL    HW117936   6.769   1.116   4.058
 5679SOL    HW217937   6.822   0.978   4.126
 5680SOL     OW17938   1.811   5.117   6.126
 5680SOL    HW117939   1.759   5.045   6.081
 5680SOL    HW217940   1.899   5.128   6.080
 5681SOL     OW17941   0.405   3.980   0.848
 5681SOL    HW117942   0.416   3.909   0.918
 5681SOL    HW217943   0.493   4.023   0.830
 5682SOL     OW17944   2.177   5.247   5.074
 5682SOL    HW117945   2.187   5.292   5.163
 5682SOL    HW217946   2.138   5.156   5.088
 5683SOL     OW17947   4.535   1.225   6.130
 5683SOL    HW117948   4.472   1.301   6.147
 5683SOL    HW217949   4.628   1.262   6.118
 5684SOL     OW17950   2.772   3.848   5.750
 5684SOL    HW117951   2.788   3.752   5.774
 5684SOL    HW217952   2.755   3.855   5.651
 5685SOL     OW17953   1.883   2.071   3.127
 5685SOL    HW117954   1.906   2.085   3.223
 5685SOL    HW217955   1.894   2.157   3.077
 5686SOL     OW17956   2.827   1.948   6.580
 5686SOL    HW117957   2.799   1.904   6.494
 5686SOL    HW217958   2.914   1.908   6.610
 5687SOL     OW17959   1.218   5.286   0.156
 5687SOL    HW117960   1.158   5.366   0.152
 5687SOL    HW217961   1.166   5.208   0.191
 5688SOL     OW17962   0.627   2.704   1.615
 5688SOL    HW117963   0.676   2.638   1.558
 5688SOL    HW217964   0.622   2.670   1.709
 5689SOL     OW17965   3.274   1.581   1.063
 5689SOL    HW117966   3.241   1.502   1.116
 5689SOL    HW217967   3.347   1.552   1.002
 5690SOL     OW17968   2.366   5.876   6.868
 5690SOL    HW117969   2.452   5.916   6.899
 5690SOL    HW217970   2.372   5.858   6.769
 5691SOL     OW17971   3.351   0.123   2.359
 5691SOL    HW117972   3.383   0.071   2.439
 5691SOL    HW217973   3.394   0.088   2.276
 5692SOL     OW17974   5.902   3.750   0.503
 5692SOL    HW117975   5.899   3.735   0.404
 5692SOL    HW217976   5.877   3.845   0.522
 5693SOL     OW17977   5.011   1.592   3.191
 5693SOL    HW117978   4.981   1.550   3.105
 5693SOL    HW217979   5.021   1.521   3.260
 5694SOL     OW17980   1.258   1.337   3.267
 5694SOL    HW117981   1.298   1.285   3.343
 5694SOL    HW217982   1.299   1.428   3.264
 5695SOL     OW17983   1.704   1.582   3.549
 5695SOL    HW117984   1.784   1.543   3.503
 5695SOL    HW217985   1.648   1.632   3.483
 5696SOL     OW17986   0.773   0.923   3.742
 5696SOL    HW117987   0.837   0.971   3.682
 5696SOL    HW217988   0.815   0.841   3.778
 5697SOL     OW17989   5.955   2.654   1.291
 5697SOL    HW117990   6.045   2.627   1.257
 5697SOL    HW217991   5.926   2.738   1.244
 5698SOL     OW17992   1.521   5.082   4.289
 5698SOL    HW117993   1.442   5.034   4.328
 5698SOL    HW217994   1.538   5.048   4.196
 5699SOL     OW17995   0.770   2.426   2.949
 5699SOL    HW117996   0.864   2.415   2.917
 5699SOL    HW217997   0.744   2.522   2.944
 5700SOL     OW17998   6.309   6.993   3.396
 5700SOL    HW117999   6.347   0.059   3.378
 5700SOL    HW218000   6.246   6.997   3.474
 5701SOL     OW18001   1.072   0.237   1.438
 5701SOL    HW118002   1.164   0.198   1.430
 5701SOL    HW218003   1.043   0.235   1.534
 5702SOL     OW18004   2.594   5.317   3.956
 5702SOL    HW118005   2.574   5.335   3.860
 5702SOL    HW218006   2.575   5.399   4.010
 5703SOL     OW18007   6.175   4.879   1.579
 5703SOL    HW118008   6.236   4.801   1.591
 5703SOL    HW218009   6.135   4.903   1.668
 5704SOL     OW18010   4.800   4.059   2.921
 5704SOL    HW118011   4.791   4.053   2.821
 5704SOL    HW218012   4.885   4.013   2.949
 5705SOL     OW18013   5.066   6.612   0.171
 5705SOL    HW118014   5.051   6.593   0.074
 5705SOL    HW218015   4.977   6.622   0.216
 5706SOL     OW18016   0.291   3.930   1.577
 5706SOL    HW118017   0.372   3.873   1.587
 5706SOL    HW218018   0.231   3.919   1.657
 5707SOL     OW18019   0.224   6.257   0.083
 5707SOL    HW118020   0.187   6.332   0.029
 5707SOL    HW218021   0.317   6.236   0.052
 5708SOL     OW18022   5.159   5.405   2.081
 5708SOL    HW118023   5.137   5.502   2.079
 5708SOL    HW218024   5.201   5.382   2.169
 5709SOL     OW18025   1.279   0.751   2.418
 5709SOL    HW118026   1.313   0.838   2.381
 5709SOL    HW218027   1.184   0.762   2.448
 5710SOL     OW18028   2.859   2.943   1.097
 5710SOL    HW118029   2.944   2.946   1.149
 5710SOL    HW218030   2.782   2.965   1.157
 5711SOL     OW18031   5.001   0.759   3.221
 5711SOL    HW118032   5.063   0.831   3.251
 5711SOL    HW218033   5.030   0.724   3.132
 5712SOL     OW18034   6.501   0.474   6.839
 5712SOL    HW118035   6.574   0.505   6.778
 5712SOL    HW218036   6.422   0.533   6.829
 5713SOL     OW18037   3.765   3.027   1.919
 5713SOL    HW118038   3.846   3.057   1.869
 5713SOL    HW218039   3.730   3.102   1.975
 5714SOL     OW18040   0.328   5.107   0.549
 5714SOL    HW118041   0.335   5.122   0.450
 5714SOL    HW218042   0.381   5.176   0.597
 5715SOL     OW18043   1.013   0.770   2.512
 5715SOL    HW118044   0.983   0.675   2.505
 5715SOL    HW218045   0.953   0.819   2.576
 5716SOL     OW18046   1.613   4.985   5.967
 5716SOL    HW118047   1.580   4.892   5.983
 5716SOL    HW218048   1.548   5.035   5.910
 5717SOL     OW18049   1.621   5.064   0.832
 5717SOL    HW118050   1.560   5.126   0.881
 5717SOL    HW218051   1.646   4.988   0.892
 5718SOL     OW18052   0.464   3.319   6.213
 5718SOL    HW118053   0.464   3.269   6.127
 5718SOL    HW218054   0.405   3.272   6.279
 5719SOL     OW18055   2.455   2.871   6.711
 5719SOL    HW118056   2.554   2.864   6.700
 5719SOL    HW218057   2.434   2.916   6.797
 5720SOL     OW18058   2.343   6.112   4.736
 5720SOL    HW118059   2.305   6.196   4.696
 5720SOL    HW218060   2.401   6.135   4.814
 5721SOL     OW18061   6.689   3.314   0.756
 5721SOL    HW118062   6.748   3.284   0.830
 5721SOL    HW218063   6.593   3.297   0.780
 5722SOL     OW18064   0.066   2.052   4.998
 5722SOL    HW118065   0.077   2.114   4.920
 5722SOL    HW218066   0.148   2.056   5.055
 5723SOL     OW18067   5.000   3.251   6.972
 5723SOL    HW118068   4.929   3.217   0.009
 5723SOL    HW218069   4.968   3.333   6.926
 5724SOL     OW18070   5.310   3.042   4.131
 5724SOL    HW118071   5.303   2.995   4.043
 5724SOL    HW218072   5.402   3.029   4.168
 5725SOL     OW18073   5.565   5.259   4.402
 5725SOL    HW118074   5.606   5.207   4.477
 5725SOL    HW218075   5.570   5.357   4.423
 5726SOL     OW18076   6.864   5.419   3.949
 5726SOL    HW118077   6.814   5.456   4.027
 5726SOL    HW218078   6.899   5.328   3.971
 5727SOL     OW18079   0.238   2.092   4.241
 5727SOL    HW118080   0.159   2.148   4.215
 5727SOL    HW218081   0.284   2.059   4.159
 5728SOL     OW18082   3.970   0.494   6.208
 5728SOL    HW118083   3.961   0.558   6.284
 5728SOL    HW218084   4.056   0.512   6.160
 5729SOL     OW18085   1.499   0.337   0.693
 5729SOL    HW118086   1.504   0.274   0.616
 5729SOL    HW218087   1.584   0.388   0.701
 5730SOL     OW18088   5.236   4.794   6.353
 5730SOL    HW118089   5.294   4.820   6.275
 5730SOL    HW218090   5.141   4.791   6.324
 5731SOL     OW18091   0.538   6.798   3.678
 5731SOL    HW118092   0.578   6.728   3.618
 5731SOL    HW218093   0.487   6.864   3.622
 5732SOL     OW18094   6.869   5.168   4.504
 5732SOL    HW118095   6.837   5.240   4.566
 5732SOL    HW218096   6.812   5.168   4.421
 5733SOL     OW18097   4.296   6.536   5.676
 5733SOL    HW118098   4.296   6.636   5.673
 5733SOL    HW218099   4.231   6.505   5.745
 5734SOL     OW18100   0.943   6.933   5.518
 5734SOL    HW118101   0.946   6.933   5.418
 5734SOL    HW218102   1.035   6.946   5.555
 5735SOL     OW18103   4.146   1.844   1.452
 5735SOL    HW118104   4.143   1.744   1.462
 5735SOL    HW218105   4.056   1.882   1.474
 5736SOL     OW18106   6.296   3.451   0.425
 5736SOL    HW118107   6.278   3.353   0.432
 5736SOL    HW218108   6.295   3.492   0.516
 5737SOL     OW18109   5.832   6.523   1.062
 5737SOL    HW118110   5.854   6.514   0.965
 5737SOL    HW218111   5.736   6.549   1.072
 5738SOL     OW18112   2.324   2.656   5.662
 5738SOL    HW118113   2.245   2.716   5.644
 5738SOL    HW218114   2.308   2.606   5.747
 5739SOL     OW18115   1.547   0.206   5.965
 5739SOL    HW118116   1.508   0.227   6.055
 5739SOL    HW218117   1.503   0.125   5.927
 5740SOL     OW18118   4.530   3.695   1.008
 5740SOL    HW118119   4.554   3.768   0.944
 5740SOL    HW218120   4.605   3.629   1.015
 5741SOL     OW18121   1.144   4.764   4.541
 5741SOL    HW118122   1.167   4.684   4.486
 5741SOL    HW218123   1.053   4.752   4.581
 5742SOL     OW18124   5.512   6.701   2.181
 5742SOL    HW118125   5.424   6.673   2.144
 5742SOL    HW218126   5.513   6.800   2.195
 5743SOL     OW18127   2.761   5.851   5.169
 5743SOL    HW118128   2.819   5.770   5.171
 5743SOL    HW218129   2.750   5.882   5.075
 5744SOL     OW18130   5.014   0.449   2.119
 5744SOL    HW118131   4.935   0.387   2.121
 5744SOL    HW218132   4.982   0.544   2.127
 5745SOL     OW18133   2.877   0.894   4.079
 5745SOL    HW118134   2.824   0.926   4.157
 5745SOL    HW218135   2.892   0.795   4.088
 5746SOL     OW18136   6.008   6.634   1.586
 5746SOL    HW118137   6.088   6.694   1.577
 5746SOL    HW218138   5.925   6.690   1.587
 5747SOL     OW18139   6.385   4.723   2.794
 5747SOL    HW118140   6.362   4.796   2.730
 5747SOL    HW218141   6.396   4.761   2.886
 5748SOL     OW18142   1.993   6.097   0.834
 5748SOL    HW118143   1.922   6.136   0.776
 5748SOL    HW218144   1.991   6.142   0.923
 5749SOL     OW18145   1.600   0.539   4.552
 5749SOL    HW118146   1.592   0.525   4.651
 5749SOL    HW218147   1.565   0.458   4.504
 5750SOL     OW18148   5.387   5.816   4.537
 5750SOL    HW118149   5.414   5.857   4.624
 5750SOL    HW218150   5.316   5.747   4.554
 5751SOL     OW18151   2.289   2.855   4.506
 5751SOL    HW118152   2.345   2.803   4.441
 5751SOL    HW218153   2.307   2.823   4.599
 5752SOL     OW18154   6.115   0.887   6.581
 5752SOL    HW118155   6.020   0.862   6.599
 5752SOL    HW218156   6.133   0.884   6.483
 5753SOL     OW18157   3.413   3.839   5.632
 5753SOL    HW118158   3.344   3.905   5.604
 5753SOL    HW218159   3.504   3.882   5.630
 5754SOL     OW18160   5.444   4.735   1.701
 5754SOL    HW118161   5.503   4.659   1.728
 5754SOL    HW218162   5.498   4.819   1.695
 5755SOL     OW18163   2.175   3.924   5.832
 5755SOL    HW118164   2.119   3.987   5.887
 5755SOL    HW218165   2.134   3.914   5.741
 5756SOL     OW18166   6.091   6.145   3.248
 5756SOL    HW118167   6.077   6.091   3.165
 5756SOL    HW218168   6.078   6.086   3.328
 5757SOL     OW18169   6.491   6.547   2.804
 5757SOL    HW118170   6.502   6.462   2.753
 5757SOL    HW218171   6.559   6.614   2.774
 5758SOL     OW18172   2.770   1.080   4.312
 5758SOL    HW118173   2.686   1.078   4.365
 5758SOL    HW218174   2.844   1.040   4.365
 5759SOL     OW18175   5.100   1.981   6.822
 5759SOL    HW118176   5.025   2.034   6.861
 5759SOL    HW218177   5.186   2.031   6.834
 5760SOL     OW18178   0.991   4.777   1.126
 5760SOL    HW118179   1.034   4.853   1.175
 5760SOL    HW218180   1.044   4.693   1.140
 5761SOL     OW18181   5.728   6.986   6.254
 5761SOL    HW118182   5.822   7.016   6.270
 5761SOL    HW218183   5.729   6.902   6.199
 5762SOL     OW18184   4.428   6.738   0.728
 5762SOL    HW118185   4.490   6.810   0.697
 5762SOL    HW218186   4.480   6.668   0.775
 5763SOL     OW18187   6.916   0.419   0.378
 5763SOL    HW118188   6.850   0.493   0.392
 5763SOL    HW218189   6.883   0.359   0.305
 5764SOL     OW18190   4.771   4.677   6.560
 5764SOL    HW118191   4.772   4.626   6.474
 5764SOL    HW218192   4.732   4.620   6.632
 5765SOL     OW18193   6.560   4.389   6.615
 5765SOL    HW118194   6.481   4.426   6.566
 5765SOL    HW218195   6.621   4.344   6.550
 5766SOL     OW18196   2.751   2.473   0.520
 5766SOL    HW118197   2.819   2.473   0.447
 5766SOL    HW218198   2.715   2.381   0.533
 5767SOL     OW18199   2.328   6.453   0.518
 5767SOL    HW118200   2.232   6.480   0.508
 5767SOL    HW218201   2.383   6.499   0.448
 5768SOL     OW18202   6.934   6.683   2.854
 5768SOL    HW118203   7.021   6.678   2.805
 5768SOL    HW218204   6.899   6.776   2.852
 5769SOL     OW18205   2.274   6.409   4.395
 5769SOL    HW118206   2.273   6.353   4.312
 5769SOL    HW218207   2.272   6.506   4.369
 5770SOL     OW18208   6.547   0.341   0.043
 5770SOL    HW118209   6.512   0.408   0.110
 5770SOL    HW218210   6.517   0.368   6.976
 5771SOL     OW18211   0.508   6.054   2.841
 5771SOL    HW118212   0.557   6.016   2.763
 5771SOL    HW218213   0.450   6.129   2.811
 5772SOL     OW18214   6.362   2.589   0.736
 5772SOL    HW118215   6.318   2.506   0.701
 5772SOL    HW218216   6.333   2.667   0.681
 5773SOL     OW18217   4.777   0.696   4.113
 5773SOL    HW118218   4.808   0.641   4.036
 5773SOL    HW218219   4.761   0.790   4.082
 5774SOL     OW18220   2.769   5.324   3.739
 5774SOL    HW118221   2.751   5.234   3.779
 5774SOL    HW218222   2.684   5.376   3.735
 5775SOL     OW18223   1.615   0.215   1.846
 5775SOL    HW118224   1.585   0.126   1.880
 5775SOL    HW218225   1.675   0.258   1.914
 5776SOL     OW18226   6.473   1.141   6.197
 5776SOL    HW118227   6.442   1.204   6.268
 5776SOL    HW218228   6.529   1.069   6.239
 5777SOL     OW18229   6.043   0.272   4.291
 5777SOL    HW118230   6.060   0.337   4.365
 5777SOL    HW218231   6.023   0.322   4.207
 5778SOL     OW18232   1.325   6.901   1.177
 5778SOL    HW118233   1.347   6.996   1.156
 5778SOL    HW218234   1.274   6.860   1.101
 5779SOL     OW18235   4.381   1.033   0.958
 5779SOL    HW118236   4.415   0.941   0.939
 5779SOL    HW218237   4.300   1.051   0.901
 5780SOL     OW18238   5.743   5.784   2.953
 5780SOL    HW118239   5.752   5.800   2.854
 5780SOL    HW218240   5.657   5.736   2.971
 5781SOL     OW18241   1.515   4.103   4.442
 5781SOL    HW118242   1.474   4.093   4.351
 5781SOL    HW218243   1.496   4.020   4.496
 5782SOL     OW18244   1.330   0.903   0.824
 5782SOL    HW118245   1.297   0.996   0.806
 5782SOL    HW218246   1.357   0.860   0.738
 5783SOL     OW18247   2.038   1.550   1.033
 5783SOL    HW118248   2.130   1.524   1.001
 5783SOL    HW218249   1.998   1.473   1.082
 5784SOL     OW18250   0.088   6.480   6.964
 5784SOL    HW118251   0.150   6.515   6.895
 5784SOL    HW218252   0.075   6.549   0.011
 5785SOL     OW18253   2.112   2.416   1.420
 5785SOL    HW118254   2.052   2.345   1.382
 5785SOL    HW218255   2.147   2.386   1.508
 5786SOL     OW18256   1.257   4.690   0.561
 5786SOL    HW118257   1.187   4.700   0.632
 5786SOL    HW218258   1.304   4.602   0.572
 5787SOL     OW18259   4.859   2.469   4.828
 5787SOL    HW118260   4.832   2.438   4.736
 5787SOL    HW218261   4.790   2.442   4.894
 5788SOL     OW18262   2.854   0.346   1.642
 5788SOL    HW118263   2.798   0.337   1.559
 5788SOL    HW218264   2.796   0.375   1.718
 5789SOL     OW18265   2.605   3.179   6.803
 5789SOL    HW118266   2.542   3.185   6.726
 5789SOL    HW218267   2.576   3.244   6.874
 5790SOL     OW18268   6.800   5.533   5.123
 5790SOL    HW118269   6.790   5.623   5.165
 5790SOL    HW218270   6.813   5.465   5.195
 5791SOL     OW18271   2.630   2.024   2.233
 5791SOL    HW118272   2.618   1.931   2.201
 5791SOL    HW218273   2.727   2.039   2.256
 5792SOL     OW18274   5.015   3.884   3.009
 5792SOL    HW118275   4.984   3.818   2.940
 5792SOL    HW218276   5.087   3.843   3.064
 5793SOL     OW18277   5.625   0.842   5.425
 5793SOL    HW118278   5.529   0.867   5.434
 5793SOL    HW218279   5.682   0.924   5.431
 5794SOL     OW18280   3.580   0.234   0.029
 5794SOL    HW118281   3.615   0.160   6.996
 5794SOL    HW218282   3.656   0.275   0.080
 5795SOL     OW18283   0.295   6.878   0.686
 5795SOL    HW118284   0.311   6.832   0.599
 5795SOL    HW218285   0.201   6.862   0.717
 5796SOL     OW18286   4.644   0.535   6.502
 5796SOL    HW118287   4.647   0.564   6.406
 5796SOL    HW218288   4.704   0.594   6.556
 5797SOL     OW18289   5.260   1.060   0.674
 5797SOL    HW118290   5.193   1.120   0.718
 5797SOL    HW218291   5.255   1.072   0.575
 5798SOL     OW18292   0.316   3.694   4.386
 5798SOL    HW118293   0.345   3.727   4.476
 5798SOL    HW218294   0.285   3.599   4.395
 5799SOL     OW18295   0.240   0.044   3.831
 5799SOL    HW118296   0.317   0.030   3.769
 5799SOL    HW218297   0.154   0.028   3.781
 5800SOL     OW18298   0.560   0.260   1.516
 5800SOL    HW118299   0.524   0.257   1.609
 5800SOL    HW218300   0.489   0.293   1.454
 5801SOL     OW18301   2.246   2.565   3.511
 5801SOL    HW118302   2.237   2.551   3.609
 5801SOL    HW218303   2.181   2.636   3.481
 5802SOL     OW18304   6.047   3.276   2.346
 5802SOL    HW118305   5.948   3.289   2.343
 5802SOL    HW218306   6.093   3.349   2.297
 5803SOL     OW18307   0.893   4.483   3.886
 5803SOL    HW118308   0.911   4.482   3.984
 5803SOL    HW218309   0.841   4.565   3.862
 5804SOL     OW18310   6.714   6.163   3.628
 5804SOL    HW118311   6.755   6.237   3.575
 5804SOL    HW218312   6.616   6.158   3.608
 5805SOL     OW18313   1.631   2.667   0.572
 5805SOL    HW118314   1.686   2.728   0.517
 5805SOL    HW218315   1.596   2.592   0.516
 5806SOL     OW18316   6.979   4.672   5.405
 5806SOL    HW118317   6.879   4.672   5.411
 5806SOL    HW218318   7.016   4.604   5.469
 5807SOL     OW18319   1.500   5.663   1.181
 5807SOL    HW118320   1.510   5.670   1.280
 5807SOL    HW218321   1.516   5.752   1.139
 5808SOL     OW18322   6.964   0.017   5.299
 5808SOL    HW118323   6.945   6.947   5.327
 5808SOL    HW218324   6.891   0.048   5.238
 5809SOL     OW18325   6.409   2.442   5.403
 5809SOL    HW118326   6.476   2.456   5.476
 5809SOL    HW218327   6.424   2.353   5.360
 5810SOL     OW18328   3.936   1.273   5.316
 5810SOL    HW118329   3.949   1.314   5.406
 5810SOL    HW218330   4.026   1.257   5.274
 5811SOL     OW18331   2.965   2.001   5.450
 5811SOL    HW118332   2.966   2.095   5.415
 5811SOL    HW218333   2.884   1.989   5.509
 5812SOL     OW18334   5.361   3.952   5.925
 5812SOL    HW118335   5.457   3.980   5.917
 5812SOL    HW218336   5.346   3.913   6.016
 5813SOL     OW18337   3.066   6.383   0.937
 5813SOL    HW118338   3.047   6.368   1.034
 5813SOL    HW218339   2.988   6.351   0.883
 5814SOL     OW18340   6.849   2.781   2.064
 5814SOL    HW118341   6.855   2.790   2.164
 5814SOL    HW218342   6.915   2.712   2.033
 5815SOL     OW18343   5.071   1.657   4.231
 5815SOL    HW118344   4.979   1.625   4.208
 5815SOL    HW218345   5.090   1.742   4.181
 5816SOL     OW18346   6.191   4.916   1.174
 5816SOL    HW118347   6.129   4.955   1.106
 5816SOL    HW218348   6.253   4.988   1.207
 5817SOL     OW18349   6.302   5.475   5.907
 5817SOL    HW118350   6.241   5.420   5.850
 5817SOL    HW218351   6.259   5.491   5.995
 5818SOL     OW18352   0.213   5.869   4.925
 5818SOL    HW118353   0.221   5.886   4.827
 5818SOL    HW218354   0.304   5.873   4.967
 5819SOL     OW18355   2.849   5.150   6.659
 5819SOL    HW118356   2.920   5.097   6.706
 5819SOL    HW218357   2.763   5.099   6.658
 5820SOL     OW18358   4.044   4.754   2.453
 5820SOL    HW118359   4.007   4.667   2.420
 5820SOL    HW218360   4.141   4.742   2.477
 5821SOL     OW18361   6.576   1.134   1.599
 5821SOL    HW118362   6.477   1.121   1.605
 5821SOL    HW218363   6.620   1.045   1.592
 5822SOL     OW18364   1.563   2.576   2.204
 5822SOL    HW118365   1.525   2.511   2.137
 5822SOL    HW218366   1.577   2.664   2.160
 5823SOL     OW18367   2.649   6.758   4.547
 5823SOL    HW118368   2.722   6.825   4.559
 5823SOL    HW218369   2.561   6.803   4.563
 5824SOL     OW18370   0.839   6.931   3.548
 5824SOL    HW118371   0.795   6.843   3.527
 5824SOL    HW218372   0.935   6.927   3.521
 5825SOL     OW18373   0.016   5.727   5.051
 5825SOL    HW118374   0.087   5.785   5.011
 5825SOL    HW218375   6.975   5.784   5.100
 5826SOL     OW18376   0.660   6.766   6.104
 5826SOL    HW118377   0.652   6.843   6.167
 5826SOL    HW218378   0.580   6.762   6.045
 5827SOL     OW18379   0.896   3.703   4.846
 5827SOL    HW118380   0.927   3.613   4.875
 5827SOL    HW218381   0.969   3.770   4.861
 5828SOL     OW18382   4.770   0.870   3.333
 5828SOL    HW118383   4.849   0.824   3.295
 5828SOL    HW218384   4.797   0.922   3.415
 5829SOL     OW18385   1.587   0.549   4.837
 5829SOL    HW118386   1.499   0.541   4.883
 5829SOL    HW218387   1.656   0.581   4.903
 5830SOL     OW18388   4.400   6.801   5.335
 5830SOL    HW118389   4.353   6.845   5.258
 5830SOL    HW218390   4.495   6.782   5.309
 5831SOL     OW18391   1.391   1.818   6.116
 5831SOL    HW118392   1.347   1.905   6.096
 5831SOL    HW218393   1.490   1.832   6.125
 5832SOL     OW18394   3.369   4.243   0.559
 5832SOL    HW118395   3.344   4.186   0.637
 5832SOL    HW218396   3.344   4.196   0.474
 5833SOL     OW18397   3.868   3.162   5.471
 5833SOL    HW118398   3.830   3.122   5.388
 5833SOL    HW218399   3.920   3.245   5.448
 5834SOL     OW18400   6.656   3.944   6.522
 5834SOL    HW118401   6.581   4.003   6.553
 5834SOL    HW218402   6.657   3.859   6.575
 5835SOL     OW18403   6.239   1.975   2.521
 5835SOL    HW118404   6.332   2.001   2.494
 5835SOL    HW218405   6.242   1.927   2.608
 5836SOL     OW18406   2.601   6.787   1.905
 5836SOL    HW118407   2.585   6.862   1.840
 5836SOL    HW218408   2.679   6.733   1.874
 5837SOL     OW18409   4.129   3.258   6.634
 5837SOL    HW118410   4.211   3.310   6.614
 5837SOL    HW218411   4.148   3.191   6.705
 5838SOL     OW18412   3.517   1.347   1.367
 5838SOL    HW118413   3.498   1.252   1.342
 5838SOL    HW218414   3.567   1.350   1.454
 5839SOL     OW18415   0.538   2.668   0.560
 5839SOL    HW118416   0.476   2.641   0.633
 5839SOL    HW218417   0.518   2.616   0.477
 5840SOL     OW18418   0.495   3.684   0.503
 5840SOL    HW118419   0.570   3.621   0.485
 5840SOL    HW218420   0.425   3.674   0.433
 5841SOL     OW18421   5.042   0.245   1.505
 5841SOL    HW118422   4.993   0.194   1.577
 5841SOL    HW218423   5.071   0.181   1.434
 5842SOL     OW18424   4.427   2.239   1.676
 5842SOL    HW118425   4.342   2.241   1.624
 5842SOL    HW218426   4.425   2.310   1.746
 5843SOL     OW18427   1.515   3.642   1.349
 5843SOL    HW118428   1.569   3.558   1.344
 5843SOL    HW218429   1.511   3.684   1.259
 5844SOL     OW18430   1.388   6.396   5.414
 5844SOL    HW118431   1.400   6.487   5.375
 5844SOL    HW218432   1.333   6.340   5.353
 5845SOL     OW18433   1.063   0.335   2.284
 5845SOL    HW118434   1.041   0.377   2.196
 5845SOL    HW218435   1.092   0.240   2.270
 5846SOL     OW18436   6.067   3.795   5.612
 5846SOL    HW118437   6.094   3.889   5.635
 5846SOL    HW218438   6.062   3.785   5.513
 5847SOL     OW18439   2.627   2.468   1.826
 5847SOL    HW118440   2.558   2.443   1.893
 5847SOL    HW218441   2.714   2.486   1.872
 5848SOL     OW18442   1.904   5.822   3.830
 5848SOL    HW118443   1.971   5.817   3.905
 5848SOL    HW218444   1.938   5.769   3.752
 5849SOL     OW18445   2.111   6.830   5.142
 5849SOL    HW118446   2.156   6.844   5.230
 5849SOL    HW218447   2.146   6.897   5.076
 5850SOL     OW18448   0.118   3.383   1.666
 5850SOL    HW118449   0.136   3.481   1.656
 5850SOL    HW218450   0.181   3.332   1.608
 5851SOL     OW18451   5.145   3.502   3.853
 5851SOL    HW118452   5.204   3.459   3.920
 5851SOL    HW218453   5.201   3.538   3.778
 5852SOL     OW18454   4.690   6.070   2.422
 5852SOL    HW118455   4.634   6.013   2.362
 5852SOL    HW218456   4.633   6.106   2.496
 5853SOL     OW18457   4.446   5.568   6.004
 5853SOL    HW118458   4.460   5.650   6.060
 5853SOL    HW218459   4.479   5.488   6.053
 5854SOL     OW18460   4.049   4.336   5.449
 5854SOL    HW118461   4.133   4.335   5.504
 5854SOL    HW218462   4.057   4.268   5.376
 5855SOL     OW18463   1.493   2.402   4.694
 5855SOL    HW118464   1.583   2.427   4.660
 5855SOL    HW218465   1.467   2.465   4.768
 5856SOL     OW18466   1.086   6.768   2.869
 5856SOL    HW118467   1.145   6.845   2.845
 5856SOL    HW218468   1.130   6.712   2.939
 5857SOL     OW18469   6.460   3.344   5.260
 5857SOL    HW118470   6.455   3.316   5.356
 5857SOL    HW218471   6.552   3.326   5.225
 5858SOL     OW18472   2.362   2.385   3.001
 5858SOL    HW118473   2.349   2.387   2.902
 5858SOL    HW218474   2.460   2.376   3.022
 5859SOL     OW18475   6.170   5.998   1.441
 5859SOL    HW118476   6.218   5.986   1.354
 5859SOL    HW218477   6.132   6.091   1.446
 5860SOL     OW18478   0.657   4.896   2.924
 5860SOL    HW118479   0.563   4.871   2.903
 5860SOL    HW218480   0.708   4.910   2.839
 5861SOL     OW18481   4.749   0.571   4.813
 5861SOL    HW118482   4.849   0.579   4.811
 5861SOL    HW218483   4.708   0.655   4.776
 5862SOL     OW18484   6.403   5.521   1.649
 5862SOL    HW118485   6.493   5.555   1.621
 5862SOL    HW218486   6.394   5.425   1.622
 5863SOL     OW18487   3.099   1.942   4.955
 5863SOL    HW118488   3.196   1.965   4.958
 5863SOL    HW218489   3.066   1.924   5.048
 5864SOL     OW18490   3.827   3.602   2.439
 5864SOL    HW118491   3.768   3.617   2.519
 5864SOL    HW218492   3.775   3.618   2.355
 5865SOL     OW18493   5.559   0.469   5.290
 5865SOL    HW118494   5.568   0.569   5.291
 5865SOL    HW218495   5.503   0.440   5.367
 5866SOL     OW18496   3.209   2.640   1.131
 5866SOL    HW118497   3.276   2.577   1.170
 5866SOL    HW218498   3.229   2.733   1.163
 5867SOL     OW18499   1.804   2.966   1.564
 5867SOL    HW118500   1.730   3.020   1.605
 5867SOL    HW218501   1.834   3.010   1.480
 5868SOL     OW18502   1.187   1.782   5.852
 5868SOL    HW118503   1.275   1.830   5.864
 5868SOL    HW218504   1.127   1.837   5.794
 5869SOL     OW18505   1.974   4.226   3.078
 5869SOL    HW118506   2.018   4.150   3.126
 5869SOL    HW218507   1.876   4.227   3.101
 5870SOL     OW18508   4.382   5.864   5.209
 5870SOL    HW118509   4.477   5.895   5.205
 5870SOL    HW218510   4.378   5.766   5.192
 5871SOL     OW18511   4.018   3.064   2.092
 5871SOL    HW118512   4.072   3.100   2.016
 5871SOL    HW218513   4.025   2.964   2.094
 5872SOL     OW18514   4.005   6.788   0.870
 5872SOL    HW118515   3.940   6.714   0.851
 5872SOL    HW218516   4.098   6.750   0.873
 5873SOL     OW18517   3.057   6.603   2.252
 5873SOL    HW118518   3.055   6.541   2.173
 5873SOL    HW218519   3.091   6.553   2.332
 5874SOL     OW18520   2.134   4.529   4.495
 5874SOL    HW118521   2.182   4.578   4.422
 5874SOL    HW218522   2.178   4.440   4.510
 5875SOL     OW18523   3.716   2.267   0.611
 5875SOL    HW118524   3.797   2.230   0.566
 5875SOL    HW218525   3.643   2.199   0.610
 5876SOL     OW18526   4.119   3.504   1.976
 5876SOL    HW118527   4.081   3.411   1.978
 5876SOL    HW218528   4.128   3.538   2.070
 5877SOL     OW18529   6.069   6.365   0.786
 5877SOL    HW118530   5.985   6.355   0.732
 5877SOL    HW218531   6.065   6.305   0.866
 5878SOL     OW18532   0.547   6.294   3.999
 5878SOL    HW118533   0.473   6.357   4.020
 5878SOL    HW218534   0.630   6.345   3.979
 5879SOL     OW18535   1.423   3.544   0.010
 5879SOL    HW118536   1.491   3.615   0.025
 5879SOL    HW218537   1.335   3.586   7.012
 5880SOL     OW18538   3.627   4.203   0.201
 5880SOL    HW118539   3.633   4.113   0.157
 5880SOL    HW218540   3.702   4.214   0.266
 5881SOL     OW18541   6.973   5.557   3.027
 5881SOL    HW118542   7.015   5.597   2.945
 5881SOL    HW218543   6.938   5.630   3.086
 5882SOL     OW18544   6.797   6.231   1.054
 5882SOL    HW118545   6.873   6.207   1.115
 5882SOL    HW218546   6.755   6.316   1.086
 5883SOL     OW18547   0.644   1.869   6.773
 5883SOL    HW118548   0.740   1.869   6.745
 5883SOL    HW218549   0.600   1.784   6.743
 5884SOL     OW18550   2.666   1.677   3.923
 5884SOL    HW118551   2.593   1.609   3.924
 5884SOL    HW218552   2.663   1.728   3.837
 5885SOL     OW18553   0.084   0.584   2.614
 5885SOL    HW118554   0.052   0.630   2.697
 5885SOL    HW218555   0.041   0.494   2.606
 5886SOL     OW18556   0.791   2.005   5.146
 5886SOL    HW118557   0.821   2.080   5.088
 5886SOL    HW218558   0.837   1.920   5.118
 5887SOL     OW18559   3.164   1.324   3.719
 5887SOL    HW118560   3.150   1.236   3.673
 5887SOL    HW218561   3.262   1.344   3.724
 5888SOL     OW18562   3.057   0.839   2.231
 5888SOL    HW118563   3.067   0.745   2.199
 5888SOL    HW218564   3.025   0.838   2.326
 5889SOL     OW18565   0.982   6.330   1.289
 5889SOL    HW118566   1.032   6.269   1.228
 5889SOL    HW218567   0.928   6.395   1.235
 5890SOL     OW18568   1.398   6.979   4.846
 5890SOL    HW118569   1.417   6.883   4.868
 5890SOL    HW218570   1.442   7.004   4.760
 5891SOL     OW18571   2.818   3.116   6.335
 5891SOL    HW118572   2.723   3.141   6.353
 5891SOL    HW218573   2.825   3.017   6.319
 5892SOL     OW18574   0.501   5.617   1.187
 5892SOL    HW118575   0.459   5.529   1.165
 5892SOL    HW218576   0.587   5.601   1.236
 5893SOL     OW18577   1.745   4.048   4.282
 5893SOL    HW118578   1.667   4.082   4.335
 5893SOL    HW218579   1.821   4.112   4.290
 5894SOL     OW18580   0.346   5.681   4.279
 5894SOL    HW118581   0.326   5.778   4.273
 5894SOL    HW218582   0.411   5.665   4.354
 5895SOL     OW18583   5.441   3.450   4.225
 5895SOL    HW118584   5.518   3.482   4.281
 5895SOL    HW218585   5.368   3.418   4.284
 5896SOL     OW18586   4.363   1.086   0.693
 5896SOL    HW118587   4.458   1.072   0.666
 5896SOL    HW218588   4.348   1.183   0.714
 5897SOL     OW18589   3.903   0.678   1.372
 5897SOL    HW118590   3.895   0.608   1.302
 5897SOL    HW218591   3.996   0.716   1.371
 5898SOL     OW18592   2.615   6.302   3.064
 5898SOL    HW118593   2.547   6.248   3.113
 5898SOL    HW218594   2.632   6.261   2.974
 5899SOL     OW18595   4.880   6.683   5.907
 5899SOL    HW118596   4.973   6.719   5.899
 5899SOL    HW218597   4.880   6.584   5.890
 5900SOL     OW18598   5.100   5.242   3.475
 5900SOL    HW118599   5.128   5.330   3.435
 5900SOL    HW218600   5.035   5.258   3.549
 5901SOL     OW18601   2.947   0.356   0.104
 5901SOL    HW118602   2.876   0.381   0.170
 5901SOL    HW218603   2.985   0.267   0.127
 5902SOL     OW18604   6.841   2.292   6.541
 5902SOL    HW118605   6.906   2.279   6.616
 5902SOL    HW218606   6.888   2.333   6.463
 5903SOL     OW18607   4.114   3.321   1.063
 5903SOL    HW118608   4.207   3.299   1.034
 5903SOL    HW218609   4.056   3.336   0.982
 5904SOL     OW18610   1.144   3.343   1.684
 5904SOL    HW118611   1.097   3.300   1.607
 5904SOL    HW218612   1.079   3.362   1.757
 5905SOL     OW18613   6.204   6.233   2.952
 5905SOL    HW118614   6.110   6.241   2.919
 5905SOL    HW218615   6.267   6.264   2.881
 5906SOL     OW18616   4.548   2.072   3.941
 5906SOL    HW118617   4.507   2.036   3.857
 5906SOL    HW218618   4.543   2.002   4.013
 5907SOL     OW18619   1.585   5.193   1.659
 5907SOL    HW118620   1.586   5.097   1.688
 5907SOL    HW218621   1.492   5.229   1.666
 5908SOL     OW18622   0.470   2.625   6.812
 5908SOL    HW118623   0.542   2.593   6.751
 5908SOL    HW218624   0.392   2.658   6.758
 5909SOL     OW18625   6.811   5.085   1.041
 5909SOL    HW118626   6.903   5.101   1.006
 5909SOL    HW218627   6.816   5.053   1.136
 5910SOL     OW18628   0.726   2.986   3.443
 5910SOL    HW118629   0.790   2.984   3.366
 5910SOL    HW218630   0.750   3.059   3.506
 5911SOL     OW18631   6.130   6.951   6.540
 5911SOL    HW118632   6.061   6.937   6.611
 5911SOL    HW218633   6.088   6.997   6.462
 5912SOL     OW18634   7.008   0.530   5.687
 5912SOL    HW118635   6.969   0.487   5.606
 5912SOL    HW218636   6.934   0.561   5.747
 5913SOL     OW18637   4.706   2.530   6.337
 5913SOL    HW118638   4.791   2.481   6.358
 5913SOL    HW218639   4.660   2.555   6.422
 5914SOL     OW18640   1.237   5.583   6.964
 5914SOL    HW118641   1.170   5.513   6.987
 5914SOL    HW218642   1.324   5.540   6.942
 5915SOL     OW18643   4.847   5.997   1.489
 5915SOL    HW118644   4.871   6.064   1.559
 5915SOL    HW218645   4.750   6.005   1.466
 5916SOL     OW18646   6.330   5.982   3.128
 5916SOL    HW118647   6.380   5.999   3.043
 5916SOL    HW218648   6.273   6.062   3.149
 5917SOL     OW18649   3.202   4.088   4.544
 5917SOL    HW118650   3.115   4.038   4.546
 5917SOL    HW218651   3.221   4.118   4.450
 5918SOL     OW18652   2.414   4.725   5.349
 5918SOL    HW118653   2.450   4.661   5.281
 5918SOL    HW218654   2.417   4.684   5.440
 5919SOL     OW18655   3.000   3.151   3.153
 5919SOL    HW118656   2.978   3.152   3.056
 5919SOL    HW218657   3.056   3.071   3.173
 5920SOL     OW18658   5.139   0.896   6.252
 5920SOL    HW118659   5.131   0.969   6.184
 5920SOL    HW218660   5.091   0.923   6.336
 5921SOL     OW18661   4.257   5.259   6.572
 5921SOL    HW118662   4.271   5.198   6.650
 5921SOL    HW218663   4.337   5.255   6.512
 5922SOL     OW18664   5.835   4.098   4.311
 5922SOL    HW118665   5.909   4.165   4.308
 5922SOL    HW218666   5.757   4.137   4.359
 5923SOL     OW18667   6.949   1.915   1.922
 5923SOL    HW118668   7.020   1.970   1.879
 5923SOL    HW218669   6.892   1.873   1.851
 5924SOL     OW18670   6.302   0.154   2.785
 5924SOL    HW118671   6.318   0.082   2.717
 5924SOL    HW218672   6.389   0.180   2.827
 5925SOL     OW18673   3.242   6.640   1.853
 5925SOL    HW118674   3.201   6.721   1.897
 5925SOL    HW218675   3.252   6.657   1.755
 5926SOL     OW18676   3.679   4.974   2.390
 5926SOL    HW118677   3.598   5.025   2.359
 5926SOL    HW218678   3.663   4.941   2.483
 5927SOL     OW18679   0.795   5.130   2.265
 5927SOL    HW118680   0.876   5.188   2.259
 5927SOL    HW218681   0.819   5.036   2.242
 5928SOL     OW18682   3.440   6.959   0.711
 5928SOL    HW118683   3.386   6.947   0.794
 5928SOL    HW218684   3.382   6.993   0.637
 5929SOL     OW18685   6.323   0.481   5.869
 5929SOL    HW118686   6.404   0.484   5.927
 5929SOL    HW218687   6.252   0.426   5.913
 5930SOL     OW18688   0.006   3.551   3.516
 5930SOL    HW118689   6.986   3.528   3.603
 5930SOL    HW218690   6.994   3.494   3.443
 5931SOL     OW18691   6.393   6.347   3.358
 5931SOL    HW118692   6.330   6.392   3.422
 5931SOL    HW218693   6.405   6.405   3.277
 5932SOL     OW18694   3.511   0.176   0.529
 5932SOL    HW118695   3.497   0.186   0.628
 5932SOL    HW218696   3.475   0.257   0.482
 5933SOL     OW18697   6.643   5.220   4.294
 5933SOL    HW118698   6.595   5.135   4.272
 5933SOL    HW218699   6.602   5.261   4.376
 5934SOL     OW18700   3.751   2.871   5.004
 5934SOL    HW118701   3.733   2.845   4.909
 5934SOL    HW218702   3.850   2.877   5.018
 5935SOL     OW18703   0.003   4.812   6.241
 5935SOL    HW118704   0.080   4.754   6.269
 5935SOL    HW218705   6.999   4.868   6.318
 5936SOL     OW18706   3.294   3.169   1.445
 5936SOL    HW118707   3.301   3.261   1.405
 5936SOL    HW218708   3.383   3.143   1.482
 5937SOL     OW18709   5.756   3.322   1.870
 5937SOL    HW118710   5.805   3.361   1.792
 5937SOL    HW218711   5.782   3.226   1.882
 5938SOL     OW18712   6.217   5.490   3.655
 5938SOL    HW118713   6.146   5.500   3.585
 5938SOL    HW218714   6.185   5.529   3.741
 5939SOL     OW18715   2.570   5.667   3.824
 5939SOL    HW118716   2.487   5.648   3.876
 5939SOL    HW218717   2.562   5.757   3.780
 5940SOL     OW18718   4.538   5.029   2.859
 5940SOL    HW118719   4.636   5.025   2.880
 5940SOL    HW218720   4.523   4.993   2.767
 5941SOL     OW18721   5.756   3.452   2.179
 5941SOL    HW118722   5.808   3.494   2.105
 5941SOL    HW218723   5.659   3.448   2.154
 5942SOL     OW18724   5.302   3.724   6.642
 5942SOL    HW118725   5.298   3.645   6.581
 5942SOL    HW218726   5.255   3.801   6.599
 5943SOL     OW18727   3.277   4.101   6.157
 5943SOL    HW118728   3.202   4.035   6.147
 5943SOL    HW218729   3.365   4.053   6.149
 5944SOL     OW18730   6.897   2.235   0.093
 5944SOL    HW118731   6.928   2.140   0.093
 5944SOL    HW218732   6.900   2.272   0.186
 5945SOL     OW18733   6.810   4.820   4.998
 5945SOL    HW118734   6.788   4.789   4.906
 5945SOL    HW218735   6.844   4.914   4.994
 5946SOL     OW18736   3.320   3.665   6.280
 5946SOL    HW118737   3.375   3.722   6.219
 5946SOL    HW218738   3.263   3.723   6.338
 5947SOL     OW18739   3.179   3.672   3.191
 5947SOL    HW118740   3.129   3.756   3.169
 5947SOL    HW218741   3.188   3.616   3.108
 5948SOL     OW18742   3.672   4.887   2.664
 5948SOL    HW118743   3.590   4.918   2.714
 5948SOL    HW218744   3.713   4.809   2.712
 5949SOL     OW18745   4.983   4.808   1.617
 5949SOL    HW118746   4.912   4.754   1.662
 5949SOL    HW218747   5.052   4.834   1.685
 5950SOL     OW18748   5.747   1.897   4.756
 5950SOL    HW118749   5.777   1.984   4.796
 5950SOL    HW218750   5.689   1.915   4.676
 5951SOL     OW18751   1.278   5.436   4.368
 5951SOL    HW118752   1.181   5.431   4.343
 5951SOL    HW218753   1.293   5.383   4.451
 5952SOL     OW18754   5.046   6.047   3.406
 5952SOL    HW118755   4.956   6.091   3.415
 5952SOL    HW218756   5.092   6.049   3.495
 5953SOL     OW18757   6.752   4.295   5.356
 5953SOL    HW118758   6.693   4.374   5.340
 5953SOL    HW218759   6.830   4.298   5.294
 5954SOL     OW18760   6.837   5.352   5.317
 5954SOL    HW118761   6.824   5.265   5.269
 5954SOL    HW218762   6.888   5.336   5.402
 5955SOL     OW18763   4.573   5.856   1.865
 5955SOL    HW118764   4.488   5.835   1.914
 5955SOL    HW218765   4.551   5.899   1.778
 5956SOL     OW18766   5.472   1.676   3.959
 5956SOL    HW118767   5.507   1.754   4.012
 5956SOL    HW218768   5.425   1.613   4.020
 5957SOL     OW18769   3.085   1.677   4.615
 5957SOL    HW118770   3.086   1.591   4.563
 5957SOL    HW218771   3.170   1.684   4.667
 5958SOL     OW18772   4.308   6.880   2.430
 5958SOL    HW118773   4.316   6.978   2.409
 5958SOL    HW218774   4.262   6.869   2.519
 5959SOL     OW18775   4.590   2.733   5.615
 5959SOL    HW118776   4.523   2.792   5.571
 5959SOL    HW218777   4.643   2.786   5.681
 5960SOL     OW18778   3.466   5.863   4.910
 5960SOL    HW118779   3.503   5.930   4.974
 5960SOL    HW218780   3.487   5.891   4.817
 5961SOL     OW18781   4.744   1.798   3.033
 5961SOL    HW118782   4.646   1.777   3.035
 5961SOL    HW218783   4.796   1.717   3.059
 5962SOL     OW18784   5.532   6.420   6.558
 5962SOL    HW118785   5.580   6.501   6.525
 5962SOL    HW218786   5.576   6.338   6.521
 5963SOL     OW18787   2.868   3.583   6.296
 5963SOL    HW118788   2.850   3.663   6.239
 5963SOL    HW218789   2.961   3.589   6.333
 5964SOL     OW18790   1.431   6.695   4.826
 5964SOL    HW118791   1.447   6.652   4.915
 5964SOL    HW218792   1.388   6.629   4.764
 5965SOL     OW18793   2.026   1.359   6.840
 5965SOL    HW118794   2.005   1.454   6.821
 5965SOL    HW218795   2.109   1.354   6.897
 5966SOL     OW18796   2.534   6.283   6.700
 5966SOL    HW118797   2.494   6.255   6.612
 5966SOL    HW218798   2.472   6.348   6.745
 5967SOL     OW18799   2.462   0.414   5.915
 5967SOL    HW118800   2.514   0.449   5.836
 5967SOL    HW218801   2.523   0.362   5.975
 5968SOL     OW18802   5.574   2.335   0.395
 5968SOL    HW118803   5.512   2.337   0.473
 5968SOL    HW218804   5.647   2.401   0.409
 5969SOL     OW18805   6.061   0.520   6.736
 5969SOL    HW118806   6.105   0.536   6.647
 5969SOL    HW218807   6.059   0.421   6.754
 5970SOL     OW18808   6.913   4.586   1.990
 5970SOL    HW118809   6.934   4.637   1.907
 5970SOL    HW218810   6.970   4.619   2.065
 5971SOL     OW18811   0.089   1.011   1.882
 5971SOL    HW118812   0.104   1.103   1.917
 5971SOL    HW218813   0.147   0.947   1.932
 5972SOL     OW18814   4.594   5.774   6.290
 5972SOL    HW118815   4.671   5.834   6.271
 5972SOL    HW218816   4.627   5.690   6.334
 5973SOL     OW18817   1.780   2.556   2.527
 5973SOL    HW118818   1.831   2.628   2.480
 5973SOL    HW218819   1.764   2.481   2.463
 5974SOL     OW18820   5.113   6.177   0.372
 5974SOL    HW118821   5.182   6.131   0.429
 5974SOL    HW218822   5.070   6.109   0.312
 5975SOL     OW18823   3.914   0.007   0.976
 5975SOL    HW118824   3.953   6.953   0.928
 5975SOL    HW218825   3.838   0.044   0.924
 5976SOL     OW18826   3.866   2.998   5.677
 5976SOL    HW118827   3.873   3.063   5.601
 5976SOL    HW218828   3.902   2.909   5.648
 5977SOL     OW18829   1.222   6.213   0.671
 5977SOL    HW118830   1.146   6.200   0.608
 5977SOL    HW218831   1.279   6.289   0.639
 5978SOL     OW18832   3.349   5.476   1.653
 5978SOL    HW118833   3.428   5.478   1.592
 5978SOL    HW218834   3.311   5.383   1.655
 5979SOL     OW18835   6.751   0.636   2.890
 5979SOL    HW118836   6.666   0.601   2.928
 5979SOL    HW218837   6.731   0.709   2.825
 5980SOL     OW18838   3.887   4.161   1.387
 5980SOL    HW118839   3.886   4.258   1.362
 5980SOL    HW218840   3.806   4.140   1.441
 5981SOL     OW18841   5.039   1.679   0.698
 5981SOL    HW118842   5.053   1.583   0.671
 5981SOL    HW218843   5.090   1.739   0.637
 5982SOL     OW18844   6.468   2.216   2.827
 5982SOL    HW118845   6.380   2.187   2.789
 5982SOL    HW218846   6.507   2.287   2.770
 5983SOL     OW18847   1.000   1.252   4.657
 5983SOL    HW118848   0.969   1.235   4.563
 5983SOL    HW218849   0.921   1.280   4.713
 5984SOL     OW18850   5.448   6.085   3.359
 5984SOL    HW118851   5.518   6.037   3.412
 5984SOL    HW218852   5.486   6.170   3.322
 5985SOL     OW18853   6.965   2.886   3.454
 5985SOL    HW118854   6.924   2.819   3.392
 5985SOL    HW218855   6.961   2.976   3.411
 5986SOL     OW18856   3.035   3.831   4.884
 5986SOL    HW118857   2.969   3.782   4.828
 5986SOL    HW218858   3.010   3.824   4.981
 5987SOL     OW18859   5.121   0.469   4.614
 5987SOL    HW118860   5.153   0.390   4.563
 5987SOL    HW218861   5.190   0.541   4.612
 5988SOL     OW18862   4.573   0.900   5.646
 5988SOL    HW118863   4.522   0.826   5.600
 5988SOL    HW218864   4.510   0.974   5.669
 5989SOL     OW18865   2.089   5.652   6.067
 5989SOL    HW118866   1.999   5.682   6.035
 5989SOL    HW218867   2.149   5.635   5.989
 5990SOL     OW18868   3.873   3.216   0.454
 5990SOL    HW118869   3.848   3.312   0.468
 5990SOL    HW218870   3.802   3.157   0.490
 5991SOL     OW18871   3.889   5.670   6.869
 5991SOL    HW118872   3.831   5.656   6.789
 5991SOL    HW218873   3.836   5.650   6.952
 5992SOL     OW18874   3.247   0.155   1.982
 5992SOL    HW118875   3.176   0.107   2.033
 5992SOL    HW218876   3.275   0.236   2.032
 5993SOL     OW18877   4.047   4.029   5.736
 5993SOL    HW118878   4.057   4.038   5.637
 5993SOL    HW218879   3.956   4.062   5.763
 5994SOL     OW18880   6.851   2.187   0.390
 5994SOL    HW118881   6.761   2.213   0.423
 5994SOL    HW218882   6.860   2.087   0.393
 5995SOL     OW18883   4.836   3.000   2.310
 5995SOL    HW118884   4.935   3.009   2.297
 5995SOL    HW218885   4.790   3.011   2.222
 5996SOL     OW18886   0.190   6.448   0.650
 5996SOL    HW118887   0.233   6.366   0.610
 5996SOL    HW218888   0.158   6.508   0.576
 5997SOL     OW18889   0.478   5.209   2.868
 5997SOL    HW118890   0.513   5.186   2.959
 5997SOL    HW218891   0.551   5.252   2.815
 5998SOL     OW18892   6.364   1.474   2.366
 5998SOL    HW118893   6.327   1.565   2.383
 5998SOL    HW218894   6.290   1.408   2.355
 5999SOL     OW18895   2.868   3.584   1.478
 5999SOL    HW118896   2.847   3.602   1.574
 5999SOL    HW218897   2.899   3.668   1.434
 6000SOL     OW18898   2.010   6.146   6.929
 6000SOL    HW118899   1.972   6.055   6.912
 6000SOL    HW218900   2.105   6.137   6.961
 6001SOL     OW18901   0.004   5.065   6.753
 6001SOL    HW118902   6.972   5.040   6.832
 6001SOL    HW218903   0.058   5.146   6.775
 6002SOL     OW18904   5.383   0.002   0.025
 6002SOL    HW118905   5.426   6.970   6.979
 6002SOL    HW218906   5.294   6.988   0.049
 6003SOL     OW18907   5.549   2.177   4.876
 6003SOL    HW118908   5.514   2.268   4.898
 6003SOL    HW218909   5.648   2.175   4.891
 6004SOL     OW18910   6.725   3.844   3.095
 6004SOL    HW118911   6.643   3.850   3.151
 6004SOL    HW218912   6.723   3.760   3.041
 6005SOL     OW18913   5.482   5.570   4.724
 6005SOL    HW118914   5.449   5.620   4.644
 6005SOL    HW218915   5.447   5.476   4.721
 6006SOL     OW18916   2.140   0.945   5.317
 6006SOL    HW118917   2.166   0.864   5.369
 6006SOL    HW218918   2.209   0.964   5.247
 6007SOL     OW18919   6.198   3.605   5.801
 6007SOL    HW118920   6.254   3.676   5.843
 6007SOL    HW218921   6.205   3.611   5.702
 6008SOL     OW18922   2.805   5.160   5.597
 6008SOL    HW118923   2.888   5.197   5.556
 6008SOL    HW218924   2.805   5.177   5.696
 6009SOL     OW18925   3.474   0.472   3.662
 6009SOL    HW118926   3.553   0.430   3.618
 6009SOL    HW218927   3.492   0.483   3.760
 6010SOL     OW18928   1.346   4.891   3.951
 6010SOL    HW118929   1.326   4.948   3.871
 6010SOL    HW218930   1.261   4.848   3.984
 6011SOL     OW18931   5.839   3.070   3.470
 6011SOL    HW118932   5.865   3.046   3.563
 6011SOL    HW218933   5.858   2.993   3.409
 6012SOL     OW18934   5.874   0.927   0.998
 6012SOL    HW118935   5.854   1.017   1.038
 6012SOL    HW218936   5.845   0.926   0.902
 6013SOL     OW18937   4.691   0.998   2.664
 6013SOL    HW118938   4.698   1.043   2.753
 6013SOL    HW218939   4.595   0.994   2.636
 6014SOL     OW18940   3.817   3.940   3.564
 6014SOL    HW118941   3.778   3.865   3.511
 6014SOL    HW218942   3.754   3.964   3.639
 6015SOL     OW18943   5.661   4.266   4.455
 6015SOL    HW118944   5.566   4.297   4.454
 6015SOL    HW218945   5.678   4.214   4.539
 6016SOL     OW18946   6.633   2.040   6.069
 6016SOL    HW118947   6.631   1.963   6.004
 6016SOL    HW218948   6.668   2.009   6.157
 6017SOL     OW18949   6.143   4.830   4.048
 6017SOL    HW118950   6.094   4.799   3.967
 6017SOL    HW218951   6.237   4.796   4.046
 6018SOL     OW18952   3.586   1.223   6.215
 6018SOL    HW118953   3.552   1.311   6.250
 6018SOL    HW218954   3.590   1.157   6.290
 6019SOL     OW18955   0.573   2.577   5.141
 6019SOL    HW118956   0.660   2.530   5.123
 6019SOL    HW218957   0.586   2.676   5.126
 6020SOL     OW18958   0.471   4.959   0.154
 6020SOL    HW118959   0.521   4.877   0.127
 6020SOL    HW218960   0.446   5.011   0.072
 6021SOL     OW18961   4.515   0.862   3.196
 6021SOL    HW118962   4.590   0.858   3.262
 6021SOL    HW218963   4.549   0.840   3.105
 6022SOL     OW18964   6.787   1.926   3.569
 6022SOL    HW118965   6.690   1.951   3.563
 6022SOL    HW218966   6.810   1.908   3.664
 6023SOL     OW18967   5.296   1.231   1.826
 6023SOL    HW118968   5.341   1.201   1.742
 6023SOL    HW218969   5.300   1.331   1.831
 6024SOL     OW18970   1.351   4.417   1.707
 6024SOL    HW118971   1.283   4.374   1.767
 6024SOL    HW218972   1.308   4.447   1.623
 6025SOL     OW18973   2.966   1.913   3.535
 6025SOL    HW118974   2.993   1.823   3.502
 6025SOL    HW218975   2.976   1.917   3.634
 6026SOL     OW18976   0.193   5.222   5.540
 6026SOL    HW118977   0.136   5.156   5.587
 6026SOL    HW218978   0.259   5.261   5.605
 6027SOL     OW18979   0.155   3.438   6.065
 6027SOL    HW118980   0.156   3.509   6.135
 6027SOL    HW218981   0.243   3.438   6.016
 6028SOL     OW18982   5.852   4.857   0.896
 6028SOL    HW118983   5.940   4.857   0.849
 6028SOL    HW218984   5.859   4.806   0.981
 6029SOL     OW18985   2.617   6.119   3.959
 6029SOL    HW118986   2.566   6.177   3.895
 6029SOL    HW218987   2.707   6.160   3.977
 6030SOL     OW18988   4.382   4.851   3.070
 6030SOL    HW118989   4.371   4.922   3.001
 6030SOL    HW218990   4.350   4.886   3.159
 6031SOL     OW18991   3.343   5.366   4.303
 6031SOL    HW118992   3.397   5.427   4.361
 6031SOL    HW218993   3.337   5.405   4.211
 6032SOL     OW18994   2.172   4.809   2.276
 6032SOL    HW118995   2.249   4.799   2.213
 6032SOL    HW218996   2.196   4.874   2.348
 6033SOL     OW18997   2.068   2.307   3.487
 6033SOL    HW118998   2.099   2.276   3.577
 6033SOL    HW218999   2.128   2.379   3.454
 6034SOL     OW19000   1.067   0.855   5.235
 6034SOL    HW119001   1.100   0.821   5.147
 6034SOL    HW219002   1.111   0.943   5.255
 6035SOL     OW19003   1.110   1.119   1.678
 6035SOL    HW119004   1.097   1.171   1.762
 6035SOL    HW219005   1.021   1.092   1.641
 6036SOL     OW19006   4.997   5.439   2.650
 6036SOL    HW119007   5.074   5.383   2.683
 6036SOL    HW219008   5.029   5.502   2.579
 6037SOL     OW19009   3.972   0.523   0.657
 6037SOL    HW119010   4.029   0.528   0.739
 6037SOL    HW219011   3.933   0.431   0.649
 6038SOL     OW19012   1.467   3.015   6.014
 6038SOL    HW119013   1.512   2.949   5.953
 6038SOL    HW219014   1.370   2.992   6.024
 6039SOL     OW19015   3.453   2.867   3.160
 6039SOL    HW119016   3.508   2.850   3.078
 6039SOL    HW219017   3.514   2.888   3.237
 6040SOL     OW19018   1.633   2.420   1.222
 6040SOL    HW119019   1.659   2.491   1.157
 6040SOL    HW219020   1.593   2.343   1.173
 6041SOL     OW19021   3.199   1.356   5.432
 6041SOL    HW119022   3.281   1.304   5.458
 6041SOL    HW219023   3.166   1.408   5.511
 6042SOL     OW19024   4.321   6.842   2.719
 6042SOL    HW119025   4.246   6.778   2.733
 6042SOL    HW219026   4.321   6.910   2.792
 6043SOL     OW19027   1.093   6.622   5.589
 6043SOL    HW119028   1.121   6.624   5.493
 6043SOL    HW219029   1.037   6.542   5.605
 6044SOL     OW19030   1.786   2.764   1.316
 6044SOL    HW119031   1.777   2.762   1.415
 6044SOL    HW219032   1.697   2.748   1.274
 6045SOL     OW19033   5.919   3.728   3.194
 6045SOL    HW119034   5.829   3.685   3.186
 6045SOL    HW219035   5.963   3.697   3.279
 6046SOL     OW19036   3.393   2.656   1.598
 6046SOL    HW119037   3.329   2.580   1.609
 6046SOL    HW219038   3.473   2.642   1.655
 6047SOL     OW19039   5.211   2.110   1.744
 6047SOL    HW119040   5.245   2.132   1.836
 6047SOL    HW219041   5.111   2.102   1.747
 6048SOL     OW19042   4.669   5.207   5.186
 6048SOL    HW119043   4.718   5.288   5.154
 6048SOL    HW219044   4.717   5.125   5.155
 6049SOL     OW19045   4.560   3.497   6.931
 6049SOL    HW119046   4.541   3.595   6.923
 6049SOL    HW219047   4.475   3.447   6.944
 6050SOL     OW19048   2.751   4.754   5.952
 6050SOL    HW119049   2.827   4.720   6.007
 6050SOL    HW219050   2.725   4.685   5.884
 6051SOL     OW19051   2.011   0.309   3.017
 6051SOL    HW119052   2.084   0.259   2.970
 6051SOL    HW219053   2.051   0.370   3.085
 6052SOL     OW19054   5.263   1.048   1.027
 6052SOL    HW119055   5.270   1.136   0.981
 6052SOL    HW219056   5.250   0.976   0.959
 6053SOL     OW19057   4.065   1.402   6.009
 6053SOL    HW119058   3.984   1.402   5.949
 6053SOL    HW219059   4.060   1.480   6.071
 6054SOL     OW19060   2.687   3.418   0.160
 6054SOL    HW119061   2.775   3.380   0.190
 6054SOL    HW219062   2.634   3.446   0.239
 6055SOL     OW19063   5.385   0.003   5.500
 6055SOL    HW119064   5.369   7.007   5.597
 6055SOL    HW219065   5.345   6.955   5.444
 6056SOL     OW19066   4.971   3.558   5.238
 6056SOL    HW119067   4.897   3.523   5.296
 6056SOL    HW219068   4.932   3.595   5.153
 6057SOL     OW19069   0.092   0.992   2.372
 6057SOL    HW119070   7.020   1.017   2.384
 6057SOL    HW219071   0.150   1.066   2.403
 6058SOL     OW19072   5.778   4.093   1.082
 6058SOL    HW119073   5.857   4.138   1.123
 6058SOL    HW219074   5.728   4.159   1.025
 6059SOL     OW19075   4.705   5.509   6.373
 6059SOL    HW119076   4.720   5.508   6.274
 6059SOL    HW219077   4.753   5.431   6.414
 6060SOL     OW19078   2.757   3.407   5.737
 6060SOL    HW119079   2.804   3.436   5.820
 6060SOL    HW219080   2.765   3.308   5.727
 6061SOL     OW19081   5.224   3.342   0.627
 6061SOL    HW119082   5.267   3.270   0.681
 6061SOL    HW219083   5.126   3.326   0.621
 6062SOL     OW19084   2.549   1.220   5.758
 6062SOL    HW119085   2.590   1.311   5.771
 6062SOL    HW219086   2.453   1.229   5.734
 6063SOL     OW19087   4.439   2.320   6.401
 6063SOL    HW119088   4.372   2.298   6.471
 6063SOL    HW219089   4.477   2.236   6.362
 6064SOL     OW19090   1.199   0.415   0.807
 6064SOL    HW119091   1.099   0.422   0.813
 6064SOL    HW219092   1.240   0.484   0.867
 6065SOL     OW19093   0.988   6.031   2.905
 6065SOL    HW119094   1.067   5.970   2.909
 6065SOL    HW219095   0.977   6.077   2.993
 6066SOL     OW19096   5.567   1.817   5.309
 6066SOL    HW119097   5.628   1.806   5.387
 6066SOL    HW219098   5.472   1.813   5.340
 6067SOL     OW19099   5.259   0.860   5.917
 6067SOL    HW119100   5.346   0.818   5.943
 6067SOL    HW219101   5.216   0.902   5.997
 6068SOL     OW19102   4.722   2.821   4.453
 6068SOL    HW119103   4.661   2.744   4.469
 6068SOL    HW219104   4.806   2.809   4.506
 6069SOL     OW19105   5.815   3.108   4.896
 6069SOL    HW119106   5.755   3.167   4.841
 6069SOL    HW219107   5.910   3.130   4.875
 6070SOL     OW19108   2.764   2.543   1.231
 6070SOL    HW119109   2.668   2.555   1.202
 6070SOL    HW219110   2.768   2.474   1.304
 6071SOL     OW19111   6.862   5.928   5.099
 6071SOL    HW119112   6.852   6.027   5.084
 6071SOL    HW219113   6.837   5.906   5.193
 6072SOL     OW19114   0.240   0.389   1.929
 6072SOL    HW119115   0.220   0.429   1.839
 6072SOL    HW219116   0.337   0.365   1.934
 6073SOL     OW19117   5.289   3.144   0.952
 6073SOL    HW119118   5.267   3.241   0.941
 6073SOL    HW219119   5.375   3.135   1.000
 6074SOL     OW19120   1.022   5.708   2.297
 6074SOL    HW119121   0.957   5.638   2.268
 6074SOL    HW219122   1.110   5.665   2.316
 6075SOL     OW19123   4.680   0.072   5.829
 6075SOL    HW119124   4.667   0.171   5.833
 6075SOL    HW219125   4.681   0.042   5.734
 6076SOL     OW19126   3.504   5.301   3.114
 6076SOL    HW119127   3.410   5.335   3.108
 6076SOL    HW219128   3.567   5.378   3.124
 6077SOL     OW19129   6.429   5.274   1.421
 6077SOL    HW119130   6.504   5.293   1.484
 6077SOL    HW219131   6.457   5.203   1.357
 6078SOL     OW19132   5.135   5.390   0.393
 6078SOL    HW119133   5.233   5.389   0.373
 6078SOL    HW219134   5.086   5.337   0.325
 6079SOL     OW19135   4.978   3.760   5.411
 6079SOL    HW119136   4.995   3.683   5.349
 6079SOL    HW219137   5.053   3.768   5.476
 6080SOL     OW19138   0.201   6.019   0.825
 6080SOL    HW119139   0.171   6.109   0.795
 6080SOL    HW219140   0.148   5.991   0.905
 6081SOL     OW19141   6.653   2.862   5.389
 6081SOL    HW119142   6.562   2.822   5.382
 6081SOL    HW219143   6.719   2.804   5.341
 6082SOL     OW19144   2.760   0.313   3.284
 6082SOL    HW119145   2.743   0.224   3.242
 6082SOL    HW219146   2.820   0.367   3.224
 6083SOL     OW19147   6.220   6.131   0.514
 6083SOL    HW119148   6.257   6.073   0.442
 6083SOL    HW219149   6.141   6.182   0.479
 6084SOL     OW19150   0.809   6.797   2.991
 6084SOL    HW119151   0.873   6.802   2.914
 6084SOL    HW219152   0.810   6.884   3.041
 6085SOL     OW19153   0.367   0.000   0.075
 6085SOL    HW119154   0.302   0.023   0.148
 6085SOL    HW219155   0.326   0.023   7.011
 6086SOL     OW19156   2.863   1.383   5.627
 6086SOL    HW119157   2.793   1.415   5.691
 6086SOL    HW219158   2.953   1.413   5.660
 6087SOL     OW19159   3.710   5.911   1.143
 6087SOL    HW119160   3.621   5.949   1.118
 6087SOL    HW219161   3.698   5.839   1.211
 6088SOL     OW19162   5.564   6.448   4.843
 6088SOL    HW119163   5.570   6.429   4.941
 6088SOL    HW219164   5.638   6.401   4.795
 6089SOL     OW19165   5.341   2.421   2.692
 6089SOL    HW119166   5.302   2.375   2.613
 6089SOL    HW219167   5.272   2.478   2.736
 6090SOL     OW19168   2.784   5.726   4.435
 6090SOL    HW119169   2.775   5.760   4.342
 6090SOL    HW219170   2.880   5.726   4.462
 6091SOL     OW19171   2.274   1.518   6.975
 6091SOL    HW119172   2.190   1.572   6.973
 6091SOL    HW219173   2.315   1.522   0.042
 6092SOL     OW19174   4.124   0.493   2.810
 6092SOL    HW119175   4.153   0.535   2.723
 6092SOL    HW219176   4.204   0.478   2.868
 6093SOL     OW19177   2.127   3.079   2.163
 6093SOL    HW119178   2.101   3.162   2.113
 6093SOL    HW219179   2.166   3.013   2.099
 6094SOL     OW19180   1.395   6.058   2.723
 6094SOL    HW119181   1.385   6.093   2.630
 6094SOL    HW219182   1.434   6.129   2.781
 6095SOL     OW19183   4.915   4.705   0.213
 6095SOL    HW119184   4.959   4.762   0.143
 6095SOL    HW219185   4.816   4.712   0.203
 6096SOL     OW19186   5.983   0.148   3.402
 6096SOL    HW119187   6.029   0.205   3.333
 6096SOL    HW219188   5.908   0.098   3.360
 6097SOL     OW19189   1.952   5.846   2.180
 6097SOL    HW119190   2.052   5.844   2.173
 6097SOL    HW219191   1.912   5.818   2.093
 6098SOL     OW19192   0.369   1.388   5.625
 6098SOL    HW119193   0.397   1.392   5.529
 6098SOL    HW219194   0.449   1.398   5.683
 6099SOL     OW19195   5.356   6.436   6.760
 6099SOL    HW119196   5.432   6.439   6.694
 6099SOL    HW219197   5.271   6.419   6.711
 6100SOL     OW19198   5.146   6.207   1.651
 6100SOL    HW119199   5.088   6.173   1.725
 6100SOL    HW219200   5.238   6.225   1.687
 6101SOL     OW19201   6.960   3.151   3.318
 6101SOL    HW119202   0.014   3.193   3.272
 6101SOL    HW219203   6.929   3.072   3.266
 6102SOL     OW19204   3.592   5.789   3.106
 6102SOL    HW119205   3.551   5.879   3.121
 6102SOL    HW219206   3.553   5.747   3.024
 6103SOL     OW19207   6.064   1.472   2.141
 6103SOL    HW119208   6.085   1.381   2.176
 6103SOL    HW219209   6.149   1.523   2.128
 6104SOL     OW19210   5.413   0.364   5.506
 6104SOL    HW119211   5.322   0.394   5.477
 6104SOL    HW219212   5.428   0.269   5.480
 6105SOL     OW19213   2.829   5.675   6.663
 6105SOL    HW119214   2.886   5.594   6.674
 6105SOL    HW219215   2.737   5.657   6.698
 6106SOL     OW19216   1.266   4.796   6.191
 6106SOL    HW119217   1.220   4.834   6.271
 6106SOL    HW219218   1.358   4.766   6.217
 6107SOL     OW19219   4.614   6.346   4.987
 6107SOL    HW119220   4.543   6.291   4.944
 6107SOL    HW219221   4.573   6.425   5.032
 6108SOL     OW19222   2.184   2.885   2.361
 6108SOL    HW119223   2.246   2.892   2.439
 6108SOL    HW219224   2.188   2.971   2.309
 6109SOL     OW19225   5.787   2.112   4.993
 6109SOL    HW119226   5.859   2.078   5.054
 6109SOL    HW219227   5.709   2.050   4.997
 6110SOL     OW19228   2.730   4.118   1.141
 6110SOL    HW119229   2.775   4.030   1.154
 6110SOL    HW219230   2.733   4.143   1.044
 6111SOL     OW19231   1.372   3.178   2.484
 6111SOL    HW119232   1.339   3.140   2.397
 6111SOL    HW219233   1.460   3.223   2.470
 6112SOL     OW19234   2.883   6.950   2.802
 6112SOL    HW119235   2.788   6.952   2.831
 6112SOL    HW219236   2.936   6.892   2.864
 6113SOL     OW19237   3.345   2.305   6.020
 6113SOL    HW119238   3.282   2.242   5.976
 6113SOL    HW219239   3.313   2.399   6.008
 6114SOL     OW19240   5.177   4.550   2.313
 6114SOL    HW119241   5.208   4.588   2.400
 6114SOL    HW219242   5.091   4.500   2.326
 6115SOL     OW19243   5.735   0.348   4.517
 6115SOL    HW119244   5.779   0.290   4.449
 6115SOL    HW219245   5.770   0.326   4.608
 6116SOL     OW19246   4.687   1.799   6.363
 6116SOL    HW119247   4.681   1.725   6.296
 6116SOL    HW219248   4.768   1.786   6.420
 6117SOL     OW19249   1.594   1.121   3.555
 6117SOL    HW119250   1.550   1.045   3.602
 6117SOL    HW219251   1.556   1.207   3.588
 6118SOL     OW19252   6.480   0.904   1.116
 6118SOL    HW119253   6.416   0.932   1.188
 6118SOL    HW219254   6.486   0.977   1.047
 6119SOL     OW19255   0.876   3.669   0.002
 6119SOL    HW119256   0.897   3.692   6.932
 6119SOL    HW219257   0.788   3.710   0.027
 6120SOL     OW19258   3.435   6.383   5.610
 6120SOL    HW119259   3.350   6.339   5.582
 6120SOL    HW219260   3.439   6.388   5.709
 6121SOL     OW19261   0.851   3.541   5.131
 6121SOL    HW119262   0.905   3.496   5.061
 6121SOL    HW219263   0.844   3.482   5.212
 6122SOL     OW19264   4.199   5.031   0.348
 6122SOL    HW119265   4.235   5.078   0.268
 6122SOL    HW219266   4.102   5.054   0.360
 6123SOL     OW19267   5.195   6.835   6.362
 6123SOL    HW119268   5.121   6.803   6.303
 6123SOL    HW219269   5.175   6.927   6.394
 6124SOL     OW19270   1.483   6.986   5.828
 6124SOL    HW119271   1.549   0.004   5.766
 6124SOL    HW219272   1.523   6.903   5.866
 6125SOL     OW19273   2.235   4.278   0.260
 6125SOL    HW119274   2.191   4.268   0.171
 6125SOL    HW219275   2.326   4.235   0.256
 6126SOL     OW19276   0.306   0.628   4.046
 6126SOL    HW119277   0.317   0.709   4.104
 6126SOL    HW219278   0.323   0.653   3.951
 6127SOL     OW19279   3.247   6.949   0.964
 6127SOL    HW119280   3.234   6.935   1.062
 6127SOL    HW219281   3.254   6.860   0.918
 6128SOL     OW19282   6.341   4.539   0.855
 6128SOL    HW119283   6.412   4.565   0.791
 6128SOL    HW219284   6.261   4.507   0.805
 6129SOL     OW19285   6.954   3.436   2.048
 6129SOL    HW119286   6.948   3.345   2.089
 6129SOL    HW219287   6.933   3.431   1.950
 6130SOL     OW19288   5.270   2.769   2.570
 6130SOL    HW119289   5.316   2.769   2.481
 6130SOL    HW219290   5.221   2.855   2.582
 6131SOL     OW19291   0.338   1.542   3.834
 6131SOL    HW119292   0.308   1.506   3.745
 6131SOL    HW219293   0.424   1.591   3.823
 6132SOL     OW19294   4.438   1.790   6.878
 6132SOL    HW119295   4.432   1.695   6.845
 6132SOL    HW219296   4.521   1.832   6.843
 6133SOL     OW19297   2.161   3.468   3.216
 6133SOL    HW119298   2.069   3.452   3.180
 6133SOL    HW219299   2.180   3.402   3.290
 6134SOL     OW19300   4.274   5.257   6.921
 6134SOL    HW119301   4.190   5.204   6.926
 6134SOL    HW219302   4.256   5.345   6.879
 6135SOL     OW19303   6.802   0.257   0.143
 6135SOL    HW119304   6.708   0.272   0.111
 6135SOL    HW219305   6.801   0.189   0.217
 6136SOL     OW19306   1.194   3.130   1.975
 6136SOL    HW119307   1.135   3.188   1.919
 6136SOL    HW219308   1.270   3.095   1.919
 6137SOL     OW19309   0.021   3.908   2.262
 6137SOL    HW119310   0.077   3.971   2.317
 6137SOL    HW219311   6.989   3.853   2.324
 6138SOL     OW19312   3.725   6.940   2.675
 6138SOL    HW119313   3.707   6.955   2.578
 6138SOL    HW219314   3.794   6.868   2.686
 6139SOL     OW19315   1.582   6.781   6.158
 6139SOL    HW119316   1.578   6.875   6.191
 6139SOL    HW219317   1.491   6.751   6.131
 6140SOL     OW19318   1.022   0.309   1.926
 6140SOL    HW119319   1.035   0.351   1.836
 6140SOL    HW219320   1.107   0.264   1.954
 6141SOL     OW19321   0.575   6.988   6.272
 6141SOL    HW119322   0.616   0.025   6.339
 6141SOL    HW219323   0.480   7.014   6.257
 6142SOL     OW19324   0.449   6.170   6.410
 6142SOL    HW119325   0.459   6.262   6.450
 6142SOL    HW219326   0.538   6.137   6.380
 6143SOL     OW19327   6.447   3.164   1.152
 6143SOL    HW119328   6.479   3.131   1.240
 6143SOL    HW219329   6.482   3.256   1.135
 6144SOL     OW19330   4.875   4.788   4.553
 6144SOL    HW119331   4.805   4.846   4.512
 6144SOL    HW219332   4.858   4.692   4.527
 6145SOL     OW19333   5.281   5.134   4.334
 6145SOL    HW119334   5.365   5.083   4.350
 6145SOL    HW219335   5.292   5.228   4.368
 6146SOL     OW19336   3.401   5.448   3.631
 6146SOL    HW119337   3.495   5.413   3.625
 6146SOL    HW219338   3.404   5.543   3.660
 6147SOL     OW19339   2.317   2.014   5.007
 6147SOL    HW119340   2.226   2.054   5.017
 6147SOL    HW219341   2.310   1.923   4.965
 6148SOL     OW19342   4.565   0.022   5.239
 6148SOL    HW119343   4.516   0.020   5.327
 6148SOL    HW219344   4.499   0.017   5.164
 6149SOL     OW19345   2.478   6.742   1.522
 6149SOL    HW119346   2.415   6.791   1.462
 6149SOL    HW219347   2.512   6.660   1.474
 6150SOL     OW19348   5.851   5.344   0.794
 6150SOL    HW119349   5.939   5.304   0.820
 6150SOL    HW219350   5.783   5.271   0.784
 6151SOL     OW19351   6.393   5.068   6.411
 6151SOL    HW119352   6.385   5.153   6.359
 6151SOL    HW219353   6.476   5.020   6.383
 6152SOL     OW19354   6.766   6.158   4.736
 6152SOL    HW119355   6.775   6.066   4.774
 6152SOL    HW219356   6.848   6.180   4.683
 6153SOL     OW19357   5.420   4.557   1.051
 6153SOL    HW119358   5.458   4.634   1.103
 6153SOL    HW219359   5.376   4.592   0.968
 6154SOL     OW19360   6.253   2.648   2.691
 6154SOL    HW119361   6.185   2.578   2.669
 6154SOL    HW219362   6.215   2.738   2.672
 6155SOL     OW19363   1.554   1.383   3.123
 6155SOL    HW119364   1.557   1.350   3.218
 6155SOL    HW219365   1.466   1.426   3.106
 6156SOL     OW19366   4.432   4.646   2.018
 6156SOL    HW119367   4.463   4.579   2.085
 6156SOL    HW219368   4.385   4.720   2.065
 6157SOL     OW19369   6.894   1.943   4.200
 6157SOL    HW119370   6.950   1.962   4.281
 6157SOL    HW219371   6.864   2.029   4.159
 6158SOL     OW19372   3.645   1.915   6.774
 6158SOL    HW119373   3.609   1.981   6.840
 6158SOL    HW219374   3.645   1.824   6.815
 6159SOL     OW19375   4.349   2.015   1.400
 6159SOL    HW119376   4.421   1.976   1.343
 6159SOL    HW219377   4.277   1.947   1.416
 6160SOL     OW19378   5.231   0.976   6.702
 6160SOL    HW119379   5.174   0.980   6.784
 6160SOL    HW219380   5.322   0.942   6.727
 6161SOL     OW19381   5.783   1.744   5.780
 6161SOL    HW119382   5.703   1.759   5.838
 6161SOL    HW219383   5.831   1.662   5.810
 6162SOL     OW19384   6.576   6.468   3.644
 6162SOL    HW119385   6.669   6.499   3.626
 6162SOL    HW219386   6.574   6.417   3.730
 6163SOL     OW19387   6.133   6.302   1.495
 6163SOL    HW119388   6.068   6.376   1.513
 6163SOL    HW219389   6.220   6.322   1.540
 6164SOL     OW19390   3.411   3.765   3.670
 6164SOL    HW119391   3.440   3.860   3.680
 6164SOL    HW219392   3.417   3.718   3.758
 6165SOL     OW19393   4.529   1.554   6.761
 6165SOL    HW119394   4.609   1.557   6.702
 6165SOL    HW219395   4.532   1.471   6.817
 6166SOL     OW19396   5.890   2.142   6.429
 6166SOL    HW119397   5.911   2.142   6.527
 6166SOL    HW219398   5.889   2.048   6.395
 6167SOL     OW19399   0.986   5.148   3.150
 6167SOL    HW119400   0.916   5.080   3.167
 6167SOL    HW219401   1.076   5.109   3.169
 6168SOL     OW19402   1.613   3.316   2.723
 6168SOL    HW119403   1.629   3.317   2.624
 6168SOL    HW219404   1.532   3.261   2.743
 6169SOL     OW19405   1.173   2.166   0.434
 6169SOL    HW119406   1.237   2.172   0.357
 6169SOL    HW219407   1.093   2.222   0.414
 6170SOL     OW19408   2.457   4.079   5.350
 6170SOL    HW119409   2.422   4.016   5.281
 6170SOL    HW219410   2.381   4.129   5.391
 6171SOL     OW19411   1.851   3.602   1.031
 6171SOL    HW119412   1.838   3.515   1.077
 6171SOL    HW219413   1.921   3.655   1.079
 6172SOL     OW19414   1.884   1.381   3.425
 6172SOL    HW119415   1.891   1.294   3.475
 6172SOL    HW219416   1.975   1.424   3.421
 6173SOL     OW19417   6.213   5.109   2.088
 6173SOL    HW119418   6.246   5.080   1.998
 6173SOL    HW219419   6.148   5.185   2.077
 6174SOL     OW19420   5.266   5.014   3.573
 6174SOL    HW119421   5.220   5.089   3.524
 6174SOL    HW219422   5.201   4.972   3.636
 6175SOL     OW19423   4.692   0.681   3.507
 6175SOL    HW119424   4.722   0.746   3.437
 6175SOL    HW219425   4.634   0.611   3.465
 6176SOL     OW19426   5.885   3.129   6.744
 6176SOL    HW119427   5.982   3.128   6.770
 6176SOL    HW219428   5.828   3.138   6.826
 6177SOL     OW19429   5.783   0.725   1.146
 6177SOL    HW119430   5.692   0.698   1.115
 6177SOL    HW219431   5.814   0.803   1.093
 6178SOL     OW19432   4.359   4.610   3.230
 6178SOL    HW119433   4.403   4.540   3.286
 6178SOL    HW219434   4.420   4.690   3.224
 6179SOL     OW19435   6.864   4.661   4.238
 6179SOL    HW119436   6.861   4.653   4.337
 6179SOL    HW219437   6.832   4.753   4.212
 6180SOL     OW19438   3.962   4.893   0.167
 6180SOL    HW119439   4.016   4.817   0.205
 6180SOL    HW219440   3.940   4.957   0.240
 6181SOL     OW19441   3.648   6.760   0.623
 6181SOL    HW119442   3.655   6.785   0.527
 6181SOL    HW219443   3.589   6.825   0.670
 6182SOL     OW19444   5.411   3.299   5.765
 6182SOL    HW119445   5.478   3.337   5.830
 6182SOL    HW219446   5.428   3.338   5.674
 6183SOL     OW19447   2.427   1.399   3.053
 6183SOL    HW119448   2.358   1.462   3.087
 6183SOL    HW219449   2.505   1.397   3.116
 6184SOL     OW19450   1.928   6.826   5.875
 6184SOL    HW119451   1.896   6.868   5.961
 6184SOL    HW219452   1.972   6.896   5.819
 6185SOL     OW19453   0.034   4.295   6.702
 6185SOL    HW119454   7.023   4.337   6.785
 6185SOL    HW219455   0.068   4.366   6.641
 6186SOL     OW19456   6.851   6.684   6.020
 6186SOL    HW119457   6.795   6.602   6.032
 6186SOL    HW219458   6.833   6.724   5.930
 6187SOL     OW19459   4.591   4.681   2.918
 6187SOL    HW119460   4.556   4.591   2.943
 6187SOL    HW219461   4.538   4.752   2.964
 6188SOL     OW19462   2.505   0.013   0.838
 6188SOL    HW119463   2.522   0.101   0.792
 6188SOL    HW219464   2.409   0.008   0.865
 6189SOL     OW19465   4.873   4.261   3.746
 6189SOL    HW119466   4.890   4.193   3.818
 6189SOL    HW219467   4.925   4.344   3.767
 6190SOL     OW19468   6.970   3.878   5.886
 6190SOL    HW119469   0.011   3.802   5.881
 6190SOL    HW219470   6.890   3.849   5.939
 6191SOL     OW19471   4.120   2.000   6.951
 6191SOL    HW119472   4.026   2.011   6.919
 6191SOL    HW219473   4.121   2.002   0.027
 6192SOL     OW19474   4.241   2.765   6.717
 6192SOL    HW119475   4.205   2.673   6.732
 6192SOL    HW219476   4.174   2.820   6.668
 6193SOL     OW19477   4.989   1.278   2.348
 6193SOL    HW119478   4.929   1.202   2.373
 6193SOL    HW219479   5.011   1.273   2.251
 6194SOL     OW19480   1.206   0.041   0.702
 6194SOL    HW119481   1.159   6.978   0.717
 6194SOL    HW219482   1.145   0.104   0.655
 6195SOL     OW19483   4.860   6.572   5.341
 6195SOL    HW119484   4.913   6.536   5.417
 6195SOL    HW219485   4.809   6.498   5.297
 6196SOL     OW19486   5.807   2.511   1.833
 6196SOL    HW119487   5.735   2.453   1.871
 6196SOL    HW219488   5.878   2.455   1.792
 6197SOL     OW19489   4.325   4.572   0.755
 6197SOL    HW119490   4.256   4.580   0.828
 6197SOL    HW219491   4.416   4.574   0.796
 6198SOL     OW19492   3.785   6.300   2.199
 6198SOL    HW119493   3.868   6.280   2.146
 6198SOL    HW219494   3.810   6.322   2.293
 6199SOL     OW19495   0.950   0.425   0.913
 6199SOL    HW119496   0.908   0.347   0.960
 6199SOL    HW219497   0.941   0.507   0.970
 6200SOL     OW19498   1.530   1.144   5.600
 6200SOL    HW119499   1.454   1.132   5.664
 6200SOL    HW219500   1.516   1.229   5.548
 6201SOL     OW19501   0.819   3.371   5.358
 6201SOL    HW119502   0.730   3.327   5.365
 6201SOL    HW219503   0.867   3.365   5.446
 6202SOL     OW19504   3.967   1.511   2.489
 6202SOL    HW119505   3.880   1.549   2.458
 6202SOL    HW219506   4.008   1.572   2.557
 6203SOL     OW19507   6.517   6.893   3.275
 6203SOL    HW119508   6.432   6.925   3.318
 6203SOL    HW219509   6.536   6.800   3.305
 6204SOL     OW19510   0.835   5.644   4.884
 6204SOL    HW119511   0.935   5.634   4.882
 6204SOL    HW219512   0.811   5.723   4.940
 6205SOL     OW19513   6.040   6.256   0.363
 6205SOL    HW119514   6.081   6.330   0.310
 6205SOL    HW219515   5.975   6.294   0.429
 6206SOL     OW19516   0.254   1.174   3.244
 6206SOL    HW119517   0.329   1.221   3.291
 6206SOL    HW219518   0.170   1.185   3.298
 6207SOL     OW19519   1.564   5.105   4.726
 6207SOL    HW119520   1.557   5.164   4.806
 6207SOL    HW219521   1.590   5.159   4.646
 6208SOL     OW19522   5.816   1.876   6.338
 6208SOL    HW119523   5.807   1.838   6.430
 6208SOL    HW219524   5.899   1.840   6.295
 6209SOL     OW19525   4.524   5.680   6.969
 6209SOL    HW119526   4.610   5.686   7.020
 6209SOL    HW219527   4.454   5.734   7.015
 6210SOL     OW19528   4.918   3.293   3.399
 6210SOL    HW119529   4.955   3.205   3.429
 6210SOL    HW219530   4.894   3.288   3.302
 6211SOL     OW19531   3.198   6.243   5.562
 6211SOL    HW119532   3.121   6.274   5.617
 6211SOL    HW219533   3.170   6.234   5.467
 6212SOL     OW19534   1.767   5.213   3.814
 6212SOL    HW119535   1.767   5.212   3.714
 6212SOL    HW219536   1.702   5.282   3.846
 6213SOL     OW19537   5.469   0.265   0.058
 6213SOL    HW119538   5.434   0.177   0.026
 6213SOL    HW219539   5.568   0.269   0.046
 6214SOL     OW19540   4.943   4.867   4.804
 6214SOL    HW119541   4.952   4.777   4.847
 6214SOL    HW219542   4.898   4.856   4.715
 6215SOL     OW19543   4.458   1.394   0.629
 6215SOL    HW119544   4.521   1.472   0.625
 6215SOL    HW219545   4.437   1.374   0.724
 6216SOL     OW19546   6.168   1.288   2.304
 6216SOL    HW119547   6.204   1.235   2.227
 6216SOL    HW219548   6.151   1.227   2.382
 6217SOL     OW19549   0.044   3.608   2.246
 6217SOL    HW119550   0.003   3.582   2.333
 6217SOL    HW219551   0.011   3.546   2.174
 6218SOL     OW19552   3.836   5.436   6.298
 6218SOL    HW119553   3.914   5.498   6.286
 6218SOL    HW219554   3.785   5.461   6.380
 6219SOL     OW19555   0.449   2.750   4.261
 6219SOL    HW119556   0.515   2.792   4.324
 6219SOL    HW219557   0.360   2.741   4.307
 6220SOL     OW19558   1.752   2.185   5.246
 6220SOL    HW119559   1.681   2.236   5.294
 6220SOL    HW219560   1.825   2.160   5.309
 6221SOL     OW19561   5.880   5.527   6.927
 6221SOL    HW119562   5.795   5.507   6.880
 6221SOL    HW219563   5.863   5.591   7.002
 6222SOL     OW19564   0.491   6.986   1.723
 6222SOL    HW119565   0.449   6.984   1.633
 6222SOL    HW219566   0.479   6.896   1.767
 6223SOL     OW19567   0.578   5.130   4.174
 6223SOL    HW119568   0.497   5.186   4.192
 6223SOL    HW219569   0.571   5.089   4.083
 6224SOL     OW19570   2.543   1.716   6.067
 6224SOL    HW119571   2.606   1.795   6.066
 6224SOL    HW219572   2.582   1.644   6.125
 6225SOL     OW19573   3.729   4.129   6.609
 6225SOL    HW119574   3.639   4.109   6.570
 6225SOL    HW219575   3.799   4.081   6.555
 6226SOL     OW19576   6.706   1.524   5.224
 6226SOL    HW119577   6.771   1.455   5.189
 6226SOL    HW219578   6.743   1.615   5.207
 6227SOL     OW19579   3.585   6.073   5.415
 6227SOL    HW119580   3.654   6.004   5.397
 6227SOL    HW219581   3.496   6.040   5.384
 6228SOL     OW19582   1.183   2.345   3.232
 6228SOL    HW119583   1.216   2.263   3.279
 6228SOL    HW219584   1.083   2.342   3.227
 6229SOL     OW19585   0.245   2.085   3.174
 6229SOL    HW119586   0.169   2.129   3.221
 6229SOL    HW219587   0.317   2.062   3.240
 6230SOL     OW19588   1.247   1.684   3.700
 6230SOL    HW119589   1.262   1.625   3.621
 6230SOL    HW219590   1.193   1.635   3.768
 6231SOL     OW19591   6.155   5.699   1.276
 6231SOL    HW119592   6.060   5.710   1.302
 6231SOL    HW219593   6.168   5.612   1.229
 6232SOL     OW19594   6.599   0.331   1.043
 6232SOL    HW119595   6.686   0.311   0.999
 6232SOL    HW219596   6.555   0.408   0.996
 6233SOL     OW19597   6.520   0.634   1.080
 6233SOL    HW119598   6.491   0.726   1.108
 6233SOL    HW219599   6.483   0.567   1.144
 6234SOL     OW19600   6.144   1.225   5.714
 6234SOL    HW119601   6.237   1.208   5.679
 6234SOL    HW219602   6.128   1.167   5.794
 6235SOL     OW19603   1.011   6.598   1.565
 6235SOL    HW119604   1.026   6.671   1.499
 6235SOL    HW219605   1.069   6.520   1.543
 6236SOL     OW19606   0.789   3.572   0.864
 6236SOL    HW119607   0.859   3.507   0.894
 6236SOL    HW219608   0.699   3.530   0.872
 6237SOL     OW19609   3.262   6.837   6.589
 6237SOL    HW119610   3.276   6.774   6.665
 6237SOL    HW219611   3.204   6.793   6.520
 6238SOL     OW19612   3.951   4.979   2.579
 6238SOL    HW119613   3.883   4.959   2.650
 6238SOL    HW219614   3.983   4.894   2.538
 6239SOL     OW19615   2.058   0.735   1.919
 6239SOL    HW119616   2.040   0.818   1.865
 6239SOL    HW219617   2.147   0.744   1.964
 6240SOL     OW19618   1.957   3.115   5.573
 6240SOL    HW119619   1.934   3.033   5.625
 6240SOL    HW219620   2.043   3.154   5.607
 6241SOL     OW19621   4.013   0.033   1.651
 6241SOL    HW119622   3.930   0.048   1.599
 6241SOL    HW219623   3.991   7.014   1.739
 6242SOL     OW19624   4.566   0.349   3.562
 6242SOL    HW119625   4.651   0.297   3.560
 6242SOL    HW219626   4.489   0.286   3.566
 6243SOL     OW19627   6.375   6.574   4.260
 6243SOL    HW119628   6.340   6.521   4.182
 6243SOL    HW219629   6.339   6.667   4.256
 6244SOL     OW19630   0.087   2.682   1.884
 6244SOL    HW119631   0.113   2.587   1.865
 6244SOL    HW219632   0.163   2.742   1.859
 6245SOL     OW19633   1.605   3.903   0.422
 6245SOL    HW119634   1.582   3.942   0.333
 6245SOL    HW219635   1.576   3.966   0.494
 6246SOL     OW19636   2.732   2.017   5.583
 6246SOL    HW119637   2.734   2.114   5.606
 6246SOL    HW219638   2.645   1.995   5.539
 6247SOL     OW19639   1.003   6.345   4.579
 6247SOL    HW119640   0.979   6.320   4.672
 6247SOL    HW219641   0.943   6.296   4.515
 6248SOL     OW19642   4.014   2.911   0.366
 6248SOL    HW119643   4.053   2.997   0.400
 6248SOL    HW219644   4.023   2.840   0.437
 6249SOL     OW19645   0.924   4.040   0.997
 6249SOL    HW119646   0.960   4.095   1.073
 6249SOL    HW219647   0.886   3.955   1.033
 6250SOL     OW19648   6.676   6.580   0.207
 6250SOL    HW119649   6.720   6.647   0.147
 6250SOL    HW219650   6.688   6.489   0.169
 6251SOL     OW19651   4.286   5.540   6.640
 6251SOL    HW119652   4.266   5.447   6.608
 6251SOL    HW219653   4.384   5.548   6.660
 6252SOL     OW19654   1.662   6.452   5.535
 6252SOL    HW119655   1.614   6.530   5.575
 6252SOL    HW219656   1.667   6.463   5.435
 6253SOL     OW19657   2.110   4.457   3.128
 6253SOL    HW119658   2.063   4.373   3.099
 6253SOL    HW219659   2.044   4.532   3.134
 6254SOL     OW19660   5.489   1.636   1.376
 6254SOL    HW119661   5.505   1.540   1.355
 6254SOL    HW219662   5.561   1.692   1.335
 6255SOL     OW19663   3.461   0.492   1.287
 6255SOL    HW119664   3.466   0.560   1.213
 6255SOL    HW219665   3.366   0.465   1.301
 6256SOL     OW19666   3.418   5.300   1.922
 6256SOL    HW119667   3.356   5.343   1.988
 6256SOL    HW219668   3.367   5.271   1.842
 6257SOL     OW19669   5.090   2.306   0.852
 6257SOL    HW119670   5.008   2.349   0.889
 6257SOL    HW219671   5.064   2.239   0.782
 6258SOL     OW19672   3.797   6.863   3.879
 6258SOL    HW119673   3.722   6.843   3.941
 6258SOL    HW219674   3.874   6.901   3.932
 6259SOL     OW19675   2.606   2.526   0.282
 6259SOL    HW119676   2.512   2.559   0.282
 6259SOL    HW219677   2.640   2.522   0.376
 6260SOL     OW19678   3.222   5.266   0.046
 6260SOL    HW119679   3.288   5.196   0.074
 6260SOL    HW219680   3.129   5.231   0.058
 6261SOL     OW19681   3.674   1.038   6.978
 6261SOL    HW119682   3.652   1.123   6.931
 6261SOL    HW219683   3.607   1.022   0.027
 6262SOL     OW19684   2.776   6.295   1.218
 6262SOL    HW119685   2.704   6.264   1.280
 6262SOL    HW219686   2.776   6.395   1.214
 6263SOL     OW19687   6.681   0.795   5.248
 6263SOL    HW119688   6.685   0.711   5.194
 6263SOL    HW219689   6.751   0.859   5.215
 6264SOL     OW19690   1.323   6.835   2.209
 6264SOL    HW119691   1.244   6.888   2.179
 6264SOL    HW219692   1.406   6.873   2.169
 6265SOL     OW19693   3.724   3.902   0.350
 6265SOL    HW119694   3.819   3.924   0.372
 6265SOL    HW219695   3.663   3.958   0.406
 6266SOL     OW19696   3.974   0.889   4.728
 6266SOL    HW119697   3.896   0.828   4.713
 6266SOL    HW219698   3.962   0.938   4.814
 6267SOL     OW19699   2.437   0.284   6.222
 6267SOL    HW119700   2.460   0.375   6.256
 6267SOL    HW219701   2.467   0.216   6.289
 6268SOL     OW19702   2.584   0.426   3.455
 6268SOL    HW119703   2.642   0.388   3.383
 6268SOL    HW219704   2.566   0.523   3.436
 6269SOL     OW19705   7.002   6.530   1.822
 6269SOL    HW119706   0.077   6.529   1.833
 6269SOL    HW219707   6.970   6.438   1.800
 6270SOL     OW19708   1.996   0.174   5.214
 6270SOL    HW119709   2.089   0.141   5.230
 6270SOL    HW219710   1.940   0.099   5.179
 6271SOL     OW19711   6.407   2.387   6.922
 6271SOL    HW119712   6.368   2.295   6.917
 6271SOL    HW219713   6.499   2.381   6.962
 6272SOL     OW19714   0.309   2.703   7.010
 6272SOL    HW119715   0.383   2.671   6.951
 6272SOL    HW219716   0.234   2.736   6.954
 6273SOL     OW19717   1.157   6.557   2.461
 6273SOL    HW119718   1.204   6.536   2.375
 6273SOL    HW219719   1.059   6.541   2.451
 6274SOL     OW19720   3.390   5.552   5.742
 6274SOL    HW119721   3.347   5.622   5.685
 6274SOL    HW219722   3.381   5.577   5.838
 6275SOL     OW19723   2.363   6.432   6.297
 6275SOL    HW119724   2.459   6.425   6.268
 6275SOL    HW219725   2.352   6.509   6.359
 6276SOL     OW19726   1.470   3.970   3.137
 6276SOL    HW119727   1.413   3.892   3.110
 6276SOL    HW219728   1.446   3.997   3.230
 6277SOL     OW19729   5.693   3.747   2.196
 6277SOL    HW119730   5.759   3.722   2.267
 6277SOL    HW219731   5.711   3.694   2.113
 6278SOL     OW19732   5.101   6.201   4.829
 6278SOL    HW119733   5.157   6.212   4.911
 6278SOL    HW219734   5.008   6.234   4.848
 6279SOL     OW19735   3.666   0.056   6.845
 6279SOL    HW119736   3.663   7.006   6.912
 6279SOL    HW219737   3.707   0.023   6.760
 6280SOL     OW19738   1.052   2.103   5.397
 6280SOL    HW119739   0.995   2.022   5.383
 6280SOL    HW219740   1.071   2.145   5.308
 6281SOL     OW19741   0.956   5.386   4.037
 6281SOL    HW119742   1.055   5.386   4.021
 6281SOL    HW219743   0.927   5.476   4.069
 6282SOL     OW19744   1.120   6.115   5.468
 6282SOL    HW119745   1.090   6.027   5.432
 6282SOL    HW219746   1.204   6.102   5.521
 6283SOL     OW19747   6.082   3.297   5.576
 6283SOL    HW119748   6.102   3.228   5.645
 6283SOL    HW219749   6.160   3.360   5.569
 6284SOL     OW19750   1.077   5.550   4.890
 6284SOL    HW119751   1.139   5.519   4.962
 6284SOL    HW219752   1.034   5.470   4.847
 6285SOL     OW19753   0.497   3.744   4.737
 6285SOL    HW119754   0.538   3.756   4.827
 6285SOL    HW219755   0.461   3.651   4.729
 6286SOL     OW19756   5.884   1.592   3.543
 6286SOL    HW119757   5.979   1.619   3.525
 6286SOL    HW219758   5.878   1.545   3.631
 6287SOL     OW19759   3.757   5.214   4.079
 6287SOL    HW119760   3.833   5.149   4.079
 6287SOL    HW219761   3.672   5.165   4.062
 6288SOL     OW19762   4.746   4.284   3.088
 6288SOL    HW119763   4.771   4.209   3.026
 6288SOL    HW219764   4.717   4.246   3.176
 6289SOL     OW19765   2.083   4.921   1.280
 6289SOL    HW119766   1.987   4.905   1.255
 6289SOL    HW219767   2.139   4.845   1.248
 6290SOL     OW19768   0.015   5.026   5.632
 6290SOL    HW119769   0.052   4.998   5.543
 6290SOL    HW219770   6.943   5.000   5.638
 6291SOL     OW19771   4.146   3.517   4.568
 6291SOL    HW119772   4.159   3.553   4.661
 6291SOL    HW219773   4.126   3.420   4.573
 6292SOL     OW19774   1.518   2.114   4.395
 6292SOL    HW119775   1.586   2.178   4.432
 6292SOL    HW219776   1.458   2.163   4.332
 6293SOL     OW19777   3.426   1.011   0.338
 6293SOL    HW119778   3.511   1.011   0.286
 6293SOL    HW219779   3.428   1.085   0.405
 6294SOL     OW19780   4.350   5.649   4.300
 6294SOL    HW119781   4.344   5.746   4.322
 6294SOL    HW219782   4.332   5.635   4.203
 6295SOL     OW19783   5.344   4.547   6.437
 6295SOL    HW119784   5.253   4.533   6.478
 6295SOL    HW219785   5.344   4.634   6.388
 6296SOL     OW19786   0.526   6.567   5.930
 6296SOL    HW119787   0.618   6.569   5.969
 6296SOL    HW219788   0.528   6.604   5.837
 6297SOL     OW19789   4.392   7.009   3.817
 6297SOL    HW119790   4.338   6.957   3.883
 6297SOL    HW219791   4.446   0.054   3.865
 6298SOL     OW19792   1.305   2.668   6.606
 6298SOL    HW119793   1.370   2.743   6.617
 6298SOL    HW219794   1.273   2.637   6.695
 6299SOL     OW19795   5.513   2.389   0.140
 6299SOL    HW119796   5.520   2.488   0.131
 6299SOL    HW219797   5.551   2.361   0.229
 6300SOL     OW19798   6.180   0.727   0.487
 6300SOL    HW119799   6.130   0.728   0.401
 6300SOL    HW219800   6.147   0.652   0.544
 6301SOL     OW19801   3.560   0.054   0.279
 6301SOL    HW119802   3.548   0.128   0.346
 6301SOL    HW219803   3.546   0.091   0.187
 6302SOL     OW19804   1.922   1.010   3.040
 6302SOL    HW119805   1.922   1.095   2.988
 6302SOL    HW219806   1.832   0.967   3.036
 6303SOL     OW19807   1.847   1.640   4.278
 6303SOL    HW119808   1.859   1.739   4.272
 6303SOL    HW219809   1.820   1.604   4.189
 6304SOL     OW19810   2.184   0.644   1.443
 6304SOL    HW119811   2.095   0.634   1.399
 6304SOL    HW219812   2.172   0.646   1.542
 6305SOL     OW19813   6.426   6.761   1.414
 6305SOL    HW119814   6.349   6.745   1.352
 6305SOL    HW219815   6.426   6.857   1.442
 6306SOL     OW19816   0.646   4.280   3.914
 6306SOL    HW119817   0.640   4.258   4.011
 6306SOL    HW219818   0.663   4.378   3.903
 6307SOL     OW19819   3.571   4.278   5.347
 6307SOL    HW119820   3.591   4.229   5.262
 6307SOL    HW219821   3.488   4.332   5.335
 6308SOL     OW19822   2.131   2.242   4.706
 6308SOL    HW119823   2.078   2.162   4.733
 6308SOL    HW219824   2.228   2.219   4.705
 6309SOL     OW19825   5.354   4.689   5.737
 6309SOL    HW119826   5.321   4.595   5.739
 6309SOL    HW219827   5.440   4.693   5.686
 6310SOL     OW19828   1.754   6.241   2.469
 6310SOL    HW119829   1.729   6.326   2.422
 6310SOL    HW219830   1.806   6.182   2.407
 6311SOL     OW19831   4.586   0.973   6.023
 6311SOL    HW119832   4.571   1.072   6.035
 6311SOL    HW219833   4.660   0.958   5.958
 6312SOL     OW19834   6.021   5.865   5.486
 6312SOL    HW119835   6.112   5.906   5.497
 6312SOL    HW219836   5.992   5.824   5.572
 6313SOL     OW19837   0.936   6.374   4.858
 6313SOL    HW119838   0.931   6.471   4.882
 6313SOL    HW219839   0.846   6.333   4.868
 6314SOL     OW19840   3.818   6.576   1.669
 6314SOL    HW119841   3.764   6.638   1.725
 6314SOL    HW219842   3.869   6.513   1.727
 6315SOL     OW19843   2.003   2.440   5.566
 6315SOL    HW119844   1.982   2.431   5.469
 6315SOL    HW219845   2.041   2.354   5.600
 6316SOL     OW19846   4.893   1.552   6.903
 6316SOL    HW119847   4.845   1.546   6.815
 6316SOL    HW219848   4.868   1.475   6.960
 6317SOL     OW19849   4.477   5.578   1.674
 6317SOL    HW119850   4.563   5.536   1.705
 6317SOL    HW219851   4.407   5.508   1.665
 6318SOL     OW19852   3.722   1.056   5.518
 6318SOL    HW119853   3.721   1.052   5.418
 6318SOL    HW219854   3.650   0.997   5.554
 6319SOL     OW19855   6.370   1.153   4.652
 6319SOL    HW119856   6.415   1.067   4.627
 6319SOL    HW219857   6.297   1.172   4.587
 6320SOL     OW19858   5.724   5.902   5.236
 6320SOL    HW119859   5.756   5.981   5.288
 6320SOL    HW219860   5.680   5.837   5.297
 6321SOL     OW19861   3.067   3.255   1.217
 6321SOL    HW119862   3.063   3.168   1.268
 6321SOL    HW219863   3.097   3.328   1.279
 6322SOL     OW19864   1.826   2.420   0.185
 6322SOL    HW119865   1.897   2.373   0.131
 6322SOL    HW219866   1.855   2.513   0.203
 6323SOL     OW19867   3.136   2.866   1.798
 6323SOL    HW119868   3.095   2.781   1.764
 6323SOL    HW219869   3.069   2.915   1.855
 6324SOL     OW19870   5.206   7.020   6.776
 6324SOL    HW119871   5.302   0.021   6.790
 6324SOL    HW219872   5.168   6.988   6.862
 6325SOL     OW19873   1.769   1.978   2.329
 6325SOL    HW119874   1.767   1.908   2.257
 6325SOL    HW219875   1.842   1.957   2.395
 6326SOL     OW19876   4.685   5.303   1.410
 6326SOL    HW119877   4.765   5.249   1.383
 6326SOL    HW219878   4.690   5.323   1.507
 6327SOL     OW19879   6.639   0.630   4.767
 6327SOL    HW119880   6.639   0.700   4.695
 6327SOL    HW219881   6.691   0.551   4.736
 6328SOL     OW19882   3.406   3.413   0.713
 6328SOL    HW119883   3.341   3.448   0.781
 6328SOL    HW219884   3.432   3.320   0.736
 6329SOL     OW19885   1.985   2.326   3.835
 6329SOL    HW119886   1.929   2.385   3.776
 6329SOL    HW219887   2.045   2.383   3.892
 6330SOL     OW19888   5.048   0.637   1.142
 6330SOL    HW119889   4.971   0.627   1.078
 6330SOL    HW219890   5.024   0.594   1.229
 6331SOL     OW19891   6.417   3.133   5.762
 6331SOL    HW119892   6.474   3.050   5.759
 6331SOL    HW219893   6.454   3.197   5.829
 6332SOL     OW19894   6.914   3.541   1.498
 6332SOL    HW119895   6.818   3.538   1.526
 6332SOL    HW219896   6.948   3.448   1.483
 6333SOL     OW19897   4.661   5.943   5.214
 6333SOL    HW119898   4.698   6.036   5.218
 6333SOL    HW219899   4.732   5.878   5.237
 6334SOL     OW19900   3.079   0.559   2.158
 6334SOL    HW119901   3.025   0.502   2.219
 6334SOL    HW219902   3.023   0.589   2.081
 6335SOL     OW19903   3.731   0.945   0.625
 6335SOL    HW119904   3.818   0.970   0.667
 6335SOL    HW219905   3.660   0.940   0.695
 6336SOL     OW19906   0.746   2.199   6.038
 6336SOL    HW119907   0.720   2.290   6.070
 6336SOL    HW219908   0.845   2.196   6.024
 6337SOL     OW19909   5.014   4.571   5.925
 6337SOL    HW119910   5.066   4.651   5.955
 6337SOL    HW219911   4.939   4.554   5.989
 6338SOL     OW19912   3.686   1.838   4.619
 6338SOL    HW119913   3.669   1.937   4.616
 6338SOL    HW219914   3.723   1.809   4.531
 6339SOL     OW19915   1.267   3.851   2.992
 6339SOL    HW119916   1.175   3.842   3.031
 6339SOL    HW219917   1.265   3.917   2.917
 6340SOL     OW19918   1.498   5.162   2.584
 6340SOL    HW119919   1.456   5.075   2.609
 6340SOL    HW219920   1.520   5.162   2.487
 6341SOL     OW19921   0.898   4.452   4.504
 6341SOL    HW119922   0.865   4.516   4.573
 6341SOL    HW219923   0.994   4.471   4.484
 6342SOL     OW19924   1.888   1.612   1.945
 6342SOL    HW119925   1.901   1.632   1.848
 6342SOL    HW219926   1.904   1.514   1.961
 6343SOL     OW19927   5.017   2.209   0.017
 6343SOL    HW119928   5.053   2.302   0.014
 6343SOL    HW219929   5.078   2.151   0.071
 6344SOL     OW19930   5.864   3.402   4.624
 6344SOL    HW119931   5.899   3.397   4.531
 6344SOL    HW219932   5.930   3.361   4.687
 6345SOL     OW19933   5.881   2.710   2.188
 6345SOL    HW119934   5.904   2.807   2.190
 6345SOL    HW219935   5.808   2.694   2.121
 6346SOL     OW19936   6.510   5.596   3.803
 6346SOL    HW119937   6.510   5.496   3.797
 6346SOL    HW219938   6.452   5.625   3.879
 6347SOL     OW19939   2.144   0.136   0.311
 6347SOL    HW119940   2.149   0.056   0.250
 6347SOL    HW219941   2.071   0.196   0.280
 6348SOL     OW19942   0.621   3.670   5.588
 6348SOL    HW119943   0.681   3.605   5.635
 6348SOL    HW219944   0.668   3.705   5.506
 6349SOL     OW19945   2.180   0.366   1.655
 6349SOL    HW119946   2.156   0.283   1.604
 6349SOL    HW219947   2.121   0.441   1.627
 6350SOL     OW19948   1.234   5.391   3.998
 6350SOL    HW119949   1.290   5.364   4.076
 6350SOL    HW219950   1.262   5.340   3.917
 6351SOL     OW19951   6.299   4.104   3.629
 6351SOL    HW119952   6.375   4.159   3.665
 6351SOL    HW219953   6.335   4.033   3.568
 6352SOL     OW19954   3.720   6.139   4.853
 6352SOL    HW119955   3.784   6.213   4.834
 6352SOL    HW219956   3.736   6.104   4.945
 6353SOL     OW19957   0.669   0.066   5.894
 6353SOL    HW119958   0.633   0.148   5.940
 6353SOL    HW219959   0.764   0.052   5.920
 6354SOL     OW19960   1.901   5.688   2.814
 6354SOL    HW119961   1.961   5.706   2.892
 6354SOL    HW219962   1.905   5.764   2.750
 6355SOL     OW19963   0.869   5.212   6.514
 6355SOL    HW119964   0.815   5.280   6.562
 6355SOL    HW219965   0.836   5.204   6.419
 6356SOL     OW19966   4.387   5.723   2.090
 6356SOL    HW119967   4.288   5.730   2.084
 6356SOL    HW219968   4.413   5.630   2.114
 6357SOL     OW19969   5.952   3.308   2.693
 6357SOL    HW119970   6.037   3.286   2.741
 6357SOL    HW219971   5.881   3.243   2.720
 6358SOL     OW19972   0.800   2.168   6.551
 6358SOL    HW119973   0.709   2.163   6.511
 6358SOL    HW219974   0.818   2.086   6.605
 6359SOL     OW19975   5.512   6.746   6.673
 6359SOL    HW119976   5.590   6.719   6.616
 6359SOL    HW219977   5.545   6.773   6.764
 6360SOL     OW19978   1.053   4.165   3.964
 6360SOL    HW119979   1.087   4.180   4.057
 6360SOL    HW219980   1.109   4.217   3.899
 6361SOL     OW19981   0.119   6.963   1.548
 6361SOL    HW119982   0.214   6.979   1.520
 6361SOL    HW219983   0.062   0.015   1.517
 6362SOL     OW19984   6.793   6.244   0.221
 6362SOL    HW119985   6.790   6.295   0.135
 6362SOL    HW219986   6.811   6.148   0.202
 6363SOL     OW19987   1.709   4.699   3.392
 6363SOL    HW119988   1.729   4.676   3.487
 6363SOL    HW219989   1.787   4.744   3.350
 6364SOL     OW19990   2.909   1.115   6.134
 6364SOL    HW119991   2.894   1.134   6.231
 6364SOL    HW219992   2.822   1.093   6.090
 6365SOL     OW19993   5.677   0.209   4.132
 6365SOL    HW119994   5.721   0.287   4.178
 6365SOL    HW219995   5.591   0.239   4.091
 6366SOL     OW19996   0.706   6.166   5.791
 6366SOL    HW119997   0.715   6.253   5.742
 6366SOL    HW219998   0.630   6.171   5.855
 6367SOL     OW19999   4.566   1.457   5.504
 6367SOL    HW120000   4.513   1.542   5.514
 6367SOL    HW220001   4.525   1.400   5.433
 6368SOL     OW20002   3.920   4.974   3.447
 6368SOL    HW120003   3.965   5.052   3.404
 6368SOL    HW220004   3.825   4.968   3.415
 6369SOL     OW20005   2.183   5.641   3.385
 6369SOL    HW120006   2.198   5.715   3.451
 6369SOL    HW220007   2.098   5.657   3.335
 6370SOL     OW20008   0.525   3.379   3.218
 6370SOL    HW120009   0.567   3.418   3.300
 6370SOL    HW220010   0.479   3.293   3.241
 6371SOL     OW20011   5.089   4.480   4.027
 6371SOL    HW120012   5.177   4.433   4.024
 6371SOL    HW220013   5.063   4.507   3.935
 6372SOL     OW20014   2.037   0.721   2.339
 6372SOL    HW120015   2.073   0.792   2.279
 6372SOL    HW220016   1.938   0.727   2.343
 6373SOL     OW20017   5.095   3.589   2.570
 6373SOL    HW120018   5.051   3.503   2.546
 6373SOL    HW220019   5.035   3.665   2.544
 6374SOL     OW20020   3.108   4.063   3.613
 6374SOL    HW120021   3.057   4.149   3.608
 6374SOL    HW220022   3.131   4.044   3.709
 6375SOL     OW20023   0.276   2.076   3.571
 6375SOL    HW120024   0.195   2.086   3.514
 6375SOL    HW220025   0.306   2.166   3.603
 6376SOL     OW20026   6.374   2.345   4.819
 6376SOL    HW120027   6.387   2.400   4.901
 6376SOL    HW220028   6.292   2.375   4.771
 6377SOL     OW20029   5.924   2.163   5.626
 6377SOL    HW120030   5.947   2.207   5.540
 6377SOL    HW220031   5.918   2.232   5.698
 6378SOL     OW20032   4.582   5.515   4.087
 6378SOL    HW120033   4.534   5.550   4.168
 6378SOL    HW220034   4.646   5.443   4.114
 6379SOL     OW20035   1.715   3.941   3.997
 6379SOL    HW120036   1.713   3.978   4.090
 6379SOL    HW220037   1.637   3.975   3.946
 6380SOL     OW20038   0.173   1.760   5.604
 6380SOL    HW120039   0.123   1.794   5.683
 6380SOL    HW220040   0.271   1.780   5.615
 6381SOL     OW20041   3.962   3.368   1.747
 6381SOL    HW120042   4.025   3.290   1.748
 6381SOL    HW220043   3.895   3.357   1.674
 6382SOL     OW20044   1.497   2.208   1.101
 6382SOL    HW120045   1.533   2.120   1.068
 6382SOL    HW220046   1.444   2.194   1.184
 6383SOL     OW20047   1.585   1.697   2.672
 6383SOL    HW120048   1.553   1.603   2.678
 6383SOL    HW220049   1.574   1.742   2.761
 6384SOL     OW20050   5.987   4.199   1.875
 6384SOL    HW120051   5.959   4.205   1.971
 6384SOL    HW220052   6.084   4.178   1.870
 6385SOL     OW20053   0.259   4.548   3.905
 6385SOL    HW120054   0.161   4.566   3.902
 6385SOL    HW220055   0.290   4.516   3.816
 6386SOL     OW20056   2.202   4.316   6.090
 6386SOL    HW120057   2.216   4.413   6.110
 6386SOL    HW220058   2.144   4.307   6.009
 6387SOL     OW20059   0.221   1.865   6.553
 6387SOL    HW120060   0.165   1.783   6.543
 6387SOL    HW220061   0.269   1.882   6.467
 6388SOL     OW20062   3.551   5.011   1.576
 6388SOL    HW120063   3.537   5.018   1.478
 6388SOL    HW220064   3.640   5.052   1.600
 6389SOL     OW20065   0.508   5.827   2.400
 6389SOL    HW120066   0.422   5.861   2.361
 6389SOL    HW220067   0.565   5.788   2.327
 6390SOL     OW20068   0.764   1.105   5.892
 6390SOL    HW120069   0.753   1.174   5.963
 6390SOL    HW220070   0.765   1.149   5.802
 6391SOL     OW20071   2.133   0.083   5.813
 6391SOL    HW120072   2.166   0.012   5.875
 6391SOL    HW220073   2.162   0.173   5.846
 6392SOL     OW20074   2.594   5.833   2.693
 6392SOL    HW120075   2.540   5.906   2.651
 6392SOL    HW220076   2.572   5.827   2.791
 6393SOL     OW20077   6.605   0.057   2.270
 6393SOL    HW120078   6.671   0.053   2.195
 6393SOL    HW220079   6.512   0.044   2.233
 6394SOL     OW20080   2.207   5.172   0.802
 6394SOL    HW120081   2.180   5.232   0.877
 6394SOL    HW220082   2.265   5.100   0.837
 6395SOL     OW20083   6.876   1.803   1.114
 6395SOL    HW120084   6.944   1.875   1.100
 6395SOL    HW220085   6.901   1.723   1.058
 6396SOL     OW20086   4.690   3.232   6.015
 6396SOL    HW120087   4.761   3.174   6.056
 6396SOL    HW220088   4.734   3.308   5.967
 6397SOL     OW20089   5.483   2.617   6.885
 6397SOL    HW120090   5.482   2.614   6.985
 6397SOL    HW220091   5.389   2.621   6.851
 6398SOL     OW20092   2.318   6.896   1.364
 6398SOL    HW120093   2.322   6.993   1.387
 6398SOL    HW220094   2.224   6.870   1.346
 6399SOL     OW20095   1.585   6.147   6.688
 6399SOL    HW120096   1.528   6.189   6.618
 6399SOL    HW220097   1.671   6.117   6.646
 6400SOL     OW20098   2.378   6.694   2.295
 6400SOL    HW120099   2.475   6.717   2.283
 6400SOL    HW220100   2.341   6.662   2.208
 6401SOL     OW20101   5.949   5.034   3.772
 6401SOL    HW120102   6.001   5.118   3.792
 6401SOL    HW220103   5.860   5.058   3.733
 6402SOL     OW20104   3.584   1.949   3.141
 6402SOL    HW120105   3.608   1.934   3.237
 6402SOL    HW220106   3.484   1.953   3.132
 6403SOL     OW20107   6.794   6.146   6.649
 6403SOL    HW120108   6.794   6.079   6.575
 6403SOL    HW220109   6.885   6.186   6.658
 6404SOL     OW20110   4.314   1.722   2.125
 6404SOL    HW120111   4.249   1.759   2.059
 6404SOL    HW220112   4.401   1.704   2.080
 6405SOL     OW20113   3.059   0.465   3.865
 6405SOL    HW120114   3.040   0.435   3.958
 6405SOL    HW220115   3.152   0.501   3.860
 6406SOL     OW20116   1.166   2.535   3.052
 6406SOL    HW120117   1.093   2.603   3.049
 6406SOL    HW220118   1.146   2.468   3.123
 6407SOL     OW20119   3.041   5.934   4.119
 6407SOL    HW120120   3.080   5.841   4.119
 6407SOL    HW220121   3.116   6.001   4.124
 6408SOL     OW20122   5.911   2.144   0.113
 6408SOL    HW120123   5.997   2.183   0.146
 6408SOL    HW220124   5.867   2.208   0.051
 6409SOL     OW20125   6.942   4.727   3.463
 6409SOL    HW120126   0.000   4.728   3.519
 6409SOL    HW220127   6.953   4.790   3.385
 6410SOL     OW20128   1.334   1.804   0.466
 6410SOL    HW120129   1.405   1.863   0.504
 6410SOL    HW220130   1.299   1.844   0.382
 6411SOL     OW20131   0.937   2.611   3.453
 6411SOL    HW120132   0.994   2.670   3.396
 6411SOL    HW220133   0.992   2.570   3.524
 6412SOL     OW20134   0.800   2.257   5.329
 6412SOL    HW120135   0.862   2.203   5.385
 6412SOL    HW220136   0.764   2.200   5.255
 6413SOL     OW20137   4.203   4.931   4.005
 6413SOL    HW120138   4.219   4.861   4.074
 6413SOL    HW220139   4.291   4.968   3.974
 6414SOL     OW20140   5.843   0.905   0.679
 6414SOL    HW120141   5.800   0.989   0.647
 6414SOL    HW220142   5.941   0.908   0.661
 6415SOL     OW20143   1.663   2.767   3.164
 6415SOL    HW120144   1.738   2.832   3.179
 6415SOL    HW220145   1.699   2.682   3.126
 6416SOL     OW20146   0.880   1.250   6.354
 6416SOL    HW120147   0.916   1.333   6.396
 6416SOL    HW220148   0.956   1.196   6.317
 6417SOL     OW20149   6.968   5.228   1.599
 6417SOL    HW120150   6.880   5.191   1.570
 6417SOL    HW220151   6.998   5.181   1.682
 6418SOL     OW20152   4.651   4.124   1.724
 6418SOL    HW120153   4.732   4.182   1.733
 6418SOL    HW220154   4.577   4.162   1.779
 6419SOL     OW20155   1.957   4.694   3.182
 6419SOL    HW120156   2.009   4.777   3.203
 6419SOL    HW220157   1.886   4.715   3.115
 6420SOL     OW20158   3.261   4.923   4.555
 6420SOL    HW120159   3.296   4.904   4.463
 6420SOL    HW220160   3.338   4.928   4.619
 6421SOL     OW20161   4.987   0.383   2.843
 6421SOL    HW120162   4.990   0.476   2.806
 6421SOL    HW220163   5.076   0.340   2.830
 6422SOL     OW20164   0.332   0.914   4.228
 6422SOL    HW120165   0.267   0.922   4.304
 6422SOL    HW220166   0.378   1.002   4.214
 6423SOL     OW20167   4.401   5.706   2.578
 6423SOL    HW120168   4.427   5.803   2.580
 6423SOL    HW220169   4.326   5.691   2.642
 6424SOL     OW20170   0.005   5.941   6.246
 6424SOL    HW120171   6.962   5.929   6.319
 6424SOL    HW220172   0.069   6.014   6.270
 6425SOL     OW20173   6.463   6.053   2.909
 6425SOL    HW120174   6.555   6.083   2.886
 6425SOL    HW220175   6.401   6.074   2.833
 6426SOL     OW20176   1.206   5.050   2.577
 6426SOL    HW120177   1.286   4.996   2.602
 6426SOL    HW220178   1.170   5.018   2.490
 6427SOL     OW20179   3.631   3.257   4.809
 6427SOL    HW120180   3.632   3.337   4.869
 6427SOL    HW220181   3.720   3.246   4.766
 6428SOL     OW20182   5.901   3.342   6.465
 6428SOL    HW120183   5.855   3.418   6.419
 6428SOL    HW220184   5.953   3.290   6.397
 6429SOL     OW20185   2.081   1.964   6.052
 6429SOL    HW120186   2.168   1.930   6.015
 6429SOL    HW220187   2.075   1.942   6.149
 6430SOL     OW20188   5.945   0.922   1.968
 6430SOL    HW120189   5.912   0.974   1.889
 6430SOL    HW220190   5.927   0.973   2.052
 6431SOL     OW20191   5.210   6.808   3.555
 6431SOL    HW120192   5.126   6.757   3.573
 6431SOL    HW220193   5.218   6.883   3.620
 6432SOL     OW20194   4.108   4.082   6.659
 6432SOL    HW120195   4.130   4.167   6.610
 6432SOL    HW220196   4.112   4.005   6.595
 6433SOL     OW20197   2.473   4.365   6.735
 6433SOL    HW120198   2.394   4.424   6.722
 6433SOL    HW220199   2.518   4.349   6.647
 6434SOL     OW20200   2.163   4.524   0.352
 6434SOL    HW120201   2.146   4.511   0.450
 6434SOL    HW220202   2.189   4.436   0.311
 6435SOL     OW20203   4.442   6.618   0.009
 6435SOL    HW120204   4.500   6.541   0.034
 6435SOL    HW220205   4.366   6.625   0.074
 6436SOL     OW20206   2.166   3.289   3.442
 6436SOL    HW120207   2.168   3.241   3.354
 6436SOL    HW220208   2.190   3.225   3.515
 6437SOL     OW20209   2.499   1.718   1.035
 6437SOL    HW120210   2.409   1.761   1.024
 6437SOL    HW220211   2.542   1.751   1.119
 6438SOL     OW20212   6.875   4.465   6.378
 6438SOL    HW120213   6.975   4.469   6.384
 6438SOL    HW220214   6.836   4.551   6.410
 6439SOL     OW20215   5.428   1.021   1.704
 6439SOL    HW120216   5.417   0.942   1.644
 6439SOL    HW220217   5.438   0.990   1.799
 6440SOL     OW20218   2.307   1.409   6.623
 6440SOL    HW120219   2.214   1.443   6.608
 6440SOL    HW220220   2.347   1.385   6.535
 6441SOL     OW20221   0.252   6.472   1.858
 6441SOL    HW120222   0.310   6.446   1.936
 6441SOL    HW220223   0.281   6.421   1.777
 6442SOL     OW20224   2.418   0.791   4.416
 6442SOL    HW120225   2.441   0.715   4.476
 6442SOL    HW220226   2.448   0.771   4.323
 6443SOL     OW20227   4.048   2.555   5.441
 6443SOL    HW120228   4.098   2.562   5.354
 6443SOL    HW220229   4.007   2.465   5.449
 6444SOL     OW20230   6.506   3.203   4.156
 6444SOL    HW120231   6.569   3.183   4.081
 6444SOL    HW220232   6.453   3.121   4.178
 6445SOL     OW20233   4.281   3.381   5.419
 6445SOL    HW120234   4.262   3.418   5.510
 6445SOL    HW220235   4.354   3.434   5.376
 6446SOL     OW20236   1.674   1.462   6.313
 6446SOL    HW120237   1.645   1.367   6.326
 6446SOL    HW220238   1.718   1.472   6.224
 6447SOL     OW20239   5.572   4.857   3.011
 6447SOL    HW120240   5.563   4.826   2.916
 6447SOL    HW220241   5.595   4.954   3.012
 6448SOL     OW20242   4.112   5.738   2.087
 6448SOL    HW120243   4.085   5.757   2.182
 6448SOL    HW220244   4.032   5.741   2.028
 6449SOL     OW20245   2.651   4.737   0.708
 6449SOL    HW120246   2.580   4.680   0.749
 6449SOL    HW220247   2.660   4.822   0.760
 6450SOL     OW20248   1.199   3.964   0.684
 6450SOL    HW120249   1.122   3.904   0.706
 6450SOL    HW220250   1.165   4.047   0.639
 6451SOL     OW20251   2.707   0.606   4.795
 6451SOL    HW120252   2.750   0.525   4.836
 6451SOL    HW220253   2.762   0.687   4.816
 6452SOL     OW20254   3.853   6.503   4.509
 6452SOL    HW120255   3.951   6.492   4.526
 6452SOL    HW220256   3.803   6.503   4.596
 6453SOL     OW20257   2.674   5.960   1.322
 6453SOL    HW120258   2.623   5.908   1.252
 6453SOL    HW220259   2.771   5.960   1.298
 6454SOL     OW20260   2.225   2.166   3.674
 6454SOL    HW120261   2.318   2.201   3.668
 6454SOL    HW220262   2.217   2.084   3.617
 6455SOL     OW20263   0.187   2.744   3.694
 6455SOL    HW120264   0.243   2.815   3.650
 6455SOL    HW220265   0.099   2.783   3.719
 6456SOL     OW20266   1.648   0.758   3.500
 6456SOL    HW120267   1.744   0.785   3.493
 6456SOL    HW220268   1.642   0.659   3.511
 6457SOL     OW20269   5.466   1.485   1.023
 6457SOL    HW120270   5.494   1.463   0.930
 6457SOL    HW220271   5.522   1.560   1.058
 6458SOL     OW20272   0.924   6.809   3.864
 6458SOL    HW120273   0.987   6.887   3.868
 6458SOL    HW220274   0.977   6.725   3.850
 6459SOL     OW20275   6.219   4.046   0.258
 6459SOL    HW120276   6.218   3.972   0.325
 6459SOL    HW220277   6.130   4.052   0.213
 6460SOL     OW20278   5.071   6.372   5.916
 6460SOL    HW120279   5.000   6.412   5.857
 6460SOL    HW220280   5.041   6.376   6.011
 6461SOL     OW20281   2.448   4.979   5.823
 6461SOL    HW120282   2.389   4.904   5.797
 6461SOL    HW220283   2.518   4.994   5.753
 6462SOL     OW20284   2.495   2.638   4.830
 6462SOL    HW120285   2.590   2.663   4.813
 6462SOL    HW220286   2.459   2.588   4.752
 6463SOL     OW20287   6.642   3.478   6.811
 6463SOL    HW120288   6.562   3.494   6.868
 6463SOL    HW220289   6.669   3.382   6.819
 6464SOL     OW20290   1.480   5.773   4.327
 6464SOL    HW120291   1.575   5.751   4.349
 6464SOL    HW220292   1.468   5.775   4.228
 6465SOL     OW20293   6.556   2.758   3.014
 6465SOL    HW120294   6.569   2.664   2.984
 6465SOL    HW220295   6.498   2.807   2.949
 6466SOL     OW20296   1.437   1.575   6.251
 6466SOL    HW120297   1.436   1.666   6.210
 6466SOL    HW220298   1.530   1.553   6.282
 6467SOL     OW20299   2.841   1.501   6.990
 6467SOL    HW120300   2.773   1.573   7.005
 6467SOL    HW220301   2.860   1.494   6.892
 6468SOL     OW20302   3.525   6.195   0.204
 6468SOL    HW120303   3.528   6.290   0.233
 6468SOL    HW220304   3.605   6.175   0.147
 6469SOL     OW20305   5.147   0.821   4.973
 6469SOL    HW120306   5.116   0.833   5.067
 6469SOL    HW220307   5.241   0.854   4.964
 6470SOL     OW20308   6.127   4.235   0.481
 6470SOL    HW120309   6.053   4.275   0.427
 6470SOL    HW220310   6.162   4.154   0.433
 6471SOL     OW20311   6.374   6.563   5.582
 6471SOL    HW120312   6.358   6.627   5.658
 6471SOL    HW220313   6.451   6.504   5.605
 6472SOL     OW20314   0.826   5.924   1.127
 6472SOL    HW120315   0.902   5.859   1.136
 6472SOL    HW220316   0.852   6.012   1.167
 6473SOL     OW20317   3.319   1.368   4.636
 6473SOL    HW120318   3.386   1.438   4.613
 6473SOL    HW220319   3.305   1.366   4.735
 6474SOL     OW20320   2.068   4.395   5.632
 6474SOL    HW120321   2.067   4.407   5.731
 6474SOL    HW220322   1.981   4.355   5.602
 6475SOL     OW20323   6.235   5.102   4.123
 6475SOL    HW120324   6.294   5.099   4.204
 6475SOL    HW220325   6.201   5.010   4.104
 6476SOL     OW20326   4.737   3.539   1.083
 6476SOL    HW120327   4.762   3.453   1.037
 6476SOL    HW220328   4.816   3.576   1.131
 6477SOL     OW20329   6.184   5.327   1.348
 6477SOL    HW120330   6.281   5.318   1.372
 6477SOL    HW220331   6.139   5.238   1.357
 6478SOL     OW20332   3.445   6.486   2.134
 6478SOL    HW120333   3.494   6.472   2.049
 6478SOL    HW220334   3.437   6.584   2.153
 6479SOL     OW20335   4.330   5.689   4.025
 6479SOL    HW120336   4.381   5.638   3.957
 6479SOL    HW220337   4.288   5.769   3.982
 6480SOL     OW20338   3.023   2.839   5.988
 6480SOL    HW120339   3.000   2.936   5.987
 6480SOL    HW220340   2.991   2.797   5.903
 6481SOL     OW20341   3.711   2.036   1.744
 6481SOL    HW120342   3.708   2.134   1.763
 6481SOL    HW220343   3.669   2.018   1.655
 6482SOL     OW20344   0.193   0.718   5.811
 6482SOL    HW120345   0.105   0.673   5.802
 6482SOL    HW220346   0.264   0.650   5.829
 6483SOL     OW20347   0.583   6.155   1.339
 6483SOL    HW120348   0.629   6.218   1.276
 6483SOL    HW220349   0.484   6.167   1.332
 6484SOL     OW20350   3.394   6.921   1.697
 6484SOL    HW120351   3.428   7.014   1.705
 6484SOL    HW220352   3.336   6.899   1.776
 6485SOL     OW20353   2.018   5.369   3.623
 6485SOL    HW120354   2.051   5.284   3.665
 6485SOL    HW220355   1.934   5.350   3.573
 6486SOL     OW20356   2.335   5.170   3.838
 6486SOL    HW120357   2.327   5.095   3.904
 6486SOL    HW220358   2.423   5.162   3.791
 6487SOL     OW20359   6.923   6.545   4.960
 6487SOL    HW120360   6.975   6.461   4.973
 6487SOL    HW220361   6.932   6.602   5.042
 6488SOL     OW20362   3.872   6.232   4.380
 6488SOL    HW120363   3.906   6.301   4.315
 6488SOL    HW220364   3.834   6.278   4.460
 6489SOL     OW20365   3.015   2.610   6.886
 6489SOL    HW120366   3.053   2.546   6.820
 6489SOL    HW220367   2.938   2.659   6.844
 6490SOL     OW20368   4.303   1.126   6.301
 6490SOL    HW120369   4.337   1.192   6.234
 6490SOL    HW220370   4.204   1.120   6.293
 6491SOL     OW20371   3.999   1.000   0.671
 6491SOL    HW120372   4.028   1.002   0.575
 6491SOL    HW220373   3.979   1.093   0.701
 6492SOL     OW20374   5.102   4.971   0.723
 6492SOL    HW120375   5.101   4.930   0.631
 6492SOL    HW220376   5.017   5.022   0.737
 6493SOL     OW20377   1.060   5.337   4.711
 6493SOL    HW120378   1.147   5.335   4.662
 6493SOL    HW220379   0.992   5.281   4.663
 6494SOL     OW20380   0.312   0.902   3.233
 6494SOL    HW120381   0.297   0.999   3.249
 6494SOL    HW220382   0.228   0.851   3.251
 6495SOL     OW20383   5.334   6.576   4.763
 6495SOL    HW120384   5.420   6.531   4.786
 6495SOL    HW220385   5.262   6.543   4.824
 6496SOL     OW20386   6.942   0.674   3.107
 6496SOL    HW120387   0.004   0.623   3.110
 6496SOL    HW220388   6.875   0.624   3.052
 6497SOL     OW20389   2.234   2.851   1.083
 6497SOL    HW120390   2.250   2.856   0.984
 6497SOL    HW220391   2.173   2.926   1.109
 6498SOL     OW20392   2.424   4.358   3.689
 6498SOL    HW120393   2.380   4.269   3.701
 6498SOL    HW220394   2.440   4.374   3.592
 6499SOL     OW20395   5.136   2.840   4.987
 6499SOL    HW120396   5.120   2.857   5.084
 6499SOL    HW220397   5.052   2.806   4.945
 6500SOL     OW20398   6.977   4.095   3.957
 6500SOL    HW120399   6.988   4.038   4.038
 6500SOL    HW220400   0.031   4.156   3.949
 6501SOL     OW20401   6.614   2.305   0.044
 6501SOL    HW120402   6.565   2.280   0.128
 6501SOL    HW220403   6.706   2.265   0.046
 6502SOL     OW20404   6.328   2.974   1.771
 6502SOL    HW120405   6.423   2.941   1.767
 6502SOL    HW220406   6.267   2.896   1.788
 6503SOL     OW20407   4.618   1.121   3.102
 6503SOL    HW120408   4.637   1.043   3.162
 6503SOL    HW220409   4.544   1.175   3.141
 6504SOL     OW20410   4.805   6.436   5.822
 6504SOL    HW120411   4.714   6.477   5.822
 6504SOL    HW220412   4.814   6.374   5.744
 6505SOL     OW20413   5.418   6.251   1.703
 6505SOL    HW120414   5.488   6.312   1.739
 6505SOL    HW220415   5.441   6.157   1.725
 6506SOL     OW20416   6.366   2.657   2.028
 6506SOL    HW120417   6.423   2.730   1.990
 6506SOL    HW220418   6.319   2.609   1.954
 6507SOL     OW20419   2.390   5.279   5.401
 6507SOL    HW120420   2.479   5.311   5.434
 6507SOL    HW220421   2.398   5.184   5.370
 6508SOL     OW20422   1.670   0.762   2.605
 6508SOL    HW120423   1.634   0.855   2.599
 6508SOL    HW220424   1.596   0.697   2.590
 6509SOL     OW20425   3.370   2.115   4.701
 6509SOL    HW120426   3.304   2.188   4.686
 6509SOL    HW220427   3.453   2.132   4.647
 6510SOL     OW20428   0.196   4.711   0.168
 6510SOL    HW120429   0.173   4.762   0.085
 6510SOL    HW220430   0.212   4.774   0.243
 6511SOL     OW20431   4.440   1.178   4.270
 6511SOL    HW120432   4.390   1.216   4.347
 6511SOL    HW220433   4.520   1.127   4.304
 6512SOL     OW20434   4.641   6.487   1.639
 6512SOL    HW120435   4.607   6.397   1.668
 6512SOL    HW220436   4.651   6.546   1.719
 6513SOL     OW20437   3.240   5.373   3.162
 6513SOL    HW120438   3.203   5.378   3.069
 6513SOL    HW220439   3.170   5.339   3.224
 6514SOL     OW20440   5.417   0.944   3.933
 6514SOL    HW120441   5.330   0.992   3.924
 6514SOL    HW220442   5.478   0.971   3.859
 6515SOL     OW20443   0.373   5.341   4.489
 6515SOL    HW120444   0.305   5.296   4.431
 6515SOL    HW220445   0.463   5.335   4.444
 6516SOL     OW20446   0.153   3.267   1.918
 6516SOL    HW120447   0.239   3.216   1.910
 6516SOL    HW220448   0.148   3.335   1.845
 6517SOL     OW20449   6.243   0.368   0.457
 6517SOL    HW120450   6.179   0.292   0.463
 6517SOL    HW220451   6.193   0.455   0.453
 6518SOL     OW20452   6.693   6.416   6.579
 6518SOL    HW120453   6.728   6.486   6.642
 6518SOL    HW220454   6.711   6.326   6.617
 6519SOL     OW20455   2.405   1.550   3.458
 6519SOL    HW120456   2.488   1.576   3.408
 6519SOL    HW220457   2.406   1.452   3.476
 6520SOL     OW20458   5.116   5.701   2.488
 6520SOL    HW120459   5.083   5.724   2.580
 6520SOL    HW220460   5.145   5.784   2.441
 6521SOL     OW20461   2.033   3.332   4.656
 6521SOL    HW120462   2.024   3.344   4.557
 6521SOL    HW220463   2.112   3.273   4.675
 6522SOL     OW20464   4.123   4.356   0.321
 6522SOL    HW120465   4.188   4.374   0.246
 6522SOL    HW220466   4.141   4.419   0.396
 6523SOL     OW20467   4.044   1.099   6.553
 6523SOL    HW120468   4.097   1.151   6.620
 6523SOL    HW220469   3.947   1.110   6.571
 6524SOL     OW20470   2.658   3.988   1.726
 6524SOL    HW120471   2.639   4.078   1.688
 6524SOL    HW220472   2.756   3.981   1.748
 6525SOL     OW20473   1.687   4.604   2.568
 6525SOL    HW120474   1.598   4.584   2.609
 6525SOL    HW220475   1.726   4.685   2.611
 6526SOL     OW20476   2.138   0.033   6.465
 6526SOL    HW120477   2.202   6.995   6.421
 6526SOL    HW220478   2.182   0.079   6.542
 6527SOL     OW20479   0.586   2.588   4.501
 6527SOL    HW120480   0.633   2.502   4.483
 6527SOL    HW220481   0.542   2.584   4.591
 6528SOL     OW20482   6.869   0.757   4.543
 6528SOL    HW120483   6.847   0.854   4.546
 6528SOL    HW220484   6.807   0.711   4.479
 6529SOL     OW20485   1.163   1.455   2.872
 6529SOL    HW120486   1.209   1.380   2.824
 6529SOL    HW220487   1.073   1.425   2.903
 6530SOL     OW20488   0.074   3.407   0.908
 6530SOL    HW120489   0.042   3.374   0.820
 6530SOL    HW220490   0.007   3.471   0.946
 6531SOL     OW20491   5.731   3.668   4.679
 6531SOL    HW120492   5.760   3.757   4.643
 6531SOL    HW220493   5.805   3.602   4.666
 6532SOL     OW20494   6.141   0.504   0.145
 6532SOL    HW120495   6.238   0.525   0.156
 6532SOL    HW220496   6.086   0.581   0.178
 6533SOL     OW20497   4.690   6.867   1.428
 6533SOL    HW120498   4.673   6.920   1.345
 6533SOL    HW220499   4.619   6.796   1.437
 6534SOL     OW20500   3.400   4.256   1.423
 6534SOL    HW120501   3.423   4.159   1.426
 6534SOL    HW220502   3.376   4.282   1.330
 6535SOL     OW20503   6.354   3.868   4.537
 6535SOL    HW120504   6.404   3.906   4.459
 6535SOL    HW220505   6.395   3.782   4.565
 6536SOL     OW20506   0.825   1.483   5.665
 6536SOL    HW120507   0.839   1.530   5.577
 6536SOL    HW220508   0.911   1.480   5.715
 6537SOL     OW20509   6.608   5.067   0.310
 6537SOL    HW120510   6.628   5.154   0.266
 6537SOL    HW220511   6.686   5.037   0.365
 6538SOL     OW20512   2.547   3.407   6.949
 6538SOL    HW120513   2.579   3.408   0.020
 6538SOL    HW220514   2.482   3.482   6.935
 6539SOL     OW20515   3.367   0.673   6.359
 6539SOL    HW120516   3.464   0.651   6.369
 6539SOL    HW220517   3.355   0.738   6.284
 6540SOL     OW20518   5.099   1.558   5.401
 6540SOL    HW120519   5.016   1.519   5.442
 6540SOL    HW220520   5.179   1.508   5.434
 6541SOL     OW20521   4.765   1.562   5.659
 6541SOL    HW120522   4.682   1.534   5.610
 6541SOL    HW220523   4.816   1.628   5.604
 6542SOL     OW20524   6.419   4.275   4.166
 6542SOL    HW120525   6.501   4.308   4.119
 6542SOL    HW220526   6.356   4.235   4.100
 6543SOL     OW20527   5.828   3.169   5.825
 6543SOL    HW120528   5.805   3.253   5.775
 6543SOL    HW220529   5.824   3.091   5.763
 6544SOL     OW20530   0.330   6.269   2.768
 6544SOL    HW120531   0.243   6.239   2.729
 6544SOL    HW220532   0.321   6.364   2.798
 6545SOL     OW20533   4.978   2.114   0.380
 6545SOL    HW120534   4.898   2.054   0.379
 6545SOL    HW220535   5.061   2.059   0.368
 6546SOL     OW20536   3.761   4.384   7.021
 6546SOL    HW120537   3.739   4.376   0.094
 6546SOL    HW220538   3.715   4.312   6.970
 6547SOL     OW20539   4.754   1.347   5.930
 6547SOL    HW120540   4.659   1.354   5.902
 6547SOL    HW220541   4.813   1.386   5.860
 6548SOL     OW20542   1.169   4.284   6.783
 6548SOL    HW120543   1.205   4.207   6.730
 6548SOL    HW220544   1.078   4.307   6.751
 6549SOL     OW20545   4.633   0.430   1.145
 6549SOL    HW120546   4.578   0.502   1.187
 6549SOL    HW220547   4.695   0.392   1.213
 6550SOL     OW20548   0.740   6.616   4.225
 6550SOL    HW120549   0.728   6.708   4.189
 6550SOL    HW220550   0.736   6.550   4.150
 6551SOL     OW20551   1.145   4.701   2.981
 6551SOL    HW120552   1.104   4.700   2.890
 6551SOL    HW220553   1.224   4.762   2.981
 6552SOL     OW20554   2.164   6.879   5.423
 6552SOL    HW120555   2.127   6.967   5.456
 6552SOL    HW220556   2.106   6.805   5.457
 6553SOL     OW20557   0.376   1.766   2.871
 6553SOL    HW120558   0.381   1.785   2.969
 6553SOL    HW220559   0.468   1.760   2.833
 6554SOL     OW20560   5.934   0.882   5.084
 6554SOL    HW120561   5.974   0.941   5.154
 6554SOL    HW220562   5.956   0.918   4.993
 6555SOL     OW20563   0.145   2.153   2.329
 6555SOL    HW120564   0.057   2.193   2.306
 6555SOL    HW220565   0.145   2.123   2.425
 6556SOL     OW20566   5.104   4.455   5.033
 6556SOL    HW120567   5.032   4.411   4.978
 6556SOL    HW220568   5.075   4.460   5.128
 6557SOL     OW20569   3.255   5.882   1.197
 6557SOL    HW120570   3.306   5.957   1.239
 6557SOL    HW220571   3.244   5.901   1.099
 6558SOL     OW20572   6.165   4.632   0.191
 6558SOL    HW120573   6.150   4.647   0.093
 6558SOL    HW220574   6.124   4.707   0.243
 6559SOL     OW20575   0.707   4.016   6.018
 6559SOL    HW120576   0.687   4.026   5.920
 6559SOL    HW220577   0.681   4.100   6.066
 6560SOL     OW20578   4.137   4.614   0.933
 6560SOL    HW120579   4.119   4.527   0.979
 6560SOL    HW220580   4.050   4.658   0.908
 6561SOL     OW20581   3.784   3.966   2.482
 6561SOL    HW120582   3.743   3.876   2.476
 6561SOL    HW220583   3.745   4.026   2.413
 6562SOL     OW20584   5.658   3.987   0.792
 6562SOL    HW120585   5.656   4.072   0.845
 6562SOL    HW220586   5.695   4.006   0.701
 6563SOL     OW20587   6.431   6.544   0.311
 6563SOL    HW120588   6.387   6.630   0.335
 6563SOL    HW220589   6.520   6.562   0.269
 6564SOL     OW20590   6.809   4.308   2.999
 6564SOL    HW120591   6.902   4.317   3.034
 6564SOL    HW220592   6.810   4.323   2.900
 6565SOL     OW20593   6.515   2.620   3.806
 6565SOL    HW120594   6.585   2.671   3.755
 6565SOL    HW220595   6.558   2.567   3.878
 6566SOL     OW20596   3.311   6.179   3.053
 6566SOL    HW120597   3.253   6.243   3.102
 6566SOL    HW220598   3.262   6.144   2.973
 6567SOL     OW20599   3.933   1.633   1.685
 6567SOL    HW120600   4.010   1.613   1.745
 6567SOL    HW220601   3.964   1.635   1.590
 6568SOL     OW20602   4.123   0.701   3.664
 6568SOL    HW120603   4.219   0.675   3.650
 6568SOL    HW220604   4.092   0.755   3.586
 6569SOL     OW20605   2.886   3.519   6.558
 6569SOL    HW120606   2.847   3.554   6.473
 6569SOL    HW220607   2.922   3.427   6.543
 6570SOL     OW20608   3.990   6.860   2.461
 6570SOL    HW120609   3.946   6.830   2.376
 6570SOL    HW220610   4.046   6.940   2.444
 6571SOL     OW20611   2.341   5.442   2.224
 6571SOL    HW120612   2.259   5.467   2.173
 6571SOL    HW220613   2.406   5.397   2.162
 6572SOL     OW20614   6.796   4.932   5.593
 6572SOL    HW120615   6.768   4.890   5.507
 6572SOL    HW220616   6.715   4.956   5.646
 6573SOL     OW20617   2.646   1.431   1.995
 6573SOL    HW120618   2.603   1.429   2.085
 6573SOL    HW220619   2.638   1.523   1.957
 6574SOL     OW20620   3.160   6.104   2.813
 6574SOL    HW120621   3.082   6.043   2.800
 6574SOL    HW220622   3.163   6.171   2.740
 6575SOL     OW20623   1.359   0.419   2.323
 6575SOL    HW120624   1.399   0.495   2.374
 6575SOL    HW220625   1.265   0.441   2.297
 6576SOL     OW20626   2.313   6.107   6.442
 6576SOL    HW120627   2.213   6.101   6.444
 6576SOL    HW220628   2.346   6.090   6.349
 6577SOL     OW20629   0.794   1.333   4.162
 6577SOL    HW120630   0.874   1.314   4.106
 6577SOL    HW220631   0.756   1.422   4.138
 6578SOL     OW20632   0.868   4.323   3.233
 6578SOL    HW120633   0.879   4.287   3.140
 6578SOL    HW220634   0.915   4.263   3.298
 6579SOL     OW20635   0.337   3.507   4.735
 6579SOL    HW120636   0.355   3.450   4.655
 6579SOL    HW220637   0.249   3.553   4.724
 6580SOL     OW20638   6.355   1.904   0.993
 6580SOL    HW120639   6.279   1.901   0.928
 6580SOL    HW220640   6.322   1.881   1.084
 6581SOL     OW20641   2.378   1.306   0.308
 6581SOL    HW120642   2.296   1.248   0.308
 6581SOL    HW220643   2.414   1.312   0.401
 6582SOL     OW20644   1.325   1.211   1.464
 6582SOL    HW120645   1.297   1.295   1.511
 6582SOL    HW220646   1.375   1.152   1.527
 6583SOL     OW20647   4.067   0.015   5.007
 6583SOL    HW120648   3.985   6.992   5.038
 6583SOL    HW220649   4.042   0.105   4.972
 6584SOL     OW20650   4.542   1.678   0.081
 6584SOL    HW120651   4.636   1.711   0.079
 6584SOL    HW220652   4.488   1.725   0.011
 6585SOL     OW20653   6.683   6.746   0.451
 6585SOL    HW120654   6.775   6.735   0.487
 6585SOL    HW220655   6.672   6.689   0.369
 6586SOL     OW20656   6.324   1.897   5.881
 6586SOL    HW120657   6.330   1.838   5.961
 6586SOL    HW220658   6.416   1.911   5.844
 6587SOL     OW20659   2.932   6.128   5.096
 6587SOL    HW120660   2.835   6.147   5.104
 6587SOL    HW220661   2.973   6.189   5.028
 6588SOL     OW20662   1.279   3.859   2.097
 6588SOL    HW120663   1.339   3.784   2.125
 6588SOL    HW220664   1.184   3.828   2.096
 6589SOL     OW20665   5.310   0.267   0.683
 6589SOL    HW120666   5.306   0.197   0.611
 6589SOL    HW220667   5.249   0.343   0.659
 6590SOL     OW20668   1.006   1.416   5.328
 6590SOL    HW120669   0.975   1.508   5.353
 6590SOL    HW220670   1.105   1.411   5.336
 6591SOL     OW20671   5.267   6.016   1.853
 6591SOL    HW120672   5.237   6.083   1.921
 6591SOL    HW220673   5.367   6.010   1.853
 6592SOL     OW20674   6.289   6.825   3.902
 6592SOL    HW120675   6.354   6.752   3.881
 6592SOL    HW220676   6.209   6.785   3.948
 6593SOL     OW20677   2.791   1.728   2.932
 6593SOL    HW120678   2.854   1.760   3.002
 6593SOL    HW220679   2.802   1.784   2.849
 6594SOL     OW20680   4.052   1.923   0.237
 6594SOL    HW120681   4.109   1.841   0.228
 6594SOL    HW220682   3.955   1.897   0.231
 6595SOL     OW20683   0.857   3.155   0.270
 6595SOL    HW120684   0.923   3.218   0.312
 6595SOL    HW220685   0.887   3.132   0.177
 6596SOL     OW20686   3.433   6.520   4.192
 6596SOL    HW120687   3.358   6.576   4.228
 6596SOL    HW220688   3.516   6.537   4.246
 6597SOL     OW20689   2.398   6.429   2.288
 6597SOL    HW120690   2.369   6.522   2.307
 6597SOL    HW220691   2.497   6.421   2.301
 6598SOL     OW20692   1.136   6.700   4.169
 6598SOL    HW120693   1.070   6.663   4.104
 6598SOL    HW220694   1.147   6.798   4.153
 6599SOL     OW20695   4.992   6.694   5.583
 6599SOL    HW120696   5.068   6.633   5.603
 6599SOL    HW220697   5.009   6.783   5.626
 6600SOL     OW20698   5.223   5.160   6.222
 6600SOL    HW120699   5.179   5.233   6.170
 6600SOL    HW220700   5.255   5.196   6.310
 6601SOL     OW20701   1.205   1.826   5.541
 6601SOL    HW120702   1.223   1.773   5.624
 6601SOL    HW220703   1.137   1.896   5.561
 6602SOL     OW20704   0.661   1.893   1.325
 6602SOL    HW120705   0.721   1.821   1.290
 6602SOL    HW220706   0.586   1.852   1.376
 6603SOL     OW20707   0.597   2.992   3.734
 6603SOL    HW120708   0.543   2.993   3.650
 6603SOL    HW220709   0.548   2.941   3.805
 6604SOL     OW20710   2.257   6.771   0.862
 6604SOL    HW120711   2.315   6.700   0.902
 6604SOL    HW220712   2.161   6.744   0.867
 6605SOL     OW20713   5.951   4.091   1.611
 6605SOL    HW120714   5.916   4.161   1.550
 6605SOL    HW220715   5.964   4.130   1.703
 6606SOL     OW20716   6.735   6.286   2.590
 6606SOL    HW120717   6.801   6.269   2.664
 6606SOL    HW220718   6.648   6.315   2.629
 6607SOL     OW20719   1.492   2.868   2.594
 6607SOL    HW120720   1.527   2.921   2.517
 6607SOL    HW220721   1.538   2.779   2.597
 6608SOL     OW20722   6.038   6.420   2.012
 6608SOL    HW120723   6.113   6.371   1.967
 6608SOL    HW220724   5.992   6.358   2.077
 6609SOL     OW20725   4.975   1.123   5.806
 6609SOL    HW120726   4.892   1.068   5.800
 6609SOL    HW220727   4.955   1.218   5.784
 6610SOL     OW20728   2.393   0.874   6.799
 6610SOL    HW120729   2.323   0.840   6.862
 6610SOL    HW220730   2.358   0.954   6.750
 6611SOL     OW20731   6.198   2.986   3.838
 6611SOL    HW120732   6.187   2.982   3.739
 6611SOL    HW220733   6.288   3.025   3.860
 6612SOL     OW20734   6.265   2.091   6.679
 6612SOL    HW120735   6.333   2.127   6.616
 6612SOL    HW220736   6.311   2.041   6.753
 6613SOL     OW20737   6.569   6.725   5.231
 6613SOL    HW120738   6.488   6.682   5.271
 6613SOL    HW220739   6.647   6.712   5.292
 6614SOL     OW20740   5.495   6.003   0.817
 6614SOL    HW120741   5.496   5.913   0.861
 6614SOL    HW220742   5.589   6.026   0.789
 6615SOL     OW20743   1.010   4.737   2.734
 6615SOL    HW120744   0.952   4.658   2.716
 6615SOL    HW220745   0.954   4.820   2.733
 6616SOL     OW20746   3.844   1.285   6.172
 6616SOL    HW120747   3.748   1.281   6.200
 6616SOL    HW220748   3.897   1.223   6.229
 6617SOL     OW20749   3.431   5.387   2.814
 6617SOL    HW120750   3.444   5.304   2.868
 6617SOL    HW220751   3.333   5.408   2.807
 6618SOL     OW20752   1.130   3.095   2.808
 6618SOL    HW120753   1.176   3.036   2.741
 6618SOL    HW220754   1.063   3.041   2.858
 6619SOL     OW20755   6.220   0.017   4.512
 6619SOL    HW120756   6.126   7.013   4.532
 6619SOL    HW220757   6.260   0.057   4.594
 6620SOL     OW20758   1.797   2.657   5.477
 6620SOL    HW120759   1.851   2.724   5.426
 6620SOL    HW220760   1.790   2.685   5.572
 6621SOL     OW20761   2.269   3.440   6.234
 6621SOL    HW120762   2.336   3.394   6.175
 6621SOL    HW220763   2.310   3.454   6.325
 6622SOL     OW20764   5.936   6.982   1.702
 6622SOL    HW120765   5.909   0.039   1.651
 6622SOL    HW220766   6.032   6.959   1.682
 6623SOL     OW20767   2.106   2.915   6.351
 6623SOL    HW120768   2.138   2.950   6.438
 6623SOL    HW220769   2.026   2.856   6.365
 6624SOL     OW20770   1.138   6.188   4.407
 6624SOL    HW120771   1.171   6.105   4.453
 6624SOL    HW220772   1.090   6.245   4.474
 6625SOL     OW20773   5.122   1.730   5.723
 6625SOL    HW120774   5.025   1.733   5.748
 6625SOL    HW220775   5.144   1.806   5.662
 6626SOL     OW20776   4.500   5.531   5.495
 6626SOL    HW120777   4.428   5.463   5.509
 6626SOL    HW220778   4.495   5.565   5.401
 6627SOL     OW20779   2.491   0.347   5.428
 6627SOL    HW120780   2.498   0.308   5.520
 6627SOL    HW220781   2.396   0.370   5.408
 6628SOL     OW20782   4.550   4.552   4.477
 6628SOL    HW120783   4.573   4.511   4.565
 6628SOL    HW220784   4.635   4.569   4.425
 6629SOL     OW20785   4.149   6.095   0.327
 6629SOL    HW120786   4.173   6.068   0.421
 6629SOL    HW220787   4.177   6.190   0.312
 6630SOL     OW20788   4.089   1.087   1.732
 6630SOL    HW120789   4.016   1.040   1.783
 6630SOL    HW220790   4.134   1.152   1.793
 6631SOL     OW20791   2.631   6.187   2.783
 6631SOL    HW120792   2.612   6.268   2.727
 6631SOL    HW220793   2.695   6.127   2.735
 6632SOL     OW20794   0.590   5.899   1.397
 6632SOL    HW120795   0.514   5.878   1.458
 6632SOL    HW220796   0.597   5.998   1.386
 6633SOL     OW20797   0.935   4.402   6.624
 6633SOL    HW120798   0.915   4.367   6.533
 6633SOL    HW220799   0.935   4.502   6.623
 6634SOL     OW20800   6.177   2.334   4.111
 6634SOL    HW120801   6.161   2.262   4.178
 6634SOL    HW220802   6.186   2.294   4.020
 6635SOL     OW20803   4.045   4.768   2.880
 6635SOL    HW120804   4.077   4.855   2.843
 6635SOL    HW220805   4.115   4.698   2.866
 6636SOL     OW20806   5.001   2.142   5.691
 6636SOL    HW120807   4.988   2.105   5.783
 6636SOL    HW220808   4.922   2.199   5.666
 6637SOL     OW20809   1.439   6.936   6.447
 6637SOL    HW120810   1.339   6.945   6.451
 6637SOL    HW220811   1.468   6.858   6.503
 6638SOL     OW20812   3.336   4.125   4.061
 6638SOL    HW120813   3.309   4.074   4.142
 6638SOL    HW220814   3.420   4.175   4.081
 6639SOL     OW20815   5.980   4.708   6.441
 6639SOL    HW120816   6.037   4.761   6.377
 6639SOL    HW220817   5.969   4.758   6.526
 6640SOL     OW20818   1.365   1.688   5.125
 6640SOL    HW120819   1.395   1.640   5.208
 6640SOL    HW220820   1.435   1.752   5.096
 6641SOL     OW20821   2.222   2.245   6.903
 6641SOL    HW120822   2.286   2.239   6.980
 6641SOL    HW220823   2.270   2.223   6.818
 6642SOL     OW20824   3.182   4.836   6.201
 6642SOL    HW120825   3.274   4.849   6.164
 6642SOL    HW220826   3.159   4.911   6.263
 6643SOL     OW20827   6.654   5.303   0.191
 6643SOL    HW120828   6.646   5.399   0.217
 6643SOL    HW220829   6.594   5.285   0.113
 6644SOL     OW20830   2.619   4.715   2.121
 6644SOL    HW120831   2.681   4.685   2.049
 6644SOL    HW220832   2.630   4.656   2.201
 6645SOL     OW20833   6.420   4.785   0.543
 6645SOL    HW120834   6.405   4.852   0.616
 6645SOL    HW220835   6.402   4.827   0.454
 6646SOL     OW20836   3.846   0.217   5.147
 6646SOL    HW120837   3.911   0.247   5.076
 6646SOL    HW220838   3.842   0.117   5.148
 6647SOL     OW20839   4.104   1.081   2.162
 6647SOL    HW120840   4.157   1.006   2.202
 6647SOL    HW220841   4.166   1.145   2.117
 6648SOL     OW20842   3.941   6.744   2.717
 6648SOL    HW120843   3.988   6.778   2.635
 6648SOL    HW220844   4.009   6.715   2.784
 6649SOL     OW20845   5.579   0.947   6.657
 6649SOL    HW120846   5.544   0.958   6.750
 6649SOL    HW220847   5.526   0.877   6.610
 6650SOL     OW20848   3.350   1.559   5.311
 6650SOL    HW120849   3.298   1.476   5.331
 6650SOL    HW220850   3.445   1.535   5.291
 6651SOL     OW20851   2.095   1.566   6.161
 6651SOL    HW120852   2.081   1.656   6.201
 6651SOL    HW220853   2.165   1.571   6.090
 6652SOL     OW20854   6.945   3.963   0.524
 6652SOL    HW120855   6.966   3.870   0.556
 6652SOL    HW220856   6.856   3.962   0.478
 6653SOL     OW20857   3.372   2.884   2.456
 6653SOL    HW120858   3.334   2.888   2.364
 6653SOL    HW220859   3.319   2.944   2.517
 6654SOL     OW20860   1.602   3.735   1.577
 6654SOL    HW120861   1.690   3.781   1.572
 6654SOL    HW220862   1.580   3.693   1.489
 6655SOL     OW20863   1.736   0.135   2.248
 6655SOL    HW120864   1.821   0.101   2.289
 6655SOL    HW220865   1.758   0.207   2.182
 6656SOL     OW20866   5.534   1.623   2.159
 6656SOL    HW120867   5.612   1.628   2.221
 6656SOL    HW220868   5.452   1.655   2.206
 6657SOL     OW20869   5.945   6.131   6.436
 6657SOL    HW120870   6.030   6.180   6.454
 6657SOL    HW220871   5.915   6.084   6.520
 6658SOL     OW20872   5.975   1.438   5.050
 6658SOL    HW120873   5.955   1.526   5.094
 6658SOL    HW220874   5.895   1.408   4.998
 6659SOL     OW20875   2.233   2.493   0.708
 6659SOL    HW120876   2.219   2.473   0.805
 6659SOL    HW220877   2.182   2.427   0.653
 6660SOL     OW20878   0.894   5.702   0.293
 6660SOL    HW120879   0.836   5.781   0.270
 6660SOL    HW220880   0.838   5.632   0.338
 6661SOL     OW20881   1.265   6.199   4.768
 6661SOL    HW120882   1.254   6.233   4.862
 6661SOL    HW220883   1.244   6.273   4.704
 6662SOL     OW20884   0.777   1.290   0.441
 6662SOL    HW120885   0.724   1.355   0.496
 6662SOL    HW220886   0.832   1.232   0.501
 6663SOL     OW20887   0.142   5.419   3.918
 6663SOL    HW120888   0.062   5.470   3.887
 6663SOL    HW220889   0.155   5.433   4.016
 6664SOL     OW20890   2.513   6.295   0.292
 6664SOL    HW120891   2.431   6.337   0.331
 6664SOL    HW220892   2.530   6.334   0.201
 6665SOL     OW20893   1.317   6.998   3.561
 6665SOL    HW120894   1.359   6.923   3.612
 6665SOL    HW220895   1.370   7.015   3.478
 6666SOL     OW20896   5.610   6.942   5.932
 6666SOL    HW120897   5.534   6.930   5.995
 6666SOL    HW220898   5.682   6.876   5.954
 6667SOL     OW20899   6.543   5.889   6.471
 6667SOL    HW120900   6.471   5.959   6.467
 6667SOL    HW220901   6.557   5.861   6.566
 6668SOL     OW20902   6.869   5.609   2.069
 6668SOL    HW120903   6.920   5.566   2.143
 6668SOL    HW220904   6.878   5.708   2.075
 6669SOL     OW20905   1.878   2.741   3.969
 6669SOL    HW120906   1.903   2.794   3.888
 6669SOL    HW220907   1.815   2.668   3.943
 6670SOL     OW20908   3.953   2.754   5.614
 6670SOL    HW120909   3.924   2.708   5.697
 6670SOL    HW220910   4.013   2.694   5.561
 6671SOL     OW20911   5.625   5.633   1.341
 6671SOL    HW120912   5.607   5.723   1.301
 6671SOL    HW220913   5.540   5.580   1.343
 6672SOL     OW20914   6.864   1.837   6.399
 6672SOL    HW120915   6.837   1.929   6.370
 6672SOL    HW220916   6.801   1.770   6.359
 6673SOL     OW20917   5.094   6.077   3.702
 6673SOL    HW120918   5.074   6.031   3.789
 6673SOL    HW220919   5.141   6.163   3.720
 6674SOL     OW20920   1.051   4.704   5.477
 6674SOL    HW120921   1.038   4.605   5.482
 6674SOL    HW220922   1.051   4.732   5.381
 6675SOL     OW20923   4.624   3.597   1.683
 6675SOL    HW120924   4.528   3.599   1.656
 6675SOL    HW220925   4.657   3.503   1.680
 6676SOL     OW20926   6.758   4.625   5.711
 6676SOL    HW120927   6.660   4.643   5.719
 6676SOL    HW220928   6.783   4.619   5.615
 6677SOL     OW20929   0.859   1.883   6.195
 6677SOL    HW120930   0.879   1.975   6.227
 6677SOL    HW220931   0.940   1.845   6.150
 6678SOL     OW20932   2.894   3.234   6.749
 6678SOL    HW120933   2.798   3.207   6.744
 6678SOL    HW220934   2.938   3.216   6.661
 6679SOL     OW20935   2.300   1.877   3.882
 6679SOL    HW120936   2.286   1.827   3.796
 6679SOL    HW220937   2.226   1.942   3.895
 6680SOL     OW20938   4.486   0.388   6.320
 6680SOL    HW120939   4.410   0.365   6.380
 6680SOL    HW220940   4.495   0.488   6.315
 6681SOL     OW20941   4.307   5.318   0.784
 6681SOL    HW120942   4.313   5.256   0.705
 6681SOL    HW220943   4.368   5.286   0.856
 6682SOL     OW20944   1.740   4.404   3.134
 6682SOL    HW120945   1.736   4.497   3.097
 6682SOL    HW220946   1.660   4.352   3.102
 6683SOL     OW20947   5.817   3.054   5.165
 6683SOL    HW120948   5.833   3.070   5.068
 6683SOL    HW220949   5.862   3.126   5.219
 6684SOL     OW20950   2.542   6.486   1.403
 6684SOL    HW120951   2.446   6.458   1.392
 6684SOL    HW220952   2.595   6.407   1.433
 6685SOL     OW20953   6.003   3.053   6.011
 6685SOL    HW120954   5.924   3.113   6.026
 6685SOL    HW220955   6.027   3.008   6.097
 6686SOL     OW20956   5.276   5.694   4.938
 6686SOL    HW120957   5.352   5.738   4.985
 6686SOL    HW220958   5.311   5.630   4.870
 6687SOL     OW20959   1.136   2.841   0.225
 6687SOL    HW120960   1.045   2.809   0.250
 6687SOL    HW220961   1.197   2.763   0.213
 6688SOL     OW20962   7.001   4.354   1.602
 6688SOL    HW120963   0.074   4.373   1.610
 6688SOL    HW220964   6.965   4.400   1.521
 6689SOL     OW20965   4.499   3.169   0.016
 6689SOL    HW120966   4.454   3.086   0.047
 6689SOL    HW220967   4.431   3.235   7.011
 6690SOL     OW20968   2.449   0.702   1.361
 6690SOL    HW120969   2.459   0.702   1.262
 6690SOL    HW220970   2.362   0.659   1.386
 6691SOL     OW20971   3.055   6.521   1.179
 6691SOL    HW120972   2.960   6.543   1.203
 6691SOL    HW220973   3.116   6.554   1.250
 6692SOL     OW20974   4.015   3.976   5.445
 6692SOL    HW120975   4.030   4.044   5.373
 6692SOL    HW220976   4.072   3.895   5.427
 6693SOL     OW20977   4.418   3.788   5.837
 6693SOL    HW120978   4.470   3.720   5.786
 6693SOL    HW220979   4.480   3.841   5.895
 6694SOL     OW20980   5.245   4.940   0.978
 6694SOL    HW120981   5.209   4.941   0.885
 6694SOL    HW220982   5.260   4.845   1.007
 6695SOL     OW20983   2.526   1.483   6.784
 6695SOL    HW120984   2.456   1.436   6.730
 6695SOL    HW220985   2.612   1.431   6.779
 6696SOL     OW20986   1.191   3.031   6.057
 6696SOL    HW120987   1.210   3.117   6.105
 6696SOL    HW220988   1.097   3.002   6.076
 6697SOL     OW20989   4.658   2.651   2.834
 6697SOL    HW120990   4.575   2.663   2.780
 6697SOL    HW220991   4.715   2.579   2.792
 6698SOL     OW20992   3.065   2.736   0.915
 6698SOL    HW120993   2.985   2.677   0.905
 6698SOL    HW220994   3.107   2.719   1.004
 6699SOL     OW20995   3.223   5.176   6.158
 6699SOL    HW120996   3.154   5.248   6.165
 6699SOL    HW220997   3.215   5.131   6.069
 6700SOL     OW20998   6.919   6.831   0.647
 6700SOL    HW120999   6.946   6.901   0.714
 6700SOL    HW221000   6.917   6.742   0.692
 6701SOL     OW21001   5.597   2.675   1.662
 6701SOL    HW121002   5.505   2.666   1.702
 6701SOL    HW221003   5.664   2.637   1.725
 6702SOL     OW21004   2.764   2.322   1.374
 6702SOL    HW121005   2.694   2.254   1.396
 6702SOL    HW221006   2.833   2.324   1.446
 6703SOL     OW21007   6.228   2.088   0.021
 6703SOL    HW121008   6.258   2.003   0.065
 6703SOL    HW221009   6.179   2.145   0.087
 6704SOL     OW21010   3.631   2.125   2.933
 6704SOL    HW121011   3.547   2.159   2.890
 6704SOL    HW221012   3.607   2.056   3.002
 6705SOL     OW21013   6.580   2.041   1.064
 6705SOL    HW121014   6.512   1.968   1.052
 6705SOL    HW221015   6.619   2.065   0.976
 6706SOL     OW21016   1.021   3.800   2.013
 6706SOL    HW121017   0.940   3.811   1.956
 6706SOL    HW221018   1.026   3.706   2.047
 6707SOL     OW21019   0.245   6.156   3.792
 6707SOL    HW121020   0.155   6.171   3.752
 6707SOL    HW221021   0.236   6.100   3.874
 6708SOL     OW21022   0.295   5.498   2.137
 6708SOL    HW121023   0.369   5.431   2.140
 6708SOL    HW221024   0.256   5.508   2.228
 6709SOL     OW21025   2.668   0.153   2.065
 6709SOL    HW121026   2.594   0.153   1.998
 6709SOL    HW221027   2.661   0.070   2.121
 6710SOL     OW21028   2.883   0.846   5.609
 6710SOL    HW121029   2.911   0.750   5.620
 6710SOL    HW221030   2.798   0.849   5.556
 6711SOL     OW21031   4.990   5.243   0.202
 6711SOL    HW121032   4.938   5.195   0.273
 6711SOL    HW221033   4.940   5.240   0.116
 6712SOL     OW21034   4.554   5.196   0.427
 6712SOL    HW121035   4.628   5.217   0.491
 6712SOL    HW221036   4.586   5.130   0.359
 6713SOL     OW21037   2.470   1.390   1.744
 6713SOL    HW121038   2.537   1.395   1.818
 6713SOL    HW221039   2.513   1.353   1.662
 6714SOL     OW21040   6.107   1.133   7.011
 6714SOL    HW121041   6.137   1.039   0.002
 6714SOL    HW221042   6.124   1.188   0.069
 6715SOL     OW21043   0.101   0.156   6.322
 6715SOL    HW121044   0.181   0.118   6.369
 6715SOL    HW221045   0.090   0.110   6.234
 6716SOL     OW21046   0.560   5.761   1.781
 6716SOL    HW121047   0.604   5.821   1.848
 6716SOL    HW221048   0.627   5.696   1.747
 6717SOL     OW21049   4.276   2.735   0.496
 6717SOL    HW121050   4.335   2.668   0.541
 6717SOL    HW221051   4.250   2.701   0.406
 6718SOL     OW21052   4.715   0.321   6.072
 6718SOL    HW121053   4.801   0.276   6.049
 6718SOL    HW221054   4.669   0.349   5.988
 6719SOL     OW21055   1.625   0.029   6.252
 6719SOL    HW121056   1.560   7.022   6.322
 6719SOL    HW221057   1.716   0.038   6.293
 6720SOL     OW21058   0.840   5.580   3.694
 6720SOL    HW121059   0.908   5.589   3.621
 6720SOL    HW221060   0.810   5.671   3.723
 6721SOL     OW21061   6.421   0.551   5.634
 6721SOL    HW121062   6.401   0.643   5.599
 6721SOL    HW221063   6.377   0.539   5.723
 6722SOL     OW21064   6.664   3.678   1.350
 6722SOL    HW121065   6.642   3.689   1.446
 6722SOL    HW221066   6.723   3.753   1.320
 6723SOL     OW21067   1.762   6.898   2.836
 6723SOL    HW121068   1.673   6.876   2.878
 6723SOL    HW221069   1.828   6.917   2.909
 6724SOL     OW21070   1.109   4.033   5.736
 6724SOL    HW121071   1.043   4.105   5.715
 6724SOL    HW221072   1.202   4.071   5.738
 6725SOL     OW21073   1.183   3.901   1.032
 6725SOL    HW121074   1.262   3.932   0.979
 6725SOL    HW221075   1.101   3.947   1.000
 6726SOL     OW21076   0.666   2.333   4.845
 6726SOL    HW121077   0.717   2.419   4.854
 6726SOL    HW221078   0.643   2.318   4.749
 6727SOL     OW21079   6.502   3.613   5.725
 6727SOL    HW121080   6.463   3.661   5.646
 6727SOL    HW221081   6.468   3.655   5.810
 6728SOL     OW21082   4.499   1.275   4.034
 6728SOL    HW121083   4.470   1.218   4.111
 6728SOL    HW221084   4.585   1.320   4.056
 6729SOL     OW21085   0.140   1.684   2.264
 6729SOL    HW121086   0.191   1.763   2.231
 6729SOL    HW221087   0.052   1.714   2.300
 6730SOL     OW21088   2.546   6.395   0.049
 6730SOL    HW121089   2.640   6.391   0.013
 6730SOL    HW221090   2.481   6.393   6.998
 6731SOL     OW21091   1.437   5.188   1.296
 6731SOL    HW121092   1.501   5.250   1.342
 6731SOL    HW221093   1.444   5.097   1.336
 6732SOL     OW21094   4.585   5.137   5.771
 6732SOL    HW121095   4.569   5.198   5.848
 6732SOL    HW221096   4.668   5.164   5.723
 6733SOL     OW21097   4.101   5.056   0.859
 6733SOL    HW121098   4.106   4.985   0.790
 6733SOL    HW221099   4.170   5.040   0.929
 6734SOL     OW21100   6.791   2.479   4.902
 6734SOL    HW121101   6.762   2.567   4.864
 6734SOL    HW221102   6.744   2.405   4.854
 6735SOL     OW21103   6.867   4.613   4.499
 6735SOL    HW121104   6.923   4.649   4.573
 6735SOL    HW221105   6.782   4.574   4.535
 6736SOL     OW21106   3.159   3.531   0.315
 6736SOL    HW121107   3.087   3.523   0.384
 6736SOL    HW221108   3.247   3.505   0.354
 6737SOL     OW21109   2.428   2.717   0.874
 6737SOL    HW121110   2.430   2.707   0.775
 6737SOL    HW221111   2.513   2.758   0.906
 6738SOL     OW21112   2.055   4.093   2.675
 6738SOL    HW121113   2.149   4.119   2.696
 6738SOL    HW221114   2.024   4.024   2.740
 6739SOL     OW21115   3.549   4.785   5.629
 6739SOL    HW121116   3.560   4.692   5.662
 6739SOL    HW221117   3.638   4.828   5.617
 6740SOL     OW21118   1.827   1.426   4.785
 6740SOL    HW121119   1.753   1.492   4.776
 6740SOL    HW221120   1.915   1.475   4.791
 6741SOL     OW21121   4.522   1.411   5.793
 6741SOL    HW121122   4.561   1.427   5.702
 6741SOL    HW221123   4.453   1.481   5.812
 6742SOL     OW21124   6.208   5.791   2.547
 6742SOL    HW121125   6.171   5.708   2.590
 6742SOL    HW221126   6.229   5.772   2.451
 6743SOL     OW21127   4.355   4.221   0.868
 6743SOL    HW121128   4.403   4.153   0.924
 6743SOL    HW221129   4.422   4.287   0.832
 6744SOL     OW21130   5.002   5.564   5.893
 6744SOL    HW121131   4.911   5.596   5.865
 6744SOL    HW221132   5.030   5.487   5.835
 6745SOL     OW21133   0.878   6.611   2.218
 6745SOL    HW121134   0.886   6.703   2.178
 6745SOL    HW221135   0.892   6.617   2.317
 6746SOL     OW21136   0.978   0.973   3.285
 6746SOL    HW121137   1.067   1.012   3.309
 6746SOL    HW221138   0.949   1.010   3.197
 6747SOL     OW21139   5.328   0.350   4.925
 6747SOL    HW121140   5.252   0.354   4.991
 6747SOL    HW221141   5.325   0.262   4.878
 6748SOL     OW21142   1.203   0.368   3.106
 6748SOL    HW121143   1.257   0.348   3.187
 6748SOL    HW221144   1.106   0.354   3.126
 6749SOL     OW21145   2.928   5.888   0.263
 6749SOL    HW121146   2.855   5.949   0.233
 6749SOL    HW221147   2.932   5.808   0.204
 6750SOL     OW21148   4.527   1.135   5.137
 6750SOL    HW121149   4.493   1.166   5.049
 6750SOL    HW221150   4.625   1.116   5.130
 6751SOL     OW21151   3.712   1.324   3.693
 6751SOL    HW121152   3.707   1.379   3.776
 6751SOL    HW221153   3.788   1.356   3.636
 6752SOL     OW21154   6.977   2.877   2.952
 6752SOL    HW121155   0.001   2.957   2.986
 6752SOL    HW221156   6.897   2.905   2.900
 6753SOL     OW21157   4.382   0.872   6.207
 6753SOL    HW121158   4.354   0.957   6.250
 6753SOL    HW221159   4.463   0.887   6.151
 6754SOL     OW21160   6.802   1.306   6.824
 6754SOL    HW121161   6.881   1.342   6.776
 6754SOL    HW221162   6.756   1.238   6.767
 6755SOL     OW21163   4.472   1.724   3.110
 6755SOL    HW121164   4.446   1.711   3.206
 6755SOL    HW221165   4.490   1.635   3.068
 6756SOL     OW21166   4.465   4.563   4.200
 6756SOL    HW121167   4.401   4.640   4.202
 6756SOL    HW221168   4.489   4.538   4.294
 6757SOL     OW21169   4.721   7.018   1.660
 6757SOL    HW121170   4.716   6.953   1.584
 6757SOL    HW221171   4.650   0.063   1.649
 6758SOL     OW21172   6.506   3.432   1.142
 6758SOL    HW121173   6.602   3.413   1.161
 6758SOL    HW221174   6.462   3.468   1.224
 6759SOL     OW21175   0.735   3.519   4.672
 6759SOL    HW121176   0.747   3.604   4.723
 6759SOL    HW221177   0.792   3.522   4.590
 6760SOL     OW21178   6.787   4.912   4.181
 6760SOL    HW121179   6.731   4.878   4.106
 6760SOL    HW221180   6.823   5.003   4.158
 6761SOL     OW21181   6.131   2.827   6.569
 6761SOL    HW121182   6.046   2.877   6.552
 6761SOL    HW221183   6.165   2.850   6.661
 6762SOL     OW21184   6.689   5.517   3.160
 6762SOL    HW121185   6.746   5.436   3.173
 6762SOL    HW221186   6.735   5.597   3.198
 6763SOL     OW21187   6.648   5.962   3.798
 6763SOL    HW121188   6.668   6.025   3.723
 6763SOL    HW221189   6.579   5.896   3.769
 6764SOL     OW21190   3.037   4.990   6.394
 6764SOL    HW121191   3.017   4.975   6.491
 6764SOL    HW221192   3.100   5.066   6.385
 6765SOL     OW21193   4.783   5.064   3.668
 6765SOL    HW121194   4.700   5.030   3.712
 6765SOL    HW221195   4.767   5.156   3.632
 6766SOL     OW21196   4.304   0.019   6.405
 6766SOL    HW121197   4.231   6.982   6.375
 6766SOL    HW221198   4.276   0.065   6.490
 6767SOL     OW21199   0.748   2.669   0.746
 6767SOL    HW121200   0.722   2.653   0.841
 6767SOL    HW221201   0.667   2.664   0.688
 6768SOL     OW21202   0.775   6.463   3.987
 6768SOL    HW121203   0.782   6.512   3.900
 6768SOL    HW221204   0.865   6.429   4.014
 6769SOL     OW21205   3.108   0.776   5.263
 6769SOL    HW121206   3.156   0.721   5.332
 6769SOL    HW221207   3.174   0.831   5.213
 6770SOL     OW21208   6.844   2.258   3.401
 6770SOL    HW121209   6.782   2.209   3.340
 6770SOL    HW221210   6.801   2.344   3.430
 6771SOL     OW21211   3.431   1.667   3.015
 6771SOL    HW121212   3.469   1.742   2.961
 6771SOL    HW221213   3.398   1.595   2.954
 6772SOL     OW21214   5.519   1.838   2.415
 6772SOL    HW121215   5.435   1.890   2.430
 6772SOL    HW221216   5.571   1.878   2.339
 6773SOL     OW21217   7.018   6.719   1.449
 6773SOL    HW121218   7.024   6.813   1.483
 6773SOL    HW221219   0.012   6.718   1.351
 6774SOL     OW21220   1.682   2.272   4.509
 6774SOL    HW121221   1.756   2.283   4.442
 6774SOL    HW221222   1.717   2.292   4.601
 6775SOL     OW21223   0.488   2.103   3.358
 6775SOL    HW121224   0.581   2.129   3.382
 6775SOL    HW221225   0.433   2.094   3.441
 6776SOL     OW21226   3.814   3.349   1.469
 6776SOL    HW121227   3.898   3.391   1.434
 6776SOL    HW221228   3.816   3.250   1.451
 6777SOL     OW21229   4.179   5.382   1.105
 6777SOL    HW121230   4.215   5.297   1.066
 6777SOL    HW221231   4.206   5.459   1.047
 6778SOL     OW21232   5.781   3.193   2.353
 6778SOL    HW121233   5.716   3.165   2.423
 6778SOL    HW221234   5.732   3.219   2.270
 6779SOL     OW21235   5.185   4.939   6.607
 6779SOL    HW121236   5.250   4.990   6.664
 6779SOL    HW221237   5.236   4.877   6.547
 6780SOL     OW21238   1.959   3.658   2.756
 6780SOL    HW121239   1.938   3.564   2.729
 6780SOL    HW221240   1.880   3.698   2.802
 6781SOL     OW21241   6.751   1.076   3.454
 6781SOL    HW121242   6.684   1.052   3.383
 6781SOL    HW221243   6.786   0.992   3.496
 6782SOL     OW21244   0.886   0.735   3.893
 6782SOL    HW121245   0.890   0.653   3.836
 6782SOL    HW221246   0.899   0.710   3.989
 6783SOL     OW21247   0.624   3.792   4.960
 6783SOL    HW121248   0.710   3.797   4.910
 6783SOL    HW221249   0.638   3.736   5.043
 6784SOL     OW21250   2.215   4.137   2.053
 6784SOL    HW121251   2.278   4.158   1.979
 6784SOL    HW221252   2.121   4.149   2.021
 6785SOL     OW21253   5.647   5.332   5.717
 6785SOL    HW121254   5.708   5.409   5.733
 6785SOL    HW221255   5.577   5.329   5.788
 6786SOL     OW21256   6.660   3.228   6.892
 6786SOL    HW121257   6.703   3.242   6.981
 6786SOL    HW221258   6.572   3.182   6.903
 6787SOL     OW21259   2.823   2.379   1.021
 6787SOL    HW121260   2.755   2.306   1.013
 6787SOL    HW221261   2.821   2.417   1.113
 6788SOL     OW21262   0.240   3.972   2.704
 6788SOL    HW121263   0.218   4.063   2.740
 6788SOL    HW221264   0.162   3.937   2.653
 6789SOL     OW21265   0.136   4.790   4.122
 6789SOL    HW121266   0.129   4.818   4.217
 6789SOL    HW221267   0.048   4.753   4.091
 6790SOL     OW21268   0.258   4.338   6.886
 6790SOL    HW121269   0.264   4.390   6.971
 6790SOL    HW221270   0.178   4.368   6.834
 6791SOL     OW21271   4.095   1.800   3.227
 6791SOL    HW121272   4.013   1.830   3.178
 6791SOL    HW221273   4.176   1.817   3.171
 6792SOL     OW21274   4.629   7.003   5.569
 6792SOL    HW121275   4.532   7.000   5.548
 6792SOL    HW221276   4.661   6.911   5.592
 6793SOL     OW21277   3.421   1.816   6.933
 6793SOL    HW121278   3.328   1.838   6.962
 6793SOL    HW221279   3.418   1.776   6.841
 6794SOL     OW21280   4.942   1.381   5.736
 6794SOL    HW121281   5.028   1.432   5.739
 6794SOL    HW221282   4.870   1.439   5.700
 6795SOL     OW21283   0.724   6.589   0.065
 6795SOL    HW121284   0.726   6.679   0.022
 6795SOL    HW221285   0.766   6.595   0.156
 6796SOL     OW21286   5.751   0.994   2.584
 6796SOL    HW121287   5.741   0.996   2.684
 6796SOL    HW221288   5.679   1.049   2.542
 6797SOL     OW21289   6.915   1.648   0.854
 6797SOL    HW121290   6.929   1.635   0.756
 6797SOL    HW221291   6.983   1.595   0.904
 6798SOL     OW21292   6.206   6.909   1.685
 6798SOL    HW121293   6.230   6.895   1.781
 6798SOL    HW221294   6.271   6.973   1.644
 6799SOL     OW21295   5.316   0.559   2.664
 6799SOL    HW121296   5.365   0.510   2.736
 6799SOL    HW221297   5.264   0.634   2.704
 6800SOL     OW21298   2.208   2.687   1.585
 6800SOL    HW121299   2.143   2.624   1.626
 6800SOL    HW221300   2.195   2.779   1.623
 6801SOL     OW21301   0.701   6.934   3.854
 6801SOL    HW121302   0.632   6.903   3.789
 6801SOL    HW221303   0.787   6.886   3.838
 6802SOL     OW21304   3.502   5.628   0.300
 6802SOL    HW121305   3.493   5.692   0.377
 6802SOL    HW221306   3.411   5.608   0.264
 6803SOL     OW21307   4.942   3.681   0.274
 6803SOL    HW121308   5.006   3.609   0.301
 6803SOL    HW221309   4.866   3.684   0.339
 6804SOL     OW21310   3.135   4.979   2.484
 6804SOL    HW121311   3.164   4.920   2.408
 6804SOL    HW221312   3.216   5.006   2.537
 6805SOL     OW21313   0.719   5.226   6.951
 6805SOL    HW121314   0.750   5.316   6.920
 6805SOL    HW221315   0.794   5.160   6.942
 6806SOL     OW21316   6.966   0.839   4.095
 6806SOL    HW121317   7.003   0.811   4.007
 6806SOL    HW221318   6.975   0.764   4.160
 6807SOL     OW21319   3.699   3.688   3.029
 6807SOL    HW121320   3.774   3.732   3.079
 6807SOL    HW221321   3.735   3.610   2.978
 6808SOL     OW21322   5.709   0.775   5.176
 6808SOL    HW121323   5.691   0.801   5.271
 6808SOL    HW221324   5.782   0.833   5.139
 6809SOL     OW21325   6.509   3.839   1.165
 6809SOL    HW121326   6.541   3.779   1.238
 6809SOL    HW221327   6.409   3.844   1.167
 6810SOL     OW21328   3.659   0.987   3.297
 6810SOL    HW121329   3.711   1.052   3.242
 6810SOL    HW221330   3.655   0.899   3.250
 6811SOL     OW21331   6.651   3.058   2.397
 6811SOL    HW121332   6.627   3.042   2.493
 6811SOL    HW221333   6.569   3.048   2.340
 6812SOL     OW21334   3.494   3.663   4.556
 6812SOL    HW121335   3.590   3.635   4.550
 6812SOL    HW221336   3.437   3.584   4.575
 6813SOL     OW21337   5.458   3.540   2.826
 6813SOL    HW121338   5.543   3.591   2.843
 6813SOL    HW221339   5.461   3.502   2.733
 6814SOL     OW21340   4.758   1.568   6.629
 6814SOL    HW121341   4.849   1.610   6.629
 6814SOL    HW221342   4.718   1.578   6.538
 6815SOL     OW21343   1.509   5.557   6.562
 6815SOL    HW121344   1.458   5.632   6.604
 6815SOL    HW221345   1.494   5.474   6.616
 6816SOL     OW21346   6.974   1.503   4.401
 6816SOL    HW121347   6.919   1.569   4.451
 6816SOL    HW221348   7.024   1.549   4.327
 6817SOL     OW21349   2.613   2.434   4.419
 6817SOL    HW121350   2.645   2.349   4.377
 6817SOL    HW221351   2.624   2.428   4.518
 6818SOL     OW21352   1.902   6.468   6.802
 6818SOL    HW121353   1.815   6.423   6.822
 6818SOL    HW221354   1.895   6.566   6.823
 6819SOL     OW21355   4.634   0.035   2.216
 6819SOL    HW121356   4.558   0.048   2.280
 6819SOL    HW221357   4.628   0.103   2.143
 6820SOL     OW21358   1.320   5.775   1.411
 6820SOL    HW121359   1.250   5.758   1.480
 6820SOL    HW221360   1.278   5.776   1.320
 6821SOL     OW21361   4.533   2.608   6.004
 6821SOL    HW121362   4.529   2.511   6.026
 6821SOL    HW221363   4.600   2.653   6.064
 6822SOL     OW21364   6.715   2.646   6.873
 6822SOL    HW121365   6.744   2.742   6.873
 6822SOL    HW221366   6.787   2.590   6.914
 6823SOL     OW21367   5.034   4.146   6.389
 6823SOL    HW121368   5.128   4.176   6.373
 6823SOL    HW221369   4.977   4.225   6.411
 6824SOL     OW21370   1.683   1.289   0.081
 6824SOL    HW121371   1.704   1.269   0.177
 6824SOL    HW221372   1.584   1.288   0.068
 6825SOL     OW21373   6.445   6.136   0.665
 6825SOL    HW121374   6.373   6.144   0.596
 6825SOL    HW221375   6.522   6.083   0.629
 6826SOL     OW21376   0.834   3.566   3.490
 6826SOL    HW121377   0.819   3.607   3.580
 6826SOL    HW221378   0.754   3.512   3.464
 6827SOL     OW21379   4.817   5.289   5.691
 6827SOL    HW121380   4.768   5.297   5.605
 6827SOL    HW221381   4.907   5.333   5.683
 6828SOL     OW21382   3.600   1.673   2.484
 6828SOL    HW121383   3.631   1.736   2.413
 6828SOL    HW221384   3.524   1.715   2.535
 6829SOL     OW21385   5.594   0.125   5.394
 6829SOL    HW121386   5.521   0.071   5.435
 6829SOL    HW221387   5.667   0.139   5.461
 6830SOL     OW21388   6.151   1.315   3.584
 6830SOL    HW121389   6.189   1.407   3.591
 6830SOL    HW221390   6.221   1.248   3.611
 6831SOL     OW21391   1.413   1.418   5.995
 6831SOL    HW121392   1.439   1.491   6.058
 6831SOL    HW221393   1.317   1.393   6.010
 6832SOL     OW21394   2.374   3.458   0.275
 6832SOL    HW121395   2.328   3.500   0.198
 6832SOL    HW221396   2.448   3.517   0.307
 6833SOL     OW21397   3.546   5.180   6.013
 6833SOL    HW121398   3.573   5.226   5.929
 6833SOL    HW221399   3.458   5.218   6.044
 6834SOL     OW21400   4.999   6.892   1.022
 6834SOL    HW121401   5.052   6.875   0.939
 6834SOL    HW221402   4.971   6.805   1.062
 6835SOL     OW21403   4.255   1.724   4.827
 6835SOL    HW121404   4.345   1.688   4.852
 6835SOL    HW221405   4.242   1.716   4.728
 6836SOL     OW21406   1.743   4.271   6.356
 6836SOL    HW121407   1.698   4.315   6.434
 6836SOL    HW221408   1.829   4.230   6.386
 6837SOL     OW21409   0.589   1.075   2.656
 6837SOL    HW121410   0.613   1.164   2.618
 6837SOL    HW221411   0.650   1.054   2.733
 6838SOL     OW21412   2.505   4.388   5.247
 6838SOL    HW121413   2.600   4.374   5.274
 6838SOL    HW221414   2.449   4.312   5.279
 6839SOL     OW21415   5.827   2.063   3.590
 6839SOL    HW121416   5.768   2.132   3.632
 6839SOL    HW221417   5.790   1.972   3.608
 6840SOL     OW21418   2.817   6.370   5.406
 6840SOL    HW121419   2.797   6.343   5.501
 6840SOL    HW221420   2.731   6.391   5.359
 6841SOL     OW21421   3.803   4.846   1.291
 6841SOL    HW121422   3.743   4.768   1.276
 6841SOL    HW221423   3.782   4.919   1.227
 6842SOL     OW21424   1.459   2.100   6.515
 6842SOL    HW121425   1.529   2.076   6.583
 6842SOL    HW221426   1.450   2.026   6.449
 6843SOL     OW21427   4.958   0.889   1.697
 6843SOL    HW121428   4.870   0.877   1.744
 6843SOL    HW221429   5.000   0.974   1.728
 6844SOL     OW21430   5.337   5.966   3.982
 6844SOL    HW121431   5.369   5.908   3.906
 6844SOL    HW221432   5.252   5.929   4.018
 6845SOL     OW21433   5.163   3.889   2.171
 6845SOL    HW121434   5.227   3.829   2.123
 6845SOL    HW221435   5.096   3.834   2.220
 6846SOL     OW21436   4.072   3.029   1.444
 6846SOL    HW121437   4.130   3.108   1.422
 6846SOL    HW221438   4.104   2.949   1.392
 6847SOL     OW21439   5.723   4.026   2.224
 6847SOL    HW121440   5.692   3.931   2.222
 6847SOL    HW221441   5.717   4.062   2.317
 6848SOL     OW21442   1.907   5.868   3.197
 6848SOL    HW121443   1.961   5.945   3.231
 6848SOL    HW221444   1.844   5.900   3.126
 6849SOL     OW21445   3.646   5.462   3.935
 6849SOL    HW121446   3.665   5.427   3.843
 6849SOL    HW221447   3.683   5.399   4.003
 6850SOL     OW21448   5.572   2.842   2.718
 6850SOL    HW121449   5.534   2.917   2.772
 6850SOL    HW221450   5.498   2.782   2.687
 6851SOL     OW21451   1.519   3.833   4.542
 6851SOL    HW121452   1.463   3.805   4.620
 6851SOL    HW221453   1.612   3.798   4.553
 6852SOL     OW21454   1.068   4.960   0.811
 6852SOL    HW121455   0.992   5.016   0.777
 6852SOL    HW221456   1.155   5.006   0.791
 6853SOL     OW21457   6.386   3.705   6.900
 6853SOL    HW121458   6.397   3.720   6.801
 6853SOL    HW221459   6.299   3.658   6.917
 6854SOL     OW21460   5.884   0.992   5.825
 6854SOL    HW121461   5.937   1.044   5.892
 6854SOL    HW221462   5.873   0.898   5.857
 6855SOL     OW21463   3.382   6.482   2.667
 6855SOL    HW121464   3.457   6.421   2.640
 6855SOL    HW221465   3.416   6.576   2.673
 6856SOL     OW21466   4.799   4.414   5.407
 6856SOL    HW121467   4.767   4.331   5.363
 6856SOL    HW221468   4.810   4.397   5.505
 6857SOL     OW21469   3.221   1.358   6.756
 6857SOL    HW121470   3.230   1.457   6.757
 6857SOL    HW221471   3.258   1.320   6.841
 6858SOL     OW21472   4.114   3.470   4.897
 6858SOL    HW121473   4.161   3.492   4.982
 6858SOL    HW221474   4.145   3.381   4.863
 6859SOL     OW21475   1.123   6.535   1.060
 6859SOL    HW121476   1.090   6.459   1.004
 6859SOL    HW221477   1.219   6.552   1.041
 6860SOL     OW21478   5.873   5.121   1.911
 6860SOL    HW121479   5.831   5.038   1.947
 6860SOL    HW221480   5.849   5.199   1.969
 6861SOL     OW21481   5.808   4.402   1.699
 6861SOL    HW121482   5.789   4.499   1.714
 6861SOL    HW221483   5.828   4.359   1.787
 6862SOL     OW21484   2.161   4.261   4.507
 6862SOL    HW121485   2.092   4.257   4.580
 6862SOL    HW221486   2.236   4.198   4.529
 6863SOL     OW21487   5.687   1.587   4.479
 6863SOL    HW121488   5.709   1.684   4.468
 6863SOL    HW221489   5.752   1.533   4.425
 6864SOL     OW21490   3.570   5.853   3.636
 6864SOL    HW121491   3.510   5.871   3.558
 6864SOL    HW221492   3.514   5.831   3.717
 6865SOL     OW21493   6.232   5.246   3.041
 6865SOL    HW121494   6.315   5.260   3.096
 6865SOL    HW221495   6.225   5.319   2.973
 6866SOL     OW21496   5.956   4.188   2.165
 6866SOL    HW121497   5.866   4.145   2.174
 6866SOL    HW221498   5.962   4.266   2.227
 6867SOL     OW21499   1.238   4.950   1.488
 6867SOL    HW121500   1.140   4.953   1.468
 6867SOL    HW221501   1.288   4.931   1.404
 6868SOL     OW21502   1.731   5.446   5.042
 6868SOL    HW121503   1.723   5.377   5.114
 6868SOL    HW221504   1.828   5.471   5.031
 6869SOL     OW21505   6.013   2.626   5.195
 6869SOL    HW121506   6.047   2.713   5.159
 6869SOL    HW221507   5.913   2.628   5.199
 6870SOL     OW21508   6.538   3.276   2.675
 6870SOL    HW121509   6.477   3.253   2.599
 6870SOL    HW221510   6.618   3.324   2.640
 6871SOL     OW21511   5.841   4.795   2.546
 6871SOL    HW121512   5.829   4.740   2.463
 6871SOL    HW221513   5.877   4.738   2.619
 6872SOL     OW21514   1.629   3.275   0.809
 6872SOL    HW121515   1.594   3.200   0.865
 6872SOL    HW221516   1.692   3.239   0.740
 6873SOL     OW21517   6.025   3.613   5.220
 6873SOL    HW121518   6.091   3.539   5.207
 6873SOL    HW221519   5.939   3.589   5.175
 6874SOL     OW21520   0.293   4.678   3.205
 6874SOL    HW121521   0.345   4.754   3.243
 6874SOL    HW221522   0.269   4.699   3.110
 6875SOL     OW21523   1.493   2.465   3.432
 6875SOL    HW121524   1.527   2.398   3.366
 6875SOL    HW221525   1.498   2.557   3.392
 6876SOL     OW21526   4.330   5.141   5.825
 6876SOL    HW121527   4.420   5.153   5.784
 6876SOL    HW221528   4.283   5.229   5.830
 6877SOL     OW21529   2.368   4.035   6.475
 6877SOL    HW121530   2.424   4.095   6.418
 6877SOL    HW221531   2.271   4.052   6.455
 6878SOL     OW21532   2.251   2.341   5.223
 6878SOL    HW121533   2.276   2.426   5.176
 6878SOL    HW221534   2.306   2.330   5.305
 6879SOL     OW21535   1.087   1.581   0.243
 6879SOL    HW121536   1.061   1.601   0.149
 6879SOL    HW221537   1.005   1.581   0.301
 6880SOL     OW21538   2.178   3.319   5.128
 6880SOL    HW121539   2.109   3.325   5.200
 6880SOL    HW221540   2.141   3.272   5.049
 6881SOL     OW21541   6.848   3.734   2.406
 6881SOL    HW121542   6.810   3.669   2.473
 6881SOL    HW221543   6.842   3.695   2.314
 6882SOL     OW21544   2.516   0.160   5.689
 6882SOL    HW121545   2.614   0.177   5.676
 6882SOL    HW221546   2.488   0.198   5.777
 6883SOL     OW21547   3.711   1.270   1.619
 6883SOL    HW121548   3.717   1.347   1.683
 6883SOL    HW221549   3.708   1.184   1.670
 6884SOL     OW21550   1.618   3.288   4.531
 6884SOL    HW121551   1.688   3.244   4.586
 6884SOL    HW221552   1.642   3.384   4.517
 6885SOL     OW21553   3.757   5.610   4.395
 6885SOL    HW121554   3.770   5.568   4.306
 6885SOL    HW221555   3.845   5.619   4.442
 6886SOL     OW21556   0.187   0.902   2.954
 6886SOL    HW121557   0.275   0.908   2.906
 6886SOL    HW221558   0.204   0.881   3.051
 6887SOL     OW21559   4.984   6.968   5.680
 6887SOL    HW121560   5.042   7.010   5.610
 6887SOL    HW221561   4.933   0.015   5.728
 6888SOL     OW21562   5.676   6.654   6.460
 6888SOL    HW121563   5.761   6.603   6.451
 6888SOL    HW221564   5.656   6.700   6.373
 6889SOL     OW21565   0.738   2.478   6.123
 6889SOL    HW121566   0.799   2.512   6.051
 6889SOL    HW221567   0.651   2.526   6.118
 6890SOL     OW21568   2.935   6.063   1.247
 6890SOL    HW121569   2.891   6.153   1.248
 6890SOL    HW221570   3.023   6.068   1.295
 6891SOL     OW21571   2.118   3.864   4.725
 6891SOL    HW121572   2.092   3.768   4.737
 6891SOL    HW221573   2.191   3.887   4.789
 6892SOL     OW21574   3.404   0.900   3.567
 6892SOL    HW121575   3.439   0.990   3.539
 6892SOL    HW221576   3.383   0.846   3.486
 6893SOL     OW21577   5.688   5.777   0.960
 6893SOL    HW121578   5.784   5.799   0.941
 6893SOL    HW221579   5.664   5.809   1.052
 6894SOL     OW21580   6.351   5.434   6.671
 6894SOL    HW121581   6.373   5.340   6.698
 6894SOL    HW221582   6.397   5.498   6.731
 6895SOL     OW21583   2.917   4.982   6.925
 6895SOL    HW121584   2.836   4.924   6.922
 6895SOL    HW221585   2.921   5.029   7.014
 6896SOL     OW21586   3.051   6.972   4.320
 6896SOL    HW121587   2.988   6.929   4.256
 6896SOL    HW221588   3.129   7.009   4.270
 6897SOL     OW21589   2.156   3.629   0.150
 6897SOL    HW121590   2.134   3.650   0.055
 6897SOL    HW221591   2.105   3.547   0.178
 6898SOL     OW21592   3.521   1.777   1.834
 6898SOL    HW121593   3.553   1.711   1.765
 6898SOL    HW221594   3.421   1.779   1.833
 6899SOL     OW21595   4.799   6.894   0.623
 6899SOL    HW121596   4.717   6.929   0.668
 6899SOL    HW221597   4.880   6.918   0.677
 6900SOL     OW21598   6.045   0.479   6.269
 6900SOL    HW121599   5.960   0.484   6.322
 6900SOL    HW221600   6.024   0.483   6.171
 6901SOL     OW21601   0.862   0.212   6.131
 6901SOL    HW121602   0.764   0.221   6.116
 6901SOL    HW221603   0.901   0.153   6.061
 6902SOL     OW21604   0.297   6.205   0.592
 6902SOL    HW121605   0.255   6.120   0.625
 6902SOL    HW221606   0.380   6.224   0.646
 6903SOL     OW21607   4.161   4.685   5.795
 6903SOL    HW121608   4.261   4.683   5.801
 6903SOL    HW221609   4.124   4.594   5.814
 6904SOL     OW21610   6.235   1.214   4.231
 6904SOL    HW121611   6.331   1.199   4.254
 6904SOL    HW221612   6.226   1.296   4.176
 6905SOL     OW21613   6.117   6.763   0.055
 6905SOL    HW121614   6.137   6.827   0.130
 6905SOL    HW221615   6.091   6.814   6.998
 6906SOL     OW21616   4.302   0.890   3.921
 6906SOL    HW121617   4.205   0.899   3.897
 6906SOL    HW221618   4.315   0.918   4.016
 6907SOL     OW21619   4.764   0.649   0.946
 6907SOL    HW121620   4.800   0.600   0.866
 6907SOL    HW221621   4.734   0.584   1.015
 6908SOL     OW21622   1.385   6.661   5.304
 6908SOL    HW121623   1.285   6.667   5.299
 6908SOL    HW221624   1.421   6.741   5.353
 6909SOL     OW21625   5.456   4.794   1.190
 6909SOL    HW121626   5.429   4.754   1.278
 6909SOL    HW221627   5.518   4.871   1.206
 6910SOL     OW21628   6.469   2.435   3.246
 6910SOL    HW121629   6.453   2.371   3.171
 6910SOL    HW221630   6.447   2.391   3.333
 6911SOL     OW21631   3.856   6.793   3.223
 6911SOL    HW121632   3.772   6.767   3.271
 6911SOL    HW221633   3.893   6.714   3.175
 6912SOL     OW21634   4.681   4.411   1.625
 6912SOL    HW121635   4.680   4.464   1.710
 6912SOL    HW221636   4.592   4.368   1.612
 6913SOL     OW21637   4.732   4.996   5.979
 6913SOL    HW121638   4.801   4.974   5.910
 6913SOL    HW221639   4.649   5.029   5.934
 6914SOL     OW21640   6.184   4.725   6.916
 6914SOL    HW121641   6.167   4.763   6.825
 6914SOL    HW221642   6.144   4.633   6.922
 6915SOL     OW21643   6.812   4.444   1.781
 6915SOL    HW121644   6.895   4.420   1.730
 6915SOL    HW221645   6.838   4.492   1.865
 6916SOL     OW21646   5.839   4.209   0.160
 6916SOL    HW121647   5.889   4.276   0.214
 6916SOL    HW221648   5.798   4.254   0.080
 6917SOL     OW21649   3.249   4.987   0.321
 6917SOL    HW121650   3.309   5.038   0.383
 6917SOL    HW221651   3.289   4.986   0.229
 6918SOL     OW21652   0.937   4.104   4.586
 6918SOL    HW121653   0.970   4.010   4.593
 6918SOL    HW221654   0.849   4.105   4.538
 6919SOL     OW21655   0.743   5.697   3.285
 6919SOL    HW121656   0.695   5.614   3.257
 6919SOL    HW221657   0.703   5.732   3.370
 6920SOL     OW21658   3.890   5.706   6.014
 6920SOL    HW121659   3.812   5.768   6.005
 6920SOL    HW221660   3.940   5.728   6.098
 6921SOL     OW21661   4.730   5.544   3.337
 6921SOL    HW121662   4.823   5.553   3.371
 6921SOL    HW221663   4.670   5.511   3.410
 6922SOL     OW21664   1.998   5.770   0.011
 6922SOL    HW121665   1.925   5.774   0.080
 6922SOL    HW221666   1.962   5.802   6.947
 6923SOL     OW21667   5.605   6.436   3.322
 6923SOL    HW121668   5.519   6.478   3.350
 6923SOL    HW221669   5.644   6.386   3.400
 6924SOL     OW21670   0.524   4.230   6.884
 6924SOL    HW121671   0.565   4.253   6.796
 6924SOL    HW221672   0.427   4.255   6.882
 6925SOL     OW21673   3.525   6.119   4.381
 6925SOL    HW121674   3.540   6.085   4.474
 6925SOL    HW221675   3.599   6.088   4.323
 6926SOL     OW21676   2.965   3.147   2.041
 6926SOL    HW121677   2.951   3.228   2.099
 6926SOL    HW221678   2.943   3.170   1.946
 6927SOL     OW21679   5.899   3.782   5.825
 6927SOL    HW121680   5.805   3.757   5.802
 6927SOL    HW221681   5.954   3.786   5.742
 6928SOL     OW21682   6.533   6.461   0.547
 6928SOL    HW121683   6.477   6.474   0.629
 6928SOL    HW221684   6.481   6.486   0.466
 6929SOL     OW21685   5.003   5.569   0.809
 6929SOL    HW121686   4.921   5.546   0.861
 6929SOL    HW221687   4.999   5.664   0.779
 6930SOL     OW21688   6.835   6.571   1.598
 6930SOL    HW121689   6.886   6.559   1.683
 6930SOL    HW221690   6.879   6.641   1.542
 6931SOL     OW21691   1.198   0.684   2.174
 6931SOL    HW121692   1.122   0.748   2.163
 6931SOL    HW221693   1.230   0.686   2.269
 6932SOL     OW21694   4.056   0.862   0.902
 6932SOL    HW121695   4.019   0.910   0.822
 6932SOL    HW221696   3.980   0.823   0.955
 6933SOL     OW21697   3.913   6.334   4.786
 6933SOL    HW121698   4.003   6.371   4.764
 6933SOL    HW221699   3.845   6.408   4.785
 6934SOL     OW21700   4.639   4.196   5.850
 6934SOL    HW121701   4.655   4.154   5.761
 6934SOL    HW221702   4.723   4.195   5.903
 6935SOL     OW21703   4.346   6.075   3.099
 6935SOL    HW121704   4.309   6.133   3.026
 6935SOL    HW221705   4.270   6.034   3.149
 6936SOL     OW21706   6.728   2.626   2.468
 6936SOL    HW121707   6.796   2.629   2.542
 6936SOL    HW221708   6.638   2.649   2.505
 6937SOL     OW21709   6.140   6.318   6.992
 6937SOL    HW121710   6.051   6.328   0.012
 6937SOL    HW221711   6.209   6.293   0.036
 6938SOL     OW21712   5.099   4.062   5.100
 6938SOL    HW121713   5.048   4.128   5.155
 6938SOL    HW221714   5.040   3.986   5.075
 6939SOL     OW21715   6.873   4.674   1.492
 6939SOL    HW121716   6.916   4.750   1.444
 6939SOL    HW221717   6.898   4.588   1.447
 6940SOL     OW21718   5.070   1.405   0.597
 6940SOL    HW121719   5.037   1.338   0.664
 6940SOL    HW221720   5.000   1.418   0.527
 6941SOL     OW21721   3.587   2.855   2.920
 6941SOL    HW121722   3.678   2.887   2.948
 6941SOL    HW221723   3.589   2.830   2.824
 6942SOL     OW21724   6.632   2.757   0.878
 6942SOL    HW121725   6.666   2.796   0.793
 6942SOL    HW221726   6.532   2.758   0.878
 6943SOL     OW21727   4.631   6.386   0.036
 6943SOL    HW121728   4.681   6.328   0.100
 6943SOL    HW221729   4.584   6.330   6.993
 6944SOL     OW21730   1.039   4.549   5.875
 6944SOL    HW121731   1.095   4.475   5.913
 6944SOL    HW221732   1.098   4.612   5.825
 6945SOL     OW21733   6.126   3.211   6.298
 6945SOL    HW121734   6.104   3.303   6.266
 6945SOL    HW221735   6.213   3.182   6.256
 6946SOL     OW21736   6.543   5.948   2.515
 6946SOL    HW121737   6.594   5.913   2.436
 6946SOL    HW221738   6.461   5.996   2.484
 6947SOL     OW21739   3.238   6.909   5.035
 6947SOL    HW121740   3.150   6.958   5.029
 6947SOL    HW221741   3.231   6.837   5.104
 6948SOL     OW21742   6.346   0.868   0.221
 6948SOL    HW121743   6.377   0.819   0.302
 6948SOL    HW221744   6.293   0.949   0.249
 6949SOL     OW21745   5.410   0.274   4.054
 6949SOL    HW121746   5.403   0.309   3.961
 6949SOL    HW221747   5.346   0.323   4.113
 6950SOL     OW21748   2.358   0.420   3.647
 6950SOL    HW121749   2.435   0.449   3.590
 6950SOL    HW221750   2.384   0.422   3.743
 6951SOL     OW21751   5.995   6.316   5.942
 6951SOL    HW121752   5.987   6.303   5.843
 6951SOL    HW221753   5.966   6.232   5.989
 6952SOL     OW21754   6.959   5.778   3.769
 6952SOL    HW121755   6.900   5.699   3.754
 6952SOL    HW221756   6.930   5.826   3.852
 6953SOL     OW21757   4.819   0.445   6.751
 6953SOL    HW121758   4.899   0.436   6.691
 6953SOL    HW221759   4.754   0.371   6.733
 6954SOL     OW21760   0.631   3.545   4.150
 6954SOL    HW121761   0.560   3.605   4.114
 6954SOL    HW221762   0.656   3.476   4.082
 6955SOL     OW21763   6.897   0.434   2.743
 6955SOL    HW121764   6.836   0.505   2.780
 6955SOL    HW221765   6.871   0.414   2.649
 6956SOL     OW21766   4.830   6.620   2.168
 6956SOL    HW121767   4.758   6.620   2.238
 6956SOL    HW221768   4.804   6.558   2.094
 6957SOL     OW21769   5.574   4.969   1.691
 6957SOL    HW121770   5.518   5.029   1.634
 6957SOL    HW221771   5.671   4.986   1.674
 6958SOL     OW21772   2.990   4.113   5.186
 6958SOL    HW121773   2.983   4.016   5.207
 6958SOL    HW221774   2.956   4.129   5.093
 6959SOL     OW21775   2.717   1.061   4.608
 6959SOL    HW121776   2.690   1.040   4.702
 6959SOL    HW221777   2.716   1.160   4.595
 6960SOL     OW21778   1.250   5.346   1.142
 6960SOL    HW121779   1.337   5.311   1.177
 6960SOL    HW221780   1.207   5.276   1.085
 6961SOL     OW21781   6.652   2.828   4.142
 6961SOL    HW121782   6.733   2.774   4.120
 6961SOL    HW221783   6.672   2.888   4.219
 6962SOL     OW21784   4.910   5.469   2.312
 6962SOL    HW121785   4.980   5.492   2.245
 6962SOL    HW221786   4.827   5.522   2.294
 6963SOL     OW21787   6.846   5.248   0.703
 6963SOL    HW121788   6.779   5.178   0.679
 6963SOL    HW221789   6.827   5.282   0.796
 6964SOL     OW21790   4.598   4.826   4.246
 6964SOL    HW121791   4.569   4.739   4.206
 6964SOL    HW221792   4.694   4.841   4.225
 6965SOL     OW21793   0.760   3.636   5.981
 6965SOL    HW121794   0.719   3.615   6.070
 6965SOL    HW221795   0.769   3.552   5.927
 6966SOL     OW21796   6.428   2.199   3.104
 6966SOL    HW121797   6.459   2.170   3.013
 6966SOL    HW221798   6.342   2.153   3.126
 6967SOL     OW21799   1.938   0.749   5.594
 6967SOL    HW121800   1.875   0.712   5.662
 6967SOL    HW221801   1.926   0.848   5.588
 6968SOL     OW21802   3.439   6.762   2.205
 6968SOL    HW121803   3.423   6.739   2.300
 6968SOL    HW221804   3.488   6.850   2.200
 6969SOL     OW21805   3.521   2.022   1.499
 6969SOL    HW121806   3.482   2.088   1.563
 6969SOL    HW221807   3.451   1.955   1.473
 6970SOL     OW21808   4.575   3.946   0.537
 6970SOL    HW121809   4.567   4.044   0.517
 6970SOL    HW221810   4.484   3.907   0.551
 6971SOL     OW21811   6.855   4.110   2.074
 6971SOL    HW121812   6.939   4.149   2.037
 6971SOL    HW221813   6.852   4.012   2.054
 6972SOL     OW21814   5.169   5.451   4.133
 6972SOL    HW121815   5.204   5.380   4.193
 6972SOL    HW221816   5.243   5.488   4.077
 6973SOL     OW21817   0.891   3.809   5.126
 6973SOL    HW121818   0.857   3.715   5.114
 6973SOL    HW221819   0.948   3.833   5.047
 6974SOL     OW21820   3.197   2.957   3.181
 6974SOL    HW121821   3.231   3.051   3.167
 6974SOL    HW221822   3.275   2.896   3.196
 6975SOL     OW21823   2.557   6.323   5.966
 6975SOL    HW121824   2.605   6.396   5.918
 6975SOL    HW221825   2.577   6.329   6.064
 6976SOL     OW21826   4.263   4.930   5.502
 6976SOL    HW121827   4.358   4.920   5.530
 6976SOL    HW221828   4.204   4.929   5.583
 6977SOL     OW21829   4.452   2.480   1.812
 6977SOL    HW121830   4.403   2.459   1.897
 6977SOL    HW221831   4.407   2.555   1.764
 6978SOL     OW21832   6.051   2.366   1.666
 6978SOL    HW121833   5.974   2.341   1.607
 6978SOL    HW221834   6.137   2.339   1.622
 6979SOL     OW21835   1.456   5.132   0.618
 6979SOL    HW121836   1.451   5.082   0.531
 6979SOL    HW221837   1.541   5.108   0.666
 6980SOL     OW21838   1.894   0.831   3.489
 6980SOL    HW121839   1.965   0.823   3.559
 6980SOL    HW221840   1.936   0.853   3.401
 6981SOL     OW21841   2.738   2.944   6.761
 6981SOL    HW121842   2.686   3.027   6.780
 6981SOL    HW221843   2.828   2.949   6.804
 6982SOL     OW21844   1.066   1.076   4.175
 6982SOL    HW121845   0.990   1.074   4.110
 6982SOL    HW221846   1.115   0.989   4.172
 6983SOL     OW21847   5.090   1.875   3.331
 6983SOL    HW121848   5.051   1.827   3.409
 6983SOL    HW221849   5.189   1.864   3.331
 6984SOL     OW21850   2.366   2.353   4.249
 6984SOL    HW121851   2.333   2.301   4.170
 6984SOL    HW221852   2.464   2.372   4.238
 6985SOL     OW21853   3.701   5.462   1.757
 6985SOL    HW121854   3.670   5.488   1.849
 6985SOL    HW221855   3.753   5.538   1.717
 6986SOL     OW21856   2.048   6.050   6.433
 6986SOL    HW121857   2.027   6.117   6.361
 6986SOL    HW221858   2.100   5.974   6.393
 6987SOL     OW21859   0.186   1.791   6.098
 6987SOL    HW121860   0.088   1.812   6.105
 6987SOL    HW221861   0.203   1.700   6.134
 6988SOL     OW21862   6.581   1.075   5.823
 6988SOL    HW121863   6.606   1.050   5.729
 6988SOL    HW221864   6.588   0.995   5.882
 6989SOL     OW21865   0.468   3.706   3.120
 6989SOL    HW121866   0.549   3.673   3.073
 6989SOL    HW221867   0.388   3.653   3.092
 6990SOL     OW21868   5.210   2.135   1.020
 6990SOL    HW121869   5.134   2.070   1.018
 6990SOL    HW221870   5.196   2.204   0.950
 6991SOL     OW21871   2.756   4.760   3.774
 6991SOL    HW121872   2.848   4.749   3.737
 6991SOL    HW221873   2.689   4.724   3.708
 6992SOL     OW21874   5.577   6.405   5.164
 6992SOL    HW121875   5.519   6.468   5.216
 6992SOL    HW221876   5.671   6.440   5.163
 6993SOL     OW21877   0.030   0.719   2.846
 6993SOL    HW121878   6.998   0.696   2.926
 6993SOL    HW221879   0.076   0.807   2.862
 6994SOL     OW21880   1.028   3.405   4.959
 6994SOL    HW121881   1.092   3.473   4.996
 6994SOL    HW221882   1.075   3.350   4.890
 6995SOL     OW21883   6.371   5.284   6.265
 6995SOL    HW121884   6.322   5.249   6.185
 6995SOL    HW221885   6.455   5.330   6.235
 6996SOL     OW21886   2.269   0.813   5.936
 6996SOL    HW121887   2.239   0.842   6.026
 6996SOL    HW221888   2.364   0.841   5.921
 6997SOL     OW21889   5.957   5.743   5.259
 6997SOL    HW121890   5.983   5.809   5.330
 6997SOL    HW221891   5.875   5.776   5.212
 6998SOL     OW21892   2.466   2.660   1.495
 6998SOL    HW121893   2.369   2.639   1.507
 6998SOL    HW221894   2.499   2.710   1.575
 6999SOL     OW21895   2.279   2.454   6.229
 6999SOL    HW121896   2.308   2.468   6.324
 6999SOL    HW221897   2.327   2.375   6.191
 7000SOL     OW21898   6.269   5.431   2.172
 7000SOL    HW121899   6.330   5.414   2.249
 7000SOL    HW221900   6.310   5.501   2.112
 7001SOL     OW21901   2.728   3.102   5.348
 7001SOL    HW121902   2.647   3.084   5.292
 7001SOL    HW221903   2.798   3.033   5.329
 7002SOL     OW21904   1.959   5.073   3.047
 7002SOL    HW121905   1.988   5.135   2.975
 7002SOL    HW221906   1.860   5.080   3.059
 7003SOL     OW21907   3.838   5.245   6.850
 7003SOL    HW121908   3.881   5.246   6.760
 7003SOL    HW221909   3.901   5.203   6.916
 7004SOL     OW21910   1.897   5.012   1.468
 7004SOL    HW121911   1.906   5.014   1.567
 7004SOL    HW221912   1.986   4.991   1.426
 7005SOL     OW21913   1.427   6.690   6.621
 7005SOL    HW121914   1.501   6.685   6.554
 7005SOL    HW221915   1.444   6.625   6.694
 7006SOL     OW21916   5.215   4.731   4.894
 7006SOL    HW121917   5.195   4.633   4.903
 7006SOL    HW221918   5.204   4.758   4.799
 7007SOL     OW21919   4.754   6.852   3.462
 7007SOL    HW121920   4.761   6.774   3.399
 7007SOL    HW221921   4.690   6.829   3.535
 7008SOL     OW21922   1.542   5.269   4.951
 7008SOL    HW121923   1.612   5.334   4.980
 7008SOL    HW221924   1.550   5.185   5.005
 7009SOL     OW21925   6.125   5.512   2.399
 7009SOL    HW121926   6.181   5.456   2.461
 7009SOL    HW221927   6.071   5.452   2.340
 7010SOL     OW21928   4.203   4.073   6.190
 7010SOL    HW121929   4.121   4.092   6.137
 7010SOL    HW221930   4.235   3.980   6.170
 7011SOL     OW21931   2.468   0.517   6.370
 7011SOL    HW121932   2.447   0.554   6.460
 7011SOL    HW221933   2.566   0.497   6.364
 7012SOL     OW21934   1.854   0.993   2.250
 7012SOL    HW121935   1.834   1.054   2.326
 7012SOL    HW221936   1.935   1.026   2.201
 7013SOL     OW21937   0.306   6.755   0.448
 7013SOL    HW121938   0.317   6.684   0.378
 7013SOL    HW221939   0.279   6.840   0.404
 7014SOL     OW21940   5.189   3.075   1.820
 7014SOL    HW121941   5.102   3.035   1.850
 7014SOL    HW221942   5.235   3.011   1.759
 7015SOL     OW21943   5.566   4.860   2.731
 7015SOL    HW121944   5.592   4.773   2.688
 7015SOL    HW221945   5.645   4.922   2.731
 7016SOL     OW21946   3.716   4.652   1.571
 7016SOL    HW121947   3.657   4.701   1.507
 7016SOL    HW221948   3.668   4.641   1.658
 7017SOL     OW21949   2.030   7.009   2.297
 7017SOL    HW121950   2.118   0.019   2.332
 7017SOL    HW221951   2.017   6.915   2.326
 7018SOL     OW21952   5.999   4.539   4.974
 7018SOL    HW121953   6.033   4.446   4.988
 7018SOL    HW221954   5.950   4.569   5.057
 7019SOL     OW21955   2.627   3.494   6.657
 7019SOL    HW121956   2.721   3.496   6.623
 7019SOL    HW221957   2.626   3.472   6.754
 7020SOL     OW21958   6.095   0.132   6.847
 7020SOL    HW121959   6.099   0.193   6.925
 7020SOL    HW221960   6.187   0.119   6.810
 7021SOL     OW21961   1.997   1.378   5.497
 7021SOL    HW121962   1.946   1.317   5.557
 7021SOL    HW221963   2.075   1.329   5.457
 7022SOL     OW21964   4.623   5.387   0.713
 7022SOL    HW121965   4.611   5.290   0.737
 7022SOL    HW221966   4.564   5.409   0.636
 7023SOL     OW21967   0.279   1.826   3.366
 7023SOL    HW121968   0.314   1.863   3.452
 7023SOL    HW221969   0.191   1.782   3.383
 7024SOL     OW21970   1.194   4.980   5.510
 7024SOL    HW121971   1.269   5.047   5.515
 7024SOL    HW221972   1.230   4.888   5.526
 7025SOL     OW21973   2.560   1.109   0.041
 7025SOL    HW121974   2.475   1.135   7.020
 7025SOL    HW221975   2.595   1.187   0.093
 7026SOL     OW21976   2.607   1.790   2.085
 7026SOL    HW121977   2.507   1.800   2.085
 7026SOL    HW221978   2.637   1.757   1.996
 7027SOL     OW21979   2.577   4.765   3.556
 7027SOL    HW121980   2.572   4.864   3.548
 7027SOL    HW221981   2.485   4.727   3.564
 7028SOL     OW21982   5.440   6.517   4.299
 7028SOL    HW121983   5.385   6.434   4.308
 7028SOL    HW221984   5.431   6.572   4.383
 7029SOL     OW21985   4.145   6.081   6.049
 7029SOL    HW121986   4.060   6.089   5.998
 7029SOL    HW221987   4.174   6.172   6.080
 7030SOL     OW21988   6.630   2.497   5.556
 7030SOL    HW121989   6.641   2.445   5.640
 7030SOL    HW221990   6.696   2.573   5.554
 7031SOL     OW21991   2.337   6.674   4.798
 7031SOL    HW121992   2.240   6.656   4.818
 7031SOL    HW221993   2.394   6.624   4.863
 7032SOL     OW21994   3.524   6.683   3.758
 7032SOL    HW121995   3.492   6.711   3.668
 7032SOL    HW221996   3.446   6.653   3.813
 7033SOL     OW21997   0.421   2.062   3.950
 7033SOL    HW121998   0.371   2.148   3.942
 7033SOL    HW221999   0.357   1.986   3.944
 7034SOL     OW22000   5.811   0.238   3.127
 7034SOL    HW122001   5.882   0.175   3.097
 7034SOL    HW222002   5.780   0.212   3.218
 7035SOL     OW22003   1.147   6.587   1.920
 7035SOL    HW122004   1.203   6.565   1.841
 7035SOL    HW222005   1.055   6.550   1.907
 7036SOL     OW22006   0.138   0.797   2.207
 7036SOL    HW122007   0.202   0.837   2.142
 7036SOL    HW222008   0.123   0.860   2.283
 7037SOL     OW22009   1.569   0.529   6.214
 7037SOL    HW122010   1.487   0.578   6.186
 7037SOL    HW222011   1.641   0.543   6.147
 7038SOL     OW22012   1.523   3.019   4.167
 7038SOL    HW122013   1.522   3.117   4.186
 7038SOL    HW222014   1.445   2.995   4.109
 7039SOL     OW22015   2.994   5.481   1.508
 7039SOL    HW122016   2.952   5.420   1.576
 7039SOL    HW222017   2.923   5.534   1.462
 7040SOL     OW22018   6.034   2.088   4.703
 7040SOL    HW122019   6.121   2.136   4.717
 7040SOL    HW222020   6.051   2.001   4.658
 7041SOL     OW22021   0.660   2.295   2.414
 7041SOL    HW122022   0.659   2.237   2.332
 7041SOL    HW222023   0.595   2.370   2.402
 7042SOL     OW22024   5.606   5.417   6.880
 7042SOL    HW122025   5.511   5.389   6.895
 7042SOL    HW222026   5.666   5.338   6.887
 7043SOL     OW22027   2.298   2.904   3.308
 7043SOL    HW122028   2.363   2.829   3.309
 7043SOL    HW222029   2.213   2.875   3.353
 7044SOL     OW22030   4.628   5.081   2.337
 7044SOL    HW122031   4.592   5.162   2.383
 7044SOL    HW222032   4.697   5.108   2.270
 7045SOL     OW22033   4.733   5.766   2.493
 7045SOL    HW122034   4.789   5.708   2.553
 7045SOL    HW222035   4.700   5.845   2.545
 7046SOL     OW22036   3.897   1.877   3.060
 7046SOL    HW122037   3.800   1.873   3.085
 7046SOL    HW222038   3.906   1.863   2.962
 7047SOL     OW22039   0.989   2.708   2.320
 7047SOL    HW122040   1.040   2.792   2.343
 7047SOL    HW222041   0.992   2.645   2.397
 7048SOL     OW22042   0.428   5.785   2.070
 7048SOL    HW122043   0.367   5.842   2.015
 7048SOL    HW222044   0.396   5.691   2.069
 7049SOL     OW22045   2.372   1.648   1.421
 7049SOL    HW122046   2.294   1.660   1.482
 7049SOL    HW222047   2.384   1.731   1.366
 7050SOL     OW22048   4.066   3.404   2.655
 7050SOL    HW122049   4.136   3.358   2.601
 7050SOL    HW222050   4.053   3.497   2.621
 7051SOL     OW22051   6.967   0.577   1.253
 7051SOL    HW122052   6.917   0.533   1.328
 7051SOL    HW222053   0.030   0.610   1.286
 7052SOL     OW22054   5.773   2.717   3.576
 7052SOL    HW122055   5.801   2.771   3.497
 7052SOL    HW222056   5.784   2.771   3.659
 7053SOL     OW22057   0.598   3.300   4.696
 7053SOL    HW122058   0.606   3.273   4.792
 7053SOL    HW222059   0.630   3.394   4.685
 7054SOL     OW22060   0.484   6.372   0.908
 7054SOL    HW122061   0.431   6.369   0.993
 7054SOL    HW222062   0.466   6.459   0.861
 7055SOL     OW22063   3.692   5.742   5.277
 7055SOL    HW122064   3.787   5.725   5.251
 7055SOL    HW222065   3.643   5.655   5.283
 7056SOL     OW22066   5.268   5.920   2.437
 7056SOL    HW122067   5.239   5.943   2.344
 7056SOL    HW222068   5.329   5.841   2.434
 7057SOL     OW22069   1.350   6.174   3.544
 7057SOL    HW122070   1.383   6.268   3.544
 7057SOL    HW222071   1.280   6.164   3.473
 7058SOL     OW22072   6.807   5.522   6.310
 7058SOL    HW122073   6.892   5.570   6.287
 7058SOL    HW222074   6.783   5.542   6.405
 7059SOL     OW22075   6.998   0.864   3.319
 7059SOL    HW122076   6.992   0.791   3.250
 7059SOL    HW222077   6.927   0.851   3.387
 7060SOL     OW22078   4.109   0.267   2.013
 7060SOL    HW122079   4.073   0.199   2.077
 7060SOL    HW222080   4.050   0.270   1.932
 7061SOL     OW22081   0.108   3.286   4.026
 7061SOL    HW122082   0.172   3.217   3.992
 7061SOL    HW222083   0.158   3.370   4.049
 7062SOL     OW22084   5.514   1.586   5.603
 7062SOL    HW122085   5.530   1.507   5.662
 7062SOL    HW222086   5.595   1.603   5.547
 7063SOL     OW22087   0.284   0.172   1.313
 7063SOL    HW122088   0.278   0.247   1.379
 7063SOL    HW222089   0.193   0.134   1.297
 7064SOL     OW22090   4.291   1.865   2.357
 7064SOL    HW122091   4.271   1.827   2.267
 7064SOL    HW222092   4.390   1.860   2.374
 7065SOL     OW22093   3.937   2.959   6.087
 7065SOL    HW122094   3.905   2.960   6.181
 7065SOL    HW222095   3.909   3.042   6.041
 7066SOL     OW22096   4.269   0.455   0.565
 7066SOL    HW122097   4.304   0.546   0.546
 7066SOL    HW222098   4.198   0.432   0.499
 7067SOL     OW22099   1.721   1.578   5.491
 7067SOL    HW122100   1.784   1.535   5.556
 7067SOL    HW222101   1.671   1.651   5.538
 7068SOL     OW22102   0.721   4.288   4.405
 7068SOL    HW122103   0.636   4.338   4.392
 7068SOL    HW222104   0.790   4.348   4.446
 7069SOL     OW22105   6.351   2.063   3.783
 7069SOL    HW122106   6.342   1.967   3.758
 7069SOL    HW222107   6.325   2.076   3.878
 7070SOL     OW22108   6.989   6.548   4.228
 7070SOL    HW122109   0.004   6.638   4.246
 7070SOL    HW222110   6.961   6.505   4.314
 7071SOL     OW22111   1.699   6.654   5.963
 7071SOL    HW122112   1.771   6.717   5.937
 7071SOL    HW222113   1.648   6.691   6.041
 7072SOL     OW22114   0.704   6.077   6.403
 7072SOL    HW122115   0.758   6.161   6.409
 7072SOL    HW222116   0.714   6.025   6.487
 7073SOL     OW22117   5.731   6.840   4.747
 7073SOL    HW122118   5.776   6.767   4.695
 7073SOL    HW222119   5.793   6.874   4.817
 7074SOL     OW22120   4.170   2.257   1.464
 7074SOL    HW122121   4.238   2.186   1.448
 7074SOL    HW222122   4.082   2.214   1.484
 7075SOL     OW22123   1.759   5.436   5.415
 7075SOL    HW122124   1.783   5.529   5.386
 7075SOL    HW222125   1.722   5.385   5.337
 7076SOL     OW22126   5.447   2.263   6.220
 7076SOL    HW122127   5.370   2.327   6.211
 7076SOL    HW222128   5.509   2.295   6.291
 7077SOL     OW22129   2.375   4.341   4.173
 7077SOL    HW122130   2.310   4.272   4.206
 7077SOL    HW222131   2.435   4.301   4.105
 7078SOL     OW22132   6.323   0.701   1.591
 7078SOL    HW122133   6.286   0.617   1.631
 7078SOL    HW222134   6.422   0.695   1.587
 7079SOL     OW22135   6.428   6.449   5.030
 7079SOL    HW122136   6.480   6.367   5.004
 7079SOL    HW222137   6.421   6.453   5.130
 7080SOL     OW22138   3.082   2.049   4.445
 7080SOL    HW122139   3.038   1.971   4.491
 7080SOL    HW222140   3.039   2.134   4.475
 7081SOL     OW22141   2.616   1.933   6.943
 7081SOL    HW122142   2.711   1.964   6.941
 7081SOL    HW222143   2.612   1.835   6.923
 7082SOL     OW22144   6.169   4.274   6.730
 7082SOL    HW122145   6.158   4.250   6.826
 7082SOL    HW222146   6.110   4.351   6.707
 7083SOL     OW22147   2.845   0.661   0.464
 7083SOL    HW122148   2.788   0.713   0.526
 7083SOL    HW222149   2.931   0.638   0.509
 7084SOL     OW22150   0.288   6.269   5.777
 7084SOL    HW122151   0.257   6.175   5.792
 7084SOL    HW222152   0.366   6.288   5.837
 7085SOL     OW22153   1.198   1.992   1.719
 7085SOL    HW122154   1.293   1.983   1.750
 7085SOL    HW222155   1.193   1.970   1.622
 7086SOL     OW22156   5.321   1.417   5.466
 7086SOL    HW122157   5.356   1.343   5.408
 7086SOL    HW222158   5.396   1.455   5.521
 7087SOL     OW22159   5.864   4.367   3.740
 7087SOL    HW122160   5.788   4.318   3.697
 7087SOL    HW222161   5.862   4.463   3.714
 7088SOL     OW22162   5.610   2.513   3.599
 7088SOL    HW122163   5.679   2.585   3.588
 7088SOL    HW222164   5.539   2.524   3.529
 7089SOL     OW22165   3.482   1.974   5.196
 7089SOL    HW122166   3.417   2.005   5.126
 7089SOL    HW222167   3.575   1.975   5.158
 7090SOL     OW22168   2.242   1.127   6.315
 7090SOL    HW122169   2.246   1.059   6.242
 7090SOL    HW222170   2.152   1.126   6.357
 7091SOL     OW22171   0.397   1.646   6.921
 7091SOL    HW122172   0.375   1.728   6.975
 7091SOL    HW222173   0.412   1.672   6.826
 7092SOL     OW22174   4.291   2.574   6.359
 7092SOL    HW122175   4.366   2.640   6.352
 7092SOL    HW222176   4.327   2.481   6.347
 7093SOL     OW22177   2.868   3.630   3.069
 7093SOL    HW122178   2.795   3.642   3.002
 7093SOL    HW222179   2.909   3.719   3.089
 7094SOL     OW22180   0.901   5.368   5.847
 7094SOL    HW122181   0.894   5.462   5.814
 7094SOL    HW222182   0.997   5.343   5.855
 7095SOL     OW22183   2.878   3.996   5.946
 7095SOL    HW122184   2.923   4.077   5.907
 7095SOL    HW222185   2.823   3.951   5.876
 7096SOL     OW22186   5.930   0.550   3.754
 7096SOL    HW122187   5.968   0.483   3.690
 7096SOL    HW222188   5.918   0.637   3.707
 7097SOL     OW22189   6.126   1.526   1.356
 7097SOL    HW122190   6.221   1.515   1.385
 7097SOL    HW222191   6.082   1.595   1.414
 7098SOL     OW22192   0.730   0.563   4.902
 7098SOL    HW122193   0.752   0.642   4.960
 7098SOL    HW222194   0.764   0.580   4.809
 7099SOL     OW22195   2.605   1.013   4.868
 7099SOL    HW122196   2.606   1.077   4.945
 7099SOL    HW222197   2.525   0.954   4.875
 7100SOL     OW22198   5.580   2.978   0.838
 7100SOL    HW122199   5.636   2.895   0.831
 7100SOL    HW222200   5.601   3.025   0.923
 7101SOL     OW22201   2.284   0.766   4.699
 7101SOL    HW122202   2.335   0.781   4.784
 7101SOL    HW222203   2.255   0.670   4.695
 7102SOL     OW22204   4.564   0.426   0.883
 7102SOL    HW122205   4.656   0.439   0.848
 7102SOL    HW222206   4.564   0.433   0.983
 7103SOL     OW22207   4.167   5.064   1.639
 7103SOL    HW122208   4.246   5.116   1.672
 7103SOL    HW222209   4.109   5.041   1.717
 7104SOL     OW22210   1.189   3.396   4.634
 7104SOL    HW122211   1.179   3.468   4.703
 7104SOL    HW222212   1.108   3.338   4.635
 7105SOL     OW22213   3.204   2.823   5.268
 7105SOL    HW122214   3.212   2.723   5.272
 7105SOL    HW222215   3.287   2.865   5.305
 7106SOL     OW22216   2.984   3.880   3.112
 7106SOL    HW122217   2.990   3.940   3.191
 7106SOL    HW222218   2.988   3.934   3.028
 7107SOL     OW22219   2.799   2.099   0.488
 7107SOL    HW122220   2.861   2.163   0.532
 7107SOL    HW222221   2.777   2.025   0.552
 7108SOL     OW22222   3.664   6.611   2.648
 7108SOL    HW122223   3.756   6.621   2.687
 7108SOL    HW222224   3.672   6.591   2.550
 7109SOL     OW22225   3.244   0.431   6.426
 7109SOL    HW122226   3.309   0.505   6.412
 7109SOL    HW222227   3.284   0.362   6.486
 7110SOL     OW22228   3.561   5.922   4.010
 7110SOL    HW122229   3.558   5.976   3.926
 7110SOL    HW222230   3.469   5.889   4.032
 7111SOL     OW22231   2.206   1.983   4.234
 7111SOL    HW122232   2.164   1.967   4.323
 7111SOL    HW222233   2.219   1.895   4.187
 7112SOL     OW22234   1.714   5.490   3.900
 7112SOL    HW122235   1.780   5.533   3.839
 7112SOL    HW222236   1.733   5.517   3.994
 7113SOL     OW22237   3.454   4.112   4.950
 7113SOL    HW122238   3.523   4.111   4.877
 7113SOL    HW222239   3.363   4.099   4.910
 7114SOL     OW22240   4.003   6.374   1.481
 7114SOL    HW122241   3.950   6.293   1.505
 7114SOL    HW222242   3.946   6.456   1.494
 7115SOL     OW22243   5.201   3.538   2.268
 7115SOL    HW122244   5.234   3.591   2.190
 7115SOL    HW222245   5.271   3.539   2.340
 7116SOL     OW22246   5.760   3.946   3.271
 7116SOL    HW122247   5.774   4.039   3.304
 7116SOL    HW222248   5.836   3.920   3.211
 7117SOL     OW22249   6.627   6.385   4.602
 7117SOL    HW122250   6.629   6.448   4.679
 7117SOL    HW222251   6.654   6.294   4.633
 7118SOL     OW22252   2.636   3.599   1.100
 7118SOL    HW122253   2.538   3.602   1.119
 7118SOL    HW222254   2.677   3.523   1.150
 7119SOL     OW22255   4.789   1.515   3.029
 7119SOL    HW122256   4.690   1.514   3.023
 7119SOL    HW222257   4.828   1.500   2.938
 7120SOL     OW22258   4.057   2.107   2.637
 7120SOL    HW122259   4.128   2.160   2.682
 7120SOL    HW222260   3.975   2.106   2.694
 7121SOL     OW22261   1.590   6.765   2.405
 7121SOL    HW122262   1.651   6.809   2.471
 7121SOL    HW222263   1.521   6.712   2.454
 7122SOL     OW22264   0.981   0.438   5.802
 7122SOL    HW122265   1.011   0.391   5.719
 7122SOL    HW222266   1.030   0.525   5.811
 7123SOL     OW22267   2.312   4.666   2.907
 7123SOL    HW122268   2.218   4.645   2.880
 7123SOL    HW222269   2.317   4.761   2.938
 7124SOL     OW22270   0.089   2.266   0.773
 7124SOL    HW122271   0.037   2.337   0.725
 7124SOL    HW222272   0.055   2.257   0.866
 7125SOL     OW22273   6.282   6.764   0.695
 7125SOL    HW122274   6.284   6.862   0.714
 7125SOL    HW222275   6.291   6.749   0.596
 7126SOL     OW22276   3.337   4.226   0.282
 7126SOL    HW122277   3.396   4.150   0.306
 7126SOL    HW222278   3.392   4.301   0.245
 7127SOL     OW22279   1.778   6.126   4.751
 7127SOL    HW122280   1.764   6.178   4.836
 7127SOL    HW222281   1.865   6.077   4.756
 7128SOL     OW22282   3.233   4.661   0.064
 7128SOL    HW122283   3.241   4.562   0.052
 7128SOL    HW222284   3.281   4.708   7.015
 7129SOL     OW22285   2.107   1.529   0.415
 7129SOL    HW122286   2.128   1.613   0.365
 7129SOL    HW222287   2.087   1.456   0.349
 7130SOL     OW22288   3.882   5.187   5.202
 7130SOL    HW122289   3.827   5.269   5.189
 7130SOL    HW222290   3.945   5.201   5.279
 7131SOL     OW22291   2.367   1.045   0.666
 7131SOL    HW122292   2.390   1.009   0.756
 7131SOL    HW222293   2.427   1.122   0.644
 7132SOL     OW22294   3.753   3.669   6.866
 7132SOL    HW122295   3.655   3.685   6.866
 7132SOL    HW222296   3.790   3.689   6.775
 7133SOL     OW22297   5.054   5.637   5.092
 7133SOL    HW122298   5.126   5.689   5.046
 7133SOL    HW222299   5.058   5.542   5.061
 7134SOL     OW22300   5.750   6.781   1.970
 7134SOL    HW122301   5.696   6.700   1.994
 7134SOL    HW222302   5.735   6.852   2.038
 7135SOL     OW22303   1.240   3.339   2.674
 7135SOL    HW122304   1.234   3.272   2.748
 7135SOL    HW222305   1.276   3.296   2.591
 7136SOL     OW22306   1.795   2.772   0.940
 7136SOL    HW122307   1.763   2.678   0.928
 7136SOL    HW222308   1.846   2.779   1.026
 7137SOL     OW22309   4.239   0.349   7.000
 7137SOL    HW122310   4.211   0.428   6.946
 7137SOL    HW222311   4.163   0.283   7.003
 7138SOL     OW22312   1.727   2.896   0.012
 7138SOL    HW122313   1.669   2.828   0.055
 7138SOL    HW222314   1.671   2.972   7.002
 7139SOL     OW22315   5.508   3.789   2.408
 7139SOL    HW122316   5.567   3.776   2.328
 7139SOL    HW222317   5.464   3.702   2.430
 7140SOL     OW22318   5.430   4.888   4.658
 7140SOL    HW122319   5.464   4.812   4.712
 7140SOL    HW222320   5.340   4.865   4.620
 7141SOL     OW22321   3.410   6.115   1.294
 7141SOL    HW122322   3.441   6.208   1.273
 7141SOL    HW222323   3.461   6.081   1.374
 7142SOL     OW22324   4.099   6.980   3.480
 7142SOL    HW122325   4.186   6.933   3.463
 7142SOL    HW222326   4.025   6.914   3.476
 7143SOL     OW22327   1.426   3.195   6.196
 7143SOL    HW122328   1.446   3.138   6.117
 7143SOL    HW222329   1.481   3.278   6.191
 7144SOL     OW22330   1.873   1.679   3.031
 7144SOL    HW122331   1.963   1.704   3.065
 7144SOL    HW222332   1.832   1.610   3.090
 7145SOL     OW22333   4.220   6.988   6.860
 7145SOL    HW122334   4.135   6.970   6.809
 7145SOL    HW222335   4.298   6.958   6.805
 7146SOL     OW22336   2.404   0.512   0.408
 7146SOL    HW122337   2.334   0.544   0.345
 7146SOL    HW222338   2.471   0.585   0.424
 7147SOL     OW22339   6.846   6.519   3.102
 7147SOL    HW122340   6.865   6.586   3.030
 7147SOL    HW222341   6.880   6.429   3.074
 7148SOL     OW22342   0.465   6.729   6.898
 7148SOL    HW122343   0.520   6.657   6.939
 7148SOL    HW222344   0.443   6.797   6.968
 7149SOL     OW22345   6.078   6.618   2.854
 7149SOL    HW122346   5.999   6.564   2.825
 7149SOL    HW222347   6.108   6.587   2.945
 7150SOL     OW22348   3.108   1.574   2.080
 7150SOL    HW122349   3.152   1.507   2.020
 7150SOL    HW222350   3.011   1.553   2.088
 7151SOL     OW22351   1.987   6.318   0.508
 7151SOL    HW122352   1.954   6.300   0.601
 7151SOL    HW222353   2.032   6.236   0.472
 7152SOL     OW22354   1.250   1.376   4.719
 7152SOL    HW122355   1.171   1.334   4.674
 7152SOL    HW222356   1.310   1.417   4.651
 7153SOL     OW22357   3.464   5.548   2.198
 7153SOL    HW122358   3.532   5.525   2.129
 7153SOL    HW222359   3.488   5.634   2.243
 7154SOL     OW22360   3.361   0.839   4.009
 7154SOL    HW122361   3.284   0.776   3.999
 7154SOL    HW222362   3.437   0.808   3.953
 7155SOL     OW22363   2.181   3.754   1.865
 7155SOL    HW122364   2.263   3.810   1.855
 7155SOL    HW222365   2.206   3.658   1.869
 7156SOL     OW22366   0.220   4.329   4.572
 7156SOL    HW122367   0.203   4.404   4.508
 7156SOL    HW222368   0.167   4.249   4.545
 7157SOL     OW22369   5.994   4.625   1.891
 7157SOL    HW122370   6.083   4.581   1.897
 7157SOL    HW222371   5.926   4.572   1.942
 7158SOL     OW22372   1.198   0.251   2.605
 7158SOL    HW122373   1.294   0.276   2.594
 7158SOL    HW222374   1.149   0.327   2.647
 7159SOL     OW22375   0.441   4.681   2.604
 7159SOL    HW122376   0.384   4.686   2.522
 7159SOL    HW222377   0.447   4.587   2.635
 7160SOL     OW22378   5.147   0.509   3.126
 7160SOL    HW122379   5.102   0.461   3.201
 7160SOL    HW222380   5.196   0.444   3.068
 7161SOL     OW22381   2.913   3.473   5.044
 7161SOL    HW122382   2.934   3.492   5.140
 7161SOL    HW222383   2.820   3.439   5.036
 7162SOL     OW22384   2.251   5.652   5.822
 7162SOL    HW122385   2.266   5.719   5.750
 7162SOL    HW222386   2.307   5.571   5.805
 7163SOL     OW22387   2.971   6.562   3.082
 7163SOL    HW122388   3.016   6.473   3.094
 7163SOL    HW222389   2.878   6.557   3.119
 7164SOL     OW22390   1.551   0.926   4.231
 7164SOL    HW122391   1.641   0.917   4.189
 7164SOL    HW222392   1.481   0.917   4.160
 7165SOL     OW22393   6.793   1.559   1.909
 7165SOL    HW122394   6.749   1.469   1.907
 7165SOL    HW222395   6.889   1.548   1.935
 7166SOL     OW22396   5.706   3.192   0.483
 7166SOL    HW122397   5.627   3.233   0.436
 7166SOL    HW222398   5.747   3.122   0.424
 7167SOL     OW22399   5.013   3.557   4.077
 7167SOL    HW122400   5.054   3.538   3.988
 7167SOL    HW222401   4.958   3.479   4.106
 7168SOL     OW22402   1.689   2.554   3.873
 7168SOL    HW122403   1.749   2.524   3.800
 7168SOL    HW222404   1.601   2.582   3.834
 7169SOL     OW22405   6.854   3.201   5.021
 7169SOL    HW122406   6.926   3.169   4.960
 7169SOL    HW222407   6.805   3.123   5.060
 7170SOL     OW22408   4.920   5.764   3.139
 7170SOL    HW122409   4.938   5.737   3.233
 7170SOL    HW222410   4.958   5.696   3.076
 7171SOL     OW22411   4.845   4.018   6.564
 7171SOL    HW122412   4.861   4.067   6.649
 7171SOL    HW222413   4.919   4.037   6.499
 7172SOL     OW22414   1.411   0.792   5.117
 7172SOL    HW122415   1.362   0.879   5.115
 7172SOL    HW222416   1.409   0.750   5.027
 7173SOL     OW22417   0.156   4.352   5.896
 7173SOL    HW122418   0.062   4.371   5.867
 7173SOL    HW222419   0.168   4.254   5.907
 7174SOL     OW22420   0.753   4.443   0.590
 7174SOL    HW122421   0.807   4.409   0.667
 7174SOL    HW222422   0.685   4.509   0.623
 7175SOL     OW22423   4.769   2.770   6.527
 7175SOL    HW122424   4.718   2.734   6.605
 7175SOL    HW222425   4.714   2.758   6.444
 7176SOL     OW22426   1.220   5.887   2.902
 7176SOL    HW122427   1.222   5.789   2.881
 7176SOL    HW222428   1.289   5.934   2.847
 7177SOL     OW22429   2.000   6.189   4.322
 7177SOL    HW122430   2.077   6.134   4.353
 7177SOL    HW222431   2.032   6.257   4.255
 7178SOL     OW22432   1.982   2.812   5.324
 7178SOL    HW122433   1.904   2.858   5.281
 7178SOL    HW222434   2.067   2.851   5.288
 7179SOL     OW22435   1.783   3.793   4.395
 7179SOL    HW122436   1.798   3.808   4.493
 7179SOL    HW222437   1.746   3.876   4.354
 7180SOL     OW22438   1.695   4.368   6.928
 7180SOL    HW122439   1.647   4.408   7.006
 7180SOL    HW222440   1.745   4.286   6.959
 7181SOL     OW22441   2.282   6.171   0.509
 7181SOL    HW122442   2.277   6.270   0.521
 7181SOL    HW222443   2.365   6.136   0.553
 7182SOL     OW22444   1.650   2.558   5.225
 7182SOL    HW122445   1.734   2.539   5.276
 7182SOL    HW222446   1.571   2.530   5.279
 7183SOL     OW22447   2.450   5.979   0.355
 7183SOL    HW122448   2.382   5.915   0.319
 7183SOL    HW222449   2.408   6.070   0.365
 7184SOL     OW22450   0.478   1.122   3.063
 7184SOL    HW122451   0.395   1.117   3.117
 7184SOL    HW222452   0.456   1.153   2.970
 7185SOL     OW22453   5.864   0.426   5.367
 7185SOL    HW122454   5.804   0.492   5.412
 7185SOL    HW222455   5.817   0.385   5.289
 7186SOL     OW22456   6.068   0.264   0.071
 7186SOL    HW122457   6.144   0.225   0.122
 7186SOL    HW222458   6.067   0.363   0.082
 7187SOL     OW22459   3.285   3.969   7.007
 7187SOL    HW122460   3.232   3.885   7.019
 7187SOL    HW222461   3.337   3.987   0.066
 7188SOL     OW22462   6.084   0.189   1.079
 7188SOL    HW122463   6.034   0.144   1.005
 7188SOL    HW222464   6.035   0.174   1.166
 7189SOL     OW22465   0.359   0.966   5.824
 7189SOL    HW122466   0.322   1.044   5.774
 7189SOL    HW222467   0.296   0.889   5.818
 7190SOL     OW22468   6.928   3.653   3.184
 7190SOL    HW122469   6.869   3.583   3.143
 7190SOL    HW222470   6.889   3.744   3.167
 7191SOL     OW22471   0.067   4.417   3.057
 7191SOL    HW122472   0.134   4.349   3.085
 7191SOL    HW222473   0.031   4.464   3.138
 7192SOL     OW22474   3.286   4.566   5.959
 7192SOL    HW122475   3.379   4.530   5.959
 7192SOL    HW222476   3.241   4.541   6.045
 7193SOL     OW22477   2.095   2.478   2.512
 7193SOL    HW122478   2.036   2.543   2.464
 7193SOL    HW222479   2.162   2.440   2.448
 7194SOL     OW22480   3.052   2.319   0.864
 7194SOL    HW122481   2.995   2.356   0.937
 7194SOL    HW222482   3.146   2.310   0.897
 7195SOL     OW22483   6.896   4.662   6.900
 7195SOL    HW122484   6.811   4.610   6.892
 7195SOL    HW222485   6.890   4.723   6.979
 7196SOL     OW22486   3.003   4.383   1.231
 7196SOL    HW122487   2.976   4.372   1.135
 7196SOL    HW222488   2.928   4.353   1.290
 7197SOL     OW22489   6.806   2.104   5.795
 7197SOL    HW122490   6.866   2.170   5.750
 7197SOL    HW222491   6.747   2.151   5.860
 7198SOL     OW22492   0.924   0.783   6.447
 7198SOL    HW122493   0.862   0.718   6.491
 7198SOL    HW222494   0.890   0.805   6.356
 7199SOL     OW22495   2.198   1.104   2.416
 7199SOL    HW122496   2.228   1.008   2.418
 7199SOL    HW222497   2.167   1.127   2.324
 7200SOL     OW22498   2.960   2.293   0.589
 7200SOL    HW122499   2.986   2.375   0.538
 7200SOL    HW222500   2.998   2.298   0.682
 7201SOL     OW22501   1.206   5.899   4.403
 7201SOL    HW122502   1.292   5.920   4.357
 7201SOL    HW222503   1.223   5.833   4.476
 7202SOL     OW22504   4.242   0.509   6.122
 7202SOL    HW122505   4.314   0.450   6.085
 7202SOL    HW222506   4.277   0.602   6.132
 7203SOL     OW22507   0.150   1.585   0.934
 7203SOL    HW122508   0.175   1.670   0.887
 7203SOL    HW222509   0.150   1.601   1.033
 7204SOL     OW22510   0.276   6.852   5.582
 7204SOL    HW122511   0.274   6.915   5.504
 7204SOL    HW222512   0.194   6.865   5.637
 7205SOL     OW22513   0.603   5.487   3.136
 7205SOL    HW122514   0.671   5.442   3.078
 7205SOL    HW222515   0.511   5.469   3.100
 7206SOL     OW22516   2.042   0.165   0.999
 7206SOL    HW122517   1.972   0.115   0.948
 7206SOL    HW222518   2.121   0.106   1.015
 7207SOL     OW22519   3.690   0.097   1.946
 7207SOL    HW122520   3.729   0.180   1.986
 7207SOL    HW222521   3.616   0.121   1.883
 7208SOL     OW22522   4.060   6.559   3.420
 7208SOL    HW122523   4.012   6.647   3.428
 7208SOL    HW222524   4.091   6.530   3.510
 7209SOL     OW22525   2.996   3.858   2.304
 7209SOL    HW122526   2.960   3.944   2.269
 7209SOL    HW222527   3.016   3.796   2.228
 7210SOL     OW22528   4.265   0.502   3.976
 7210SOL    HW122529   4.267   0.497   4.076
 7210SOL    HW222530   4.358   0.515   3.941
 7211SOL     OW22531   2.256   5.438   4.179
 7211SOL    HW122532   2.330   5.500   4.153
 7211SOL    HW222533   2.184   5.442   4.111
 7212SOL     OW22534   0.463   6.540   4.446
 7212SOL    HW122535   0.489   6.497   4.359
 7212SOL    HW222536   0.515   6.497   4.521
 7213SOL     OW22537   5.464   0.296   6.517
 7213SOL    HW122538   5.546   0.319   6.570
 7213SOL    HW222539   5.383   0.306   6.575
 7214SOL     OW22540   0.505   5.298   5.121
 7214SOL    HW122541   0.478   5.393   5.106
 7214SOL    HW222542   0.443   5.255   5.187
 7215SOL     OW22543   0.410   3.136   5.210
 7215SOL    HW122544   0.378   3.093   5.126
 7215SOL    HW222545   0.337   3.196   5.246
 7216SOL     OW22546   2.707   6.058   0.182
 7216SOL    HW122547   2.625   6.062   0.238
 7216SOL    HW222548   2.772   6.128   0.213
 7217SOL     OW22549   2.284   4.261   2.622
 7217SOL    HW122550   2.334   4.256   2.535
 7217SOL    HW222551   2.209   4.326   2.614
 7218SOL     OW22552   5.306   2.592   5.250
 7218SOL    HW122553   5.240   2.636   5.312
 7218SOL    HW222554   5.315   2.496   5.274
 7219SOL     OW22555   4.590   6.704   4.657
 7219SOL    HW122556   4.636   6.787   4.688
 7219SOL    HW222557   4.575   6.644   4.736
 7220SOL     OW22558   0.768   5.974   4.559
 7220SOL    HW122559   0.817   5.957   4.645
 7220SOL    HW222560   0.795   5.906   4.491
 7221SOL     OW22561   4.252   5.209   4.625
 7221SOL    HW122562   4.180   5.145   4.597
 7221SOL    HW222563   4.275   5.269   4.549
 7222SOL     OW22564   6.290   0.468   2.852
 7222SOL    HW122565   6.221   0.401   2.878
 7222SOL    HW222566   6.264   0.512   2.766
 7223SOL     OW22567   2.699   2.059   1.527
 7223SOL    HW122568   2.606   2.093   1.518
 7223SOL    HW222569   2.715   2.031   1.622
 7224SOL     OW22570   5.905   2.179   4.397
 7224SOL    HW122571   5.995   2.222   4.402
 7224SOL    HW222572   5.841   2.226   4.458
 7225SOL     OW22573   1.106   6.151   6.412
 7225SOL    HW122574   1.035   6.177   6.477
 7225SOL    HW222575   1.117   6.052   6.412
 7226SOL     OW22576   0.181   0.677   0.572
 7226SOL    HW122577   0.101   0.703   0.518
 7226SOL    HW222578   0.234   0.608   0.522
 7227SOL     OW22579   0.480   2.612   1.177
 7227SOL    HW122580   0.430   2.665   1.246
 7227SOL    HW222581   0.416   2.551   1.129
 7228SOL     OW22582   0.752   1.017   2.140
 7228SOL    HW122583   0.729   0.920   2.136
 7228SOL    HW222584   0.852   1.027   2.146
 7229SOL     OW22585   1.120   6.906   4.942
 7229SOL    HW122586   1.201   6.935   4.891
 7229SOL    HW222587   1.106   6.967   5.020
 7230SOL     OW22588   5.025   5.078   4.289
 7230SOL    HW122589   5.117   5.062   4.324
 7230SOL    HW222590   4.988   5.162   4.329
 7231SOL     OW22591   4.730   6.932   0.075
 7231SOL    HW122592   4.673   6.857   0.109
 7231SOL    HW222593   4.809   6.944   0.135
 7232SOL     OW22594   5.034   5.282   3.046
 7232SOL    HW122595   4.991   5.372   3.049
 7232SOL    HW222596   4.965   5.212   3.065
 7233SOL     OW22597   0.191   2.480   4.157
 7233SOL    HW122598   0.152   2.531   4.233
 7233SOL    HW222599   0.263   2.534   4.114
 7234SOL     OW22600   5.262   3.138   3.680
 7234SOL    HW122601   5.255   3.207   3.753
 7234SOL    HW222602   5.350   3.148   3.634
 7235SOL     OW22603   6.773   4.073   2.480
 7235SOL    HW122604   6.770   4.122   2.567
 7235SOL    HW222605   6.843   4.001   2.485
 7236SOL     OW22606   2.626   1.307   2.410
 7236SOL    HW122607   2.559   1.338   2.343
 7236SOL    HW222608   2.643   1.379   2.477
 7237SOL     OW22609   6.011   6.367   5.314
 7237SOL    HW122610   6.063   6.387   5.397
 7237SOL    HW222611   5.960   6.282   5.326
 7238SOL     OW22612   2.787   2.053   1.226
 7238SOL    HW122613   2.886   2.042   1.217
 7238SOL    HW222614   2.763   2.058   1.323
 7239SOL     OW22615   2.442   1.793   2.771
 7239SOL    HW122616   2.463   1.864   2.705
 7239SOL    HW222617   2.494   1.710   2.749
 7240SOL     OW22618   2.221   4.629   6.161
 7240SOL    HW122619   2.252   4.685   6.238
 7240SOL    HW222620   2.283   4.640   6.084
 7241SOL     OW22621   2.870   0.900   0.311
 7241SOL    HW122622   2.962   0.935   0.328
 7241SOL    HW222623   2.863   0.806   0.345
 7242SOL     OW22624   6.353   5.963   0.350
 7242SOL    HW122625   6.449   5.937   0.360
 7242SOL    HW222626   6.296   5.882   0.361
 7243SOL     OW22627   7.004   4.502   6.089
 7243SOL    HW122628   6.905   4.498   6.073
 7243SOL    HW222629   0.013   4.593   6.065
 7244SOL     OW22630   5.752   0.454   0.981
 7244SOL    HW122631   5.748   0.392   1.060
 7244SOL    HW222632   5.659   0.469   0.946
 7245SOL     OW22633   0.590   1.917   5.292
 7245SOL    HW122634   0.609   1.820   5.278
 7245SOL    HW222635   0.662   1.972   5.250
 7246SOL     OW22636   6.043   0.129   4.849
 7246SOL    HW122637   6.018   0.145   4.945
 7246SOL    HW222638   6.141   0.141   4.838
 7247SOL     OW22639   3.267   6.840   3.586
 7247SOL    HW122640   3.180   6.816   3.629
 7247SOL    HW222641   3.276   6.940   3.581
 7248SOL     OW22642   3.647   0.756   3.167
 7248SOL    HW122643   3.568   0.695   3.176
 7248SOL    HW222644   3.726   0.705   3.135
 7249SOL     OW22645   5.103   5.038   1.897
 7249SOL    HW122646   5.091   5.082   1.808
 7249SOL    HW222647   5.120   4.940   1.884
 7250SOL     OW22648   3.973   5.751   6.280
 7250SOL    HW122649   4.006   5.845   6.277
 7250SOL    HW222650   4.013   5.705   6.360
 7251SOL     OW22651   0.456   6.526   5.422
 7251SOL    HW122652   0.423   6.599   5.362
 7251SOL    HW222653   0.525   6.562   5.484
 7252SOL     OW22654   3.683   2.945   3.705
 7252SOL    HW122655   3.643   2.922   3.793
 7252SOL    HW222656   3.679   2.864   3.645
 7253SOL     OW22657   1.861   6.166   0.127
 7253SOL    HW122658   1.913   6.169   0.042
 7253SOL    HW222659   1.821   6.075   0.139
 7254SOL     OW22660   4.553   5.232   4.754
 7254SOL    HW122661   4.462   5.191   4.758
 7254SOL    HW222662   4.547   5.325   4.719
 7255SOL     OW22663   3.847   3.308   1.143
 7255SOL    HW122664   3.945   3.311   1.164
 7255SOL    HW222665   3.801   3.386   1.184
 7256SOL     OW22666   4.792   4.592   4.343
 7256SOL    HW122667   4.849   4.668   4.312
 7256SOL    HW222668   4.811   4.511   4.287
 7257SOL     OW22669   4.512   2.576   3.638
 7257SOL    HW122670   4.552   2.640   3.703
 7257SOL    HW222671   4.494   2.488   3.684
 7258SOL     OW22672   4.145   1.306   3.382
 7258SOL    HW122673   4.128   1.379   3.316
 7258SOL    HW222674   4.061   1.254   3.396
 7259SOL     OW22675   3.578   3.482   1.835
 7259SOL    HW122676   3.535   3.448   1.752
 7259SOL    HW222677   3.613   3.405   1.889
 7260SOL     OW22678   2.788   2.130   2.890
 7260SOL    HW122679   2.806   2.170   2.801
 7260SOL    HW222680   2.794   2.030   2.884
 7261SOL     OW22681   2.203   2.953   0.808
 7261SOL    HW122682   2.110   2.921   0.791
 7261SOL    HW222683   2.238   2.998   0.726
 7262SOL     OW22684   5.560   1.927   4.077
 7262SOL    HW122685   5.499   1.994   4.034
 7262SOL    HW222686   5.634   1.975   4.124
 7263SOL     OW22687   0.087   6.071   2.694
 7263SOL    HW122688   0.120   6.024   2.776
 7263SOL    HW222689   0.008   6.022   2.657
 7264SOL     OW22690   6.135   1.306   6.772
 7264SOL    HW122691   6.199   1.370   6.816
 7264SOL    HW222692   6.133   1.220   6.824
 7265SOL     OW22693   5.723   5.677   5.917
 7265SOL    HW122694   5.792   5.619   5.873
 7265SOL    HW222695   5.709   5.646   6.011
 7266SOL     OW22696   4.068   0.558   0.911
 7266SOL    HW122697   4.078   0.476   0.967
 7266SOL    HW222698   4.098   0.638   0.964
 7267SOL     OW22699   6.940   5.376   5.834
 7267SOL    HW122700   6.883   5.306   5.878
 7267SOL    HW222701   6.905   5.467   5.857
 7268SOL     OW22702   4.279   4.628   2.904
 7268SOL    HW122703   4.348   4.572   2.951
 7268SOL    HW222704   4.253   4.704   2.963
 7269SOL     OW22705   6.844   6.099   0.821
 7269SOL    HW122706   6.923   6.152   0.791
 7269SOL    HW222707   6.806   6.139   0.904
 7270SOL     OW22708   1.165   2.611   4.331
 7270SOL    HW122709   1.252   2.612   4.380
 7270SOL    HW222710   1.091   2.632   4.395
 7271SOL     OW22711   0.402   4.751   4.042
 7271SOL    HW122712   0.317   4.769   4.091
 7271SOL    HW222713   0.395   4.663   3.994
 7272SOL     OW22714   5.827   4.838   2.036
 7272SOL    HW122715   5.736   4.837   1.994
 7272SOL    HW222716   5.830   4.769   2.109
 7273SOL     OW22717   5.451   4.865   2.396
 7273SOL    HW122718   5.479   4.769   2.388
 7273SOL    HW222719   5.363   4.878   2.350
 7274SOL     OW22720   1.136   6.474   5.996
 7274SOL    HW122721   1.180   6.466   6.086
 7274SOL    HW222722   1.038   6.458   6.005
 7275SOL     OW22723   6.866   1.044   2.379
 7275SOL    HW122724   6.792   0.986   2.345
 7275SOL    HW222725   6.868   1.130   2.329
 7276SOL     OW22726   3.425   1.480   3.702
 7276SOL    HW122727   3.452   1.517   3.613
 7276SOL    HW222728   3.456   1.385   3.709
 7277SOL     OW22729   5.552   1.223   4.517
 7277SOL    HW122730   5.554   1.251   4.421
 7277SOL    HW222731   5.620   1.151   4.532
 7278SOL     OW22732   3.069   1.987   2.649
 7278SOL    HW122733   3.050   1.910   2.589
 7278SOL    HW222734   3.130   2.051   2.602
 7279SOL     OW22735   4.330   3.061   6.469
 7279SOL    HW122736   4.311   3.114   6.386
 7279SOL    HW222737   4.395   3.110   6.527
 7280SOL     OW22738   6.644   2.266   4.761
 7280SOL    HW122739   6.554   2.303   4.736
 7280SOL    HW222740   6.640   2.231   4.854
 7281SOL     OW22741   2.433   0.172   0.252
 7281SOL    HW122742   2.494   0.248   0.275
 7281SOL    HW222743   2.368   0.158   0.326
 7282SOL     OW22744   6.482   6.527   0.974
 7282SOL    HW122745   6.408   6.571   1.024
 7282SOL    HW222746   6.454   6.514   0.878
 7283SOL     OW22747   2.123   6.855   2.030
 7283SOL    HW122748   2.176   6.913   1.968
 7283SOL    HW222749   2.076   6.913   2.098
 7284SOL     OW22750   0.130   2.953   4.233
 7284SOL    HW122751   0.167   2.948   4.140
 7284SOL    HW222752   0.093   3.045   4.249
 7285SOL     OW22753   5.414   3.768   1.430
 7285SOL    HW122754   5.495   3.827   1.437
 7285SOL    HW222755   5.334   3.818   1.461
 7286SOL     OW22756   0.999   0.651   0.588
 7286SOL    HW122757   0.930   0.627   0.656
 7286SOL    HW222758   1.058   0.571   0.571
 7287SOL     OW22759   0.060   3.327   4.603
 7287SOL    HW122760   0.054   3.403   4.668
 7287SOL    HW222761   0.138   3.342   4.542
 7288SOL     OW22762   1.497   2.830   2.126
 7288SOL    HW122763   1.415   2.842   2.181
 7288SOL    HW222764   1.549   2.915   2.124
 7289SOL     OW22765   6.487   2.679   2.542
 7289SOL    HW122766   6.440   2.715   2.461
 7289SOL    HW222767   6.421   2.630   2.599
 7290SOL     OW22768   3.191   0.859   5.595
 7290SOL    HW122769   3.124   0.885   5.527
 7290SOL    HW222770   3.153   0.873   5.687
 7291SOL     OW22771   3.002   0.135   0.907
 7291SOL    HW122772   3.082   0.077   0.892
 7291SOL    HW222773   2.936   0.086   0.964
 7292SOL     OW22774   2.406   0.009   3.085
 7292SOL    HW122775   2.416   0.055   3.173
 7292SOL    HW222776   2.311   7.007   3.071
 7293SOL     OW22777   1.673   1.025   6.012
 7293SOL    HW122778   1.643   1.112   5.974
 7293SOL    HW222779   1.605   0.954   5.991
 7294SOL     OW22780   2.856   4.574   0.648
 7294SOL    HW122781   2.870   4.585   0.549
 7294SOL    HW222782   2.781   4.633   0.677
 7295SOL     OW22783   6.937   4.451   1.313
 7295SOL    HW122784   7.023   4.441   1.262
 7295SOL    HW222785   6.860   4.436   1.251
 7296SOL     OW22786   4.372   5.154   2.564
 7296SOL    HW122787   4.343   5.211   2.641
 7296SOL    HW222788   4.446   5.199   2.515
 7297SOL     OW22789   2.473   6.725   2.800
 7297SOL    HW122790   2.390   6.672   2.817
 7297SOL    HW222791   2.455   6.792   2.727
 7298SOL     OW22792   5.201   5.430   0.052
 7298SOL    HW122793   5.211   5.519   0.098
 7298SOL    HW222794   5.111   5.392   0.073
 7299SOL     OW22795   0.481   2.145   0.960
 7299SOL    HW122796   0.484   2.059   0.909
 7299SOL    HW222797   0.571   2.162   1.002
 7300SOL     OW22798   0.810   5.396   1.864
 7300SOL    HW122799   0.766   5.459   1.928
 7300SOL    HW222800   0.909   5.405   1.873
 7301SOL     OW22801   6.826   1.324   5.910
 7301SOL    HW122802   6.789   1.233   5.890
 7301SOL    HW222803   6.771   1.393   5.862
 7302SOL     OW22804   6.992   1.860   5.201
 7302SOL    HW122805   0.033   1.809   5.256
 7302SOL    HW222806   0.014   1.935   5.154
 7303SOL     OW22807   3.450   0.994   6.628
 7303SOL    HW122808   3.368   1.040   6.662
 7303SOL    HW222809   3.476   0.922   6.691
 7304SOL     OW22810   2.062   5.640   1.847
 7304SOL    HW122811   2.034   5.707   1.779
 7304SOL    HW222812   1.984   5.616   1.905
 7305SOL     OW22813   5.830   2.328   1.510
 7305SOL    HW122814   5.809   2.368   1.420
 7305SOL    HW222815   5.746   2.298   1.553
 7306SOL     OW22816   3.648   1.589   1.638
 7306SOL    HW122817   3.739   1.567   1.672
 7306SOL    HW222818   3.656   1.652   1.560
 7307SOL     OW22819   4.173   6.635   2.281
 7307SOL    HW122820   4.145   6.658   2.188
 7307SOL    HW222821   4.233   6.706   2.317
 7308SOL     OW22822   0.330   1.536   3.185
 7308SOL    HW122823   0.406   1.481   3.220
 7308SOL    HW222824   0.361   1.629   3.168
 7309SOL     OW22825   2.270   6.595   2.068
 7309SOL    HW122826   2.257   6.554   1.977
 7309SOL    HW222827   2.212   6.677   2.075
 7310SOL     OW22828   1.436   3.446   5.874
 7310SOL    HW122829   1.428   3.524   5.811
 7310SOL    HW222830   1.350   3.394   5.873
 7311SOL     OW22831   0.709   0.203   0.225
 7311SOL    HW122832   0.637   0.272   0.215
 7311SOL    HW222833   0.786   0.242   0.275
 7312SOL     OW22834   0.884   1.761   5.110
 7312SOL    HW122835   0.805   1.715   5.152
 7312SOL    HW222836   0.967   1.738   5.162
 7313SOL     OW22837   2.659   1.478   0.460
 7313SOL    HW122838   2.679   1.449   0.367
 7313SOL    HW222839   2.697   1.570   0.475
 7314SOL     OW22840   6.855   3.722   6.439
 7314SOL    HW122841   6.822   3.797   6.381
 7314SOL    HW222842   6.955   3.721   6.439
 7315SOL     OW22843   5.958   5.317   2.246
 7315SOL    HW122844   6.008   5.312   2.159
 7315SOL    HW222845   5.972   5.232   2.297
 7316SOL     OW22846   3.262   2.164   6.462
 7316SOL    HW122847   3.199   2.154   6.540
 7316SOL    HW222848   3.274   2.075   6.418
 7317SOL     OW22849   3.656   1.307   2.167
 7317SOL    HW122850   3.647   1.222   2.115
 7317SOL    HW222851   3.570   1.357   2.164
 7318SOL     OW22852   3.142   6.492   2.485
 7318SOL    HW122853   3.222   6.439   2.512
 7318SOL    HW222854   3.117   6.555   2.558
 7319SOL     OW22855   6.135   3.791   6.316
 7319SOL    HW122856   6.109   3.740   6.234
 7319SOL    HW222857   6.231   3.774   6.338
 7320SOL     OW22858   0.513   3.205   6.976
 7320SOL    HW122859   0.517   3.304   6.987
 7320SOL    HW222860   0.602   3.171   6.945
 7321SOL     OW22861   2.041   6.658   6.301
 7321SOL    HW122862   2.006   6.729   6.241
 7321SOL    HW222863   2.010   6.568   6.270
 7322SOL     OW22864   0.135   3.080   3.020
 7322SOL    HW122865   0.227   3.048   2.996
 7322SOL    HW222866   0.129   3.179   3.007
 7323SOL     OW22867   2.573   1.861   1.263
 7323SOL    HW122868   2.647   1.918   1.227
 7323SOL    HW222869   2.502   1.919   1.302
 7324SOL     OW22870   5.976   4.346   2.509
 7324SOL    HW122871   6.072   4.354   2.479
 7324SOL    HW222872   5.962   4.404   2.590
 7325SOL     OW22873   2.679   0.339   5.223
 7325SOL    HW122874   2.620   0.366   5.299
 7325SOL    HW222875   2.750   0.277   5.256
 7326SOL     OW22876   3.841   0.716   6.520
 7326SOL    HW122877   3.926   0.759   6.490
 7326SOL    HW222878   3.797   0.774   6.589
 7327SOL     OW22879   5.440   3.712   4.049
 7327SOL    HW122880   5.353   3.754   4.073
 7327SOL    HW222881   5.449   3.624   4.096
 7328SOL     OW22882   4.474   6.357   5.970
 7328SOL    HW122883   4.453   6.429   5.904
 7328SOL    HW222884   4.488   6.271   5.922
 7329SOL     OW22885   0.917   2.657   6.806
 7329SOL    HW122886   0.984   2.599   6.852
 7329SOL    HW222887   0.837   2.670   6.865
 7330SOL     OW22888   3.068   2.761   1.452
 7330SOL    HW122889   3.104   2.756   1.544
 7330SOL    HW222890   3.019   2.676   1.430
 7331SOL     OW22891   4.741   6.465   1.937
 7331SOL    HW122892   4.654   6.505   1.966
 7331SOL    HW222893   4.807   6.539   1.920
 7332SOL     OW22894   4.112   3.984   6.932
 7332SOL    HW122895   4.109   3.999   6.833
 7332SOL    HW222896   4.023   3.950   6.963
 7333SOL     OW22897   6.148   3.251   2.854
 7333SOL    HW122898   6.230   3.303   2.876
 7333SOL    HW222899   6.145   3.168   2.910
 7334SOL     OW22900   3.019   5.417   5.810
 7334SOL    HW122901   2.945   5.359   5.844
 7334SOL    HW222902   3.102   5.362   5.797
 7335SOL     OW22903   0.365   3.151   3.200
 7335SOL    HW122904   0.278   3.152   3.249
 7335SOL    HW222905   0.356   3.092   3.119
 7336SOL     OW22906   2.277   6.226   1.139
 7336SOL    HW122907   2.348   6.181   1.192
 7336SOL    HW222908   2.280   6.195   1.044
 7337SOL     OW22909   2.708   2.815   1.433
 7337SOL    HW122910   2.744   2.761   1.357
 7337SOL    HW222911   2.608   2.814   1.431
 7338SOL     OW22912   6.190   1.962   1.630
 7338SOL    HW122913   6.184   2.033   1.699
 7338SOL    HW222914   6.258   1.988   1.561
 7339SOL     OW22915   0.070   6.613   5.870
 7339SOL    HW122916   0.009   6.555   5.923
 7339SOL    HW222917   0.023   6.699   5.848
 7340SOL     OW22918   4.468   1.367   7.024
 7340SOL    HW122919   4.371   1.349   0.019
 7340SOL    HW222920   4.485   1.465   0.006
 7341SOL     OW22921   1.176   5.103   4.814
 7341SOL    HW122922   1.231   5.089   4.731
 7341SOL    HW222923   1.120   5.185   4.804
 7342SOL     OW22924   5.922   6.982   0.499
 7342SOL    HW122925   5.881   6.926   0.571
 7342SOL    HW222926   5.850   7.024   0.444
 7343SOL     OW22927   5.534   2.975   2.253
 7343SOL    HW122928   5.598   2.929   2.316
 7343SOL    HW222929   5.585   3.008   2.173
 7344SOL     OW22930   1.796   0.240   6.554
 7344SOL    HW122931   1.864   0.285   6.612
 7344SOL    HW222932   1.794   0.287   6.465
 7345SOL     OW22933   4.747   5.703   5.553
 7345SOL    HW122934   4.708   5.791   5.578
 7345SOL    HW222935   4.673   5.638   5.533
 7346SOL     OW22936   3.935   3.731   1.010
 7346SOL    HW122937   3.923   3.668   0.934
 7346SOL    HW222938   3.985   3.686   1.084
 7347SOL     OW22939   6.818   2.047   1.478
 7347SOL    HW122940   6.762   2.069   1.557
 7347SOL    HW222941   6.785   2.096   1.398
 7348SOL     OW22942   1.355   3.472   3.611
 7348SOL    HW122943   1.437   3.508   3.568
 7348SOL    HW222944   1.345   3.513   3.702
 7349SOL     OW22945   3.340   1.729   1.309
 7349SOL    HW122946   3.342   1.815   1.259
 7349SOL    HW222947   3.317   1.654   1.247
 7350SOL     OW22948   0.895   3.263   4.018
 7350SOL    HW122949   0.902   3.250   4.117
 7350SOL    HW222950   0.888   3.173   3.973
 7351SOL     OW22951   4.504   5.144   6.259
 7351SOL    HW122952   4.507   5.077   6.334
 7351SOL    HW222953   4.486   5.097   6.173
 7352SOL     OW22954   1.861   2.475   3.645
 7352SOL    HW122955   1.842   2.563   3.601
 7352SOL    HW222956   1.881   2.406   3.574
 7353SOL     OW22957   0.768   0.600   5.506
 7353SOL    HW122958   0.697   0.550   5.457
 7353SOL    HW222959   0.858   0.566   5.478
 7354SOL     OW22960   0.352   0.877   6.349
 7354SOL    HW122961   0.418   0.880   6.424
 7354SOL    HW222962   0.361   0.961   6.294
 7355SOL     OW22963   1.614   6.669   6.973
 7355SOL    HW122964   1.614   6.574   6.942
 7355SOL    HW222965   1.549   6.680   0.024
 7356SOL     OW22966   5.237   2.936   5.990
 7356SOL    HW122967   5.278   3.021   6.024
 7356SOL    HW222968   5.247   2.865   6.060
 7357SOL     OW22969   4.516   1.260   0.932
 7357SOL    HW122970   4.460   1.178   0.938
 7357SOL    HW222971   4.613   1.235   0.941
 7358SOL     OW22972   2.185   2.448   2.232
 7358SOL    HW122973   2.270   2.418   2.275
 7358SOL    HW222974   2.125   2.370   2.218
 7359SOL     OW22975   3.374   1.999   1.174
 7359SOL    HW122976   3.365   2.020   1.077
 7359SOL    HW222977   3.449   2.053   1.213
 7360SOL     OW22978   3.196   2.048   5.945
 7360SOL    HW122979   3.167   2.010   5.857
 7360SOL    HW222980   3.296   2.047   5.950
 7361SOL     OW22981   4.480   6.574   2.006
 7361SOL    HW122982   4.412   6.510   2.041
 7361SOL    HW222983   4.480   6.657   2.061
 7362SOL     OW22984   0.545   6.666   4.858
 7362SOL    HW122985   0.452   6.700   4.874
 7362SOL    HW222986   0.600   6.738   4.816
 7363SOL     OW22987   3.844   1.586   1.247
 7363SOL    HW122988   3.887   1.509   1.294
 7363SOL    HW222989   3.903   1.616   1.172
 7364SOL     OW22990   4.048   0.123   1.251
 7364SOL    HW122991   4.112   0.046   1.243
 7364SOL    HW222992   3.954   0.089   1.238
 7365SOL     OW22993   1.409   5.816   2.291
 7365SOL    HW122994   1.354   5.891   2.327
 7365SOL    HW222995   1.506   5.841   2.292
 7366SOL     OW22996   1.720   5.637   0.421
 7366SOL    HW122997   1.724   5.550   0.469
 7366SOL    HW222998   1.674   5.705   0.478
 7367SOL     OW22999   4.083   3.867   1.461
 7367SOL    HW123000   4.059   3.926   1.384
 7367SOL    HW223001   4.172   3.894   1.497
 7368SOL     OW23002   3.690   2.981   4.163
 7368SOL    HW123003   3.613   3.031   4.203
 7368SOL    HW223004   3.755   2.956   4.235
 7369SOL     OW23005   5.274   3.420   0.913
 7369SOL    HW123006   5.179   3.452   0.909
 7369SOL    HW223007   5.329   3.469   0.845
 7370SOL     OW23008   2.194   0.738   5.471
 7370SOL    HW123009   2.221   0.647   5.442
 7370SOL    HW223010   2.110   0.732   5.526
 7371SOL     OW23011   2.505   5.417   3.714
 7371SOL    HW123012   2.540   5.509   3.730
 7371SOL    HW223013   2.411   5.422   3.681
 7372SOL     OW23014   2.796   0.521   5.583
 7372SOL    HW123015   2.854   0.555   5.657
 7372SOL    HW223016   2.759   0.598   5.531
 7373SOL     OW23017   5.035   1.241   3.297
 7373SOL    HW123018   4.939   1.267   3.290
 7373SOL    HW223019   5.057   1.221   3.392
 7374SOL     OW23020   2.990   2.595   5.433
 7374SOL    HW123021   3.033   2.633   5.514
 7374SOL    HW223022   3.029   2.504   5.414
 7375SOL     OW23023   1.953   1.925   3.622
 7375SOL    HW123024   2.004   1.959   3.701
 7375SOL    HW223025   1.867   1.884   3.653
 7376SOL     OW23026   3.946   1.607   0.369
 7376SOL    HW123027   3.903   1.697   0.364
 7376SOL    HW223028   4.038   1.617   0.407
 7377SOL     OW23029   4.830   6.117   1.760
 7377SOL    HW123030   4.862   6.138   1.852
 7377SOL    HW223031   4.827   6.018   1.747
 7378SOL     OW23032   0.317   2.333   4.689
 7378SOL    HW123033   0.238   2.274   4.708
 7378SOL    HW223034   0.321   2.352   4.591
 7379SOL     OW23035   3.979   2.139   3.482
 7379SOL    HW123036   3.946   2.142   3.388
 7379SOL    HW223037   4.079   2.135   3.482
 7380SOL     OW23038   6.714   3.380   5.164
 7380SOL    HW123039   6.770   3.397   5.245
 7380SOL    HW223040   6.768   3.329   5.097
 7381SOL     OW23041   4.887   3.818   2.233
 7381SOL    HW123042   4.855   3.723   2.226
 7381SOL    HW223043   4.876   3.864   2.145
 7382SOL     OW23044   0.131   5.741   5.888
 7382SOL    HW123045   0.226   5.743   5.919
 7382SOL    HW223046   0.129   5.732   5.789
 7383SOL     OW23047   0.201   6.789   2.396
 7383SOL    HW123048   0.226   6.704   2.442
 7383SOL    HW223049   0.176   6.769   2.301
 7384SOL     OW23050   4.859   0.693   2.135
 7384SOL    HW123051   4.864   0.714   2.233
 7384SOL    HW223052   4.772   0.649   2.115
 7385SOL     OW23053   4.005   6.421   1.970
 7385SOL    HW123054   4.038   6.420   1.876
 7385SOL    HW223055   4.055   6.352   2.023
 7386SOL     OW23056   0.422   2.729   5.436
 7386SOL    HW123057   0.448   2.800   5.371
 7386SOL    HW223058   0.473   2.646   5.416
 7387SOL     OW23059   4.177   0.270   4.626
 7387SOL    HW123060   4.094   0.278   4.681
 7387SOL    HW223061   4.206   0.175   4.623
 7388SOL     OW23062   6.491   5.833   3.629
 7388SOL    HW123063   6.447   5.832   3.539
 7388SOL    HW223064   6.493   5.740   3.666
 7389SOL     OW23065   1.187   5.192   6.809
 7389SOL    HW123066   1.107   5.234   6.851
 7389SOL    HW223067   1.245   5.153   6.880
 7390SOL     OW23068   1.536   1.366   6.636
 7390SOL    HW123069   1.583   1.321   6.560
 7390SOL    HW223070   1.543   1.465   6.626
 7391SOL     OW23071   4.614   4.354   4.695
 7391SOL    HW123072   4.546   4.287   4.725
 7391SOL    HW223073   4.608   4.436   4.753
 7392SOL     OW23074   3.119   5.599   6.347
 7392SOL    HW123075   3.181   5.577   6.421
 7392SOL    HW223076   3.124   5.528   6.277
 7393SOL     OW23077   6.138   5.593   1.648
 7393SOL    HW123078   6.237   5.586   1.657
 7393SOL    HW223079   6.111   5.690   1.652
 7394SOL     OW23080   3.095   3.020   6.598
 7394SOL    HW123081   3.184   3.060   6.620
 7394SOL    HW223082   3.047   3.078   6.533
 7395SOL     OW23083   1.760   0.849   0.075
 7395SOL    HW123084   1.766   0.820   7.004
 7395SOL    HW223085   1.735   0.771   0.132
 7396SOL     OW23086   0.829   0.386   0.399
 7396SOL    HW123087   0.780   0.449   0.460
 7396SOL    HW223088   0.885   0.439   0.335
 7397SOL     OW23089   4.971   5.264   4.485
 7397SOL    HW123090   4.947   5.358   4.510
 7397SOL    HW223091   4.982   5.210   4.569
 7398SOL     OW23092   3.268   5.181   4.005
 7398SOL    HW123093   3.302   5.275   3.996
 7398SOL    HW223094   3.172   5.182   4.032
 7399SOL     OW23095   0.370   3.397   5.453
 7399SOL    HW123096   0.346   3.494   5.464
 7399SOL    HW223097   0.300   3.351   5.399
 7400SOL     OW23098   2.873   3.649   6.799
 7400SOL    HW123099   2.878   3.605   6.709
 7400SOL    HW223100   2.884   3.579   6.870
 7401SOL     OW23101   0.766   1.014   4.014
 7401SOL    HW123102   0.771   0.945   3.942
 7401SOL    HW223103   0.721   0.976   4.095
 7402SOL     OW23104   1.985   5.562   4.849
 7402SOL    HW123105   2.030   5.640   4.892
 7402SOL    HW223106   2.022   5.549   4.756
 7403SOL     OW23107   1.896   3.419   3.109
 7403SOL    HW123108   1.889   3.320   3.117
 7403SOL    HW223109   1.874   3.462   3.196
 7404SOL     OW23110   2.416   6.195   1.663
 7404SOL    HW123111   2.510   6.160   1.660
 7404SOL    HW223112   2.390   6.227   1.572
 7405SOL     OW23113   1.890   5.042   4.539
 7405SOL    HW123114   1.900   4.969   4.471
 7405SOL    HW223115   1.878   5.002   4.629
 7406SOL     OW23116   1.465   3.667   2.941
 7406SOL    HW123117   1.410   3.749   2.928
 7406SOL    HW223118   1.516   3.674   3.027
 7407SOL     OW23119   6.583   6.250   4.894
 7407SOL    HW123120   6.657   6.228   4.831
 7407SOL    HW223121   6.496   6.215   4.859
 7408SOL     OW23122   0.932   3.752   5.480
 7408SOL    HW123123   0.939   3.810   5.399
 7408SOL    HW223124   0.865   3.790   5.543
 7409SOL     OW23125   0.083   1.083   4.924
 7409SOL    HW123126   0.012   1.016   4.945
 7409SOL    HW223127   0.042   1.160   4.875
 7410SOL     OW23128   0.028   4.557   0.725
 7410SOL    HW123129   0.098   4.575   0.656
 7410SOL    HW223130   0.070   4.555   0.816
 7411SOL     OW23131   2.973   6.150   4.328
 7411SOL    HW123132   2.943   6.203   4.407
 7411SOL    HW223133   3.064   6.112   4.346
 7412SOL     OW23134   4.317   0.919   2.228
 7412SOL    HW123135   4.382   0.903   2.154
 7412SOL    HW223136   4.288   0.831   2.266
 7413SOL     OW23137   6.129   5.455   4.289
 7413SOL    HW123138   6.056   5.473   4.354
 7413SOL    HW223139   6.105   5.375   4.233
 7414SOL     OW23140   0.367   0.069   3.585
 7414SOL    HW123141   0.367   7.001   3.546
 7414SOL    HW223142   0.293   0.122   3.543
 7415SOL     OW23143   0.862   4.051   3.065
 7415SOL    HW123144   0.783   4.083   3.116
 7415SOL    HW223145   0.832   4.004   2.982
 7416SOL     OW23146   3.001   0.389   4.115
 7416SOL    HW123147   2.928   0.353   4.173
 7416SOL    HW223148   3.089   0.378   4.160
 7417SOL     OW23149   2.172   0.391   6.229
 7417SOL    HW123150   2.250   0.337   6.259
 7417SOL    HW223151   2.128   0.432   6.309
 7418SOL     OW23152   3.770   5.120   1.198
 7418SOL    HW123153   3.834   5.127   1.274
 7418SOL    HW223154   3.814   5.151   1.114
 7419SOL     OW23155   6.602   2.534   4.245
 7419SOL    HW123156   6.673   2.602   4.226
 7419SOL    HW223157   6.562   2.551   4.335
 7420SOL     OW23158   6.505   6.431   2.364
 7420SOL    HW123159   6.457   6.518   2.357
 7420SOL    HW223160   6.582   6.430   2.299
 7421SOL     OW23161   3.146   3.445   1.707
 7421SOL    HW123162   3.156   3.534   1.662
 7421SOL    HW223163   3.141   3.458   1.806
 7422SOL     OW23164   0.304   4.098   2.144
 7422SOL    HW123165   0.306   4.044   2.228
 7422SOL    HW223166   0.221   4.153   2.141
 7423SOL     OW23167   6.735   3.963   6.251
 7423SOL    HW123168   6.696   3.966   6.343
 7423SOL    HW223169   6.777   4.051   6.230
 7424SOL     OW23170   6.395   0.849   4.328
 7424SOL    HW123171   6.393   0.751   4.350
 7424SOL    HW223172   6.323   0.868   4.261
 7425SOL     OW23173   4.131   5.908   6.537
 7425SOL    HW123174   4.211   5.924   6.595
 7425SOL    HW223175   4.119   5.985   6.475
 7426SOL     OW23176   0.954   2.125   6.292
 7426SOL    HW123177   1.017   2.202   6.285
 7426SOL    HW223178   0.871   2.154   6.340
 7427SOL     OW23179   3.538   6.040   4.654
 7427SOL    HW123180   3.570   5.963   4.599
 7427SOL    HW223181   3.611   6.069   4.716
 7428SOL     OW23182   3.776   1.615   5.077
 7428SOL    HW123183   3.848   1.672   5.117
 7428SOL    HW223184   3.739   1.661   4.996
 7429SOL     OW23185   5.427   0.584   3.352
 7429SOL    HW123186   5.366   0.506   3.335
 7429SOL    HW223187   5.522   0.556   3.335
 7430SOL     OW23188   0.266   4.142   6.488
 7430SOL    HW123189   0.288   4.155   6.585
 7430SOL    HW223190   0.328   4.198   6.432
 7431SOL     OW23191   0.612   3.855   1.949
 7431SOL    HW123192   0.590   3.830   2.043
 7431SOL    HW223193   0.531   3.842   1.891
 7432SOL     OW23194   0.520   6.734   3.277
 7432SOL    HW123195   0.593   6.667   3.270
 7432SOL    HW223196   0.549   6.820   3.235
 7433SOL     OW23197   6.489   5.350   0.866
 7433SOL    HW123198   6.587   5.354   0.880
 7433SOL    HW223199   6.446   5.434   0.900
 7434SOL     OW23200   4.400   1.040   6.575
 7434SOL    HW123201   4.426   1.057   6.479
 7434SOL    HW223202   4.320   0.980   6.578
 7435SOL     OW23203   3.385   5.710   6.774
 7435SOL    HW123204   3.454   5.717   6.702
 7435SOL    HW223205   3.413   5.764   6.853
 7436SOL     OW23206   5.630   3.293   6.209
 7436SOL    HW123207   5.598   3.322   6.119
 7436SOL    HW223208   5.691   3.214   6.198
 7437SOL     OW23209   0.180   5.752   6.972
 7437SOL    HW123210   0.168   5.806   0.031
 7437SOL    HW223211   0.139   5.662   6.985
 7438SOL     OW23212   0.973   5.220   0.729
 7438SOL    HW123213   0.921   5.288   0.677
 7438SOL    HW223214   1.070   5.228   0.707
 7439SOL     OW23215   1.692   6.518   4.605
 7439SOL    HW123216   1.779   6.469   4.603
 7439SOL    HW223217   1.626   6.470   4.547
 7440SOL     OW23218   0.948   3.243   4.310
 7440SOL    HW123219   1.014   3.168   4.311
 7440SOL    HW223220   0.977   3.313   4.376
 7441SOL     OW23221   5.316   6.185   4.653
 7441SOL    HW123222   5.227   6.201   4.696
 7441SOL    HW223223   5.377   6.140   4.718
 7442SOL     OW23224   1.250   1.311   6.444
 7442SOL    HW123225   1.348   1.309   6.426
 7442SOL    HW223226   1.202   1.256   6.376
 7443SOL     OW23227   0.182   1.170   1.228
 7443SOL    HW123228   0.223   1.205   1.144
 7443SOL    HW223229   0.243   1.190   1.305
 7444SOL     OW23230   6.756   3.782   4.994
 7444SOL    HW123231   6.802   3.838   4.925
 7444SOL    HW223232   6.824   3.731   5.047
 7445SOL     OW23233   3.502   0.601   1.533
 7445SOL    HW123234   3.599   0.606   1.558
 7445SOL    HW223235   3.494   0.559   1.442
 7446SOL     OW23236   5.732   4.447   0.522
 7446SOL    HW123237   5.755   4.477   0.614
 7446SOL    HW223238   5.661   4.507   0.485
 7447SOL     OW23239   1.527   3.048   5.348
 7447SOL    HW123240   1.432   3.058   5.319
 7447SOL    HW223241   1.561   3.135   5.384
 7448SOL     OW23242   5.684   6.738   5.333
 7448SOL    HW123243   5.714   6.724   5.239
 7448SOL    HW223244   5.740   6.810   5.376
 7449SOL     OW23245   6.174   2.391   2.110
 7449SOL    HW123246   6.163   2.293   2.128
 7449SOL    HW223247   6.091   2.439   2.137
 7450SOL     OW23248   5.348   1.981   4.269
 7450SOL    HW123249   5.421   1.944   4.212
 7450SOL    HW223250   5.336   2.078   4.247
 7451SOL     OW23251   1.758   0.535   2.811
 7451SOL    HW123252   1.708   0.609   2.765
 7451SOL    HW223253   1.748   0.451   2.758
 7452SOL     OW23254   0.693   6.253   4.822
 7452SOL    HW123255   0.610   6.273   4.875
 7452SOL    HW223256   0.724   6.161   4.842
 7453SOL     OW23257   4.826   5.856   6.188
 7453SOL    HW123258   4.896   5.909   6.140
 7453SOL    HW223259   4.869   5.791   6.250
 7454SOL     OW23260   1.070   2.715   2.049
 7454SOL    HW123261   1.036   2.633   2.004
 7454SOL    HW223262   1.013   2.737   2.127
 7455SOL     OW23263   0.015   1.284   1.904
 7455SOL    HW123264   0.016   1.290   1.804
 7455SOL    HW223265   0.002   1.376   1.942
 7456SOL     OW23266   0.663   2.230   4.256
 7456SOL    HW123267   0.617   2.286   4.187
 7456SOL    HW223268   0.752   2.201   4.222
 7457SOL     OW23269   3.702   0.451   5.572
 7457SOL    HW123270   3.752   0.370   5.541
 7457SOL    HW223271   3.643   0.426   5.649
 7458SOL     OW23272   2.173   0.313   5.969
 7458SOL    HW123273   2.250   0.358   5.924
 7458SOL    HW223274   2.151   0.360   6.055
 7459SOL     OW23275   4.939   0.277   0.542
 7459SOL    HW123276   4.964   0.360   0.592
 7459SOL    HW223277   4.918   0.301   0.447
 7460SOL     OW23278   1.558   4.669   1.263
 7460SOL    HW123279   1.545   4.619   1.178
 7460SOL    HW223280   1.567   4.605   1.339
 7461SOL     OW23281   6.166   1.440   6.284
 7461SOL    HW123282   6.097   1.379   6.323
 7461SOL    HW223283   6.257   1.406   6.305
 7462SOL     OW23284   2.016   3.109   2.635
 7462SOL    HW123285   2.104   3.111   2.682
 7462SOL    HW223286   1.953   3.051   2.686
 7463SOL     OW23287   3.308   4.666   1.413
 7463SOL    HW123288   3.214   4.660   1.381
 7463SOL    HW223289   3.326   4.593   1.479
 7464SOL     OW23290   3.129   6.624   6.426
 7464SOL    HW123291   3.092   6.555   6.488
 7464SOL    HW223292   3.053   6.671   6.380
 7465SOL     OW23293   1.400   6.785   0.414
 7465SOL    HW123294   1.427   6.821   0.504
 7465SOL    HW223295   1.312   6.738   0.422
 7466SOL     OW23296   0.506   0.259   6.420
 7466SOL    HW123297   0.601   0.226   6.423
 7466SOL    HW223298   0.452   0.211   6.490
 7467SOL     OW23299   6.816   1.208   0.923
 7467SOL    HW123300   6.832   1.202   0.825
 7467SOL    HW223301   6.887   1.263   0.966
 7468SOL     OW23302   6.003   3.074   2.537
 7468SOL    HW123303   5.931   3.144   2.535
 7468SOL    HW223304   6.084   3.108   2.489
 7469SOL     OW23305   6.813   0.043   0.361
 7469SOL    HW123306   6.815   6.972   0.335
 7469SOL    HW223307   6.897   0.066   0.410
 7470SOL     OW23308   0.584   2.913   4.453
 7470SOL    HW123309   0.654   2.913   4.524
 7470SOL    HW223310   0.588   2.998   4.401
 7471SOL     OW23311   5.775   6.043   5.646
 7471SOL    HW123312   5.702   6.112   5.653
 7471SOL    HW223313   5.799   6.011   5.737
 7472SOL     OW23314   5.727   6.474   4.276
 7472SOL    HW123315   5.627   6.471   4.268
 7472SOL    HW223316   5.758   6.569   4.267
 7473SOL     OW23317   0.508   4.413   2.683
 7473SOL    HW123318   0.568   4.388   2.760
 7473SOL    HW223319   0.495   4.334   2.624
 7474SOL     OW23320   2.420   1.583   5.208
 7474SOL    HW123321   2.412   1.561   5.305
 7474SOL    HW223322   2.403   1.501   5.153
 7475SOL     OW23323   3.434   1.472   2.164
 7475SOL    HW123324   3.348   1.482   2.215
 7475SOL    HW223325   3.458   1.559   2.121
 7476SOL     OW23326   3.258   6.101   4.416
 7476SOL    HW123327   3.219   6.166   4.481
 7476SOL    HW223328   3.357   6.115   4.410
 7477SOL     OW23329   6.149   1.232   4.515
 7477SOL    HW123330   6.070   1.292   4.521
 7477SOL    HW223331   6.166   1.210   4.419
 7478SOL     OW23332   4.344   4.838   6.898
 7478SOL    HW123333   4.374   4.912   6.838
 7478SOL    HW223334   4.345   4.752   6.847
 7479SOL     OW23335   4.163   2.691   0.943
 7479SOL    HW123336   4.113   2.725   1.023
 7479SOL    HW223337   4.154   2.756   0.868
 7480SOL     OW23338   6.605   4.242   1.696
 7480SOL    HW123339   6.667   4.201   1.630
 7480SOL    HW223340   6.651   4.318   1.742
 7481SOL     OW23341   6.020   5.038   2.422
 7481SOL    HW123342   5.998   4.941   2.433
 7481SOL    HW223343   6.114   5.047   2.390
 7482SOL     OW23344   5.291   1.825   3.001
 7482SOL    HW123345   5.263   1.740   2.956
 7482SOL    HW223346   5.385   1.816   3.034
 7483SOL     OW23347   4.574   2.429   5.317
 7483SOL    HW123348   4.576   2.453   5.414
 7483SOL    HW223349   4.656   2.377   5.294
 7484SOL     OW23350   0.673   6.973   3.208
 7484SOL    HW123351   0.645   0.005   3.131
 7484SOL    HW223352   0.769   6.991   3.229
 7485SOL     OW23353   3.062   6.731   4.884
 7485SOL    HW123354   3.008   6.666   4.938
 7485SOL    HW223355   3.019   6.821   4.889
 7486SOL     OW23356   3.055   0.397   6.076
 7486SOL    HW123357   3.112   0.463   6.026
 7486SOL    HW223358   3.076   0.404   6.174
 7487SOL     OW23359   2.663   6.478   2.328
 7487SOL    HW123360   2.747   6.442   2.369
 7487SOL    HW223361   2.612   6.529   2.397
 7488SOL     OW23362   2.029   6.999   4.549
 7488SOL    HW123363   1.967   0.052   4.555
 7488SOL    HW223364   2.074   6.999   4.459
 7489SOL     OW23365   5.238   2.422   4.664
 7489SOL    HW123366   5.328   2.384   4.643
 7489SOL    HW223367   5.246   2.521   4.678
 7490SOL     OW23368   0.881   1.970   0.965
 7490SOL    HW123369   0.930   2.015   0.890
 7490SOL    HW223370   0.904   2.015   1.051
 7491SOL     OW23371   6.833   3.574   7.000
 7491SOL    HW123372   6.796   3.538   6.915
 7491SOL    HW223373   6.922   3.533   7.019
 7492SOL     OW23374   2.776   1.362   4.535
 7492SOL    HW123375   2.799   1.386   4.629
 7492SOL    HW223376   2.786   1.442   4.477
 7493SOL     OW23377   6.972   4.403   6.946
 7493SOL    HW123378   6.875   4.400   6.919
 7493SOL    HW223379   7.001   4.498   6.953
 7494SOL     OW23380   6.088   0.829   2.338
 7494SOL    HW123381   6.097   0.772   2.420
 7494SOL    HW223382   5.992   0.851   2.323
 7495SOL     OW23383   2.422   0.956   0.936
 7495SOL    HW123384   2.486   1.019   0.981
 7495SOL    HW223385   2.421   0.869   0.985
 7496SOL     OW23386   0.493   3.540   6.769
 7496SOL    HW123387   0.520   3.477   6.696
 7496SOL    HW223388   0.500   3.634   6.736
 7497SOL     OW23389   2.858   4.322   0.399
 7497SOL    HW123390   2.759   4.309   0.396
 7497SOL    HW223391   2.878   4.420   0.406
 7498SOL     OW23392   2.241   1.375   5.150
 7498SOL    HW123393   2.162   1.403   5.096
 7498SOL    HW223394   2.262   1.279   5.131
 7499SOL     OW23395   5.019   0.444   3.566
 7499SOL    HW123396   4.998   0.427   3.470
 7499SOL    HW223397   5.102   0.500   3.573
 7500SOL     OW23398   4.031   5.783   4.226
 7500SOL    HW123399   4.057   5.877   4.206
 7500SOL    HW223400   3.939   5.766   4.191
 7501SOL     OW23401   6.642   4.489   4.243
 7501SOL    HW123402   6.606   4.470   4.152
 7501SOL    HW223403   6.733   4.530   4.235
 7502SOL     OW23404   1.377   0.181   4.996
 7502SOL    HW123405   1.370   0.094   4.948
 7502SOL    HW223406   1.289   0.229   4.991
 7503SOL     OW23407   2.095   1.082   0.688
 7503SOL    HW123408   2.191   1.061   0.673
 7503SOL    HW223409   2.083   1.128   0.776
 7504SOL     OW23410   2.313   0.152   3.545
 7504SOL    HW123411   2.307   0.221   3.618
 7504SOL    HW223412   2.383   0.085   3.569
 7505SOL     OW23413   2.482   1.642   5.524
 7505SOL    HW123414   2.472   1.736   5.493
 7505SOL    HW223415   2.560   1.599   5.478
 7506SOL     OW23416   4.605   6.206   2.866
 7506SOL    HW123417   4.672   6.201   2.792
 7506SOL    HW223418   4.646   6.170   2.950
 7507SOL     OW23419   0.757   0.452   1.661
 7507SOL    HW123420   0.748   0.384   1.588
 7507SOL    HW223421   0.675   0.509   1.663
 7508SOL     OW23422   0.071   6.494   2.210
 7508SOL    HW123423   0.063   6.517   2.307
 7508SOL    HW223424   0.021   6.561   2.156
 7509SOL     OW23425   5.855   4.280   1.419
 7509SOL    HW123426   5.792   4.219   1.370
 7509SOL    HW223427   5.803   4.334   1.485
 7510SOL     OW23428   2.825   4.776   5.294
 7510SOL    HW123429   2.846   4.694   5.240
 7510SOL    HW223430   2.789   4.847   5.233
 7511SOL     OW23431   2.019   6.722   3.401
 7511SOL    HW123432   2.002   6.771   3.316
 7511SOL    HW223433   2.067   6.782   3.465
 7512SOL     OW23434   3.526   4.355   6.827
 7512SOL    HW123435   3.498   4.388   6.736
 7512SOL    HW223436   3.578   4.270   6.816
 7513SOL     OW23437   2.189   2.358   1.688
 7513SOL    HW123438   2.165   2.272   1.734
 7513SOL    HW223439   2.289   2.365   1.681
 7514SOL     OW23440   2.328   5.289   1.932
 7514SOL    HW123441   2.312   5.358   1.861
 7514SOL    HW223442   2.284   5.203   1.904
 7515SOL     OW23443   0.675   5.752   2.166
 7515SOL    HW123444   0.597   5.796   2.121
 7515SOL    HW223445   0.733   5.822   2.206
 7516SOL     OW23446   6.505   6.168   4.095
 7516SOL    HW123447   6.431   6.225   4.130
 7516SOL    HW223448   6.468   6.104   4.027
 7517SOL     OW23449   0.008   3.370   1.331
 7517SOL    HW123450   0.038   3.329   1.245
 7517SOL    HW223451   0.079   3.358   1.401
 7518SOL     OW23452   3.941   5.447   3.156
 7518SOL    HW123453   3.989   5.363   3.133
 7518SOL    HW223454   3.975   5.483   3.243
 7519SOL     OW23455   0.436   6.799   4.141
 7519SOL    HW123456   0.407   6.776   4.048
 7519SOL    HW223457   0.530   6.833   4.140
 7520SOL     OW23458   3.140   6.852   2.053
 7520SOL    HW123459   3.173   6.784   2.118
 7520SOL    HW223460   3.055   6.892   2.087
 7521SOL     OW23461   4.762   4.509   6.340
 7521SOL    HW123462   4.802   4.421   6.367
 7521SOL    HW223463   4.774   4.522   6.242
 7522SOL     OW23464   2.399   6.623   6.501
 7522SOL    HW123465   2.419   6.720   6.495
 7522SOL    HW223466   2.300   6.609   6.504
 7523SOL     OW23467   5.627   0.378   6.299
 7523SOL    HW123468   5.673   0.307   6.244
 7523SOL    HW223469   5.558   0.335   6.357
 7524SOL     OW23470   1.663   2.154   6.743
 7524SOL    HW123471   1.747   2.135   6.693
 7524SOL    HW223472   1.664   2.249   6.775
 7525SOL     OW23473   2.547   6.958   6.817
 7525SOL    HW123474   2.629   7.015   6.816
 7525SOL    HW223475   2.485   6.992   6.889
 7526SOL     OW23476   3.231   3.222   2.255
 7526SOL    HW123477   3.196   3.136   2.219
 7526SOL    HW223478   3.165   3.295   2.237
 7527SOL     OW23479   4.053   5.717   2.972
 7527SOL    HW123480   3.997   5.776   3.029
 7527SOL    HW223481   4.078   5.635   3.023
 7528SOL     OW23482   4.277   1.782   6.581
 7528SOL    HW123483   4.306   1.829   6.665
 7528SOL    HW223484   4.325   1.821   6.503
 7529SOL     OW23485   5.741   0.579   4.748
 7529SOL    HW123486   5.815   0.586   4.815
 7529SOL    HW223487   5.729   0.483   4.721
 7530SOL     OW23488   6.746   4.265   2.285
 7530SOL    HW123489   6.779   4.206   2.212
 7530SOL    HW223490   6.732   4.210   2.368
 7531SOL     OW23491   5.131   2.185   3.924
 7531SOL    HW123492   5.228   2.165   3.935
 7531SOL    HW223493   5.108   2.189   3.827
 7532SOL     OW23494   5.548   5.225   1.579
 7532SOL    HW123495   5.519   5.263   1.667
 7532SOL    HW223496   5.646   5.210   1.579
 7533SOL     OW23497   2.532   1.506   2.644
 7533SOL    HW123498   2.555   1.449   2.724
 7533SOL    HW223499   2.437   1.490   2.618
 7534SOL     OW23500   4.231   6.685   6.088
 7534SOL    HW123501   4.257   6.695   6.184
 7534SOL    HW223502   4.297   6.734   6.030
 7535SOL     OW23503   2.989   0.613   5.774
 7535SOL    HW123504   2.936   0.660   5.845
 7535SOL    HW223505   3.087   0.630   5.790
 7536SOL     OW23506   5.085   5.348   5.016
 7536SOL    HW123507   5.127   5.326   5.104
 7536SOL    HW223508   5.137   5.305   4.943
 7537SOL     OW23509   2.535   5.231   3.305
 7537SOL    HW123510   2.491   5.179   3.378
 7537SOL    HW223511   2.633   5.234   3.321
 7538SOL     OW23512   3.274   3.485   2.216
 7538SOL    HW123513   3.311   3.394   2.235
 7538SOL    HW223514   3.330   3.554   2.262
 7539SOL     OW23515   2.507   2.535   3.938
 7539SOL    HW123516   2.555   2.473   4.001
 7539SOL    HW223517   2.468   2.611   3.988
 7540SOL     OW23518   3.064   6.788   5.798
 7540SOL    HW123519   2.972   6.815   5.824
 7540SOL    HW223520   3.075   6.690   5.808
 7541SOL     OW23521   0.275   4.044   4.412
 7541SOL    HW123522   0.330   4.021   4.492
 7541SOL    HW223523   0.182   4.067   4.440
 7542SOL     OW23524   0.734   5.398   6.630
 7542SOL    HW123525   0.747   5.490   6.593
 7542SOL    HW223526   0.639   5.388   6.660
 7543SOL     OW23527   4.178   1.886   1.160
 7543SOL    HW123528   4.140   1.886   1.252
 7543SOL    HW223529   4.267   1.932   1.162
 7544SOL     OW23530   0.223   2.652   3.358
 7544SOL    HW123531   0.285   2.582   3.323
 7544SOL    HW223532   0.269   2.740   3.358
 7545SOL     OW23533   6.203   6.303   2.350
 7545SOL    HW123534   6.147   6.360   2.410
 7545SOL    HW223535   6.289   6.349   2.330
 7546SOL     OW23536   3.428   0.514   1.917
 7546SOL    HW123537   3.413   0.613   1.909
 7546SOL    HW223538   3.392   0.482   2.004
 7547SOL     OW23539   4.544   0.036   0.326
 7547SOL    HW123540   4.506   0.114   0.276
 7547SOL    HW223541   4.510   6.975   0.286
 7548SOL     OW23542   3.683   2.287   0.301
 7548SOL    HW123543   3.759   2.309   0.363
 7548SOL    HW223544   3.714   2.293   0.207
 7549SOL     OW23545   5.517   1.768   0.726
 7549SOL    HW123546   5.514   1.846   0.788
 7549SOL    HW223547   5.558   1.796   0.639
 7550SOL     OW23548   2.392   4.504   1.960
 7550SOL    HW123549   2.412   4.483   2.055
 7550SOL    HW223550   2.305   4.552   1.954
 7551SOL     OW23551   5.156   3.506   6.541
 7551SOL    HW123552   5.080   3.565   6.567
 7551SOL    HW223553   5.127   3.410   6.544
 7552SOL     OW23554   1.608   5.925   3.047
 7552SOL    HW123555   1.535   5.934   3.115
 7552SOL    HW223556   1.637   6.016   3.017
 7553SOL     OW23557   4.673   5.285   5.459
 7553SOL    HW123558   4.680   5.246   5.367
 7553SOL    HW223559   4.592   5.342   5.465
 7554SOL     OW23560   4.757   0.674   1.461
 7554SOL    HW123561   4.821   0.621   1.406
 7554SOL    HW223562   4.749   0.767   1.423
 7555SOL     OW23563   1.798   4.937   5.095
 7555SOL    HW123564   1.727   4.939   5.166
 7555SOL    HW223565   1.795   4.849   5.048
 7556SOL     OW23566   0.730   3.129   5.618
 7556SOL    HW123567   0.681   3.168   5.541
 7556SOL    HW223568   0.666   3.085   5.681
 7557SOL     OW23569   5.015   2.481   5.846
 7557SOL    HW123570   5.104   2.517   5.820
 7557SOL    HW223571   5.022   2.433   5.933
 7558SOL     OW23572   2.249   2.840   3.743
 7558SOL    HW123573   2.245   2.875   3.837
 7558SOL    HW223574   2.268   2.742   3.745
 7559SOL     OW23575   6.202   4.951   0.102
 7559SOL    HW123576   6.257   5.034   0.092
 7559SOL    HW223577   6.168   4.923   0.012
 7560SOL     OW23578   5.005   6.598   0.514
 7560SOL    HW123579   5.096   6.640   0.515
 7560SOL    HW223580   4.976   6.581   0.608
 7561SOL     OW23581   0.924   3.100   0.007
 7561SOL    HW123582   0.872   3.026   6.988
 7561SOL    HW223583   0.906   3.186   6.984
 7562SOL     OW23584   5.472   5.916   5.035
 7562SOL    HW123585   5.465   5.895   5.133
 7562SOL    HW223586   5.539   5.988   5.020
 7563SOL     OW23587   2.584   6.044   1.038
 7563SOL    HW123588   2.684   6.038   1.036
 7563SOL    HW223589   2.545   5.958   1.004
 7564SOL     OW23590   5.175   1.606   2.907
 7564SOL    HW123591   5.164   1.570   3.000
 7564SOL    HW223592   5.108   1.564   2.846
 7565SOL     OW23593   4.947   4.451   0.146
 7565SOL    HW123594   4.891   4.390   0.202
 7565SOL    HW223595   4.946   4.543   0.187
 7566SOL     OW23596   6.793   5.563   3.756
 7566SOL    HW123597   6.819   5.503   3.832
 7566SOL    HW223598   6.697   5.588   3.764
 7567SOL     OW23599   1.819   2.387   5.027
 7567SOL    HW123600   1.836   2.333   5.110
 7567SOL    HW223601   1.767   2.469   5.050
 7568SOL     OW23602   5.501   5.651   2.980
 7568SOL    HW123603   5.436   5.679   3.051
 7568SOL    HW223604   5.452   5.639   2.894
 7569SOL     OW23605   4.339   4.861   6.560
 7569SOL    HW123606   4.289   4.891   6.479
 7569SOL    HW223607   4.324   4.764   6.575
 7570SOL     OW23608   5.688   4.860   5.482
 7570SOL    HW123609   5.722   4.867   5.389
 7570SOL    HW223610   5.644   4.771   5.495
 7571SOL     OW23611   4.551   5.695   3.180
 7571SOL    HW123612   4.568   5.794   3.183
 7571SOL    HW223613   4.613   5.649   3.243
 7572SOL     OW23614   4.398   1.258   3.186
 7572SOL    HW123615   4.317   1.221   3.140
 7572SOL    HW223616   4.384   1.259   3.285
 7573SOL     OW23617   6.528   6.752   4.958
 7573SOL    HW123618   6.541   6.737   5.056
 7573SOL    HW223619   6.569   6.676   4.907
 7574SOL     OW23620   6.489   0.905   4.604
 7574SOL    HW123621   6.474   0.876   4.510
 7574SOL    HW223622   6.437   0.846   4.667
 7575SOL     OW23623   4.028   0.689   5.936
 7575SOL    HW123624   3.946   0.659   5.886
 7575SOL    HW223625   4.106   0.691   5.873
 7576SOL     OW23626   6.203   5.239   0.124
 7576SOL    HW123627   6.285   5.293   0.105
 7576SOL    HW223628   6.211   5.198   0.215
 7577SOL     OW23629   0.197   6.302   6.083
 7577SOL    HW123630   0.116   6.314   6.026
 7577SOL    HW223631   0.251   6.387   6.082
 7578SOL     OW23632   2.965   5.759   2.511
 7578SOL    HW123633   2.897   5.785   2.442
 7578SOL    HW223634   3.053   5.799   2.486
 7579SOL     OW23635   5.423   2.451   2.115
 7579SOL    HW123636   5.369   2.468   2.032
 7579SOL    HW223637   5.443   2.538   2.160
 7580SOL     OW23638   1.419   4.089   4.188
 7580SOL    HW123639   1.445   4.160   4.123
 7580SOL    HW223640   1.350   4.030   4.146
 7581SOL     OW23641   6.369   0.051   1.538
 7581SOL    HW123642   6.463   0.022   1.518
 7581SOL    HW223643   6.370   0.147   1.567
 7582SOL     OW23644   2.551   0.736   0.398
 7582SOL    HW123645   2.474   0.799   0.407
 7582SOL    HW223646   2.587   0.741   0.305
 7583SOL     OW23647   6.207   3.166   1.028
 7583SOL    HW123648   6.298   3.173   1.070
 7583SOL    HW223649   6.177   3.071   1.029
 7584SOL     OW23650   2.363   6.547   1.023
 7584SOL    HW123651   2.297   6.498   0.965
 7584SOL    HW223652   2.423   6.482   1.068
 7585SOL     OW23653   1.791   3.049   5.941
 7585SOL    HW123654   1.870   3.020   5.886
 7585SOL    HW223655   1.738   2.968   5.968
 7586SOL     OW23656   3.633   0.680   3.487
 7586SOL    HW123657   3.533   0.691   3.493
 7586SOL    HW223658   3.667   0.646   3.575
 7587SOL     OW23659   3.106   2.166   6.665
 7587SOL    HW123660   3.024   2.216   6.692
 7587SOL    HW223661   3.156   2.137   6.747
 7588SOL     OW23662   1.415   3.123   2.780
 7588SOL    HW123663   1.414   3.086   2.688
 7588SOL    HW223664   1.322   3.120   2.819
 7589SOL     OW23665   6.762   6.904   1.818
 7589SOL    HW123666   6.846   6.855   1.795
 7589SOL    HW223667   6.758   6.989   1.767
 7590SOL     OW23668   4.222   2.186   6.537
 7590SOL    HW123669   4.236   2.117   6.609
 7590SOL    HW223670   4.146   2.245   6.563
 7591SOL     OW23671   6.991   4.193   0.308
 7591SOL    HW123672   6.894   4.202   0.284
 7591SOL    HW223673   0.019   4.261   0.257
 7592SOL     OW23674   6.090   4.042   6.599
 7592SOL    HW123675   6.124   4.131   6.628
 7592SOL    HW223676   6.160   3.973   6.616
 7593SOL     OW23677   5.773   2.449   1.242
 7593SOL    HW123678   5.854   2.508   1.249
 7593SOL    HW223679   5.730   2.464   1.153
 7594SOL     OW23680   0.195   4.548   1.800
 7594SOL    HW123681   0.187   4.521   1.896
 7594SOL    HW223682   0.129   4.620   1.780
 7595SOL     OW23683   6.798   2.799   6.126
 7595SOL    HW123684   6.840   2.860   6.059
 7595SOL    HW223685   6.713   2.762   6.089
 7596SOL     OW23686   4.789   6.157   3.470
 7596SOL    HW123687   4.722   6.219   3.429
 7596SOL    HW223688   4.766   6.142   3.566
 7597SOL     OW23689   2.842   6.096   2.628
 7597SOL    HW123690   2.883   6.012   2.662
 7597SOL    HW223691   2.859   6.105   2.530
 7598SOL     OW23692   0.073   1.626   3.328
 7598SOL    HW123693   0.073   1.571   3.411
 7598SOL    HW223694   0.143   1.592   3.265
 7599SOL     OW23695   5.743   1.793   2.869
 7599SOL    HW123696   5.722   1.889   2.853
 7599SOL    HW223697   5.773   1.751   2.784
 7600SOL     OW23698   1.319   1.212   2.476
 7600SOL    HW123699   1.395   1.267   2.509
 7600SOL    HW223700   1.248   1.272   2.439
 7601SOL     OW23701   2.070   5.550   2.623
 7601SOL    HW123702   2.135   5.479   2.651
 7601SOL    HW223703   2.024   5.587   2.703
 7602SOL     OW23704   1.125   4.433   7.013
 7602SOL    HW123705   1.165   4.389   6.933
 7602SOL    HW223706   1.031   4.403   0.000
 7603SOL     OW23707   1.880   5.113   5.584
 7603SOL    HW123708   1.933   5.076   5.661
 7603SOL    HW223709   1.918   5.078   5.498
 7604SOL     OW23710   1.925   4.640   4.115
 7604SOL    HW123711   2.015   4.668   4.083
 7604SOL    HW223712   1.934   4.591   4.202
 7605SOL     OW23713   0.548   6.966   0.801
 7605SOL    HW123714   0.459   6.922   0.804
 7605SOL    HW223715   0.603   6.926   0.728
 7606SOL     OW23716   6.499   3.244   3.603
 7606SOL    HW123717   6.563   3.302   3.553
 7606SOL    HW223718   6.445   3.191   3.539
 7607SOL     OW23719   4.866   5.114   0.725
 7607SOL    HW123720   4.779   5.119   0.774
 7607SOL    HW223721   4.866   5.182   0.652
 7608SOL     OW23722   3.354   4.012   3.253
 7608SOL    HW123723   3.372   4.083   3.321
 7608SOL    HW223724   3.430   3.947   3.251
 7609SOL     OW23725   0.307   3.973   3.728
 7609SOL    HW123726   0.402   3.973   3.757
 7609SOL    HW223727   0.291   4.052   3.668
 7610SOL     OW23728   5.716   6.262   0.258
 7610SOL    HW123729   5.668   6.181   0.224
 7610SOL    HW223730   5.805   6.268   0.213
 7611SOL     OW23731   0.627   1.457   6.911
 7611SOL    HW123732   0.549   1.518   6.927
 7611SOL    HW223733   0.611   1.370   6.958
 7612SOL     OW23734   5.219   3.435   5.264
 7612SOL    HW123735   5.219   3.377   5.183
 7612SOL    HW223736   5.133   3.485   5.270
 7613SOL     OW23737   6.035   3.333   1.211
 7613SOL    HW123738   6.085   3.284   1.139
 7613SOL    HW223739   6.082   3.322   1.298
 7614SOL     OW23740   5.398   3.842   0.785
 7614SOL    HW123741   5.486   3.886   0.799
 7614SOL    HW223742   5.411   3.751   0.746
 7615SOL     OW23743   4.501   3.721   6.301
 7615SOL    HW123744   4.562   3.795   6.328
 7615SOL    HW223745   4.440   3.699   6.377
 7616SOL     OW23746   6.394   5.003   5.288
 7616SOL    HW123747   6.381   4.923   5.231
 7616SOL    HW223748   6.450   5.070   5.240
 7617SOL     OW23749   3.357   5.700   2.660
 7617SOL    HW123750   3.322   5.633   2.595
 7617SOL    HW223751   3.441   5.741   2.624
 7618SOL     OW23752   0.595   1.791   6.209
 7618SOL    HW123753   0.680   1.839   6.188
 7618SOL    HW223754   0.581   1.718   6.142
 7619SOL     OW23755   5.850   3.187   5.456
 7619SOL    HW123756   5.929   3.206   5.514
 7619SOL    HW223757   5.793   3.118   5.500
 7620SOL     OW23758   3.966   5.171   0.622
 7620SOL    HW123759   4.037   5.241   0.629
 7620SOL    HW223760   3.990   5.095   0.683
 7621SOL     OW23761   6.848   1.654   0.536
 7621SOL    HW123762   6.878   1.568   0.496
 7621SOL    HW223763   6.748   1.662   0.529
 7622SOL     OW23764   5.428   5.564   1.686
 7622SOL    HW123765   5.382   5.627   1.623
 7622SOL    HW223766   5.360   5.504   1.729
 7623SOL     OW23767   4.726   3.514   6.495
 7623SOL    HW123768   4.651   3.564   6.537
 7623SOL    HW223769   4.801   3.504   6.561
 7624SOL     OW23770   7.023   2.483   4.720
 7624SOL    HW123771   6.966   2.507   4.799
 7624SOL    HW223772   0.057   2.560   4.696
 7625SOL     OW23773   4.912   0.489   1.361
 7625SOL    HW123774   4.873   0.402   1.332
 7625SOL    HW223775   4.956   0.478   1.450
 7626SOL     OW23776   6.034   6.805   4.010
 7626SOL    HW123777   5.994   6.732   4.066
 7626SOL    HW223778   6.061   6.881   4.070
 7627SOL     OW23779   5.431   2.894   6.806
 7627SOL    HW123780   5.377   2.903   6.890
 7627SOL    HW223781   5.490   2.815   6.814
 7628SOL     OW23782   3.925   0.094   2.737
 7628SOL    HW123783   3.849   0.031   2.718
 7628SOL    HW223784   3.994   0.085   2.665
 7629SOL     OW23785   6.896   0.346   3.249
 7629SOL    HW123786   6.822   0.372   3.187
 7629SOL    HW223787   6.858   0.329   3.340
 7630SOL     OW23788   6.332   0.483   2.033
 7630SOL    HW123789   6.273   0.558   2.063
 7630SOL    HW223790   6.374   0.440   2.114
 7631SOL     OW23791   0.632   0.663   5.981
 7631SOL    HW123792   0.604   0.676   6.076
 7631SOL    HW223793   0.641   0.752   5.937
 7632SOL     OW23794   3.608   2.596   1.791
 7632SOL    HW123795   3.631   2.671   1.854
 7632SOL    HW223796   3.658   2.514   1.817
 7633SOL     OW23797   4.993   1.489   1.116
 7633SOL    HW123798   4.958   1.409   1.165
 7633SOL    HW223799   5.084   1.511   1.149
 7634SOL     OW23800   0.621   1.895   2.706
 7634SOL    HW123801   0.594   1.989   2.688
 7634SOL    HW223802   0.720   1.886   2.694
 7635SOL     OW23803   2.930   5.649   5.116
 7635SOL    HW123804   2.878   5.601   5.046
 7635SOL    HW223805   3.019   5.676   5.078
 7636SOL     OW23806   1.015   2.731   4.148
 7636SOL    HW123807   1.090   2.687   4.198
 7636SOL    HW223808   0.936   2.739   4.209
 7637SOL     OW23809   2.877   5.394   2.393
 7637SOL    HW123810   2.859   5.477   2.446
 7637SOL    HW223811   2.792   5.342   2.383
 7638SOL     OW23812   3.883   6.337   0.874
 7638SOL    HW123813   3.833   6.420   0.853
 7638SOL    HW223814   3.918   6.297   0.789
 7639SOL     OW23815   1.480   2.025   0.361
 7639SOL    HW123816   1.437   2.073   0.283
 7639SOL    HW223817   1.520   2.092   0.422
 7640SOL     OW23818   3.512   1.624   6.706
 7640SOL    HW123819   3.414   1.613   6.690
 7640SOL    HW223820   3.551   1.679   6.632
 7641SOL     OW23821   1.089   4.354   1.441
 7641SOL    HW123822   0.993   4.383   1.442
 7641SOL    HW223823   1.106   4.293   1.518
 7642SOL     OW23824   3.709   0.510   2.673
 7642SOL    HW123825   3.713   0.560   2.586
 7642SOL    HW223826   3.642   0.436   2.667
 7643SOL     OW23827   4.944   3.269   4.537
 7643SOL    HW123828   4.918   3.239   4.445
 7643SOL    HW223829   4.903   3.359   4.554
 7644SOL     OW23830   5.788   2.196   2.266
 7644SOL    HW123831   5.797   2.122   2.199
 7644SOL    HW223832   5.691   2.220   2.276
 7645SOL     OW23833   4.346   4.189   5.312
 7645SOL    HW123834   4.298   4.106   5.283
 7645SOL    HW223835   4.325   4.263   5.249
 7646SOL     OW23836   1.842   2.922   2.760
 7646SOL    HW123837   1.879   2.843   2.810
 7646SOL    HW223838   1.758   2.953   2.805
 7647SOL     OW23839   6.552   3.419   2.183
 7647SOL    HW123840   6.649   3.394   2.175
 7647SOL    HW223841   6.507   3.356   2.246
 7648SOL     OW23842   3.314   1.789   3.814
 7648SOL    HW123843   3.242   1.855   3.795
 7648SOL    HW223844   3.275   1.697   3.817
 7649SOL     OW23845   0.796   0.761   3.312
 7649SOL    HW123846   0.718   0.790   3.367
 7649SOL    HW223847   0.863   0.835   3.309
 7650SOL     OW23848   4.870   2.941   1.467
 7650SOL    HW123849   4.775   2.912   1.459
 7650SOL    HW223850   4.891   3.006   1.394
 7651SOL     OW23851   2.475   0.517   4.432
 7651SOL    HW123852   2.401   0.503   4.367
 7651SOL    HW223853   2.459   0.462   4.514
 7652SOL     OW23854   6.585   3.746   4.200
 7652SOL    HW123855   6.521   3.803   4.147
 7652SOL    HW223856   6.617   3.797   4.279
 7653SOL     OW23857   2.603   1.905   0.198
 7653SOL    HW123858   2.593   1.864   0.107
 7653SOL    HW223859   2.651   1.842   0.258
 7654SOL     OW23860   5.002   2.207   3.678
 7654SOL    HW123861   5.015   2.305   3.690
 7654SOL    HW223862   4.921   2.178   3.730
 7655SOL     OW23863   3.727   0.338   3.659
 7655SOL    HW123864   3.815   0.293   3.678
 7655SOL    HW223865   3.682   0.291   3.583
 7656SOL     OW23866   2.113   5.348   5.975
 7656SOL    HW123867   2.060   5.429   5.953
 7656SOL    HW223868   2.210   5.372   5.981
 7657SOL     OW23869   2.264   2.585   3.819
 7657SOL    HW123870   2.205   2.546   3.890
 7657SOL    HW223871   2.359   2.579   3.847
 7658SOL     OW23872   3.178   0.199   5.799
 7658SOL    HW123873   3.183   0.161   5.891
 7658SOL    HW223874   3.088   0.238   5.783
 7659SOL     OW23875   6.000   5.279   6.964
 7659SOL    HW123876   6.073   5.281   0.008
 7659SOL    HW223877   5.958   5.370   6.957
 7660SOL     OW23878   0.486   6.223   3.727
 7660SOL    HW123879   0.539   6.231   3.812
 7660SOL    HW223880   0.393   6.194   3.748
 7661SOL     OW23881   5.906   2.530   4.425
 7661SOL    HW123882   5.951   2.618   4.441
 7661SOL    HW223883   5.863   2.499   4.510
 7662SOL     OW23884   0.875   2.922   2.847
 7662SOL    HW123885   0.840   2.842   2.797
 7662SOL    HW223886   0.861   2.909   2.945
 7663SOL     OW23887   1.390   6.273   5.648
 7663SOL    HW123888   1.473   6.273   5.704
 7663SOL    HW223889   1.408   6.321   5.562
 7664SOL     OW23890   3.493   0.040   2.147
 7664SOL    HW123891   3.554   0.100   2.094
 7664SOL    HW223892   3.410   0.023   2.094
 7665SOL     OW23893   4.319   0.278   5.090
 7665SOL    HW123894   4.398   0.335   5.065
 7665SOL    HW223895   4.298   0.293   5.186
 7666SOL     OW23896   0.522   6.468   1.359
 7666SOL    HW123897   0.575   6.508   1.433
 7666SOL    HW223898   0.584   6.438   1.286
 7667SOL     OW23899   4.856   5.608   1.837
 7667SOL    HW123900   4.950   5.622   1.868
 7667SOL    HW223901   4.831   5.683   1.776
 7668SOL     OW23902   3.277   4.319   1.192
 7668SOL    HW123903   3.271   4.242   1.129
 7668SOL    HW223904   3.189   4.367   1.194
 7669SOL     OW23905   5.721   1.803   5.529
 7669SOL    HW123906   5.718   1.900   5.507
 7669SOL    HW223907   5.748   1.791   5.625
 7670SOL     OW23908   1.079   5.071   6.597
 7670SOL    HW123909   0.993   5.115   6.570
 7670SOL    HW223910   1.117   5.118   6.677
 7671SOL     OW23911   4.297   0.972   3.358
 7671SOL    HW123912   4.335   0.997   3.447
 7671SOL    HW223913   4.371   0.938   3.299
 7672SOL     OW23914   6.419   6.497   3.118
 7672SOL    HW123915   6.436   6.499   3.019
 7672SOL    HW223916   6.473   6.568   3.163
 7673SOL     OW23917   1.774   5.368   0.190
 7673SOL    HW123918   1.750   5.395   0.097
 7673SOL    HW223919   1.838   5.435   0.229
 7674SOL     OW23920   5.912   1.491   3.820
 7674SOL    HW123921   5.813   1.481   3.830
 7674SOL    HW223922   5.956   1.468   3.907
 7675SOL     OW23923   5.803   7.017   2.533
 7675SOL    HW123924   5.799   0.072   2.473
 7675SOL    HW223925   5.842   0.019   2.622
 7676SOL     OW23926   2.021   2.322   0.597
 7676SOL    HW123927   2.044   2.268   0.677
 7676SOL    HW223928   2.070   2.286   0.517
 7677SOL     OW23929   0.568   4.759   2.237
 7677SOL    HW123930   0.531   4.818   2.166
 7677SOL    HW223931   0.589   4.669   2.199
 7678SOL     OW23932   2.770   1.613   4.879
 7678SOL    HW123933   2.723   1.601   4.967
 7678SOL    HW223934   2.714   1.668   4.818
 7679SOL     OW23935   2.994   5.432   6.653
 7679SOL    HW123936   2.949   5.344   6.667
 7679SOL    HW223937   3.058   5.424   6.577
 7680SOL     OW23938   1.854   1.999   0.613
 7680SOL    HW123939   1.907   1.999   0.698
 7680SOL    HW223940   1.869   2.086   0.564
 7681SOL     OW23941   2.704   6.816   0.455
 7681SOL    HW123942   2.715   6.881   0.529
 7681SOL    HW223943   2.662   6.861   0.376
 7682SOL     OW23944   2.759   0.388   2.133
 7682SOL    HW123945   2.730   0.309   2.078
 7682SOL    HW223946   2.832   0.360   2.196
 7683SOL     OW23947   6.484   1.582   3.700
 7683SOL    HW123948   6.458   1.486   3.685
 7683SOL    HW223949   6.551   1.609   3.631
 7684SOL     OW23950   4.086   1.829   2.039
 7684SOL    HW123951   4.072   1.927   2.053
 7684SOL    HW223952   4.023   1.797   1.968
 7685SOL     OW23953   3.431   2.439   6.954
 7685SOL    HW123954   3.422   2.528   6.911
 7685SOL    HW223955   3.528   2.420   6.971
 7686SOL     OW23956   6.482   6.959   3.028
 7686SOL    HW123957   6.486   6.932   3.124
 7686SOL    HW223958   6.530   6.891   2.972
 7687SOL     OW23959   5.757   4.802   4.386
 7687SOL    HW123960   5.852   4.801   4.357
 7687SOL    HW223961   5.751   4.829   4.482
 7688SOL     OW23962   0.382   6.198   5.233
 7688SOL    HW123963   0.401   6.251   5.316
 7688SOL    HW223964   0.333   6.115   5.258
 7689SOL     OW23965   5.327   6.361   3.092
 7689SOL    HW123966   5.265   6.287   3.066
 7689SOL    HW223967   5.405   6.363   3.030
 7690SOL     OW23968   6.332   5.156   0.986
 7690SOL    HW123969   6.377   5.235   0.944
 7690SOL    HW223970   6.234   5.162   0.972
 7691SOL     OW23971   4.986   2.770   4.554
 7691SOL    HW123972   5.004   2.857   4.507
 7691SOL    HW223973   5.070   2.717   4.558
 7692SOL     OW23974   0.668   6.127   2.209
 7692SOL    HW123975   0.669   6.123   2.109
 7692SOL    HW223976   0.745   6.074   2.246
 7693SOL     OW23977   3.782   0.077   1.210
 7693SOL    HW123978   3.814   0.054   1.118
 7693SOL    HW223979   3.704   0.139   1.204
 7694SOL     OW23980   7.022   4.610   4.765
 7694SOL    HW123981   6.946   4.546   4.774
 7694SOL    HW223982   0.047   4.616   4.852
 7695SOL     OW23983   4.270   6.066   0.801
 7695SOL    HW123984   4.177   6.036   0.822
 7695SOL    HW223985   4.325   6.060   0.885
 7696SOL     OW23986   6.812   1.667   4.543
 7696SOL    HW123987   6.869   1.694   4.621
 7696SOL    HW223988   6.772   1.748   4.501
 7697SOL     OW23989   3.500   6.533   1.797
 7697SOL    HW123990   3.475   6.437   1.815
 7697SOL    HW223991   3.421   6.592   1.812
 7698SOL     OW23992   6.353   2.286   3.465
 7698SOL    HW123993   6.295   2.230   3.405
 7698SOL    HW223994   6.297   2.323   3.539
 7699SOL     OW23995   3.505   5.870   6.978
 7699SOL    HW123996   3.429   5.908   0.007
 7699SOL    HW223997   3.574   5.941   6.963
 7700SOL     OW23998   5.019   6.375   4.323
 7700SOL    HW123999   5.031   6.286   4.367
 7700SOL    HW224000   5.025   6.447   4.392
 7701SOL     OW24001   6.770   1.339   0.220
 7701SOL    HW124002   6.795   1.255   0.171
 7701SOL    HW224003   6.823   1.346   0.304
 7702SOL     OW24004   3.306   6.295   6.316
 7702SOL    HW124005   3.301   6.394   6.328
 7702SOL    HW224006   3.322   6.274   6.219
 7703SOL     OW24007   6.340   0.379   5.439
 7703SOL    HW124008   6.372   0.424   5.356
 7703SOL    HW224009   6.367   0.432   5.519
 7704SOL     OW24010   5.503   5.076   5.459
 7704SOL    HW124011   5.491   5.110   5.366
 7704SOL    HW224012   5.570   5.001   5.458
 7705SOL     OW24013   3.593   5.360   5.810
 7705SOL    HW124014   3.646   5.391   5.889
 7705SOL    HW224015   3.543   5.436   5.771
 7706SOL     OW24016   4.699   2.860   5.206
 7706SOL    HW124017   4.752   2.882   5.288
 7706SOL    HW224018   4.745   2.898   5.125
 7707SOL     OW24019   0.661   5.706   5.956
 7707SOL    HW124020   0.676   5.612   5.988
 7707SOL    HW224021   0.684   5.770   6.029
 7708SOL     OW24022   6.271   7.002   5.728
 7708SOL    HW124023   6.362   0.003   5.760
 7708SOL    HW224024   6.260   0.007   5.633
 7709SOL     OW24025   5.402   4.274   1.384
 7709SOL    HW124026   5.372   4.294   1.477
 7709SOL    HW224027   5.487   4.222   1.387
 7710SOL     OW24028   3.404   0.372   0.750
 7710SOL    HW124029   3.339   0.320   0.805
 7710SOL    HW224030   3.378   0.469   0.751
 7711SOL     OW24031   6.427   6.251   5.313
 7711SOL    HW124032   6.393   6.341   5.288
 7711SOL    HW224033   6.513   6.260   5.365
 7712SOL     OW24034   5.235   6.142   2.590
 7712SOL    HW124035   5.234   6.054   2.543
 7712SOL    HW224036   5.157   6.196   2.562
 7713SOL     OW24037   1.627   4.670   0.309
 7713SOL    HW124038   1.712   4.678   0.361
 7713SOL    HW224039   1.621   4.747   0.245
 7714SOL     OW24040   6.400   4.079   5.670
 7714SOL    HW124041   6.495   4.075   5.698
 7714SOL    HW224042   6.393   4.125   5.581
 7715SOL     OW24043   4.321   2.004   6.777
 7715SOL    HW124044   4.230   2.019   6.815
 7715SOL    HW224045   4.367   1.931   6.827
 7716SOL     OW24046   6.762   3.948   3.870
 7716SOL    HW124047   6.837   4.011   3.846
 7716SOL    HW224048   6.681   4.001   3.894
 7717SOL     OW24049   1.694   0.913   4.711
 7717SOL    HW124050   1.736   0.974   4.779
 7717SOL    HW224051   1.674   0.965   4.628
 7718SOL     OW24052   1.636   1.713   3.281
 7718SOL    HW124053   1.682   1.798   3.257
 7718SOL    HW224054   1.700   1.637   3.270
 7719SOL     OW24055   0.091   3.868   4.675
 7719SOL    HW124056   0.094   3.847   4.577
 7719SOL    HW224057   0.156   3.941   4.696
 7720SOL     OW24058   0.612   0.840   0.180
 7720SOL    HW124059   0.577   0.813   0.090
 7720SOL    HW224060   0.566   0.786   0.251
 7721SOL     OW24061   0.228   5.193   2.742
 7721SOL    HW124062   0.315   5.183   2.789
 7721SOL    HW224063   0.220   5.286   2.705
 7722SOL     OW24064   0.600   6.337   3.274
 7722SOL    HW124065   0.612   6.305   3.368
 7722SOL    HW224066   0.640   6.270   3.211
 7723SOL     OW24067   5.970   3.382   0.037
 7723SOL    HW124068   5.969   3.482   0.026
 7723SOL    HW224069   6.003   3.339   6.978
 7724SOL     OW24070   2.760   4.419   1.603
 7724SOL    HW124071   2.745   4.510   1.565
 7724SOL    HW224072   2.804   4.427   1.692
 7725SOL     OW24073   5.922   2.892   2.925
 7725SOL    HW124074   5.847   2.875   2.989
 7725SOL    HW224075   5.886   2.896   2.832
 7726SOL     OW24076   2.012   6.144   5.007
 7726SOL    HW124077   1.918   6.110   5.009
 7726SOL    HW224078   2.061   6.113   5.088
 7727SOL     OW24079   0.214   0.599   2.370
 7727SOL    HW124080   0.177   0.668   2.308
 7727SOL    HW224081   0.202   0.628   2.465
 7728SOL     OW24082   0.944   4.820   3.586
 7728SOL    HW124083   0.984   4.740   3.541
 7728SOL    HW224084   0.912   4.885   3.517
 7729SOL     OW24085   5.804   2.818   1.083
 7729SOL    HW124086   5.770   2.728   1.055
 7729SOL    HW224087   5.734   2.866   1.135
 7730SOL     OW24088   5.969   6.241   1.289
 7730SOL    HW124089   5.931   6.330   1.265
 7730SOL    HW224090   6.044   6.253   1.354
 7731SOL     OW24091   6.789   0.172   0.824
 7731SOL    HW124092   6.773   0.081   0.784
 7731SOL    HW224093   6.730   0.238   0.778
 7732SOL     OW24094   3.990   6.575   0.572
 7732SOL    HW124095   4.025   6.489   0.608
 7732SOL    HW224096   3.897   6.590   0.606
 7733SOL     OW24097   4.928   0.118   2.246
 7733SOL    HW124098   4.948   0.163   2.333
 7733SOL    HW224099   4.836   0.143   2.216
 7734SOL     OW24100   2.562   5.508   3.422
 7734SOL    HW124101   2.486   5.446   3.441
 7734SOL    HW224102   2.628   5.462   3.363
 7735SOL     OW24103   4.572   6.068   6.495
 7735SOL    HW124104   4.543   6.021   6.578
 7735SOL    HW224105   4.491   6.092   6.441
 7736SOL     OW24106   3.505   3.810   6.902
 7736SOL    HW124107   3.546   3.800   6.993
 7736SOL    HW224108   3.434   3.880   6.905
 7737SOL     OW24109   3.469   0.834   2.439
 7737SOL    HW124110   3.400   0.899   2.408
 7737SOL    HW224111   3.426   0.745   2.455
 7738SOL     OW24112   2.676   5.404   0.013
 7738SOL    HW124113   2.637   5.490   7.005
 7738SOL    HW224114   2.712   5.416   0.106
 7739SOL     OW24115   0.922   2.179   1.885
 7739SOL    HW124116   0.930   2.213   1.791
 7739SOL    HW224117   0.837   2.127   1.894
 7740SOL     OW24118   2.181   1.212   3.269
 7740SOL    HW124119   2.167   1.285   3.202
 7740SOL    HW224120   2.093   1.176   3.298
 7741SOL     OW24121   0.587   4.865   5.084
 7741SOL    HW124122   0.666   4.809   5.061
 7741SOL    HW224123   0.613   4.961   5.084
 7742SOL     OW24124   5.819   1.793   3.214
 7742SOL    HW124125   5.757   1.777   3.291
 7742SOL    HW224126   5.906   1.747   3.231
 7743SOL     OW24127   5.292   1.745   0.115
 7743SOL    HW124128   5.267   1.836   0.082
 7743SOL    HW224129   5.260   1.676   0.050
 7744SOL     OW24130   0.927   6.408   3.456
 7744SOL    HW124131   0.951   6.329   3.401
 7744SOL    HW224132   0.901   6.379   3.548
 7745SOL     OW24133   2.892   1.080   5.768
 7745SOL    HW124134   2.866   1.036   5.682
 7745SOL    HW224135   2.944   1.163   5.747
 7746SOL     OW24136   2.714   6.216   0.430
 7746SOL    HW124137   2.636   6.254   0.381
 7746SOL    HW224138   2.798   6.261   0.400
 7747SOL     OW24139   5.109   6.066   1.429
 7747SOL    HW124140   5.151   6.092   1.515
 7747SOL    HW224141   5.020   6.022   1.447
 7748SOL     OW24142   3.295   3.353   5.414
 7748SOL    HW124143   3.204   3.364   5.455
 7748SOL    HW224144   3.346   3.439   5.424
 7749SOL     OW24145   2.813   2.885   5.628
 7749SOL    HW124146   2.895   2.829   5.640
 7749SOL    HW224147   2.734   2.825   5.615
 7750SOL     OW24148   0.122   6.485   1.008
 7750SOL    HW124149   0.045   6.519   1.062
 7750SOL    HW224150   0.179   6.425   1.064
 7751SOL     OW24151   1.247   2.426   2.498
 7751SOL    HW124152   1.294   2.349   2.539
 7751SOL    HW224153   1.237   2.410   2.399
 7752SOL     OW24154   5.240   0.494   5.828
 7752SOL    HW124155   5.240   0.587   5.791
 7752SOL    HW224156   5.330   0.473   5.866
 7753SOL     OW24157   2.575   1.316   4.293
 7753SOL    HW124158   2.569   1.335   4.391
 7753SOL    HW224159   2.645   1.246   4.277
 7754SOL     OW24160   3.508   6.053   1.062
 7754SOL    HW124161   3.427   6.043   1.004
 7754SOL    HW224162   3.481   6.092   1.150
 7755SOL     OW24163   2.057   2.408   5.931
 7755SOL    HW124164   2.029   2.362   6.015
 7755SOL    HW224165   1.980   2.459   5.893
 7756SOL     OW24166   2.654   6.971   2.267
 7756SOL    HW124167   2.724   6.950   2.335
 7756SOL    HW224168   2.610   6.887   2.236
 7757SOL     OW24169   5.795   5.118   1.575
 7757SOL    HW124170   5.877   5.168   1.603
 7757SOL    HW224171   5.812   5.075   1.486
 7758SOL     OW24172   2.080   0.064   6.203
 7758SOL    HW124173   2.081   0.151   6.153
 7758SOL    HW224174   2.099   0.081   6.300
 7759SOL     OW24175   1.760   1.529   5.232
 7759SOL    HW124176   1.836   1.580   5.192
 7759SOL    HW224177   1.751   1.553   5.328
 7760SOL     OW24178   5.637   3.116   2.556
 7760SOL    HW124179   5.567   3.047   2.575
 7760SOL    HW224180   5.683   3.142   2.640
 7761SOL     OW24181   6.399   6.561   4.547
 7761SOL    HW124182   6.480   6.508   4.570
 7761SOL    HW224183   6.376   6.547   4.450
 7762SOL     OW24184   2.308   6.968   3.910
 7762SOL    HW124185   2.225   6.999   3.957
 7762SOL    HW224186   2.322   6.871   3.929
 7763SOL     OW24187   2.335   0.172   6.659
 7763SOL    HW124188   2.316   0.267   6.685
 7763SOL    HW224189   2.295   0.111   6.727
 7764SOL     OW24190   3.221   4.141   5.615
 7764SOL    HW124191   3.130   4.111   5.641
 7764SOL    HW224192   3.245   4.104   5.525
 7765SOL     OW24193   6.044   3.051   4.563
 7765SOL    HW124194   6.076   3.082   4.473
 7765SOL    HW224195   6.052   2.951   4.568
 7766SOL     OW24196   0.030   3.624   0.675
 7766SOL    HW124197   6.962   3.643   0.641
 7766SOL    HW224198   0.033   3.635   0.774
 7767SOL     OW24199   4.542   6.321   2.269
 7767SOL    HW124200   4.600   6.379   2.327
 7767SOL    HW224201   4.459   6.371   2.244
 7768SOL     OW24202   4.940   4.599   3.299
 7768SOL    HW124203   4.944   4.515   3.245
 7768SOL    HW224204   4.899   4.672   3.244
 7769SOL     OW24205   4.989   1.436   4.769
 7769SOL    HW124206   5.084   1.466   4.766
 7769SOL    HW224207   4.929   1.510   4.736
 7770SOL     OW24208   0.602   3.261   4.962
 7770SOL    HW124209   0.666   3.265   5.038
 7770SOL    HW224210   0.523   3.318   4.982
 7771SOL     OW24211   3.120   1.511   5.681
 7771SOL    HW124212   3.064   1.555   5.751
 7771SOL    HW224213   3.200   1.568   5.661
 7772SOL     OW24214   5.217   6.843   1.409
 7772SOL    HW124215   5.165   6.869   1.490
 7772SOL    HW224216   5.164   6.777   1.355
 7773SOL     OW24217   1.981   5.380   5.554
 7773SOL    HW124218   1.900   5.416   5.507
 7773SOL    HW224219   1.967   5.283   5.573
 7774SOL     OW24220   4.678   2.682   3.845
 7774SOL    HW124221   4.697   2.739   3.925
 7774SOL    HW224222   4.744   2.607   3.841
 7775SOL     OW24223   4.016   0.192   7.024
 7775SOL    HW124224   3.947   0.221   0.065
 7775SOL    HW224225   4.023   0.092   7.024
 7776SOL     OW24226   0.990   5.855   6.439
 7776SOL    HW124227   1.004   5.847   6.340
 7776SOL    HW224228   0.950   5.770   6.474
 7777SOL     OW24229   5.802   5.700   4.325
 7777SOL    HW124230   5.737   5.775   4.330
 7777SOL    HW224231   5.788   5.649   4.240
 7778SOL     OW24232   6.030   3.938   2.303
 7778SOL    HW124233   6.124   3.908   2.286
 7778SOL    HW224234   6.017   4.031   2.269
 7779SOL     OW24235   2.897   0.861   1.782
 7779SOL    HW124236   2.900   0.875   1.881
 7779SOL    HW224237   2.808   0.889   1.747
 7780SOL     OW24238   0.970   5.175   5.195
 7780SOL    HW124239   1.035   5.248   5.214
 7780SOL    HW224240   0.996   5.092   5.244
 7781SOL     OW24241   0.894   3.859   1.448
 7781SOL    HW124242   0.833   3.937   1.442
 7781SOL    HW224243   0.899   3.813   1.359
 7782SOL     OW24244   4.993   5.280   3.990
 7782SOL    HW124245   5.025   5.185   3.996
 7782SOL    HW224246   5.071   5.342   3.993
 7783SOL     OW24247   0.693   0.450   5.849
 7783SOL    HW124248   0.790   0.441   5.826
 7783SOL    HW224249   0.677   0.537   5.895
 7784SOL     OW24250   3.043   2.261   1.415
 7784SOL    HW124251   3.078   2.329   1.350
 7784SOL    HW224252   3.045   2.299   1.508
 7785SOL     OW24253   2.115   6.346   4.120
 7785SOL    HW124254   2.144   6.423   4.064
 7785SOL    HW224255   2.190   6.281   4.129
 7786SOL     OW24256   3.724   0.592   0.157
 7786SOL    HW124257   3.781   0.624   0.081
 7786SOL    HW224258   3.728   0.658   0.232
 7787SOL     OW24259   2.133   3.014   0.314
 7787SOL    HW124260   2.061   3.012   0.245
 7787SOL    HW224261   2.213   3.061   0.278
 7788SOL     OW24262   1.418   4.963   1.692
 7788SOL    HW124263   1.482   4.904   1.643
 7788SOL    HW224264   1.340   4.984   1.633
 7789SOL     OW24265   3.193   0.081   6.051
 7789SOL    HW124266   3.209   7.007   6.045
 7789SOL    HW224267   3.094   0.098   6.059
 7790SOL     OW24268   5.268   5.818   2.835
 7790SOL    HW124269   5.334   5.893   2.835
 7790SOL    HW224270   5.290   5.754   2.762
 7791SOL     OW24271   2.152   5.056   2.483
 7791SOL    HW124272   2.130   4.984   2.549
 7791SOL    HW224273   2.074   5.120   2.477
 7792SOL     OW24274   1.448   6.439   3.595
 7792SOL    HW124275   1.469   6.428   3.692
 7792SOL    HW224276   1.390   6.519   3.582
 7793SOL     OW24277   4.109   0.592   0.253
 7793SOL    HW124278   4.088   0.496   0.273
 7793SOL    HW224279   4.056   0.651   0.313
 7794SOL     OW24280   0.677   4.532   2.118
 7794SOL    HW124281   0.682   4.462   2.046
 7794SOL    HW224282   0.759   4.588   2.115
 7795SOL     OW24283   2.939   5.086   5.168
 7795SOL    HW124284   2.931   5.065   5.265
 7795SOL    HW224285   2.898   5.013   5.114
 7796SOL     OW24286   3.755   2.730   5.409
 7796SOL    HW124287   3.801   2.699   5.493
 7796SOL    HW224288   3.822   2.735   5.335
 7797SOL     OW24289   0.652   6.364   1.164
 7797SOL    HW124290   0.594   6.337   1.087
 7797SOL    HW224291   0.723   6.427   1.131
 7798SOL     OW24292   1.311   2.171   2.878
 7798SOL    HW124293   1.297   2.270   2.878
 7798SOL    HW224294   1.328   2.139   2.785
 7799SOL     OW24295   1.895   5.135   2.643
 7799SOL    HW124296   1.827   5.200   2.609
 7799SOL    HW224297   1.943   5.174   2.721
 7800SOL     OW24298   0.723   6.001   3.169
 7800SOL    HW124299   0.769   5.999   3.258
 7800SOL    HW224300   0.711   5.907   3.136
 7801SOL     OW24301   1.540   1.340   2.616
 7801SOL    HW124302   1.559   1.336   2.714
 7801SOL    HW224303   1.618   1.380   2.568
 7802SOL     OW24304   6.720   3.288   0.507
 7802SOL    HW124305   6.716   3.307   0.606
 7802SOL    HW224306   6.671   3.203   0.488
 7803SOL     OW24307   4.457   1.810   0.281
 7803SOL    HW124308   4.359   1.821   0.261
 7803SOL    HW224309   4.495   1.737   0.224
 7804SOL     OW24310   4.739   2.071   4.826
 7804SOL    HW124311   4.718   2.103   4.919
 7804SOL    HW224312   4.832   2.034   4.825
 7805SOL     OW24313   5.272   3.236   2.632
 7805SOL    HW124314   5.185   3.239   2.583
 7805SOL    HW224315   5.255   3.214   2.729
 7806SOL     OW24316   5.912   1.525   6.413
 7806SOL    HW124317   5.953   1.553   6.327
 7806SOL    HW224318   5.819   1.561   6.419
 7807SOL     OW24319   0.818   4.757   4.997
 7807SOL    HW124320   0.850   4.830   4.935
 7807SOL    HW224321   0.841   4.668   4.957
 7808SOL     OW24322   5.694   3.254   3.345
 7808SOL    HW124323   5.740   3.207   3.421
 7808SOL    HW224324   5.760   3.272   3.272
 7809SOL     OW24325   5.026   5.115   4.799
 7809SOL    HW124326   4.954   5.184   4.811
 7809SOL    HW224327   4.990   5.024   4.820
 7810SOL     OW24328   2.729   6.683   5.659
 7810SOL    HW124329   2.785   6.628   5.598
 7810SOL    HW224330   2.632   6.662   5.643
 7811SOL     OW24331   1.328   5.542   1.833
 7811SOL    HW124332   1.373   5.607   1.894
 7811SOL    HW224333   1.238   5.519   1.870
 7812SOL     OW24334   2.041   2.511   4.662
 7812SOL    HW124335   2.053   2.513   4.562
 7812SOL    HW224336   2.120   2.467   4.704
 7813SOL     OW24337   4.424   2.570   1.298
 7813SOL    HW124338   4.482   2.512   1.355
 7813SOL    HW224339   4.356   2.616   1.356
 7814SOL     OW24340   0.190   3.629   3.198
 7814SOL    HW124341   0.091   3.638   3.183
 7814SOL    HW224342   0.230   3.720   3.211
 7815SOL     OW24343   6.022   1.929   4.316
 7815SOL    HW124344   6.009   2.028   4.305
 7815SOL    HW224345   6.045   1.910   4.412
 7816SOL     OW24346   0.660   2.483   6.668
 7816SOL    HW124347   0.755   2.480   6.637
 7816SOL    HW224348   0.599   2.473   6.590
 7817SOL     OW24349   4.619   4.383   5.064
 7817SOL    HW124350   4.526   4.363   5.032
 7817SOL    HW224351   4.632   4.482   5.068
 7818SOL     OW24352   4.355   0.451   2.942
 7818SOL    HW124353   4.341   0.473   3.039
 7818SOL    HW224354   4.419   0.375   2.934
 7819SOL     OW24355   0.536   3.758   3.591
 7819SOL    HW124356   0.445   3.727   3.620
 7819SOL    HW224357   0.569   3.829   3.653
 7820SOL     OW24358   1.953   1.042   5.541
 7820SOL    HW124359   2.012   1.043   5.460
 7820SOL    HW224360   2.009   1.040   5.624
 7821SOL     OW24361   5.745   6.091   0.713
 7821SOL    HW124362   5.831   6.053   0.678
 7821SOL    HW224363   5.763   6.135   0.802
 7822SOL     OW24364   1.267   1.574   6.833
 7822SOL    HW124365   1.198   1.508   6.864
 7822SOL    HW224366   1.280   1.565   6.734
 7823SOL     OW24367   2.073   3.959   6.148
 7823SOL    HW124368   2.163   3.998   6.130
 7823SOL    HW224369   2.076   3.860   6.134
 7824SOL     OW24370   5.346   0.625   4.787
 7824SOL    HW124371   5.330   0.530   4.813
 7824SOL    HW224372   5.404   0.669   4.856
 7825SOL     OW24373   1.278   3.281   0.762
 7825SOL    HW124374   1.345   3.350   0.789
 7825SOL    HW224375   1.199   3.327   0.719
 7826SOL     OW24376   5.349   2.087   6.687
 7826SOL    HW124377   5.427   2.115   6.631
 7826SOL    HW224378   5.292   2.166   6.707
 7827SOL     OW24379   3.051   4.649   0.816
 7827SOL    HW124380   3.135   4.600   0.792
 7827SOL    HW224381   2.981   4.628   0.748
 7828SOL     OW24382   0.406   5.267   0.796
 7828SOL    HW124383   0.473   5.340   0.812
 7828SOL    HW224384   0.316   5.297   0.827
 7829SOL     OW24385   2.123   2.753   0.336
 7829SOL    HW124386   2.128   2.853   0.345
 7829SOL    HW224387   2.111   2.712   0.426
 7830SOL     OW24388   5.289   3.680   5.839
 7830SOL    HW124389   5.315   3.591   5.876
 7830SOL    HW224390   5.319   3.752   5.902
 7831SOL     OW24391   1.660   5.402   0.755
 7831SOL    HW124392   1.611   5.325   0.713
 7831SOL    HW224393   1.647   5.399   0.854
 7832SOL     OW24394   3.392   1.204   4.415
 7832SOL    HW124395   3.299   1.201   4.379
 7832SOL    HW224396   3.395   1.264   4.495
 7833SOL     OW24397   0.411   0.532   7.024
 7833SOL    HW124398   0.405   0.529   6.924
 7833SOL    HW224399   0.333   0.583   0.036
 7834SOL     OW24400   0.616   1.742   3.381
 7834SOL    HW124401   0.582   1.810   3.446
 7834SOL    HW224402   0.547   1.727   3.310
 7835SOL     OW24403   1.837   2.349   4.737
 7835SOL    HW124404   1.935   2.350   4.718
 7835SOL    HW224405   1.822   2.345   4.836
 7836SOL     OW24406   3.785   2.227   6.347
 7836SOL    HW124407   3.764   2.129   6.346
 7836SOL    HW224408   3.715   2.276   6.294
 7837SOL     OW24409   6.215   6.233   1.899
 7837SOL    HW124410   6.252   6.197   1.984
 7837SOL    HW224411   6.265   6.193   1.822
 7838SOL     OW24412   3.978   5.967   0.181
 7838SOL    HW124413   4.021   5.937   0.095
 7838SOL    HW224414   4.044   6.019   0.235
 7839SOL     OW24415   6.394   4.922   5.791
 7839SOL    HW124416   6.360   4.982   5.718
 7839SOL    HW224417   6.415   4.832   5.754
 7840SOL     OW24418   5.131   3.523   4.436
 7840SOL    HW124419   5.136   3.437   4.386
 7840SOL    HW224420   5.218   3.540   4.483
 7841SOL     OW24421   5.792   1.102   0.251
 7841SOL    HW124422   5.696   1.098   0.278
 7841SOL    HW224423   5.801   1.076   0.155
 7842SOL     OW24424   2.309   1.814   3.210
 7842SOL    HW124425   2.258   1.900   3.211
 7842SOL    HW224426   2.404   1.831   3.186
 7843SOL     OW24427   5.263   4.361   1.582
 7843SOL    HW124428   5.237   4.277   1.630
 7843SOL    HW224429   5.348   4.397   1.621
 7844SOL     OW24430   4.028   0.540   3.860
 7844SOL    HW124431   4.108   0.520   3.916
 7844SOL    HW224432   4.048   0.616   3.798
 7845SOL     OW24433   6.820   1.384   4.184
 7845SOL    HW124434   6.879   1.379   4.104
 7845SOL    HW224435   6.877   1.398   4.266
 7846SOL     OW24436   1.546   0.746   1.481
 7846SOL    HW124437   1.456   0.786   1.500
 7846SOL    HW224438   1.574   0.769   1.388
 7847SOL     OW24439   6.827   1.772   1.706
 7847SOL    HW124440   6.824   1.686   1.756
 7847SOL    HW224441   6.754   1.773   1.637
 7848SOL     OW24442   3.214   4.012   1.125
 7848SOL    HW124443   3.193   4.026   1.222
 7848SOL    HW224444   3.157   3.938   1.089
 7849SOL     OW24445   5.259   3.911   3.852
 7849SOL    HW124446   5.220   3.818   3.850
 7849SOL    HW224447   5.339   3.914   3.793
 7850SOL     OW24448   0.024   1.599   3.838
 7850SOL    HW124449   0.005   1.693   3.867
 7850SOL    HW224450   0.113   1.571   3.874
 7851SOL     OW24451   6.518   0.073   1.075
 7851SOL    HW124452   6.481   0.042   0.987
 7851SOL    HW224453   6.518   0.173   1.077
 7852SOL     OW24454   2.943   0.343   5.825
 7852SOL    HW124455   2.969   0.348   5.922
 7852SOL    HW224456   2.951   0.434   5.783
 7853SOL     OW24457   4.156   1.633   1.849
 7853SOL    HW124458   4.216   1.695   1.798
 7853SOL    HW224459   4.210   1.558   1.886
 7854SOL     OW24460   3.386   4.068   0.829
 7854SOL    HW124461   3.336   4.087   0.913
 7854SOL    HW224462   3.362   3.977   0.796
 7855SOL     OW24463   3.294   6.001   5.736
 7855SOL    HW124464   3.225   5.931   5.716
 7855SOL    HW224465   3.271   6.085   5.687
 7856SOL     OW24466   5.511   4.684   3.702
 7856SOL    HW124467   5.508   4.676   3.603
 7856SOL    HW224468   5.433   4.737   3.734
 7857SOL     OW24469   6.695   2.987   5.145
 7857SOL    HW124470   6.681   3.014   5.240
 7857SOL    HW224471   6.722   2.891   5.141
 7858SOL     OW24472   4.416   5.005   3.819
 7858SOL    HW124473   4.446   4.959   3.735
 7858SOL    HW224474   4.487   4.996   3.889
 7859SOL     OW24475   6.643   4.179   5.784
 7859SOL    HW124476   6.585   4.259   5.801
 7859SOL    HW224477   6.717   4.176   5.851
 7860SOL     OW24478   4.084   0.170   3.151
 7860SOL    HW124479   4.084   0.079   3.193
 7860SOL    HW224480   4.036   0.165   3.063
 7861SOL     OW24481   3.765   5.211   1.803
 7861SOL    HW124482   3.739   5.304   1.778
 7861SOL    HW224483   3.805   5.165   1.723
 7862SOL     OW24484   3.118   4.625   1.720
 7862SOL    HW124485   3.038   4.572   1.748
 7862SOL    HW224486   3.186   4.565   1.679
 7863SOL     OW24487   6.855   6.460   3.860
 7863SOL    HW124488   6.800   6.465   3.944
 7863SOL    HW224489   6.903   6.546   3.846
 7864SOL     OW24490   6.880   6.397   5.717
 7864SOL    HW124491   6.938   6.468   5.675
 7864SOL    HW224492   6.907   6.384   5.812
 7865SOL     OW24493   4.718   6.985   4.039
 7865SOL    HW124494   4.799   6.993   3.981
 7865SOL    HW224495   4.696   0.049   4.078
 7866SOL     OW24496   2.426   2.270   0.132
 7866SOL    HW124497   2.422   2.366   0.159
 7866SOL    HW224498   2.521   2.240   0.128
 7867SOL     OW24499   4.841   6.180   2.690
 7867SOL    HW124500   4.797   6.098   2.653
 7867SOL    HW224501   4.900   6.221   2.621
 7868SOL     OW24502   5.791   6.950   2.183
 7868SOL    HW124503   5.829   0.003   2.234
 7868SOL    HW224504   5.779   6.872   2.244
 7869SOL     OW24505   5.476   4.253   0.543
 7869SOL    HW124506   5.471   4.297   0.632
 7869SOL    HW224507   5.570   4.226   0.524
 7870SOL     OW24508   5.148   5.816   4.119
 7870SOL    HW124509   5.067   5.790   4.171
 7870SOL    HW224510   5.201   5.883   4.170
 7871SOL     OW24511   6.153   3.749   2.787
 7871SOL    HW124512   6.203   3.665   2.810
 7871SOL    HW224513   6.065   3.725   2.747
 7872SOL     OW24514   1.889   4.507   2.792
 7872SOL    HW124515   1.810   4.568   2.793
 7872SOL    HW224516   1.864   4.420   2.835
 7873SOL     OW24517   5.375   0.210   5.162
 7873SOL    HW124518   5.461   0.241   5.202
 7873SOL    HW224519   5.312   0.287   5.155
 7874SOL     OW24520   4.867   1.136   0.516
 7874SOL    HW124521   4.897   1.049   0.477
 7874SOL    HW224522   4.909   1.149   0.606
 7875SOL     OW24523   4.509   2.637   6.542
 7875SOL    HW124524   4.454   2.640   6.625
 7875SOL    HW224525   4.474   2.704   6.476
 7876SOL     OW24526   0.079   0.364   5.333
 7876SOL    HW124527   0.020   0.347   5.254
 7876SOL    HW224528   0.033   0.336   5.417
 7877SOL     OW24529   0.305   2.931   2.486
 7877SOL    HW124530   0.273   2.889   2.401
 7877SOL    HW224531   0.271   3.024   2.493
 7878SOL     OW24532   4.912   4.814   4.244
 7878SOL    HW124533   4.911   4.913   4.226
 7878SOL    HW224534   5.007   4.783   4.247
 7879SOL     OW24535   4.658   5.496   3.817
 7879SOL    HW124536   4.584   5.526   3.877
 7879SOL    HW224537   4.682   5.401   3.838
 7880SOL     OW24538   0.709   5.142   0.846
 7880SOL    HW124539   0.788   5.201   0.864
 7880SOL    HW224540   0.627   5.198   0.834
 7881SOL     OW24541   6.165   3.511   4.563
 7881SOL    HW124542   6.101   3.532   4.489
 7881SOL    HW224543   6.134   3.556   4.647
 7882SOL     OW24544   1.480   2.738   2.946
 7882SOL    HW124545   1.517   2.755   3.037
 7882SOL    HW224546   1.443   2.645   2.942
 7883SOL     OW24547   1.616   6.849   1.184
 7883SOL    HW124548   1.645   6.933   1.229
 7883SOL    HW224549   1.516   6.843   1.185
 7884SOL     OW24550   1.806   4.496   3.776
 7884SOL    HW124551   1.897   4.499   3.736
 7884SOL    HW224552   1.808   4.441   3.860
 7885SOL     OW24553   6.288   6.085   2.655
 7885SOL    HW124554   6.277   6.063   2.558
 7885SOL    HW224555   6.210   6.048   2.706
 7886SOL     OW24556   4.565   3.965   1.102
 7886SOL    HW124557   4.651   3.952   1.152
 7886SOL    HW224558   4.511   3.882   1.107
 7887SOL     OW24559   3.548   2.552   5.405
 7887SOL    HW124560   3.610   2.630   5.395
 7887SOL    HW224561   3.578   2.493   5.479
 7888SOL     OW24562   0.074   0.641   5.277
 7888SOL    HW124563   0.100   0.647   5.180
 7888SOL    HW224564   0.100   0.552   5.313
 7889SOL     OW24565   0.658   4.801   0.011
 7889SOL    HW124566   0.753   4.793   0.040
 7889SOL    HW224567   0.615   4.710   0.014
 7890SOL     OW24568   0.249   3.542   4.009
 7890SOL    HW124569   0.193   3.603   3.953
 7890SOL    HW224570   0.333   3.589   4.035
 7891SOL     OW24571   1.335   3.765   4.300
 7891SOL    HW124572   1.383   3.817   4.370
 7891SOL    HW224573   1.335   3.668   4.324
 7892SOL     OW24574   1.248   2.412   3.958
 7892SOL    HW124575   1.318   2.471   3.917
 7892SOL    HW224576   1.284   2.319   3.966
 7893SOL     OW24577   6.237   0.017   2.410
 7893SOL    HW124578   6.177   6.985   2.353
 7893SOL    HW224579   6.247   7.000   2.500
 7894SOL     OW24580   2.892   0.907   1.097
 7894SOL    HW124581   2.851   0.925   1.007
 7894SOL    HW224582   2.853   0.970   1.164
 7895SOL     OW24583   4.993   6.886   5.359
 7895SOL    HW124584   4.951   6.830   5.430
 7895SOL    HW224585   4.922   6.928   5.303
 7896SOL     OW24586   5.717   3.407   1.058
 7896SOL    HW124587   5.627   3.437   1.088
 7896SOL    HW224588   5.775   3.487   1.040
 7897SOL     OW24589   3.281   2.910   1.190
 7897SOL    HW124590   3.216   2.954   1.252
 7897SOL    HW224591   3.339   2.980   1.148
 7898SOL     OW24592   3.380   0.222   3.997
 7898SOL    HW124593   3.416   0.172   3.918
 7898SOL    HW224594   3.456   0.247   4.057
 7899SOL     OW24595   6.034   7.010   1.959
 7899SOL    HW124596   6.013   6.931   2.016
 7899SOL    HW224597   5.993   6.997   1.868
 7900SOL     OW24598   0.910   4.922   1.408
 7900SOL    HW124599   0.920   4.974   1.323
 7900SOL    HW224600   0.813   4.904   1.424
 7901SOL     OW24601   4.514   0.651   6.292
 7901SOL    HW124602   4.476   0.744   6.290
 7901SOL    HW224603   4.580   0.640   6.218
 7902SOL     OW24604   6.098   5.791   3.202
 7902SOL    HW124605   6.126   5.698   3.223
 7902SOL    HW224606   6.173   5.838   3.155
 7903SOL     OW24607   4.677   2.336   3.139
 7903SOL    HW124608   4.587   2.375   3.155
 7903SOL    HW224609   4.727   2.328   3.225
 7904SOL     OW24610   5.649   0.560   2.941
 7904SOL    HW124611   5.656   0.649   2.897
 7904SOL    HW224612   5.737   0.512   2.933
 7905SOL     OW24613   5.726   2.063   0.560
 7905SOL    HW124614   5.782   2.143   0.578
 7905SOL    HW224615   5.727   2.043   0.462
 7906SOL     OW24616   1.008   6.158   0.528
 7906SOL    HW124617   0.980   6.174   0.434
 7906SOL    HW224618   0.988   6.063   0.553
 7907SOL     OW24619   6.615   0.942   3.144
 7907SOL    HW124620   6.523   0.934   3.108
 7907SOL    HW224621   6.681   0.943   3.068
 7908SOL     OW24622   0.877   1.371   6.041
 7908SOL    HW124623   0.856   1.353   6.138
 7908SOL    HW224624   0.840   1.461   6.016
 7909SOL     OW24625   4.940   4.158   3.492
 7909SOL    HW124626   4.908   4.203   3.575
 7909SOL    HW224627   5.030   4.193   3.467
 7910SOL     OW24628   1.836   3.157   0.400
 7910SOL    HW124629   1.861   3.131   0.306
 7910SOL    HW224630   1.917   3.190   0.448
 7911SOL     OW24631   1.199   4.714   0.874
 7911SOL    HW124632   1.149   4.801   0.874
 7911SOL    HW224633   1.148   4.647   0.927
 7912SOL     OW24634   6.063   4.530   1.427
 7912SOL    HW124635   6.005   4.470   1.482
 7912SOL    HW224636   6.127   4.475   1.374
 7913SOL     OW24637   1.544   3.982   1.722
 7913SOL    HW124638   1.447   3.973   1.744
 7913SOL    HW224639   1.573   3.904   1.665
 7914SOL     OW24640   0.200   4.585   0.953
 7914SOL    HW124641   0.168   4.676   0.979
 7914SOL    HW224642   0.282   4.593   0.898
 7915SOL     OW24643   4.838   1.896   2.734
 7915SOL    HW124644   4.776   1.883   2.812
 7915SOL    HW224645   4.858   1.994   2.724
 7916SOL     OW24646   0.537   6.177   5.500
 7916SOL    HW124647   0.467   6.125   5.548
 7916SOL    HW224648   0.616   6.119   5.481
 7917SOL     OW24649   4.432   3.202   5.551
 7917SOL    HW124650   4.474   3.251   5.627
 7917SOL    HW224651   4.374   3.265   5.499
 7918SOL     OW24652   6.516   1.123   4.280
 7918SOL    HW124653   6.500   1.025   4.286
 7918SOL    HW224654   6.600   1.140   4.228
 7919SOL     OW24655   1.428   4.870   2.623
 7919SOL    HW124656   1.457   4.788   2.673
 7919SOL    HW224657   1.455   4.862   2.527
 7920SOL     OW24658   6.344   6.501   1.758
 7920SOL    HW124659   6.302   6.436   1.821
 7920SOL    HW224660   6.336   6.594   1.795
 7921SOL     OW24661   5.575   5.878   2.389
 7921SOL    HW124662   5.587   5.920   2.300
 7921SOL    HW224663   5.576   5.948   2.460
 7922SOL     OW24664   0.611   5.996   6.883
 7922SOL    HW124665   0.531   6.003   6.823
 7922SOL    HW224666   0.616   6.078   6.940
 7923SOL     OW24667   4.325   1.403   6.141
 7923SOL    HW124668   4.321   1.487   6.194
 7923SOL    HW224669   4.235   1.384   6.101
 7924SOL     OW24670   4.760   0.001   1.169
 7924SOL    HW124671   4.714   6.940   1.145
 7924SOL    HW224672   4.848   0.006   1.121
 7925SOL     OW24673   0.767   0.058   0.015
 7925SOL    HW124674   0.861   0.085   7.017
 7925SOL    HW224675   0.741   0.098   0.103
 7926SOL     OW24676   5.074   1.501   6.621
 7926SOL    HW124677   5.119   1.580   6.664
 7926SOL    HW224678   5.109   1.417   6.661
 7927SOL     OW24679   5.041   6.986   2.435
 7927SOL    HW124680   5.025   0.000   2.344
 7927SOL    HW224681   5.022   0.031   2.505
 7928SOL     OW24682   0.587   1.867   4.080
 7928SOL    HW124683   0.520   1.942   4.081
 7928SOL    HW224684   0.666   1.894   4.025
 7929SOL     OW24685   3.841   3.552   5.719
 7929SOL    HW124686   3.936   3.559   5.747
 7929SOL    HW224687   3.787   3.513   5.793
 7930SOL     OW24688   4.501   4.913   5.615
 7930SOL    HW124689   4.566   4.888   5.543
 7930SOL    HW224690   4.540   4.987   5.670
 7931SOL     OW24691   3.914   2.992   0.662
 7931SOL    HW124692   3.835   2.994   0.600
 7931SOL    HW224693   3.888   2.949   0.748
 7932SOL     OW24694   1.006   5.858   6.160
 7932SOL    HW124695   1.025   5.945   6.115
 7932SOL    HW224696   1.079   5.793   6.141
 7933SOL     OW24697   6.531   0.635   6.094
 7933SOL    HW124698   6.617   0.628   6.145
 7933SOL    HW224699   6.455   0.637   6.158
 7934SOL     OW24700   1.443   5.269   6.681
 7934SOL    HW124701   1.387   5.204   6.629
 7934SOL    HW224702   1.540   5.251   6.663
 7935SOL     OW24703   5.586   6.402   1.422
 7935SOL    HW124704   5.512   6.440   1.479
 7935SOL    HW224705   5.638   6.337   1.476
 7936SOL     OW24706   2.923   5.996   3.141
 7936SOL    HW124707   2.945   5.970   3.047
 7936SOL    HW224708   2.875   5.920   3.186
 7937SOL     OW24709   1.034   5.969   3.963
 7937SOL    HW124710   0.959   6.028   3.934
 7937SOL    HW224711   1.112   5.982   3.902
 7938SOL     OW24712   5.893   6.130   5.383
 7938SOL    HW124713   5.837   6.130   5.465
 7938SOL    HW224714   5.958   6.054   5.387
 7939SOL     OW24715   1.824   2.241   5.752
 7939SOL    HW124716   1.850   2.218   5.846
 7939SOL    HW224717   1.812   2.340   5.744
 7940SOL     OW24718   2.602   2.397   2.558
 7940SOL    HW124719   2.612   2.423   2.654
 7940SOL    HW224720   2.692   2.380   2.518
 7941SOL     OW24721   5.529   6.048   2.171
 7941SOL    HW124722   5.437   6.080   2.196
 7941SOL    HW224723   5.574   6.116   2.115
 7942SOL     OW24724   0.679   4.025   2.640
 7942SOL    HW124725   0.751   4.065   2.697
 7942SOL    HW224726   0.623   4.099   2.601
 7943SOL     OW24727   0.547   4.456   5.595
 7943SOL    HW124728   0.569   4.446   5.499
 7943SOL    HW224729   0.550   4.553   5.620
 7944SOL     OW24730   0.592   3.067   0.827
 7944SOL    HW124731   0.597   3.029   0.735
 7944SOL    HW224732   0.551   2.999   0.889
 7945SOL     OW24733   6.432   5.987   1.545
 7945SOL    HW124734   6.339   5.988   1.509
 7945SOL    HW224735   6.497   5.985   1.469
 7946SOL     OW24736   3.574   0.384   5.798
 7946SOL    HW124737   3.573   0.310   5.866
 7946SOL    HW224738   3.528   0.465   5.836
 7947SOL     OW24739   2.727   1.528   5.435
 7947SOL    HW124740   2.778   1.471   5.500
 7947SOL    HW224741   2.783   1.607   5.409
 7948SOL     OW24742   0.826   6.189   0.748
 7948SOL    HW124743   0.850   6.183   0.651
 7948SOL    HW224744   0.753   6.124   0.769
 7949SOL     OW24745   4.612   3.922   6.003
 7949SOL    HW124746   4.698   3.878   6.028
 7949SOL    HW224747   4.630   4.013   5.967
 7950SOL     OW24748   4.935   6.056   4.655
 7950SOL    HW124749   4.993   6.095   4.727
 7950SOL    HW224750   4.981   6.066   4.566
 7951SOL     OW24751   1.919   4.691   2.312
 7951SOL    HW124752   2.003   4.738   2.285
 7951SOL    HW224753   1.938   4.629   2.388
 7952SOL     OW24754   0.413   3.176   6.667
 7952SOL    HW124755   0.467   3.099   6.701
 7952SOL    HW224756   0.473   3.253   6.649
 7953SOL     OW24757   4.342   2.321   2.292
 7953SOL    HW124758   4.385   2.360   2.373
 7953SOL    HW224759   4.276   2.250   2.320
 7954SOL     OW24760   3.523   4.381   6.321
 7954SOL    HW124761   3.424   4.376   6.317
 7954SOL    HW224762   3.562   4.343   6.238
 7955SOL     OW24763   1.856   1.212   6.503
 7955SOL    HW124764   1.802   1.203   6.587
 7955SOL    HW224765   1.819   1.149   6.434
 7956SOL     OW24766   5.286   0.328   2.238
 7956SOL    HW124767   5.190   0.336   2.211
 7956SOL    HW224768   5.343   0.377   2.173
 7957SOL     OW24769   1.417   0.389   0.375
 7957SOL    HW124770   1.503   0.439   0.381
 7957SOL    HW224771   1.346   0.438   0.425
 7958SOL     OW24772   4.742   5.489   6.118
 7958SOL    HW124773   4.799   5.416   6.082
 7958SOL    HW224774   4.743   5.567   6.054
 7959SOL     OW24775   4.958   6.517   0.772
 7959SOL    HW124776   5.054   6.538   0.790
 7959SOL    HW224777   4.943   6.418   0.777
 7960SOL     OW24778   2.207   0.561   5.860
 7960SOL    HW124779   2.299   0.521   5.871
 7960SOL    HW224780   2.212   0.659   5.876
 7961SOL     OW24781   6.642   1.033   0.362
 7961SOL    HW124782   6.612   1.128   0.366
 7961SOL    HW224783   6.564   0.972   0.377
 7962SOL     OW24784   1.053   1.036   5.748
 7962SOL    HW124785   1.039   0.982   5.665
 7962SOL    HW224786   0.968   1.037   5.802
 7963SOL     OW24787   5.974   5.570   4.500
 7963SOL    HW124788   6.012   5.608   4.584
 7963SOL    HW224789   5.948   5.645   4.439
 7964SOL     OW24790   6.707   3.789   2.711
 7964SOL    HW124791   6.679   3.878   2.746
 7964SOL    HW224792   6.650   3.764   2.632
 7965SOL     OW24793   4.037   2.478   5.811
 7965SOL    HW124794   3.957   2.497   5.868
 7965SOL    HW224795   4.118   2.520   5.852
 7966SOL     OW24796   2.905   3.344   6.113
 7966SOL    HW124797   2.920   3.389   6.202
 7966SOL    HW224798   2.834   3.394   6.063
 7967SOL     OW24799   3.192   5.937   1.627
 7967SOL    HW124800   3.215   5.841   1.612
 7967SOL    HW224801   3.177   5.953   1.724
 7968SOL     OW24802   6.557   2.245   4.238
 7968SOL    HW124803   6.474   2.211   4.281
 7968SOL    HW224804   6.564   2.344   4.252
 7969SOL     OW24805   5.969   5.820   0.985
 7969SOL    HW124806   5.975   5.895   1.051
 7969SOL    HW224807   6.038   5.833   0.914
 7970SOL     OW24808   6.251   3.203   2.127
 7970SOL    HW124809   6.306   3.243   2.053
 7970SOL    HW224810   6.173   3.154   2.087
 7971SOL     OW24811   3.075   1.740   1.013
 7971SOL    HW124812   3.156   1.682   1.004
 7971SOL    HW224813   3.009   1.717   0.942
 7972SOL     OW24814   2.977   3.093   0.902
 7972SOL    HW124815   2.931   3.058   0.820
 7972SOL    HW224816   2.940   3.046   0.983
 7973SOL     OW24817   4.664   4.498   4.006
 7973SOL    HW124818   4.588   4.512   4.069
 7973SOL    HW224819   4.728   4.432   4.045
 7974SOL     OW24820   5.978   1.088   5.242
 7974SOL    HW124821   6.036   1.162   5.208
 7974SOL    HW224822   5.956   1.105   5.339
 7975SOL     OW24823   6.256   0.750   1.343
 7975SOL    HW124824   6.274   0.721   1.437
 7975SOL    HW224825   6.277   0.676   1.279
 7976SOL     OW24826   1.315   0.229   6.202
 7976SOL    HW124827   1.264   0.316   6.201
 7976SOL    HW224828   1.289   0.175   6.122
 7977SOL     OW24829   4.434   5.487   3.040
 7977SOL    HW124830   4.460   5.554   3.110
 7977SOL    HW224831   4.461   5.521   2.950
 7978SOL     OW24832   6.835   2.718   6.391
 7978SOL    HW124833   6.805   2.763   6.307
 7978SOL    HW224834   6.757   2.706   6.452
 7979SOL     OW24835   3.344   5.203   5.500
 7979SOL    HW124836   3.342   5.103   5.501
 7979SOL    HW224837   3.438   5.235   5.493
 7980SOL     OW24838   3.608   5.115   6.478
 7980SOL    HW124839   3.514   5.088   6.461
 7980SOL    HW224840   3.659   5.115   6.392
 7981SOL     OW24841   0.860   4.504   1.453
 7981SOL    HW124842   0.812   4.573   1.506
 7981SOL    HW224843   0.840   4.517   1.356
 7982SOL     OW24844   1.523   1.349   0.395
 7982SOL    HW124845   1.524   1.402   0.480
 7982SOL    HW224846   1.472   1.400   0.325
 7983SOL     OW24847   5.761   2.400   0.734
 7983SOL    HW124848   5.720   2.465   0.670
 7983SOL    HW224849   5.841   2.442   0.777
 7984SOL     OW24850   1.054   1.362   0.797
 7984SOL    HW124851   1.116   1.426   0.843
 7984SOL    HW224852   1.093   1.336   0.709
 7985SOL     OW24853   2.627   2.059   4.701
 7985SOL    HW124854   2.669   2.085   4.789
 7985SOL    HW224855   2.689   1.998   4.652
 7986SOL     OW24856   2.724   0.456   6.309
 7986SOL    HW124857   2.737   0.446   6.210
 7986SOL    HW224858   2.803   0.417   6.357
 7987SOL     OW24859   2.002   2.289   0.017
 7987SOL    HW124860   2.088   2.288   6.991
 7987SOL    HW224861   1.967   2.196   0.025
 7988SOL     OW24862   1.571   1.017   2.634
 7988SOL    HW124863   1.580   1.083   2.709
 7988SOL    HW224864   1.489   0.962   2.648
 7989SOL     OW24865   3.111   3.304   0.663
 7989SOL    HW124866   3.124   3.299   0.762
 7989SOL    HW224867   3.040   3.239   0.636
 7990SOL     OW24868   2.031   5.250   4.840
 7990SOL    HW124869   2.085   5.242   4.924
 7990SOL    HW224870   2.026   5.345   4.812
 7991SOL     OW24871   6.292   1.142   3.773
 7991SOL    HW124872   6.291   1.059   3.717
 7991SOL    HW224873   6.201   1.160   3.808
 7992SOL     OW24874   1.035   0.432   0.213
 7992SOL    HW124875   1.094   0.511   0.232
 7992SOL    HW224876   0.974   0.454   0.138
 7993SOL     OW24877   0.136   0.063   0.888
 7993SOL    HW124878   0.174   0.063   0.796
 7993SOL    HW224879   0.201   0.106   0.951
 7994SOL     OW24880   3.656   6.994   3.691
 7994SOL    HW124881   3.713   0.017   3.624
 7994SOL    HW224882   3.713   6.930   3.743
 7995SOL     OW24883   5.786   5.411   3.385
 7995SOL    HW124884   5.792   5.349   3.307
 7995SOL    HW224885   5.792   5.358   3.470
 7996SOL     OW24886   3.661   6.542   4.326
 7996SOL    HW124887   3.731   6.525   4.396
 7996SOL    HW224888   3.700   6.601   4.254
 7997SOL     OW24889   0.150   1.337   0.620
 7997SOL    HW124890   0.176   1.278   0.697
 7997SOL    HW224891   0.195   1.304   0.537
 7998SOL     OW24892   3.160   0.293   0.423
 7998SOL    HW124893   3.105   0.259   0.498
 7998SOL    HW224894   3.135   0.246   0.338
 7999SOL     OW24895   0.617   0.900   5.870
 7999SOL    HW124896   0.668   0.983   5.893
 7999SOL    HW224897   0.524   0.925   5.842
 8000SOL     OW24898   5.062   0.012   6.569
 8000SOL    HW124899   4.965   7.013   6.584
 8000SOL    HW224900   5.113   7.020   6.653
 8001SOL     OW24901   4.268   6.051   2.035
 8001SOL    HW124902   4.229   6.045   1.943
 8001SOL    HW224903   4.266   5.960   2.078
 8002SOL     OW24904   1.515   0.748   6.614
 8002SOL    HW124905   1.466   0.831   6.640
 8002SOL    HW224906   1.548   0.757   6.520
 8003SOL     OW24907   2.591   5.779   1.639
 8003SOL    HW124908   2.669   5.742   1.588
 8003SOL    HW224909   2.506   5.748   1.598
 8004SOL     OW24910   2.174   3.136   3.202
 8004SOL    HW124911   2.177   3.129   3.102
 8004SOL    HW224912   2.231   3.065   3.242
 8005SOL     OW24913   3.014   1.036   3.397
 8005SOL    HW124914   3.056   1.033   3.488
 8005SOL    HW224915   2.940   0.968   3.392
 8006SOL     OW24916   2.397   6.007   5.172
 8006SOL    HW124917   2.349   6.095   5.174
 8006SOL    HW224918   2.361   5.948   5.245
 8007SOL     OW24919   5.831   1.628   6.034
 8007SOL    HW124920   5.827   1.710   6.092
 8007SOL    HW224921   5.741   1.586   6.029
 8008SOL     OW24922   3.923   6.342   6.372
 8008SOL    HW124923   3.974   6.415   6.327
 8008SOL    HW224924   3.826   6.350   6.350
 8009SOL     OW24925   5.526   0.729   1.056
 8009SOL    HW124926   5.487   0.792   1.123
 8009SOL    HW224927   5.476   0.642   1.057
 8010SOL     OW24928   2.168   1.752   5.203
 8010SOL    HW124929   2.121   1.701   5.274
 8010SOL    HW224930   2.260   1.716   5.191
 8011SOL     OW24931   3.062   1.971   1.168
 8011SOL    HW124932   3.156   1.983   1.201
 8011SOL    HW224933   3.038   1.874   1.168
 8012SOL     OW24934   2.594   3.607   0.393
 8012SOL    HW124935   2.579   3.705   0.404
 8012SOL    HW224936   2.670   3.578   0.450
 8013SOL     OW24937   1.492   5.320   3.235
 8013SOL    HW124938   1.394   5.301   3.245
 8013SOL    HW224939   1.514   5.332   3.139
 8014SOL     OW24940   1.344   6.483   4.679
 8014SOL    HW124941   1.415   6.489   4.608
 8014SOL    HW224942   1.256   6.508   4.641
 8015SOL     OW24943   2.376   0.646   6.622
 8015SOL    HW124944   2.389   0.736   6.664
 8015SOL    HW224945   2.457   0.590   6.636
 8016SOL     OW24946   3.796   0.666   5.776
 8016SOL    HW124947   3.749   0.638   5.859
 8016SOL    HW224948   3.776   0.602   5.702
 8017SOL     OW24949   5.461   0.066   0.315
 8017SOL    HW124950   5.424   0.066   0.222
 8017SOL    HW224951   5.444   0.155   0.358
 8018SOL     OW24952   3.367   2.231   0.086
 8018SOL    HW124953   3.365   2.294   0.008
 8018SOL    HW224954   3.404   2.278   0.166
 8019SOL     OW24955   2.479   4.972   1.195
 8019SOL    HW124956   2.438   4.898   1.247
 8019SOL    HW224957   2.550   5.017   1.250
 8020SOL     OW24958   6.278   0.328   6.591
 8020SOL    HW124959   6.239   0.415   6.563
 8020SOL    HW224960   6.327   0.340   6.678
 8021SOL     OW24961   1.078   2.852   0.666
 8021SOL    HW124962   1.094   2.903   0.751
 8021SOL    HW224963   1.070   2.917   0.591
 8022SOL     OW24964   5.993   0.483   2.070
 8022SOL    HW124965   6.032   0.488   2.162
 8022SOL    HW224966   6.026   0.559   2.015
 8023SOL     OW24967   6.192   4.709   2.542
 8023SOL    HW124968   6.109   4.682   2.493
 8023SOL    HW224969   6.223   4.633   2.599
 8024SOL     OW24970   1.351   5.119   6.066
 8024SOL    HW124971   1.288   5.150   6.138
 8024SOL    HW224972   1.300   5.066   5.998
 8025SOL     OW24973   2.424   5.837   0.992
 8025SOL    HW124974   2.409   5.820   0.894
 8025SOL    HW224975   2.337   5.860   1.035
 8026SOL     OW24976   0.051   3.978   0.972
 8026SOL    HW124977   0.058   3.885   1.009
 8026SOL    HW224978   6.980   4.009   0.977
 8027SOL     OW24979   3.862   0.260   5.426
 8027SOL    HW124980   3.803   0.204   5.484
 8027SOL    HW224981   3.850   0.233   5.331
 8028SOL     OW24982   4.042   5.523   5.275
 8028SOL    HW124983   4.025   5.487   5.183
 8028SOL    HW224984   3.982   5.602   5.290
 8029SOL     OW24985   5.197   2.909   2.053
 8029SOL    HW124986   5.231   2.826   2.009
 8029SOL    HW224987   5.113   2.939   2.008
 8030SOL     OW24988   5.344   5.027   0.354
 8030SOL    HW124989   5.346   5.054   0.258
 8030SOL    HW224990   5.249   5.006   0.381
 8031SOL     OW24991   6.480   6.338   2.643
 8031SOL    HW124992   6.445   6.245   2.651
 8031SOL    HW224993   6.477   6.367   2.548
 8032SOL     OW24994   6.257   4.563   1.917
 8032SOL    HW124995   6.247   4.520   2.007
 8032SOL    HW224996   6.348   4.544   1.881
 8033SOL     OW24997   4.495   2.242   6.795
 8033SOL    HW124998   4.416   2.237   6.856
 8033SOL    HW224999   4.520   2.150   6.764
 8034SOL     OW25000   4.545   0.562   5.193
 8034SOL    HW125001   4.469   0.612   5.233
 8034SOL    HW225002   4.517   0.522   5.106
 8035SOL     OW25003   5.282   1.665   2.318
 8035SOL    HW125004   5.235   1.630   2.237
 8035SOL    HW225005   5.295   1.591   2.384
 8036SOL     OW25006   6.998   3.618   3.925
 8036SOL    HW125007   6.913   3.626   3.978
 8036SOL    HW225008   0.002   3.523   3.921
 8037SOL     OW25009   2.274   3.248   6.956
 8037SOL    HW125010   2.201   3.306   6.920
 8037SOL    HW225011   2.301   3.279   0.022
 8038SOL     OW25012   4.397   0.108   2.400
 8038SOL    HW125013   4.448   0.148   2.476
 8038SOL    HW225014   4.319   0.166   2.378
 8039SOL     OW25015   6.923   1.720   4.950
 8039SOL    HW125016   6.946   1.727   5.047
 8039SOL    HW225017   6.924   1.624   4.922
 8040SOL     OW25018   1.505   5.596   0.251
 8040SOL    HW125019   1.575   5.581   0.321
 8040SOL    HW225020   1.540   5.566   0.162
 8041SOL     OW25021   3.226   0.852   3.079
 8041SOL    HW125022   3.290   0.807   3.142
 8041SOL    HW225023   3.210   0.946   3.109
 8042SOL     OW25024   3.948   3.169   5.053
 8042SOL    HW125025   4.031   3.195   5.103
 8042SOL    HW225026   3.868   3.193   5.107
 8043SOL     OW25027   3.755   5.818   0.640
 8043SOL    HW125028   3.811   5.847   0.718
 8043SOL    HW225029   3.815   5.784   0.567
 8044SOL     OW25030   4.760   3.113   0.756
 8044SOL    HW125031   4.668   3.151   0.766
 8044SOL    HW225032   4.792   3.128   0.662
 8045SOL     OW25033   6.241   2.193   2.705
 8045SOL    HW125034   6.239   2.283   2.662
 8045SOL    HW225035   6.199   2.126   2.644
 8046SOL     OW25036   0.878   4.684   2.020
 8046SOL    HW125037   0.920   4.677   1.930
 8046SOL    HW225038   0.950   4.681   2.090
 8047SOL     OW25039   3.713   5.856   6.313
 8047SOL    HW125040   3.633   5.831   6.259
 8047SOL    HW225041   3.786   5.788   6.297
 8048SOL     OW25042   4.133   1.674   6.961
 8048SOL    HW125043   4.143   1.773   6.954
 8048SOL    HW225044   4.185   1.629   6.889
 8049SOL     OW25045   0.741   6.824   6.939
 8049SOL    HW125046   0.793   6.844   6.856
 8049SOL    HW225047   0.728   6.908   6.991
 8050SOL     OW25048   1.797   3.658   3.712
 8050SOL    HW125049   1.730   3.639   3.783
 8050SOL    HW225050   1.809   3.577   3.655
 8051SOL     OW25051   4.508   6.344   4.579
 8051SOL    HW125052   4.540   6.251   4.595
 8051SOL    HW225053   4.580   6.397   4.535
 8052SOL     OW25054   2.740   1.554   1.051
 8052SOL    HW125055   2.802   1.594   1.119
 8052SOL    HW225056   2.674   1.623   1.022
 8053SOL     OW25057   3.645   2.896   4.745
 8053SOL    HW125058   3.643   2.897   4.645
 8053SOL    HW225059   3.552   2.902   4.781
 8054SOL     OW25060   6.762   4.132   4.905
 8054SOL    HW125061   6.830   4.116   4.976
 8054SOL    HW225062   6.703   4.208   4.932
 8055SOL     OW25063   6.954   0.969   5.700
 8055SOL    HW125064   6.869   0.918   5.693
 8055SOL    HW225065   0.004   0.915   5.659
 8056SOL     OW25066   3.237   0.998   4.857
 8056SOL    HW125067   3.168   0.928   4.837
 8056SOL    HW225068   3.304   1.000   4.783
 8057SOL     OW25069   3.065   2.193   3.003
 8057SOL    HW125070   3.068   2.093   2.999
 8057SOL    HW225071   2.996   2.222   3.069
 8058SOL     OW25072   3.190   0.190   2.929
 8058SOL    HW125073   3.188   0.090   2.929
 8058SOL    HW225074   3.274   0.221   2.974
 8059SOL     OW25075   2.533   1.628   4.667
 8059SOL    HW125076   2.548   1.593   4.574
 8059SOL    HW225077   2.514   1.726   4.663
 8060SOL     OW25078   6.724   2.564   6.624
 8060SOL    HW125079   6.776   2.484   6.594
 8060SOL    HW225080   6.739   2.578   6.722
 8061SOL     OW25081   0.086   0.407   2.907
 8061SOL    HW125082   0.174   0.408   2.860
 8061SOL    HW225083   0.013   0.430   2.843
 8062SOL     OW25084   3.834   4.897   3.803
 8062SOL    HW125085   3.909   4.835   3.779
 8062SOL    HW225086   3.760   4.887   3.736
 8063SOL     OW25087   2.201   2.007   2.956
 8063SOL    HW125088   2.266   1.930   2.951
 8063SOL    HW225089   2.187   2.033   3.051
 8064SOL     OW25090   6.171   2.099   1.066
 8064SOL    HW125091   6.100   2.167   1.045
 8064SOL    HW225092   6.242   2.103   0.995
 8065SOL     OW25093   2.829   5.586   3.833
 8065SOL    HW125094   2.824   5.486   3.840
 8065SOL    HW225095   2.739   5.625   3.854
 8066SOL     OW25096   0.396   0.692   5.550
 8066SOL    HW125097   0.298   0.714   5.554
 8066SOL    HW225098   0.421   0.639   5.631
 8067SOL     OW25099   5.177   2.624   2.744
 8067SOL    HW125100   5.232   2.675   2.677
 8067SOL    HW225101   5.154   2.684   2.821
 8068SOL     OW25102   0.140   4.389   1.150
 8068SOL    HW125103   0.221   4.331   1.147
 8068SOL    HW225104   0.145   4.458   1.079
 8069SOL     OW25105   2.187   5.337   1.021
 8069SOL    HW125106   2.207   5.254   1.072
 8069SOL    HW225107   2.261   5.403   1.033
 8070SOL     OW25108   4.289   3.248   0.672
 8070SOL    HW125109   4.234   3.231   0.590
 8070SOL    HW225110   4.249   3.323   0.724
 8071SOL     OW25111   3.446   6.515   5.300
 8071SOL    HW125112   3.479   6.426   5.270
 8071SOL    HW225113   3.372   6.546   5.240
 8072SOL     OW25114   3.716   1.772   0.721
 8072SOL    HW125115   3.716   1.837   0.645
 8072SOL    HW225116   3.642   1.795   0.784
 8073SOL     OW25117   3.749   6.001   5.094
 8073SOL    HW125118   3.808   5.949   5.032
 8073SOL    HW225119   3.738   5.950   5.179
 8074SOL     OW25120   3.207   3.235   0.984
 8074SOL    HW125121   3.175   3.249   1.078
 8074SOL    HW225122   3.140   3.180   0.934
 8075SOL     OW25123   6.270   0.028   0.842
 8075SOL    HW125124   6.283   7.022   0.936
 8075SOL    HW225125   6.172   0.040   0.824
 8076SOL     OW25126   5.868   0.383   5.685
 8076SOL    HW125127   5.936   0.364   5.614
 8076SOL    HW225128   5.805   0.454   5.654
 8077SOL     OW25129   3.620   6.495   2.391
 8077SOL    HW125130   3.558   6.466   2.318
 8077SOL    HW225131   3.691   6.425   2.404
 8078SOL     OW25132   0.386   2.025   0.605
 8078SOL    HW125133   0.288   2.012   0.619
 8078SOL    HW225134   0.407   2.123   0.603
 8079SOL     OW25135   6.531   1.282   3.886
 8079SOL    HW125136   6.598   1.210   3.906
 8079SOL    HW225137   6.449   1.240   3.846
 8080SOL     OW25138   0.709   2.746   2.655
 8080SOL    HW125139   0.728   2.794   2.570
 8080SOL    HW225140   0.672   2.655   2.635
 8081SOL     OW25141   6.040   5.778   6.056
 8081SOL    HW125142   5.977   5.712   6.096
 8081SOL    HW225143   6.102   5.813   6.126
 8082SOL     OW25144   3.876   1.000   1.908
 8082SOL    HW125145   3.776   1.009   1.909
 8082SOL    HW225146   3.915   1.071   1.966
 8083SOL     OW25147   4.719   2.830   3.489
 8083SOL    HW125148   4.787   2.866   3.553
 8083SOL    HW225149   4.639   2.798   3.540
 8084SOL     OW25150   3.608   6.795   6.755
 8084SOL    HW125151   3.520   6.762   6.789
 8084SOL    HW225152   3.594   6.843   6.668
 8085SOL     OW25153   5.872   6.527   2.283
 8085SOL    HW125154   5.935   6.472   2.337
 8085SOL    HW225155   5.833   6.599   2.341
 8086SOL     OW25156   6.704   0.744   2.629
 8086SOL    HW125157   6.679   0.649   2.651
 8086SOL    HW225158   6.786   0.744   2.572
 8087SOL     OW25159   2.016   0.154   7.003
 8087SOL    HW125160   1.948   0.087   0.009
 8087SOL    HW225161   2.076   0.112   6.935
 8088SOL     OW25162   6.069   1.113   1.564
 8088SOL    HW125163   6.164   1.095   1.587
 8088SOL    HW225164   6.061   1.131   1.465
 8089SOL     OW25165   5.498   2.729   0.592
 8089SOL    HW125166   5.432   2.799   0.617
 8089SOL    HW225167   5.550   2.760   0.512
 8090SOL     OW25168   3.810   1.325   6.605
 8090SOL    HW125169   3.767   1.295   6.520
 8090SOL    HW225170   3.750   1.301   6.682
 8091SOL     OW25171   1.813   3.915   4.643
 8091SOL    HW125172   1.908   3.889   4.663
 8091SOL    HW225173   1.807   4.014   4.638
 8092SOL     OW25174   5.637   2.058   5.511
 8092SOL    HW125175   5.699   2.119   5.560
 8092SOL    HW225176   5.586   2.111   5.442
 8093SOL     OW25177   2.928   4.975   3.280
 8093SOL    HW125178   2.874   4.895   3.254
 8093SOL    HW225179   3.025   4.956   3.266
 8094SOL     OW25180   0.362   3.020   4.606
 8094SOL    HW125181   0.447   3.012   4.554
 8094SOL    HW225182   0.379   2.994   4.701
 8095SOL     OW25183   0.533   4.759   4.294
 8095SOL    HW125184   0.499   4.847   4.328
 8095SOL    HW225185   0.489   4.738   4.207
 8096SOL     OW25186   2.411   6.943   2.650
 8096SOL    HW125187   2.440   0.004   2.608
 8096SOL    HW225188   2.330   6.959   2.707
 8097SOL     OW25189   4.097   6.916   4.673
 8097SOL    HW125190   4.161   6.844   4.646
 8097SOL    HW225191   4.140   6.976   4.740
 8098SOL     OW25192   2.190   6.505   3.373
 8098SOL    HW125193   2.125   6.442   3.415
 8098SOL    HW225194   2.153   6.598   3.375
 8099SOL     OW25195   4.254   6.016   4.563
 8099SOL    HW125196   4.162   5.978   4.566
 8099SOL    HW225197   4.287   6.032   4.656
 8100SOL     OW25198   6.984   0.304   6.939
 8100SOL    HW125199   6.986   0.208   6.911
 8100SOL    HW225200   6.918   0.316   7.013
 8101SOL     OW25201   1.482   5.884   1.823
 8101SOL    HW125202   1.495   5.978   1.856
 8101SOL    HW225203   1.478   5.822   1.901
 8102SOL     OW25204   0.433   4.085   3.307
 8102SOL    HW125205   0.459   4.166   3.359
 8102SOL    HW225206   0.513   4.027   3.295
 8103SOL     OW25207   2.868   6.705   1.712
 8103SOL    HW125208   2.944   6.666   1.661
 8103SOL    HW225209   2.872   6.805   1.707
 8104SOL     OW25210   1.994   0.540   6.071
 8104SOL    HW125211   2.057   0.603   6.026
 8104SOL    HW225212   2.042   0.490   6.143
 8105SOL     OW25213   0.197   3.334   3.350
 8105SOL    HW125214   0.156   3.423   3.326
 8105SOL    HW225215   0.296   3.341   3.347
 8106SOL     OW25216   3.383   5.910   3.407
 8106SOL    HW125217   3.293   5.909   3.364
 8106SOL    HW225218   3.447   5.962   3.350
 8107SOL     OW25219   0.626   4.900   3.951
 8107SOL    HW125220   0.598   4.973   3.889
 8107SOL    HW225221   0.546   4.848   3.980
 8108SOL     OW25222   6.402   3.180   6.210
 8108SOL    HW125223   6.378   3.088   6.179
 8108SOL    HW225224   6.500   3.184   6.229
 8109SOL     OW25225   6.746   3.717   5.975
 8109SOL    HW125226   6.689   3.720   6.057
 8109SOL    HW225227   6.724   3.634   5.922
 8110SOL     OW25228   3.858   5.953   2.299
 8110SOL    HW125229   3.771   5.985   2.335
 8110SOL    HW225230   3.933   6.002   2.343
 8111SOL     OW25231   5.142   1.216   4.717
 8111SOL    HW125232   5.091   1.131   4.702
 8111SOL    HW225233   5.079   1.289   4.744
 8112SOL     OW25234   2.368   2.496   4.632
 8112SOL    HW125235   2.365   2.504   4.532
 8112SOL    HW225236   2.380   2.400   4.657
 8113SOL     OW25237   1.579   3.117   7.004
 8113SOL    HW125238   1.614   3.157   0.065
 8113SOL    HW225239   1.510   3.177   6.966
 8114SOL     OW25240   1.300   4.017   2.778
 8114SOL    HW125241   1.379   3.998   2.720
 8114SOL    HW225242   1.295   4.115   2.796
 8115SOL     OW25243   3.747   0.318   6.461
 8115SOL    HW125244   3.727   0.220   6.461
 8115SOL    HW225245   3.818   0.337   6.393
 8116SOL     OW25246   4.199   4.506   0.540
 8116SOL    HW125247   4.269   4.520   0.610
 8116SOL    HW225248   4.120   4.564   0.560
 8117SOL     OW25249   2.012   6.997   3.277
 8117SOL    HW125250   1.915   7.007   3.258
 8117SOL    HW225251   2.036   0.026   3.358
 8118SOL     OW25252   4.797   4.386   6.848
 8118SOL    HW125253   4.886   4.416   6.884
 8118SOL    HW225254   4.768   4.302   6.894
 8119SOL     OW25255   4.905   5.473   6.791
 8119SOL    HW125256   4.972   5.421   6.738
 8119SOL    HW225257   4.874   5.552   6.738
 8120SOL     OW25258   2.948   4.797   1.111
 8120SOL    HW125259   2.881   4.739   1.064
 8120SOL    HW225260   2.944   4.890   1.075
 8121SOL     OW25261   6.801   5.182   2.299
 8121SOL    HW125262   6.789   5.137   2.211
 8121SOL    HW225263   6.711   5.205   2.337
 8122SOL     OW25264   0.054   4.943   3.725
 8122SOL    HW125265   0.123   4.892   3.674
 8122SOL    HW225266   7.004   4.882   3.751
 8123SOL     OW25267   6.562   2.136   6.611
 8123SOL    HW125268   6.528   2.139   6.705
 8123SOL    HW225269   6.583   2.228   6.580
 8124SOL     OW25270   5.144   6.233   1.943
 8124SOL    HW125271   5.179   6.327   1.945
 8124SOL    HW225272   5.046   6.233   1.964
 8125SOL     OW25273   1.513   1.773   2.934
 8125SOL    HW125274   1.502   1.680   2.968
 8125SOL    HW225275   1.555   1.830   3.006
 8126SOL     OW25276   4.890   3.786   2.534
 8126SOL    HW125277   4.862   3.875   2.569
 8126SOL    HW225278   4.865   3.778   2.438
 8127SOL     OW25279   2.438   3.854   6.669
 8127SOL    HW125280   2.416   3.904   6.585
 8127SOL    HW225281   2.360   3.799   6.697
 8128SOL     OW25282   2.930   2.101   2.257
 8128SOL    HW125283   2.954   2.168   2.187
 8128SOL    HW225284   2.932   2.009   2.217
 8129SOL     OW25285   4.029   1.633   6.236
 8129SOL    HW125286   4.003   1.642   6.332
 8129SOL    HW225287   3.948   1.621   6.180
 8130SOL     OW25288   0.504   3.805   6.810
 8130SOL    HW125289   0.414   3.848   6.806
 8130SOL    HW225290   0.553   3.821   6.724
 8131SOL     OW25291   2.470   2.233   1.380
 8131SOL    HW125292   2.451   2.317   1.329
 8131SOL    HW225293   2.388   2.176   1.382
 8132SOL     OW25294   6.005   6.984   5.816
 8132SOL    HW125295   6.101   6.976   5.790
 8132SOL    HW225296   5.962   6.894   5.810
 8133SOL     OW25297   3.416   5.691   1.818
 8133SOL    HW125298   3.360   5.686   1.900
 8133SOL    HW225299   3.412   5.604   1.769
 8134SOL     OW25300   6.706   2.707   5.856
 8134SOL    HW125301   6.621   2.658   5.873
 8134SOL    HW225302   6.741   2.683   5.765
 8135SOL     OW25303   3.308   6.685   1.587
 8135SOL    HW125304   3.368   6.756   1.625
 8135SOL    HW225305   3.348   6.650   1.502
 8136SOL     OW25306   4.327   6.243   2.888
 8136SOL    HW125307   4.270   6.185   2.828
 8136SOL    HW225308   4.423   6.222   2.872
 8137SOL     OW25309   3.610   1.501   5.258
 8137SOL    HW125310   3.638   1.520   5.352
 8137SOL    HW225311   3.679   1.536   5.195
 8138SOL     OW25312   5.030   0.755   0.620
 8138SOL    HW125313   5.100   0.816   0.582
 8138SOL    HW225314   4.999   0.790   0.708
 8139SOL     OW25315   0.528   0.732   1.929
 8139SOL    HW125316   0.502   0.707   2.022
 8139SOL    HW225317   0.627   0.746   1.924
 8140SOL     OW25318   5.544   0.550   6.847
 8140SOL    HW125319   5.463   0.500   6.877
 8140SOL    HW225320   5.569   0.521   6.754
 8141SOL     OW25321   4.852   5.892   4.356
 8141SOL    HW125322   4.843   5.806   4.406
 8141SOL    HW225323   4.761   5.922   4.326
 8142SOL     OW25324   0.100   5.476   0.021
 8142SOL    HW125325   0.021   5.422   7.017
 8142SOL    HW225326   0.102   5.482   0.121
 8143SOL     OW25327   5.977   4.281   0.845
 8143SOL    HW125328   5.970   4.185   0.819
 8143SOL    HW225329   6.014   4.288   0.938
 8144SOL     OW25330   6.335   6.118   6.445
 8144SOL    HW125331   6.256   6.119   6.507
 8144SOL    HW225332   6.376   6.209   6.442
 8145SOL     OW25333   5.693   5.796   1.800
 8145SOL    HW125334   5.667   5.702   1.821
 8145SOL    HW225335   5.768   5.824   1.860
 8146SOL     OW25336   3.994   1.023   4.500
 8146SOL    HW125337   4.077   1.078   4.512
 8146SOL    HW225338   3.976   0.970   4.583
 8147SOL     OW25339   6.042   1.953   2.016
 8147SOL    HW125340   6.034   1.855   1.999
 8147SOL    HW225341   6.105   1.970   2.091
 8148SOL     OW25342   4.907   4.344   1.030
 8148SOL    HW125343   4.914   4.438   1.063
 8148SOL    HW225344   4.814   4.310   1.046
 8149SOL     OW25345   2.487   6.345   2.044
 8149SOL    HW125346   2.495   6.371   1.948
 8149SOL    HW225347   2.439   6.417   2.094
 8150SOL     OW25348   1.419   4.431   0.600
 8150SOL    HW125349   1.448   4.368   0.529
 8150SOL    HW225350   1.499   4.473   0.643
 8151SOL     OW25351   6.718   2.159   1.252
 8151SOL    HW125352   6.676   2.090   1.193
 8151SOL    HW225353   6.738   2.241   1.199
 8152SOL     OW25354   0.657   1.294   2.532
 8152SOL    HW125355   0.659   1.366   2.601
 8152SOL    HW225356   0.696   1.328   2.447
 8153SOL     OW25357   2.802   0.306   3.577
 8153SOL    HW125358   2.850   0.295   3.490
 8153SOL    HW225359   2.722   0.365   3.564
 8154SOL     OW25360   2.704   5.584   3.019
 8154SOL    HW125361   2.679   5.579   3.116
 8154SOL    HW225362   2.704   5.492   2.980
 8155SOL     OW25363   1.938   3.866   1.836
 8155SOL    HW125364   2.028   3.825   1.853
 8155SOL    HW225365   1.877   3.846   1.912
 8156SOL     OW25366   5.240   6.720   0.473
 8156SOL    HW125367   5.287   6.780   0.538
 8156SOL    HW225368   5.216   6.772   0.391
 8157SOL     OW25369   6.937   4.931   6.555
 8157SOL    HW125370   6.982   4.986   6.626
 8157SOL    HW225371   6.868   4.986   6.509
 8158SOL     OW25372   5.730   5.386   1.211
 8158SOL    HW125373   5.656   5.376   1.277
 8158SOL    HW225374   5.694   5.426   1.126
 8159SOL     OW25375   3.101   6.678   2.691
 8159SOL    HW125376   3.001   6.673   2.683
 8159SOL    HW225377   3.130   6.626   2.771
 8160SOL     OW25378   4.706   1.214   2.845
 8160SOL    HW125379   4.653   1.271   2.783
 8160SOL    HW225380   4.660   1.208   2.934
 8161SOL     OW25381   5.415   1.294   6.853
 8161SOL    HW125382   5.483   1.361   6.885
 8161SOL    HW225383   5.382   1.319   6.763
 8162SOL     OW25384   5.896   6.522   6.111
 8162SOL    HW125385   5.913   6.448   6.046
 8162SOL    HW225386   5.975   6.533   6.171
 8163SOL     OW25387   2.643   4.001   5.532
 8163SOL    HW125388   2.563   3.999   5.472
 8163SOL    HW225389   2.619   4.044   5.619
 8164SOL     OW25390   5.654   3.564   0.577
 8164SOL    HW125391   5.701   3.483   0.544
 8164SOL    HW225392   5.720   3.638   0.592
 8165SOL     OW25393   0.921   5.037   6.989
 8165SOL    HW125394   1.014   5.032   6.953
 8165SOL    HW225395   0.904   4.958   0.024
 8166SOL     OW25396   2.040   0.423   2.087
 8166SOL    HW125397   2.030   0.522   2.084
 8166SOL    HW225398   2.019   0.389   2.179
 8167SOL     OW25399   6.245   6.828   4.951
 8167SOL    HW125400   6.229   6.898   5.021
 8167SOL    HW225401   6.343   6.808   4.946
 8168SOL     OW25402   2.756   1.693   3.286
 8168SOL    HW125403   2.756   1.686   3.386
 8168SOL    HW225404   2.833   1.749   3.256
 8169SOL     OW25405   5.053   2.677   1.383
 8169SOL    HW125406   5.049   2.776   1.379
 8169SOL    HW225407   5.138   2.649   1.428
 8170SOL     OW25408   1.693   5.345   2.593
 8170SOL    HW125409   1.614   5.285   2.589
 8170SOL    HW225410   1.664   5.437   2.621
 8171SOL     OW25411   1.464   1.777   0.108
 8171SOL    HW125412   1.532   1.778   0.182
 8171SOL    HW225413   1.504   1.734   0.027
 8172SOL     OW25414   0.698   1.561   2.057
 8172SOL    HW125415   0.736   1.649   2.085
 8172SOL    HW225416   0.765   1.513   2.000
 8173SOL     OW25417   3.901   1.324   1.418
 8173SOL    HW125418   3.970   1.253   1.431
 8173SOL    HW225419   3.821   1.302   1.474
 8174SOL     OW25420   6.006   2.346   1.056
 8174SOL    HW125421   5.916   2.357   1.098
 8174SOL    HW225422   6.059   2.431   1.068
 8175SOL     OW25423   0.271   3.232   6.389
 8175SOL    HW125424   0.337   3.231   6.464
 8175SOL    HW225425   0.190   3.284   6.417
 8176SOL     OW25426   2.708   5.584   2.576
 8176SOL    HW125427   2.703   5.683   2.592
 8176SOL    HW225428   2.652   5.561   2.497
 8177SOL     OW25429   2.475   5.570   4.094
 8177SOL    HW125430   2.505   5.499   4.157
 8177SOL    HW225431   2.522   5.656   4.115
 8178SOL     OW25432   2.804   5.948   6.308
 8178SOL    HW125433   2.860   5.894   6.371
 8178SOL    HW225434   2.741   5.887   6.259
 8179SOL     OW25435   3.998   2.355   6.211
 8179SOL    HW125436   4.082   2.301   6.215
 8179SOL    HW225437   3.928   2.312   6.268
 8180SOL     OW25438   6.904   0.294   4.851
 8180SOL    HW125439   6.855   0.206   4.845
 8180SOL    HW225440   6.878   0.351   4.773
 8181SOL     OW25441   1.926   2.074   1.818
 8181SOL    HW125442   2.022   2.045   1.824
 8181SOL    HW225443   1.918   2.166   1.856
 8182SOL     OW25444   3.576   2.105   6.951
 8182SOL    HW125445   3.519   2.132   0.004
 8182SOL    HW225446   3.526   2.119   6.866
 8183SOL     OW25447   0.755   2.361   4.494
 8183SOL    HW125448   0.718   2.326   4.408
 8183SOL    HW225449   0.852   2.337   4.501
 8184SOL     OW25450   4.881   1.745   5.838
 8184SOL    HW125451   4.817   1.677   5.803
 8184SOL    HW225452   4.832   1.828   5.864
 8185SOL     OW25453   2.636   6.554   0.401
 8185SOL    HW125454   2.662   6.645   0.434
 8185SOL    HW225455   2.655   6.487   0.473
 8186SOL     OW25456   3.512   5.408   6.466
 8186SOL    HW125457   3.581   5.461   6.514
 8186SOL    HW225458   3.538   5.311   6.467
 8187SOL     OW25459   2.101   2.212   5.709
 8187SOL    HW125460   2.020   2.162   5.678
 8187SOL    HW225461   2.077   2.273   5.784
 8188SOL     OW25462   5.244   2.233   1.993
 8188SOL    HW125463   5.159   2.284   1.983
 8188SOL    HW225464   5.308   2.286   2.049
 8189SOL     OW25465   4.898   4.866   2.079
 8189SOL    HW125466   4.897   4.804   2.157
 8189SOL    HW225467   4.867   4.956   2.107
 8190SOL     OW25468   5.081   5.630   4.325
 8190SOL    HW125469   4.981   5.618   4.318
 8190SOL    HW225470   5.125   5.584   4.249
 8191SOL     OW25471   3.062   5.712   3.436
 8191SOL    HW125472   3.039   5.793   3.383
 8191SOL    HW225473   3.153   5.679   3.410
 8192SOL     OW25474   3.809   5.429   0.066
 8192SOL    HW125475   3.823   5.368   7.013
 8192SOL    HW225476   3.746   5.503   0.039
 8193SOL     OW25477   6.739   0.457   4.143
 8193SOL    HW125478   6.687   0.409   4.073
 8193SOL    HW225479   6.826   0.410   4.158
 8194SOL     OW25480   6.109   2.621   0.981
 8194SOL    HW125481   6.089   2.718   0.964
 8194SOL    HW225482   6.156   2.612   1.069
 8195SOL     OW25483   0.643   0.074   0.482
 8195SOL    HW125484   0.635   0.133   0.402
 8195SOL    HW225485   0.627   0.127   0.565
 8196SOL     OW25486   3.311   0.366   5.620
 8196SOL    HW125487   3.254   0.305   5.674
 8196SOL    HW225488   3.403   0.370   5.659
 8197SOL     OW25489   4.438   1.143   5.728
 8197SOL    HW125490   4.351   1.140   5.776
 8197SOL    HW225491   4.491   1.222   5.758
 8198SOL     OW25492   2.777   6.436   3.262
 8198SOL    HW125493   2.705   6.462   3.327
 8198SOL    HW225494   2.736   6.387   3.185
 8199SOL     OW25495   6.957   3.079   6.905
 8199SOL    HW125496   6.964   3.174   6.935
 8199SOL    HW225497   0.019   3.051   6.863
 8200SOL     OW25498   4.878   3.851   1.026
 8200SOL    HW125499   4.792   3.838   0.976
 8200SOL    HW225500   4.952   3.867   0.962
 8201SOL     OW25501   4.670   0.574   4.336
 8201SOL    HW125502   4.752   0.568   4.393
 8201SOL    HW225503   4.691   0.621   4.250
 8202SOL     OW25504   0.577   5.612   4.120
 8202SOL    HW125505   0.506   5.643   4.184
 8202SOL    HW225506   0.545   5.626   4.026
 8203SOL     OW25507   4.698   2.705   0.293
 8203SOL    HW125508   4.674   2.779   0.356
 8203SOL    HW225509   4.782   2.729   0.243
 8204SOL     OW25510   3.175   5.582   0.794
 8204SOL    HW125511   3.256   5.596   0.737
 8204SOL    HW225512   3.093   5.584   0.737
 8205SOL     OW25513   6.598   4.692   1.609
 8205SOL    HW125514   6.693   4.675   1.584
 8205SOL    HW225515   6.550   4.735   1.532
 8206SOL     OW25516   3.507   3.035   5.814
 8206SOL    HW125517   3.535   3.070   5.725
 8206SOL    HW225518   3.570   2.963   5.843
 8207SOL     OW25519   3.641   4.634   5.343
 8207SOL    HW125520   3.662   4.538   5.326
 8207SOL    HW225521   3.542   4.646   5.350
 8208SOL     OW25522   2.301   6.371   1.384
 8208SOL    HW125523   2.218   6.364   1.440
 8208SOL    HW225524   2.291   6.315   1.302
 8209SOL     OW25525   0.835   1.928   5.443
 8209SOL    HW125526   0.757   1.965   5.393
 8209SOL    HW225527   0.811   1.917   5.539
 8210SOL     OW25528   3.073   0.796   1.578
 8210SOL    HW125529   3.165   0.778   1.613
 8210SOL    HW225530   3.012   0.818   1.654
 8211SOL     OW25531   3.607   3.952   3.739
 8211SOL    HW125532   3.585   4.049   3.740
 8211SOL    HW225533   3.639   3.924   3.830
 8212SOL     OW25534   3.115   0.914   1.317
 8212SOL    HW125535   3.047   0.880   1.252
 8212SOL    HW225536   3.088   0.885   1.409
 8213SOL     OW25537   5.238   4.647   2.563
 8213SOL    HW125538   5.184   4.732   2.560
 8213SOL    HW225539   5.215   4.597   2.646
 8214SOL     OW25540   1.889   6.096   3.845
 8214SOL    HW125541   1.829   6.129   3.918
 8214SOL    HW225542   1.883   5.996   3.840
 8215SOL     OW25543   4.322   5.224   0.158
 8215SOL    HW125544   4.309   5.235   0.059
 8215SOL    HW225545   4.377   5.300   0.193
 8216SOL     OW25546   5.277   6.950   2.875
 8216SOL    HW125547   5.337   6.955   2.955
 8216SOL    HW225548   5.246   6.856   2.863
 8217SOL     OW25549   2.077   3.854   2.158
 8217SOL    HW125550   1.985   3.886   2.135
 8217SOL    HW225551   2.141   3.930   2.150
 8218SOL     OW25552   1.610   0.047   4.062
 8218SOL    HW125553   1.671   0.094   3.999
 8218SOL    HW225554   1.538   0.109   4.092
 8219SOL     OW25555   3.465   3.991   1.480
 8219SOL    HW125556   3.417   3.960   1.562
 8219SOL    HW225557   3.500   3.912   1.430
 8220SOL     OW25558   3.356   4.457   5.322
 8220SOL    HW125559   3.355   4.557   5.313
 8220SOL    HW225560   3.262   4.423   5.327
 8221SOL     OW25561   6.402   4.187   3.122
 8221SOL    HW125562   6.329   4.208   3.187
 8221SOL    HW225563   6.381   4.103   3.074
 8222SOL     OW25564   5.532   1.985   0.922
 8222SOL    HW125565   5.553   2.062   0.862
 8222SOL    HW225566   5.433   1.980   0.936
 8223SOL     OW25567   0.281   4.886   5.939
 8223SOL    HW125568   0.193   4.903   5.984
 8223SOL    HW225569   0.269   4.814   5.871
 8224SOL     OW25570   4.830   1.619   1.775
 8224SOL    HW125571   4.912   1.669   1.800
 8224SOL    HW225572   4.753   1.683   1.768
 8225SOL     OW25573   3.801   0.807   1.072
 8225SOL    HW125574   3.751   0.889   1.099
 8225SOL    HW225575   3.739   0.744   1.026
 8226SOL     OW25576   2.922   0.529   0.828
 8226SOL    HW125577   2.991   0.514   0.899
 8226SOL    HW225578   2.931   0.622   0.791
 8227SOL     OW25579   0.197   1.214   2.488
 8227SOL    HW125580   0.109   1.216   2.534
 8227SOL    HW225581   0.237   1.306   2.489
 8228SOL     OW25582   0.540   1.581   6.031
 8228SOL    HW125583   0.499   1.666   6.000
 8228SOL    HW225584   0.638   1.582   6.010
 8229SOL     OW25585   4.589   4.368   0.863
 8229SOL    HW125586   4.606   4.316   0.947
 8229SOL    HW225587   4.591   4.465   0.884
 8230SOL     OW25588   3.856   6.622   5.819
 8230SOL    HW125589   3.815   6.599   5.907
 8230SOL    HW225590   3.844   6.719   5.800
 8231SOL     OW25591   3.277   1.898   2.310
 8231SOL    HW125592   3.202   1.880   2.247
 8231SOL    HW225593   3.347   1.952   2.263
 8232SOL     OW25594   5.303   1.998   2.409
 8232SOL    HW125595   5.268   1.992   2.315
 8232SOL    HW225596   5.241   1.949   2.470
 8233SOL     OW25597   1.249   0.066   5.980
 8233SOL    HW125598   1.320   0.013   5.933
 8233SOL    HW225599   1.233   0.151   5.930
 8234SOL     OW25600   3.201   3.204   0.321
 8234SOL    HW125601   3.195   3.245   0.230
 8234SOL    HW225602   3.199   3.276   0.390
 8235SOL     OW25603   0.622   3.756   0.026
 8235SOL    HW125604   0.607   3.792   6.958
 8235SOL    HW225605   0.534   3.732   0.067
 8236SOL     OW25606   0.475   5.281   6.165
 8236SOL    HW125607   0.480   5.349   6.238
 8236SOL    HW225608   0.457   5.327   6.078
 8237SOL     OW25609   4.750   6.117   5.887
 8237SOL    HW125610   4.682   6.062   5.934
 8237SOL    HW225611   4.751   6.209   5.925
 8238SOL     OW25612   0.545   5.712   6.933
 8238SOL    HW125613   0.609   5.788   6.935
 8238SOL    HW225614   0.507   5.701   6.841
 8239SOL     OW25615   0.306   1.157   5.060
 8239SOL    HW125616   0.232   1.112   5.010
 8239SOL    HW225617   0.270   1.198   5.144
 8240SOL     OW25618   2.907   3.681   2.494
 8240SOL    HW125619   2.942   3.761   2.446
 8240SOL    HW225620   2.879   3.707   2.587
 8241SOL     OW25621   2.165   4.219   6.352
 8241SOL    HW125622   2.178   4.228   6.253
 8241SOL    HW225623   2.097   4.149   6.371
 8242SOL     OW25624   1.182   3.590   5.070
 8242SOL    HW125625   1.136   3.568   5.156
 8242SOL    HW225626   1.240   3.671   5.082
 8243SOL     OW25627   0.343   4.519   0.035
 8243SOL    HW125628   0.303   4.606   0.067
 8243SOL    HW225629   0.441   4.531   0.021
 8244SOL     OW25630   0.588   0.178   4.106
 8244SOL    HW125631   0.639   0.195   4.022
 8244SOL    HW225632   0.490   0.182   4.087
 8245SOL     OW25633   3.848   1.804   3.744
 8245SOL    HW125634   3.834   1.899   3.717
 8245SOL    HW225635   3.864   1.748   3.663
 8246SOL     OW25636   0.817   4.537   6.223
 8246SOL    HW125637   0.891   4.590   6.180
 8246SOL    HW225638   0.742   4.598   6.247
 8247SOL     OW25639   2.534   5.947   3.722
 8247SOL    HW125640   2.514   6.018   3.790
 8247SOL    HW225641   2.612   5.975   3.666
 8248SOL     OW25642   0.539   5.578   5.174
 8248SOL    HW125643   0.626   5.538   5.201
 8248SOL    HW225644   0.536   5.674   5.201
 8249SOL     OW25645   2.756   1.481   5.127
 8249SOL    HW125646   2.702   1.490   5.211
 8249SOL    HW225647   2.849   1.451   5.150
 8250SOL     OW25648   3.054   2.008   0.893
 8250SOL    HW125649   3.051   1.951   0.975
 8250SOL    HW225650   3.016   2.098   0.915
 8251SOL     OW25651   6.041   1.163   3.906
 8251SOL    HW125652   6.054   1.241   3.966
 8251SOL    HW225653   5.975   1.186   3.835
 8252SOL     OW25654   3.231   1.844   0.275
 8252SOL    HW125655   3.137   1.876   0.285
 8252SOL    HW225656   3.292   1.902   0.329
 8253SOL     OW25657   3.966   5.902   6.760
 8253SOL    HW125658   3.938   5.812   6.793
 8253SOL    HW225659   4.023   5.892   6.678
 8254SOL     OW25660   5.351   4.929   6.134
 8254SOL    HW125661   5.317   5.009   6.183
 8254SOL    HW225662   5.449   4.938   6.119
 8255SOL     OW25663   1.179   6.980   6.416
 8255SOL    HW125664   1.124   0.024   6.465
 8255SOL    HW225665   1.205   7.017   6.327
 8256SOL     OW25666   6.324   0.190   3.106
 8256SOL    HW125667   6.297   0.100   3.072
 8256SOL    HW225668   6.385   0.233   3.040
 8257SOL     OW25669   5.589   4.780   4.176
 8257SOL    HW125670   5.662   4.755   4.240
 8257SOL    HW225671   5.626   4.784   4.083
 8258SOL     OW25672   5.446   2.750   1.944
 8258SOL    HW125673   5.354   2.711   1.946
 8258SOL    HW225674   5.481   2.757   2.038
 8259SOL     OW25675   4.098   1.926   4.879
 8259SOL    HW125676   4.168   1.855   4.880
 8259SOL    HW225677   4.100   1.977   4.966
 8260SOL     OW25678   1.987   6.227   1.063
 8260SOL    HW125679   1.925   6.253   1.137
 8260SOL    HW225680   2.076   6.271   1.077
 8261SOL     OW25681   5.153   6.448   3.290
 8261SOL    HW125682   5.228   6.433   3.226
 8261SOL    HW225683   5.066   6.429   3.245
 8262SOL     OW25684   0.905   4.915   0.430
 8262SOL    HW125685   0.836   4.951   0.493
 8262SOL    HW225686   0.911   4.816   0.441
 8263SOL     OW25687   6.712   2.922   6.909
 8263SOL    HW125688   6.784   2.992   6.914
 8263SOL    HW225689   6.622   2.967   6.914
 8264SOL     OW25690   1.300   6.892   1.445
 8264SOL    HW125691   1.302   6.879   1.346
 8264SOL    HW225692   1.313   6.989   1.466
 8265SOL     OW25693   4.320   0.303   1.543
 8265SOL    HW125694   4.325   0.203   1.539
 8265SOL    HW225695   4.247   0.335   1.481
 8266SOL     OW25696   3.041   0.505   4.892
 8266SOL    HW125697   3.015   0.416   4.855
 8266SOL    HW225698   3.006   0.515   4.985
 8267SOL     OW25699   1.430   5.157   1.900
 8267SOL    HW125700   1.406   5.061   1.884
 8267SOL    HW225701   1.399   5.212   1.822
 8268SOL     OW25702   2.674   4.516   5.842
 8268SOL    HW125703   2.651   4.459   5.763
 8268SOL    HW225704   2.692   4.457   5.921
 8269SOL     OW25705   4.459   2.531   3.171
 8269SOL    HW125706   4.441   2.511   3.267
 8269SOL    HW225707   4.539   2.590   3.164
 8270SOL     OW25708   2.975   5.619   5.997
 8270SOL    HW125709   2.987   5.546   5.930
 8270SOL    HW225710   2.904   5.594   6.062
 8271SOL     OW25711   6.747   6.643   3.497
 8271SOL    HW125712   6.813   6.712   3.465
 8271SOL    HW225713   6.662   6.689   3.523
 8272SOL     OW25714   0.315   0.681   2.834
 8272SOL    HW125715   0.322   0.582   2.819
 8272SOL    HW225716   0.227   0.702   2.877
 8273SOL     OW25717   2.989   1.074   6.961
 8273SOL    HW125718   2.896   1.090   6.927
 8273SOL    HW225719   3.013   1.147   0.001
 8274SOL     OW25720   4.147   4.433   6.736
 8274SOL    HW125721   4.161   4.406   6.641
 8274SOL    HW225722   4.049   4.449   6.752
 8275SOL     OW25723   5.441   0.375   4.438
 8275SOL    HW125724   5.439   0.475   4.448
 8275SOL    HW225725   5.529   0.340   4.470
 8276SOL     OW25726   6.290   2.157   5.542
 8276SOL    HW125727   6.229   2.080   5.564
 8276SOL    HW225728   6.321   2.200   5.627
 8277SOL     OW25729   2.665   6.140   5.101
 8277SOL    HW125730   2.587   6.180   5.053
 8277SOL    HW225731   2.634   6.063   5.158
 8278SOL     OW25732   2.836   1.384   6.701
 8278SOL    HW125733   2.768   1.367   6.630
 8278SOL    HW225734   2.846   1.303   6.758
 8279SOL     OW25735   5.778   5.332   6.334
 8279SOL    HW125736   5.756   5.365   6.427
 8279SOL    HW225737   5.876   5.322   6.325
 8280SOL     OW25738   4.712   2.434   0.311
 8280SOL    HW125739   4.687   2.530   0.296
 8280SOL    HW225740   4.736   2.421   0.407
 8281SOL     OW25741   1.832   4.692   1.301
 8281SOL    HW125742   1.830   4.592   1.299
 8281SOL    HW225743   1.749   4.728   1.259
 8282SOL     OW25744   2.991   2.890   0.535
 8282SOL    HW125745   2.914   2.830   0.555
 8282SOL    HW225746   3.023   2.873   0.441
 8283SOL     OW25747   0.451   4.965   3.660
 8283SOL    HW125748   0.351   4.966   3.665
 8283SOL    HW225749   0.489   5.035   3.720
 8284SOL     OW25750   1.620   3.293   2.444
 8284SOL    HW125751   1.682   3.255   2.375
 8284SOL    HW225752   1.572   3.372   2.406
 8285SOL     OW25753   3.181   3.295   6.092
 8285SOL    HW125754   3.212   3.308   5.998
 8285SOL    HW225755   3.081   3.290   6.094
 8286SOL     OW25756   5.608   1.915   5.021
 8286SOL    HW125757   5.617   1.889   5.117
 8286SOL    HW225758   5.589   1.833   4.967
 8287SOL     OW25759   1.597   6.763   3.302
 8287SOL    HW125760   1.643   6.731   3.219
 8287SOL    HW225761   1.650   6.735   3.382
 8288SOL     OW25762   1.612   2.252   2.983
 8288SOL    HW125763   1.608   2.180   2.914
 8288SOL    HW225764   1.543   2.322   2.962
 8289SOL     OW25765   6.333   0.694   6.281
 8289SOL    HW125766   6.360   0.715   6.375
 8289SOL    HW225767   6.246   0.739   6.261
 8290SOL     OW25768   4.376   2.692   1.673
 8290SOL    HW125769   4.329   2.727   1.592
 8290SOL    HW225770   4.457   2.747   1.692
 8291SOL     OW25771   5.899   5.953   6.714
 8291SOL    HW125772   5.872   5.875   6.657
 8291SOL    HW225773   5.998   5.949   6.730
 8292SOL     OW25774   2.584   5.610   5.581
 8292SOL    HW125775   2.529   5.558   5.646
 8292SOL    HW225776   2.598   5.556   5.499
 8293SOL     OW25777   1.578   4.495   1.470
 8293SOL    HW125778   1.670   4.457   1.457
 8293SOL    HW225779   1.512   4.420   1.476
 8294SOL     OW25780   6.288   3.301   4.903
 8294SOL    HW125781   6.283   3.250   4.988
 8294SOL    HW225782   6.305   3.398   4.923
 8295SOL     OW25783   5.231   3.676   2.779
 8295SOL    HW125784   5.178   3.662   2.695
 8295SOL    HW225785   5.304   3.607   2.784
 8296SOL     OW25786   3.885   4.997   6.567
 8296SOL    HW125787   3.814   5.006   6.637
 8296SOL    HW225788   3.844   4.961   6.483
 8297SOL     OW25789   6.517   3.669   2.528
 8297SOL    HW125790   6.472   3.618   2.455
 8297SOL    HW225791   6.448   3.717   2.582
 8298SOL     OW25792   0.022   0.421   6.248
 8298SOL    HW125793   0.068   0.362   6.314
 8298SOL    HW225794   0.063   0.512   6.250
 8299SOL     OW25795   0.541   3.437   1.035
 8299SOL    HW125796   0.542   3.361   1.101
 8299SOL    HW225797   0.553   3.400   0.943
 8300SOL     OW25798   5.978   6.595   4.551
 8300SOL    HW125799   6.033   6.635   4.624
 8300SOL    HW225800   5.886   6.634   4.552
 8301SOL     OW25801   4.817   6.991   6.663
 8301SOL    HW125802   4.790   6.926   6.734
 8301SOL    HW225803   4.735   7.021   6.613
 8302SOL     OW25804   3.781   6.897   5.734
 8302SOL    HW125805   3.708   6.939   5.680
 8302SOL    HW225806   3.868   6.905   5.685
 8303SOL     OW25807   0.083   0.178   3.167
 8303SOL    HW125808   0.004   0.238   3.181
 8303SOL    HW225809   0.133   0.207   3.085
 8304SOL     OW25810   5.559   4.833   2.027
 8304SOL    HW125811   5.586   4.826   2.124
 8304SOL    HW225812   5.474   4.886   2.021
 8305SOL     OW25813   4.261   5.128   3.548
 8305SOL    HW125814   4.351   5.170   3.534
 8305SOL    HW225815   4.270   5.052   3.613
 8306SOL     OW25816   6.716   1.200   2.777
 8306SOL    HW125817   6.814   1.211   2.761
 8306SOL    HW225818   6.689   1.254   2.856
 8307SOL     OW25819   2.841   5.342   1.700
 8307SOL    HW125820   2.763   5.355   1.761
 8307SOL    HW225821   2.830   5.256   1.650
 8308SOL     OW25822   1.962   4.714   0.354
 8308SOL    HW125823   1.999   4.807   0.363
 8308SOL    HW225824   2.037   4.650   0.340
 8309SOL     OW25825   6.395   4.733   4.142
 8309SOL    HW125826   6.454   4.693   4.071
 8309SOL    HW225827   6.448   4.746   4.225
 8310SOL     OW25828   0.998   5.460   0.195
 8310SOL    HW125829   0.975   5.555   0.218
 8310SOL    HW225830   0.918   5.402   0.213
 8311SOL     OW25831   4.880   0.208   4.602
 8311SOL    HW125832   4.816   0.278   4.633
 8311SOL    HW225833   4.954   0.197   4.669
 8312SOL     OW25834   5.536   1.125   0.809
 8312SOL    HW125835   5.602   1.063   0.766
 8312SOL    HW225836   5.446   1.112   0.767
 8313SOL     OW25837   4.355   0.070   5.625
 8313SOL    HW125838   4.385   0.150   5.675
 8313SOL    HW225839   4.270   0.091   5.576
 8314SOL     OW25840   5.786   6.856   6.716
 8314SOL    HW125841   5.793   6.757   6.701
 8314SOL    HW225842   5.761   6.900   6.630
 8315SOL     OW25843   3.710   3.748   3.427
 8315SOL    HW125844   3.629   3.772   3.374
 8315SOL    HW225845   3.684   3.688   3.503
 8316SOL     OW25846   1.880   3.314   0.064
 8316SOL    HW125847   1.812   3.388   0.063
 8316SOL    HW225848   1.945   3.328   7.014
 8317SOL     OW25849   2.769   1.902   4.446
 8317SOL    HW125850   2.843   1.887   4.511
 8317SOL    HW225851   2.692   1.842   4.468
 8318SOL     OW25852   5.096   1.099   6.081
 8318SOL    HW125853   5.003   1.097   6.119
 8318SOL    HW225854   5.092   1.111   5.982
 8319SOL     OW25855   1.871   0.016   6.422
 8319SOL    HW125856   1.810   0.071   6.480
 8319SOL    HW225857   1.964   0.053   6.428
 8320SOL     OW25858   3.672   3.607   3.641
 8320SOL    HW125859   3.587   3.631   3.688
 8320SOL    HW225860   3.673   3.510   3.620
 8321SOL     OW25861   0.175   7.002   5.851
 8321SOL    HW125862   0.268   6.985   5.884
 8321SOL    HW225863   0.179   0.036   5.770
 8322SOL     OW25864   0.168   1.039   0.387
 8322SOL    HW125865   0.103   1.012   0.458
 8322SOL    HW225866   0.257   0.996   0.405
 8323SOL     OW25867   4.072   4.410   1.092
 8323SOL    HW125868   4.132   4.341   1.132
 8323SOL    HW225869   4.005   4.440   1.160
 8324SOL     OW25870   5.702   0.375   0.280
 8324SOL    HW125871   5.620   0.337   0.239
 8324SOL    HW225872   5.755   0.423   0.209
 8325SOL     OW25873   1.095   4.147   4.811
 8325SOL    HW125874   1.147   4.232   4.817
 8325SOL    HW225875   1.037   4.149   4.730
 8326SOL     OW25876   4.371   3.741   6.941
 8326SOL    HW125877   4.335   3.800   6.869
 8326SOL    HW225878   4.295   3.698   6.990
 8327SOL     OW25879   0.860   0.275   5.449
 8327SOL    HW125880   0.953   0.295   5.481
 8327SOL    HW225881   0.813   0.218   5.516
 8328SOL     OW25882   1.759   6.870   5.550
 8328SOL    HW125883   1.781   6.777   5.578
 8328SOL    HW225884   1.756   6.875   5.450
 8329SOL     OW25885   0.276   2.567   5.071
 8329SOL    HW125886   0.274   2.652   5.018
 8329SOL    HW225887   0.363   2.561   5.120
 8330SOL     OW25888   3.959   1.551   6.723
 8330SOL    HW125889   3.913   1.471   6.683
 8330SOL    HW225890   4.058   1.538   6.717
 8331SOL     OW25891   3.122   0.806   0.400
 8331SOL    HW125892   3.204   0.803   0.457
 8331SOL    HW225893   3.078   0.716   0.400
 8332SOL     OW25894   5.563   5.638   2.489
 8332SOL    HW125895   5.637   5.581   2.456
 8332SOL    HW225896   5.573   5.731   2.453
 8333SOL     OW25897   2.380   5.172   0.158
 8333SOL    HW125898   2.288   5.133   0.162
 8333SOL    HW225899   2.420   5.152   0.069
 8334SOL     OW25900   2.465   2.502   6.427
 8334SOL    HW125901   2.523   2.539   6.355
 8334SOL    HW225902   2.519   2.441   6.485
 8335SOL     OW25903   4.683   2.718   6.787
 8335SOL    HW125904   4.656   2.666   6.868
 8335SOL    HW225905   4.641   2.809   6.791
 8336SOL     OW25906   1.129   3.436   3.457
 8336SOL    HW125907   1.057   3.490   3.500
 8336SOL    HW225908   1.212   3.441   3.513
 8337SOL     OW25909   1.011   6.776   4.408
 8337SOL    HW125910   1.053   6.737   4.326
 8337SOL    HW225911   0.914   6.752   4.409
 8338SOL     OW25912   3.649   5.530   2.015
 8338SOL    HW125913   3.702   5.467   2.072
 8338SOL    HW225914   3.667   5.624   2.044
 8339SOL     OW25915   0.246   0.900   1.538
 8339SOL    HW125916   0.303   0.971   1.496
 8339SOL    HW225917   0.201   0.937   1.619
 8340SOL     OW25918   4.802   4.130   0.659
 8340SOL    HW125919   4.862   4.203   0.626
 8340SOL    HW225920   4.714   4.136   0.612
 8341SOL     OW25921   3.493   0.580   6.952
 8341SOL    HW125922   3.483   0.505   6.887
 8341SOL    HW225923   3.562   0.555   7.020
 8342SOL     OW25924   3.641   6.923   0.034
 8342SOL    HW125925   3.725   6.890   0.077
 8342SOL    HW225926   3.578   6.846   0.023
 8343SOL     OW25927   5.945   5.807   3.713
 8343SOL    HW125928   5.957   5.718   3.758
 8343SOL    HW225929   5.848   5.831   3.712
 8344SOL     OW25930   0.229   5.293   4.775
 8344SOL    HW125931   0.273   5.282   4.685
 8344SOL    HW225932   0.180   5.379   4.777
 8345SOL     OW25933   4.998   1.780   3.567
 8345SOL    HW125934   4.914   1.794   3.619
 8345SOL    HW225935   5.075   1.770   3.631
 8346SOL     OW25936   3.651   3.152   6.298
 8346SOL    HW125937   3.599   3.155   6.213
 8346SOL    HW225938   3.599   3.197   6.371
 8347SOL     OW25939   3.644   6.376   6.310
 8347SOL    HW125940   3.650   6.303   6.241
 8347SOL    HW225941   3.560   6.428   6.297
 8348SOL     OW25942   2.658   6.751   1.102
 8348SOL    HW125943   2.633   6.764   1.006
 8348SOL    HW225944   2.594   6.802   1.160
 8349SOL     OW25945   0.699   6.634   1.494
 8349SOL    HW125946   0.688   6.706   1.562
 8349SOL    HW225947   0.779   6.578   1.516
 8350SOL     OW25948   2.897   6.343   6.167
 8350SOL    HW125949   2.947   6.256   6.171
 8350SOL    HW225950   2.823   6.342   6.233
 8351SOL     OW25951   5.402   5.359   3.326
 8351SOL    HW125952   5.463   5.331   3.252
 8351SOL    HW225953   5.447   5.346   3.414
 8352SOL     OW25954   1.871   6.642   2.853
 8352SOL    HW125955   1.909   6.575   2.789
 8352SOL    HW225956   1.829   6.717   2.802
 8353SOL     OW25957   1.303   4.107   1.568
 8353SOL    HW125958   1.224   4.050   1.549
 8353SOL    HW225959   1.331   4.095   1.663
 8354SOL     OW25960   3.861   6.326   3.902
 8354SOL    HW125961   3.889   6.387   3.976
 8354SOL    HW225962   3.826   6.380   3.825
 8355SOL     OW25963   2.142   0.979   5.754
 8355SOL    HW125964   2.222   0.928   5.722
 8355SOL    HW225965   2.101   0.931   5.831
 8356SOL     OW25966   0.924   5.604   1.198
 8356SOL    HW125967   0.856   5.624   1.268
 8356SOL    HW225968   0.999   5.669   1.205
 8357SOL     OW25969   3.896   5.256   5.526
 8357SOL    HW125970   3.944   5.171   5.506
 8357SOL    HW225971   3.899   5.274   5.624
 8358SOL     OW25972   0.895   3.109   4.943
 8358SOL    HW125973   0.827   3.038   4.960
 8358SOL    HW225974   0.987   3.071   4.955
 8359SOL     OW25975   2.379   1.373   4.542
 8359SOL    HW125976   2.323   1.403   4.465
 8359SOL    HW225977   2.389   1.448   4.607
 8360SOL     OW25978   4.638   6.797   1.030
 8360SOL    HW125979   4.594   6.802   0.941
 8360SOL    HW225980   4.724   6.745   1.023
 8361SOL     OW25981   2.722   0.181   6.874
 8361SOL    HW125982   2.668   0.245   6.930
 8361SOL    HW225983   2.764   0.231   6.798
 8362SOL     OW25984   5.584   2.152   1.149
 8362SOL    HW125985   5.563   2.083   1.079
 8362SOL    HW225986   5.499   2.197   1.178
 8363SOL     OW25987   4.905   1.776   1.172
 8363SOL    HW125988   4.852   1.792   1.255
 8363SOL    HW225989   4.931   1.679   1.167
 8364SOL     OW25990   0.603   3.403   3.474
 8364SOL    HW125991   0.660   3.333   3.517
 8364SOL    HW225992   0.526   3.425   3.535
 8365SOL     OW25993   1.854   1.936   2.870
 8365SOL    HW125994   1.855   1.857   2.932
 8365SOL    HW225995   1.908   2.010   2.910
 8366SOL     OW25996   3.686   5.372   1.251
 8366SOL    HW125997   3.632   5.411   1.176
 8366SOL    HW225998   3.707   5.276   1.230
 8367SOL     OW25999   3.340   5.181   5.160
 8367SOL    HW126000   3.332   5.086   5.128
 8367SOL    HW226001   3.418   5.188   5.222
 8368SOL     OW26002   0.969   6.042   6.892
 8368SOL    HW126003   1.009   5.954   6.915
 8368SOL    HW226004   0.907   6.071   6.965
 8369SOL     OW26005   0.805   1.386   0.186
 8369SOL    HW126006   0.801   1.388   0.286
 8369SOL    HW226007   0.764   1.302   0.153
 8370SOL     OW26008   2.197   0.681   6.440
 8370SOL    HW126009   2.120   0.620   6.456
 8370SOL    HW226010   2.256   0.683   6.521
 8371SOL     OW26011   1.820   3.540   6.163
 8371SOL    HW126012   1.853   3.500   6.249
 8371SOL    HW226013   1.895   3.544   6.097
 8372SOL     OW26014   1.565   5.420   2.066
 8372SOL    HW126015   1.499   5.362   2.019
 8372SOL    HW226016   1.588   5.380   2.155
 8373SOL     OW26017   1.833   1.117   4.854
 8373SOL    HW126018   1.827   1.115   4.953
 8373SOL    HW226019   1.831   1.212   4.823
 8374SOL     OW26020   0.521   0.845   4.640
 8374SOL    HW126021   0.456   0.833   4.715
 8374SOL    HW226022   0.495   0.785   4.564
 8375SOL     OW26023   3.759   0.546   6.042
 8375SOL    HW126024   3.835   0.499   6.089
 8375SOL    HW226025   3.673   0.524   6.088
 8376SOL     OW26026   1.516   1.150   3.981
 8376SOL    HW126027   1.461   1.226   4.016
 8376SOL    HW226028   1.515   1.075   4.048
 8377SOL     OW26029   6.126   5.771   0.318
 8377SOL    HW126030   6.094   5.712   0.243
 8377SOL    HW226031   6.054   5.782   0.386
 8378SOL     OW26032   4.034   4.782   3.613
 8378SOL    HW126033   4.091   4.726   3.553
 8378SOL    HW226034   3.994   4.857   3.560
 8379SOL     OW26035   4.526   2.138   2.023
 8379SOL    HW126036   4.618   2.168   2.048
 8379SOL    HW226037   4.462   2.215   2.032
 8380SOL     OW26038   0.478   6.338   6.743
 8380SOL    HW126039   0.458   6.245   6.775
 8380SOL    HW226040   0.398   6.396   6.758
 8381SOL     OW26041   6.847   2.613   3.422
 8381SOL    HW126042   6.864   2.645   3.329
 8381SOL    HW226043   6.934   2.599   3.469
 8382SOL     OW26044   1.975   6.843   0.851
 8382SOL    HW126045   2.014   6.823   0.761
 8382SOL    HW226046   1.936   6.935   0.851
 8383SOL     OW26047   2.213   0.489   5.398
 8383SOL    HW126048   2.143   0.426   5.432
 8383SOL    HW226049   2.240   0.463   5.306
 8384SOL     OW26050   0.372   1.460   0.080
 8384SOL    HW126051   0.371   1.535   0.015
 8384SOL    HW226052   0.322   1.382   0.041
 8385SOL     OW26053   4.520   2.330   1.130
 8385SOL    HW126054   4.468   2.245   1.119
 8385SOL    HW226055   4.461   2.400   1.169
 8386SOL     OW26056   1.914   5.819   1.087
 8386SOL    HW126057   1.885   5.744   1.146
 8386SOL    HW226058   1.868   5.811   0.999
 8387SOL     OW26059   1.686   1.804   1.286
 8387SOL    HW126060   1.739   1.756   1.356
 8387SOL    HW226061   1.589   1.785   1.299
 8388SOL     OW26062   1.049   6.848   0.754
 8388SOL    HW126063   0.964   6.875   0.800
 8388SOL    HW226064   1.037   6.857   0.655
 8389SOL     OW26065   0.687   3.398   3.902
 8389SOL    HW126066   0.773   3.359   3.935
 8389SOL    HW226067   0.705   3.459   3.825
 8390SOL     OW26068   4.203   0.142   6.631
 8390SOL    HW126069   4.214   0.098   6.720
 8390SOL    HW226070   4.230   0.238   6.639
 8391SOL     OW26071   4.905   5.155   1.339
 8391SOL    HW126072   4.874   5.062   1.322
 8391SOL    HW226073   5.001   5.163   1.313
 8392SOL     OW26074   6.756   5.583   5.861
 8392SOL    HW126075   6.688   5.514   5.836
 8392SOL    HW226076   6.717   5.645   5.929
 8393SOL     OW26077   6.931   0.248   4.087
 8393SOL    HW126078   6.837   0.242   4.055
 8393SOL    HW226079   6.971   0.157   4.093
 8394SOL     OW26080   6.713   2.480   1.727
 8394SOL    HW126081   6.746   2.558   1.675
 8394SOL    HW226082   6.790   2.422   1.755
 8395SOL     OW26083   1.998   6.625   3.817
 8395SOL    HW126084   1.950   6.613   3.904
 8395SOL    HW226085   1.971   6.553   3.754
 8396SOL     OW26086   4.601   4.435   2.228
 8396SOL    HW126087   4.526   4.462   2.288
 8396SOL    HW226088   4.575   4.354   2.176
 8397SOL     OW26089   2.741   0.335   2.921
 8397SOL    HW126090   2.796   0.253   2.940
 8397SOL    HW226091   2.671   0.313   2.854
 8398SOL     OW26092   3.927   2.198   6.645
 8398SOL    HW126093   3.901   2.179   6.550
 8398SOL    HW226094   3.914   2.116   6.700
 8399SOL     OW26095   6.144   6.925   0.281
 8399SOL    HW126096   6.074   6.936   0.352
 8399SOL    HW226097   6.189   7.013   0.265
 8400SOL     OW26098   1.334   0.357   3.564
 8400SOL    HW126099   1.278   0.440   3.561
 8400SOL    HW226100   1.378   0.350   3.654
 8401SOL     OW26101   3.368   2.615   6.397
 8401SOL    HW126102   3.293   2.552   6.382
 8401SOL    HW226103   3.343   2.706   6.364
 8402SOL     OW26104   3.715   2.121   5.702
 8402SOL    HW126105   3.783   2.060   5.663
 8402SOL    HW226106   3.756   2.173   5.777
 8403SOL     OW26107   0.659   2.361   3.204
 8403SOL    HW126108   0.718   2.391   3.129
 8403SOL    HW226109   0.708   2.371   3.291
 8404SOL     OW26110   5.497   5.600   0.043
 8404SOL    HW126111   5.526   5.691   0.012
 8404SOL    HW226112   5.537   5.531   7.008
 8405SOL     OW26113   1.773   1.221   6.801
 8405SOL    HW126114   1.849   1.265   6.849
 8405SOL    HW226115   1.711   1.291   6.765
 8406SOL     OW26116   4.301   0.357   0.834
 8406SOL    HW126117   4.266   0.391   0.746
 8406SOL    HW226118   4.399   0.374   0.839
 8407SOL     OW26119   5.655   6.057   4.002
 8407SOL    HW126120   5.692   6.145   4.031
 8407SOL    HW226121   5.568   6.041   4.047
 8408SOL     OW26122   4.867   1.985   3.218
 8408SOL    HW126123   4.939   1.938   3.270
 8408SOL    HW226124   4.826   1.920   3.154
 8409SOL     OW26125   6.139   2.902   3.075
 8409SOL    HW126126   6.176   2.817   3.111
 8409SOL    HW226127   6.056   2.882   3.023
 8410SOL     OW26128   4.331   0.424   1.209
 8410SOL    HW126129   4.412   0.478   1.233
 8410SOL    HW226130   4.249   0.479   1.225
 8411SOL     OW26131   1.372   5.952   4.745
 8411SOL    HW126132   1.342   6.047   4.744
 8411SOL    HW226133   1.300   5.894   4.707
 8412SOL     OW26134   4.294   1.840   1.718
 8412SOL    HW126135   4.266   1.869   1.626
 8412SOL    HW226136   4.276   1.914   1.783
 8413SOL     OW26137   5.160   4.629   0.895
 8413SOL    HW126138   5.132   4.545   0.848
 8413SOL    HW226139   5.121   4.630   0.987
 8414SOL     OW26140   4.633   6.449   2.540
 8414SOL    HW126141   4.597   6.360   2.566
 8414SOL    HW226142   4.715   6.469   2.593
 8415SOL     OW26143   6.654   5.455   4.143
 8415SOL    HW126144   6.630   5.373   4.194
 8415SOL    HW226145   6.571   5.507   4.121
 8416SOL     OW26146   5.454   4.450   3.426
 8416SOL    HW126147   5.374   4.472   3.369
 8416SOL    HW226148   5.451   4.354   3.452
 8417SOL     OW26149   1.421   5.118   5.483
 8417SOL    HW126150   1.384   5.178   5.411
 8417SOL    HW226151   1.477   5.047   5.441
 8418SOL     OW26152   5.907   5.521   1.877
 8418SOL    HW126153   5.820   5.482   1.909
 8418SOL    HW226154   5.927   5.604   1.929
 8419SOL     OW26155   4.593   1.092   2.243
 8419SOL    HW126156   4.676   1.066   2.293
 8419SOL    HW226157   4.582   1.191   2.247
 8420SOL     OW26158   3.861   0.466   1.202
 8420SOL    HW126159   3.786   0.498   1.145
 8420SOL    HW226160   3.935   0.432   1.144
 8421SOL     OW26161   2.642   6.458   0.950
 8421SOL    HW126162   2.635   6.538   1.011
 8421SOL    HW226163   2.640   6.375   1.005
 8422SOL     OW26164   4.873   6.705   1.551
 8422SOL    HW126165   4.854   6.782   1.490
 8422SOL    HW226166   4.892   6.623   1.496
 8423SOL     OW26167   4.124   3.764   5.776
 8423SOL    HW126168   4.090   3.853   5.746
 8423SOL    HW226169   4.216   3.773   5.814
 8424SOL     OW26170   2.254   2.809   2.982
 8424SOL    HW126171   2.299   2.829   3.068
 8424SOL    HW226172   2.235   2.711   2.976
 8425SOL     OW26173   5.566   5.860   1.219
 8425SOL    HW126174   5.470   5.851   1.195
 8425SOL    HW226175   5.582   5.949   1.263
 8426SOL     OW26176   3.495   2.912   4.523
 8426SOL    HW126177   3.468   2.887   4.429
 8426SOL    HW226178   3.427   2.876   4.587
 8427SOL     OW26179   2.461   3.518   5.687
 8427SOL    HW126180   2.450   3.534   5.589
 8427SOL    HW226181   2.557   3.498   5.707
 8428SOL     OW26182   6.615   4.077   1.932
 8428SOL    HW126183   6.599   4.133   1.851
 8428SOL    HW226184   6.695   4.111   1.981
 8429SOL     OW26185   2.157   4.868   3.498
 8429SOL    HW126186   2.216   4.788   3.510
 8429SOL    HW226187   2.112   4.864   3.409
 8430SOL     OW26188   4.351   5.848   3.576
 8430SOL    HW126189   4.345   5.768   3.516
 8430SOL    HW226190   4.269   5.852   3.634
 8431SOL     OW26191   2.809   5.204   0.711
 8431SOL    HW126192   2.875   5.184   0.638
 8431SOL    HW226193   2.795   5.303   0.718
 8432SOL     OW26194   4.997   6.714   5.161
 8432SOL    HW126195   4.949   6.643   5.213
 8432SOL    HW226196   4.978   6.803   5.201
 8433SOL     OW26197   6.448   2.651   6.756
 8433SOL    HW126198   6.541   2.663   6.790
 8433SOL    HW226199   6.403   2.577   6.807
 8434SOL     OW26200   3.156   6.658   5.199
 8434SOL    HW126201   3.068   6.675   5.155
 8434SOL    HW226202   3.149   6.677   5.297
 8435SOL     OW26203   5.046   0.415   0.932
 8435SOL    HW126204   5.027   0.329   0.979
 8435SOL    HW226205   5.141   0.443   0.951
 8436SOL     OW26206   3.242   6.747   4.244
 8436SOL    HW126207   3.328   6.763   4.293
 8436SOL    HW226208   3.219   6.828   4.191
 8437SOL     OW26209   2.190   7.010   2.785
 8437SOL    HW126210   2.248   0.056   2.824
 8437SOL    HW226211   2.147   6.958   2.858
 8438SOL     OW26212   2.867   5.049   2.503
 8438SOL    HW126213   2.825   4.977   2.448
 8438SOL    HW226214   2.967   5.039   2.499
 8439SOL     OW26215   6.943   5.546   1.027
 8439SOL    HW126216   6.968   5.460   1.073
 8439SOL    HW226217   7.013   5.569   0.959
 8440SOL     OW26218   0.344   1.314   3.474
 8440SOL    HW126219   0.286   1.387   3.509
 8440SOL    HW226220   0.305   1.225   3.498
 8441SOL     OW26221   6.756   6.796   0.039
 8441SOL    HW126222   6.835   6.844   0.076
 8441SOL    HW226223   6.679   6.860   0.031
 8442SOL     OW26224   3.570   2.654   6.068
 8442SOL    HW126225   3.522   2.742   6.063
 8442SOL    HW226226   3.581   2.626   6.163
 8443SOL     OW26227   1.326   6.726   3.327
 8443SOL    HW126228   1.422   6.737   3.300
 8443SOL    HW226229   1.289   6.645   3.282
 8444SOL     OW26230   3.830   5.906   3.612
 8444SOL    HW126231   3.732   5.908   3.633
 8444SOL    HW226232   3.864   5.999   3.600
 8445SOL     OW26233   3.266   5.397   2.109
 8445SOL    HW126234   3.211   5.370   2.188
 8445SOL    HW226235   3.337   5.461   2.138
 8446SOL     OW26236   4.533   4.849   1.047
 8446SOL    HW126237   4.435   4.861   1.031
 8446SOL    HW226238   4.563   4.912   1.118
 8447SOL     OW26239   5.513   1.907   2.159
 8447SOL    HW126240   5.509   1.854   2.075
 8447SOL    HW226241   5.421   1.935   2.186
 8448SOL     OW26242   5.787   4.815   4.673
 8448SOL    HW126243   5.870   4.854   4.711
 8448SOL    HW226244   5.767   4.728   4.718
 8449SOL     OW26245   6.742   3.003   4.328
 8449SOL    HW126246   6.683   3.070   4.283
 8449SOL    HW226247   6.800   3.049   4.396
 8450SOL     OW26248   1.484   5.696   2.058
 8450SOL    HW126249   1.527   5.607   2.073
 8450SOL    HW226250   1.437   5.725   2.141
 8451SOL     OW26251   4.786   3.130   0.056
 8451SOL    HW126252   4.691   3.162   0.057
 8451SOL    HW226253   4.789   3.039   0.014
 8452SOL     OW26254   0.123   0.558   1.632
 8452SOL    HW126255   0.160   0.607   1.553
 8452SOL    HW226256   0.082   0.623   1.696
 8453SOL     OW26257   6.464   4.142   6.664
 8453SOL    HW126258   6.512   4.229   6.656
 8453SOL    HW226259   6.373   4.158   6.703
 8454SOL     OW26260   0.662   6.489   0.594
 8454SOL    HW126261   0.595   6.481   0.521
 8454SOL    HW226262   0.616   6.512   0.680
 8455SOL     OW26263   5.579   1.737   1.069
 8455SOL    HW126264   5.576   1.798   0.990
 8455SOL    HW226265   5.650   1.768   1.132
 8456SOL     OW26266   4.857   4.041   2.625
 8456SOL    HW126267   4.948   4.030   2.664
 8456SOL    HW226268   4.865   4.066   2.529
 8457SOL     OW26269   0.102   6.489   5.330
 8457SOL    HW126270   0.176   6.493   5.262
 8457SOL    HW226271   0.140   6.458   5.418
 8458SOL     OW26272   2.354   1.247   6.954
 8458SOL    HW126273   2.330   1.342   6.936
 8458SOL    HW226274   2.272   1.191   6.955
 8459SOL     OW26275   3.053   6.611   1.542
 8459SOL    HW126276   3.047   6.514   1.519
 8459SOL    HW226277   3.149   6.639   1.538
 8460SOL     OW26278   4.355   2.431   5.709
 8460SOL    HW126279   4.424   2.390   5.769
 8460SOL    HW226280   4.326   2.518   5.747
 8461SOL     OW26281   0.551   4.109   2.280
 8461SOL    HW126282   0.468   4.130   2.228
 8461SOL    HW226283   0.573   4.013   2.270
 8462SOL     OW26284   3.923   2.254   0.451
 8462SOL    HW126285   3.949   2.350   0.440
 8462SOL    HW226286   4.004   2.197   0.453
 8463SOL     OW26287   6.757   0.657   0.728
 8463SOL    HW126288   6.704   0.732   0.768
 8463SOL    HW226289   6.833   0.635   0.789
 8464SOL     OW26290   6.847   4.151   5.587
 8464SOL    HW126291   6.783   4.172   5.661
 8464SOL    HW226292   6.808   4.179   5.500
 8465SOL     OW26293   2.792   2.568   0.830
 8465SOL    HW126294   2.764   2.517   0.749
 8465SOL    HW226295   2.770   2.515   0.912
 8466SOL     OW26296   6.434   6.578   5.978
 8466SOL    HW126297   6.391   6.647   5.920
 8466SOL    HW226298   6.365   6.513   6.009
 8467SOL     OW26299   3.743   0.637   1.598
 8467SOL    HW126300   3.808   0.640   1.522
 8467SOL    HW226301   3.786   0.673   1.680
 8468SOL     OW26302   4.856   2.511   0.070
 8468SOL    HW126303   4.811   2.470   0.149
 8468SOL    HW226304   4.955   2.505   0.081
 8469SOL     OW26305   2.664   1.479   5.789
 8469SOL    HW126306   2.698   1.474   5.882
 8469SOL    HW226307   2.664   1.575   5.758
 8470SOL     OW26308   0.897   4.794   0.126
 8470SOL    HW126309   0.865   4.814   0.218
 8470SOL    HW226310   0.994   4.770   0.128
 8471SOL     OW26311   4.007   0.479   5.407
 8471SOL    HW126312   3.968   0.387   5.414
 8471SOL    HW226313   4.066   0.496   5.486
 8472SOL     OW26314   6.072   0.323   5.505
 8472SOL    HW126315   6.004   0.343   5.436
 8472SOL    HW226316   6.164   0.328   5.465
 8473SOL     OW26317   6.702   5.675   0.946
 8473SOL    HW126318   6.773   5.625   0.994
 8473SOL    HW226319   6.699   5.645   0.850
 8474SOL     OW26320   3.217   3.553   1.950
 8474SOL    HW126321   3.283   3.624   1.927
 8474SOL    HW226322   3.229   3.527   2.046
 8475SOL     OW26323   7.017   2.703   3.213
 8475SOL    HW126324   0.025   2.721   3.120
 8475SOL    HW226325   0.071   2.680   3.271
 8476SOL     OW26326   6.187   1.372   1.050
 8476SOL    HW126327   6.242   1.456   1.055
 8476SOL    HW226328   6.110   1.386   0.988
 8477SOL     OW26329   4.872   6.531   2.669
 8477SOL    HW126330   4.900   6.514   2.764
 8477SOL    HW226331   4.878   6.629   2.651
 8478SOL     OW26332   1.380   0.328   5.547
 8478SOL    HW126333   1.458   0.328   5.610
 8478SOL    HW226334   1.413   0.317   5.454
 8479SOL     OW26335   1.737   3.815   0.786
 8479SOL    HW126336   1.641   3.841   0.800
 8479SOL    HW226337   1.741   3.740   0.720
 8480SOL     OW26338   4.936   2.969   6.632
 8480SOL    HW126339   4.890   3.058   6.627
 8480SOL    HW226340   4.873   2.898   6.599
 8481SOL     OW26341   4.559   2.668   5.040
 8481SOL    HW126342   4.618   2.727   5.096
 8481SOL    HW226343   4.611   2.634   4.962
 8482SOL     OW26344   5.108   0.100   2.731
 8482SOL    HW126345   5.157   0.019   2.762
 8482SOL    HW226346   5.172   0.166   2.692
 8483SOL     OW26347   3.428   6.121   1.874
 8483SOL    HW126348   3.476   6.177   1.942
 8483SOL    HW226349   3.388   6.180   1.804
 8484SOL     OW26350   6.993   6.262   3.739
 8484SOL    HW126351   6.936   6.216   3.671
 8484SOL    HW226352   6.942   6.337   3.782
 8485SOL     OW26353   3.823   2.516   0.212
 8485SOL    HW126354   3.827   2.616   0.209
 8485SOL    HW226355   3.734   2.486   0.178
 8486SOL     OW26356   2.466   1.498   2.254
 8486SOL    HW126357   2.449   1.548   2.339
 8486SOL    HW226358   2.406   1.534   2.183
 8487SOL     OW26359   5.930   2.364   5.901
 8487SOL    HW126360   5.961   2.439   5.843
 8487SOL    HW226361   5.868   2.400   5.971
 8488SOL     OW26362   5.564   6.462   1.838
 8488SOL    HW126363   5.559   6.550   1.792
 8488SOL    HW226364   5.618   6.471   1.921
 8489SOL     OW26365   6.236   1.749   1.795
 8489SOL    HW126366   6.218   1.825   1.732
 8489SOL    HW226367   6.149   1.717   1.834
 8490SOL     OW26368   3.573   6.670   5.704
 8490SOL    HW126369   3.620   6.759   5.705
 8490SOL    HW226370   3.564   6.636   5.797
 8491SOL     OW26371   2.007   6.093   2.003
 8491SOL    HW126372   2.102   6.123   1.997
 8491SOL    HW226373   1.989   6.058   2.095
 8492SOL     OW26374   5.857   4.650   5.178
 8492SOL    HW126375   5.853   4.596   5.261
 8492SOL    HW226376   5.864   4.747   5.201
 8493SOL     OW26377   2.284   2.573   5.934
 8493SOL    HW126378   2.202   2.516   5.938
 8493SOL    HW226379   2.323   2.583   6.025
 8494SOL     OW26380   4.171   5.124   1.382
 8494SOL    HW126381   4.249   5.183   1.361
 8494SOL    HW226382   4.166   5.109   1.481
 8495SOL     OW26383   6.657   4.861   1.246
 8495SOL    HW126384   6.620   4.819   1.329
 8495SOL    HW226385   6.660   4.792   1.173
 8496SOL     OW26386   0.973   1.652   2.584
 8496SOL    HW126387   0.876   1.666   2.606
 8496SOL    HW226388   1.024   1.632   2.667
 8497SOL     OW26389   0.127   1.493   3.581
 8497SOL    HW126390   0.066   1.414   3.587
 8497SOL    HW226391   0.105   1.557   3.655
 8498SOL     OW26392   6.651   6.193   3.260
 8498SOL    HW126393   6.661   6.207   3.161
 8498SOL    HW226394   6.568   6.239   3.292
 8499SOL     OW26395   2.032   4.054   6.717
 8499SOL    HW126396   2.061   4.026   6.809
 8499SOL    HW226397   2.000   3.974   6.667
 8500SOL     OW26398   1.667   6.389   6.030
 8500SOL    HW126399   1.676   6.489   6.022
 8500SOL    HW226400   1.656   6.349   5.939
 8501SOL     OW26401   6.958   2.964   5.956
 8501SOL    HW126402   0.014   2.905   5.954
 8501SOL    HW226403   6.942   3.003   5.865
 8502SOL     OW26404   0.397   2.996   1.569
 8502SOL    HW126405   0.459   2.918   1.562
 8502SOL    HW226406   0.303   2.966   1.553
 8503SOL     OW26407   0.717   5.411   4.808
 8503SOL    HW126408   0.620   5.430   4.795
 8503SOL    HW226409   0.763   5.494   4.839
 8504SOL     OW26410   2.393   5.413   2.525
 8504SOL    HW126411   2.394   5.508   2.557
 8504SOL    HW226412   2.356   5.409   2.433
 8505SOL     OW26413   6.272   3.837   3.255
 8505SOL    HW126414   6.310   3.884   3.335
 8505SOL    HW226415   6.277   3.897   3.175
 8506SOL     OW26416   1.398   1.275   0.065
 8506SOL    HW126417   1.406   1.370   0.092
 8506SOL    HW226418   1.337   1.227   0.128
 8507SOL     OW26419   3.718   6.551   5.145
 8507SOL    HW126420   3.669   6.583   5.064
 8507SOL    HW226421   3.674   6.469   5.181
 8508SOL     OW26422   5.302   1.801   4.454
 8508SOL    HW126423   5.308   1.850   4.367
 8508SOL    HW226424   5.211   1.817   4.494
 8509SOL     OW26425   4.998   0.344   3.310
 8509SOL    HW126426   4.945   0.340   3.226
 8509SOL    HW226427   5.042   0.256   3.327
 8510SOL     OW26428   5.946   4.087   2.813
 8510SOL    HW126429   5.973   4.039   2.897
 8510SOL    HW226430   5.987   4.041   2.734
 8511SOL     OW26431   6.428   3.615   2.839
 8511SOL    HW126432   6.381   3.621   2.927
 8511SOL    HW226433   6.422   3.521   2.805
 8512SOL     OW26434   2.771   0.803   2.778
 8512SOL    HW126435   2.747   0.896   2.750
 8512SOL    HW226436   2.870   0.796   2.790
 8513SOL     OW26437   6.753   4.886   0.875
 8513SOL    HW126438   6.722   4.925   0.788
 8513SOL    HW226439   6.772   4.961   0.940
 8514SOL     OW26440   1.869   1.131   3.600
 8514SOL    HW126441   1.771   1.116   3.583
 8514SOL    HW226442   1.916   1.043   3.602
 8515SOL     OW26443   5.008   2.449   1.238
 8515SOL    HW126444   5.029   2.525   1.300
 8515SOL    HW226445   5.092   2.418   1.194
 8516SOL     OW26446   0.279   1.913   2.230
 8516SOL    HW126447   0.344   1.909   2.306
 8516SOL    HW226448   0.212   1.985   2.247
 8517SOL     OW26449   0.575   2.896   5.240
 8517SOL    HW126450   0.496   2.957   5.246
 8517SOL    HW226451   0.647   2.938   5.186
 8518SOL     OW26452   4.722   3.783   6.924
 8518SOL    HW126453   4.718   3.857   6.990
 8518SOL    HW226454   4.790   3.716   6.953
 8519SOL     OW26455   1.703   5.141   1.980
 8519SOL    HW126456   1.695   5.051   2.023
 8519SOL    HW226457   1.612   5.181   1.968
 8520SOL     OW26458   3.698   1.280   0.960
 8520SOL    HW126459   3.646   1.354   1.001
 8520SOL    HW226460   3.652   1.247   0.877
 8521SOL     OW26461   2.004   5.569   5.789
 8521SOL    HW126462   2.085   5.627   5.788
 8521SOL    HW226463   2.015   5.495   5.721
 8522SOL     OW26464   1.179   6.093   2.016
 8522SOL    HW126465   1.090   6.106   1.971
 8522SOL    HW226466   1.252   6.113   1.951
 8523SOL     OW26467   2.741   6.410   6.877
 8523SOL    HW126468   2.780   6.496   6.843
 8523SOL    HW226469   2.683   6.370   6.806
 8524SOL     OW26470   1.207   2.169   5.162
 8524SOL    HW126471   1.263   2.105   5.214
 8524SOL    HW226472   1.236   2.169   5.066
 8525SOL     OW26473   6.333   4.589   3.571
 8525SOL    HW126474   6.244   4.568   3.529
 8525SOL    HW226475   6.400   4.609   3.499
 8526SOL     OW26476   2.703   4.105   0.851
 8526SOL    HW126477   2.645   4.084   0.772
 8526SOL    HW226478   2.722   4.203   0.852
 8527SOL     OW26479   3.424   0.251   4.978
 8527SOL    HW126480   3.405   0.338   5.025
 8527SOL    HW226481   3.355   0.236   4.908
 8528SOL     OW26482   5.126   3.022   5.775
 8528SOL    HW126483   5.178   3.003   5.692
 8528SOL    HW226484   5.169   2.974   5.852
 8529SOL     OW26485   0.982   6.959   6.725
 8529SOL    HW126486   0.974   7.002   6.815
 8529SOL    HW226487   1.077   6.928   6.711
 8530SOL     OW26488   0.915   4.273   5.938
 8530SOL    HW126489   1.010   4.298   5.959
 8530SOL    HW226490   0.900   4.278   5.840
 8531SOL     OW26491   5.433   4.237   2.400
 8531SOL    HW126492   5.437   4.336   2.415
 8531SOL    HW226493   5.343   4.202   2.428
 8532SOL     OW26494   3.806   4.986   4.612
 8532SOL    HW126495   3.808   5.079   4.648
 8532SOL    HW226496   3.718   4.970   4.567
 8533SOL     OW26497   1.705   0.485   5.991
 8533SOL    HW126498   1.800   0.475   6.020
 8533SOL    HW226499   1.678   0.404   5.938
 8534SOL     OW26500   7.019   3.841   3.451
 8534SOL    HW126501   0.013   3.850   3.549
 8534SOL    HW226502   7.024   3.745   3.424
 8535SOL     OW26503   0.644   2.056   4.721
 8535SOL    HW126504   0.606   2.120   4.788
 8535SOL    HW226505   0.573   1.993   4.691
 8536SOL     OW26506   6.327   2.083   4.891
 8536SOL    HW126507   6.345   2.178   4.863
 8536SOL    HW226508   6.390   2.058   4.965
 8537SOL     OW26509   5.293   1.811   1.472
 8537SOL    HW126510   5.350   1.739   1.432
 8537SOL    HW226511   5.236   1.852   1.400
 8538SOL     OW26512   0.177   1.254   5.276
 8538SOL    HW126513   0.133   1.175   5.318
 8538SOL    HW226514   0.120   1.335   5.290
 8539SOL     OW26515   6.222   2.084   2.179
 8539SOL    HW126516   6.210   2.080   2.278
 8539SOL    HW226517   6.315   2.056   2.156
 8540SOL     OW26518   3.404   1.324   0.323
 8540SOL    HW126519   3.320   1.278   0.293
 8540SOL    HW226520   3.449   1.367   0.245
 8541SOL     OW26521   2.600   1.695   4.394
 8541SOL    HW126522   2.519   1.707   4.337
 8541SOL    HW226523   2.656   1.621   4.356
 8542SOL     OW26524   2.537   4.678   6.155
 8542SOL    HW126525   2.621   4.707   6.109
 8542SOL    HW226526   2.548   4.687   6.254
 8543SOL     OW26527   2.941   1.625   5.853
 8543SOL    HW126528   3.027   1.666   5.884
 8543SOL    HW226529   2.873   1.698   5.841
 8544SOL     OW26530   5.470   3.134   4.544
 8544SOL    HW126531   5.381   3.109   4.582
 8544SOL    HW226532   5.468   3.121   4.445
 8545SOL     OW26533   3.755   6.544   4.773
 8545SOL    HW126534   3.808   6.629   4.770
 8545SOL    HW226535   3.676   6.556   4.833
 8546SOL     OW26536   6.393   6.970   2.154
 8546SOL    HW126537   6.303   6.932   2.174
 8546SOL    HW226538   6.412   6.962   2.056
 8547SOL     OW26539   0.460   0.258   5.708
 8547SOL    HW126540   0.530   0.220   5.648
 8547SOL    HW226541   0.494   0.261   5.802
 8548SOL     OW26542   6.709   3.223   5.671
 8548SOL    HW126543   6.729   3.221   5.769
 8548SOL    HW226544   6.705   3.318   5.639
 8549SOL     OW26545   0.836   2.468   4.006
 8549SOL    HW126546   0.919   2.516   3.980
 8549SOL    HW226547   0.766   2.534   4.034
 8550SOL     OW26548   1.745   4.072   6.730
 8550SOL    HW126549   1.683   4.101   6.657
 8550SOL    HW226550   1.840   4.080   6.698
 8551SOL     OW26551   3.226   2.869   6.957
 8551SOL    HW126552   3.281   2.897   0.011
 8551SOL    HW226553   3.223   2.769   6.953
 8552SOL     OW26554   2.010   0.626   2.790
 8552SOL    HW126555   2.041   0.595   2.700
 8552SOL    HW226556   1.914   0.601   2.802
 8553SOL     OW26557   4.208   4.277   6.978
 8553SOL    HW126558   4.201   4.321   6.889
 8553SOL    HW226559   4.163   4.188   6.975
 8554SOL     OW26560   0.592   5.983   1.013
 8554SOL    HW126561   0.660   5.962   1.083
 8554SOL    HW226562   0.506   5.937   1.036
 8555SOL     OW26563   3.847   1.588   3.551
 8555SOL    HW126564   3.747   1.590   3.549
 8555SOL    HW226565   3.882   1.649   3.479
 8556SOL     OW26566   2.254   6.373   5.094
 8556SOL    HW126567   2.269   6.471   5.084
 8556SOL    HW226568   2.171   6.357   5.148
 8557SOL     OW26569   6.973   0.286   1.710
 8557SOL    HW126570   6.986   0.318   1.616
 8557SOL    HW226571   6.911   0.348   1.758
 8558SOL     OW26572   1.845   5.418   2.866
 8558SOL    HW126573   1.857   5.516   2.846
 8558SOL    HW226574   1.748   5.399   2.879
 8559SOL     OW26575   1.618   6.458   2.335
 8559SOL    HW126576   1.661   6.533   2.285
 8559SOL    HW226577   1.538   6.426   2.284
 8560SOL     OW26578   1.173   5.491   1.390
 8560SOL    HW126579   1.095   5.551   1.371
 8560SOL    HW226580   1.229   5.482   1.308
 8561SOL     OW26581   3.411   0.008   3.828
 8561SOL    HW126582   3.362   6.947   3.809
 8561SOL    HW226583   3.505   0.000   3.796
 8562SOL     OW26584   3.453   6.730   0.038
 8562SOL    HW126585   3.515   6.652   0.029
 8562SOL    HW226586   3.422   6.737   0.133
 8563SOL     OW26587   0.699   5.142   1.905
 8563SOL    HW126588   0.742   5.232   1.896
 8563SOL    HW226589   0.750   5.087   1.971
 8564SOL     OW26590   3.550   6.112   5.686
 8564SOL    HW126591   3.485   6.041   5.713
 8564SOL    HW226592   3.547   6.125   5.587
 8565SOL     OW26593   3.616   5.235   0.928
 8565SOL    HW126594   3.543   5.226   0.860
 8565SOL    HW226595   3.684   5.302   0.896
 8566SOL     OW26596   1.190   0.332   1.707
 8566SOL    HW126597   1.148   0.418   1.678
 8566SOL    HW226598   1.286   0.331   1.679
 8567SOL     OW26599   1.045   2.137   2.378
 8567SOL    HW126600   0.989   2.203   2.428
 8567SOL    HW226601   1.048   2.051   2.430
 8568SOL     OW26602   5.501   1.738   0.421
 8568SOL    HW126603   5.467   1.828   0.449
 8568SOL    HW226604   5.544   1.745   0.331
 8569SOL     OW26605   5.404   2.044   5.691
 8569SOL    HW126606   5.387   1.977   5.764
 8569SOL    HW226607   5.489   2.021   5.645
 8570SOL     OW26608   1.320   1.645   4.856
 8570SOL    HW126609   1.333   1.659   4.954
 8570SOL    HW226610   1.260   1.566   4.842
 8571SOL     OW26611   0.890   6.636   5.133
 8571SOL    HW126612   0.924   6.627   5.039
 8571SOL    HW226613   0.810   6.578   5.145
 8572SOL     OW26614   1.651   4.375   5.010
 8572SOL    HW126615   1.623   4.415   5.097
 8572SOL    HW226616   1.678   4.280   5.024
 8573SOL     OW26617   2.963   5.811   6.467
 8573SOL    HW126618   3.039   5.759   6.429
 8573SOL    HW226619   2.904   5.751   6.520
 8574SOL     OW26620   6.121   6.914   6.101
 8574SOL    HW126621   6.074   6.914   6.012
 8574SOL    HW226622   6.136   6.820   6.130
 8575SOL     OW26623   3.319   1.740   3.435
 8575SOL    HW126624   3.224   1.731   3.405
 8575SOL    HW226625   3.336   1.835   3.462
 8576SOL     OW26626   1.872   4.885   4.025
 8576SOL    HW126627   1.941   4.884   3.952
 8576SOL    HW226628   1.859   4.792   4.059
 8577SOL     OW26629   1.794   0.372   6.321
 8577SOL    HW126630   1.792   0.331   6.230
 8577SOL    HW226631   1.729   0.448   6.325
 8578SOL     OW26632   6.685   4.611   6.010
 8578SOL    HW126633   6.598   4.570   6.037
 8578SOL    HW226634   6.711   4.575   5.920
 8579SOL     OW26635   1.267   6.080   2.295
 8579SOL    HW126636   1.211   6.135   2.357
 8579SOL    HW226637   1.245   6.102   2.200
 8580SOL     OW26638   2.109   5.960   0.640
 8580SOL    HW126639   2.155   6.016   0.571
 8580SOL    HW226640   2.086   6.017   0.719
 8581SOL     OW26641   3.550   4.656   1.290
 8581SOL    HW126642   3.547   4.561   1.258
 8581SOL    HW226643   3.461   4.679   1.331
 8582SOL     OW26644   5.041   4.490   5.301
 8582SOL    HW126645   5.092   4.556   5.357
 8582SOL    HW226646   4.959   4.461   5.350
 8583SOL     OW26647   3.011   6.828   3.037
 8583SOL    HW126648   3.020   6.729   3.030
 8583SOL    HW226649   3.073   6.863   3.107
 8584SOL     OW26650   0.760   6.402   5.652
 8584SOL    HW126651   0.744   6.413   5.554
 8584SOL    HW226652   0.785   6.490   5.692
 8585SOL     OW26653   6.361   1.260   0.777
 8585SOL    HW126654   6.261   1.261   0.768
 8585SOL    HW226655   6.386   1.265   0.874
 8586SOL     OW26656   4.012   6.743   1.313
 8586SOL    HW126657   3.933   6.689   1.342
 8586SOL    HW226658   3.985   6.838   1.298
 8587SOL     OW26659   1.001   1.269   5.010
 8587SOL    HW126660   1.088   1.304   4.976
 8587SOL    HW226661   0.935   1.343   5.016
 8588SOL     OW26662   4.689   1.295   6.818
 8588SOL    HW126663   4.704   1.202   6.783
 8588SOL    HW226664   4.662   1.290   6.914
 8589SOL     OW26665   6.422   2.536   5.018
 8589SOL    HW126666   6.350   2.502   5.078
 8589SOL    HW226667   6.385   2.603   4.954
 8590SOL     OW26668   0.999   1.207   2.696
 8590SOL    HW126669   0.972   1.242   2.606
 8590SOL    HW226670   0.927   1.146   2.730
 8591SOL     OW26671   0.237   4.003   0.440
 8591SOL    HW126672   0.288   3.996   0.354
 8591SOL    HW226673   0.217   3.911   0.474
 8592SOL     OW26674   5.940   2.531   6.959
 8592SOL    HW126675   5.999   2.561   6.884
 8592SOL    HW226676   5.863   2.479   6.922
 8593SOL     OW26677   2.905   1.198   6.405
 8593SOL    HW126678   2.821   1.154   6.438
 8593SOL    HW226679   2.984   1.151   6.444
 8594SOL     OW26680   5.943   2.087   6.026
 8594SOL    HW126681   5.944   2.166   5.965
 8594SOL    HW226682   5.849   2.056   6.039
 8595SOL     OW26683   5.809   0.881   4.044
 8595SOL    HW126684   5.768   0.841   3.962
 8595SOL    HW226685   5.786   0.826   4.124
 8596SOL     OW26686   1.400   4.831   3.033
 8596SOL    HW126687   1.448   4.898   3.090
 8596SOL    HW226688   1.446   4.743   3.039
 8597SOL     OW26689   5.443   1.927   1.698
 8597SOL    HW126690   5.390   2.008   1.671
 8597SOL    HW226691   5.428   1.854   1.632
 8598SOL     OW26692   5.912   0.183   5.906
 8598SOL    HW126693   5.943   0.099   5.862
 8598SOL    HW226694   5.879   0.247   5.836
 8599SOL     OW26695   1.382   2.743   4.767
 8599SOL    HW126696   1.358   2.777   4.858
 8599SOL    HW226697   1.462   2.793   4.733
 8600SOL     OW26698   5.409   3.583   0.340
 8600SOL    HW126699   5.458   3.578   0.253
 8600SOL    HW226700   5.408   3.678   0.372
 8601SOL     OW26701   0.735   1.590   4.081
 8601SOL    HW126702   0.788   1.655   4.134
 8601SOL    HW226703   0.637   1.605   4.097
 8602SOL     OW26704   2.480   0.196   2.292
 8602SOL    HW126705   2.506   0.286   2.259
 8602SOL    HW226706   2.561   0.138   2.300
 8603SOL     OW26707   5.185   6.913   0.800
 8603SOL    HW126708   5.247   6.934   0.724
 8603SOL    HW226709   5.104   6.971   0.793
 8604SOL     OW26710   1.337   2.083   6.142
 8604SOL    HW126711   1.368   2.161   6.196
 8604SOL    HW226712   1.273   2.114   6.072
 8605SOL     OW26713   1.729   5.249   3.546
 8605SOL    HW126714   1.773   5.293   3.468
 8605SOL    HW226715   1.631   5.265   3.543
 8606SOL     OW26716   2.402   2.732   0.328
 8606SOL    HW126717   2.311   2.772   0.329
 8606SOL    HW226718   2.468   2.800   0.294
 8607SOL     OW26719   2.389   4.996   6.092
 8607SOL    HW126720   2.475   4.977   6.138
 8607SOL    HW226721   2.402   4.990   5.993
 8608SOL     OW26722   2.244   4.490   2.417
 8608SOL    HW126723   2.146   4.471   2.427
 8608SOL    HW226724   2.256   4.580   2.374
 8609SOL     OW26725   4.836   0.222   3.565
 8609SOL    HW126726   4.886   0.138   3.548
 8609SOL    HW226727   4.895   0.301   3.549
 8610SOL     OW26728   0.157   0.527   3.165
 8610SOL    HW126729   0.136   0.486   3.076
 8610SOL    HW226730   0.230   0.476   3.209
 8611SOL     OW26731   3.165   1.102   4.101
 8611SOL    HW126732   3.249   1.107   4.047
 8611SOL    HW226733   3.087   1.126   4.043
 8612SOL     OW26734   2.610   3.405   1.475
 8612SOL    HW126735   2.681   3.475   1.470
 8612SOL    HW226736   2.653   3.315   1.487
 8613SOL     OW26737   2.957   1.915   1.461
 8613SOL    HW126738   3.043   1.954   1.429
 8613SOL    HW226739   2.895   1.990   1.488
 8614SOL     OW26740   0.963   2.695   3.098
 8614SOL    HW126741   0.875   2.678   3.054
 8614SOL    HW226742   0.960   2.782   3.146
 8615SOL     OW26743   4.698   2.091   5.103
 8615SOL    HW126744   4.789   2.056   5.128
 8615SOL    HW226745   4.628   2.031   5.142
 8616SOL     OW26746   2.893   4.845   1.800
 8616SOL    HW126747   2.825   4.917   1.812
 8616SOL    HW226748   2.872   4.769   1.861
 8617SOL     OW26749   5.729   0.844   4.338
 8617SOL    HW126750   5.718   0.752   4.377
 8617SOL    HW226751   5.763   0.906   4.409
 8618SOL     OW26752   6.503   4.518   1.821
 8618SOL    HW126753   6.515   4.542   1.724
 8618SOL    HW226754   6.585   4.546   1.871
 8619SOL     OW26755   4.065   5.444   2.621
 8619SOL    HW126756   4.038   5.527   2.669
 8619SOL    HW226757   4.164   5.430   2.630
 8620SOL     OW26758   2.137   6.167   3.722
 8620SOL    HW126759   2.120   6.131   3.630
 8620SOL    HW226760   2.051   6.171   3.773
 8621SOL     OW26761   4.919   2.739   2.280
 8621SOL    HW126762   4.918   2.829   2.323
 8621SOL    HW226763   4.842   2.732   2.217
 8622SOL     OW26764   4.969   4.405   1.329
 8622SOL    HW126765   5.039   4.344   1.292
 8622SOL    HW226766   5.010   4.494   1.349
 8623SOL     OW26767   0.943   4.447   5.436
 8623SOL    HW126768   1.007   4.424   5.363
 8623SOL    HW226769   0.950   4.379   5.509
 8624SOL     OW26770   2.355   3.965   5.593
 8624SOL    HW126771   2.315   4.029   5.528
 8624SOL    HW226772   2.295   3.886   5.603
 8625SOL     OW26773   5.079   1.146   5.370
 8625SOL    HW126774   5.141   1.203   5.316
 8625SOL    HW226775   5.113   1.138   5.464
 8626SOL     OW26776   4.207   2.444   6.888
 8626SOL    HW126777   4.278   2.379   6.917
 8626SOL    HW226778   4.180   2.501   6.966
 8627SOL     OW26779   2.125   1.996   2.233
 8627SOL    HW126780   2.146   2.058   2.309
 8627SOL    HW226781   2.110   2.049   2.150
 8628SOL     OW26782   5.843   6.707   0.352
 8628SOL    HW126783   5.904   6.696   0.430
 8628SOL    HW226784   5.762   6.759   0.380
 8629SOL     OW26785   1.949   6.616   5.177
 8629SOL    HW126786   1.968   6.536   5.121
 8629SOL    HW226787   2.000   6.694   5.142
 8630SOL     OW26788   4.914   3.321   3.887
 8630SOL    HW126789   4.929   3.222   3.877
 8630SOL    HW226790   4.973   3.370   3.824
 8631SOL     OW26791   1.349   5.921   6.347
 8631SOL    HW126792   1.345   5.825   6.319
 8631SOL    HW226793   1.436   5.938   6.395
 8632SOL     OW26794   4.034   4.882   5.156
 8632SOL    HW126795   4.110   4.830   5.196
 8632SOL    HW226796   3.955   4.877   5.218
 8633SOL     OW26797   5.689   2.681   5.773
 8633SOL    HW126798   5.694   2.679   5.673
 8633SOL    HW226799   5.769   2.729   5.808
 8634SOL     OW26800   4.874   3.767   6.377
 8634SOL    HW126801   4.838   3.691   6.322
 8634SOL    HW226802   4.800   3.830   6.398
 8635SOL     OW26803   5.589   2.649   6.610
 8635SOL    HW126804   5.552   2.616   6.697
 8635SOL    HW226805   5.689   2.652   6.616
 8636SOL     OW26806   5.569   6.218   1.226
 8636SOL    HW126807   5.482   6.171   1.241
 8636SOL    HW226808   5.575   6.297   1.288
 8637SOL     OW26809   2.003   1.641   6.832
 8637SOL    HW126810   1.905   1.620   6.830
 8637SOL    HW226811   2.016   1.738   6.854
 8638SOL     OW26812   4.004   2.205   5.234
 8638SOL    HW126813   3.956   2.248   5.311
 8638SOL    HW226814   3.944   2.137   5.191
 8639SOL     OW26815   4.860   2.926   6.924
 8639SOL    HW126816   4.860   2.833   6.886
 8639SOL    HW226817   4.903   2.988   6.859
 8640SOL     OW26818   3.948   3.439   0.218
 8640SOL    HW126819   3.902   3.483   0.294
 8640SOL    HW226820   3.892   3.363   0.184
 8641SOL     OW26821   4.216   4.747   4.189
 8641SOL    HW126822   4.187   4.677   4.255
 8641SOL    HW226823   4.247   4.828   4.238
 8642SOL     OW26824   1.083   6.591   3.854
 8642SOL    HW126825   1.078   6.498   3.891
 8642SOL    HW226826   1.172   6.631   3.877
 8643SOL     OW26827   1.595   0.516   7.017
 8643SOL    HW126828   1.499   0.513   6.989
 8643SOL    HW226829   1.634   0.424   7.013
 8644SOL     OW26830   5.300   2.716   5.788
 8644SOL    HW126831   5.338   2.729   5.696
 8644SOL    HW226832   5.273   2.804   5.825
 8645SOL     OW26833   4.301   4.759   1.788
 8645SOL    HW126834   4.370   4.799   1.729
 8645SOL    HW226835   4.345   4.702   1.858
 8646SOL     OW26836   0.090   1.502   6.706
 8646SOL    HW126837   0.073   1.571   6.635
 8646SOL    HW226838   0.045   1.530   6.790
 8647SOL     OW26839   2.546   4.778   0.091
 8647SOL    HW126840   2.522   4.839   0.167
 8647SOL    HW226841   2.633   4.733   0.111
 8648SOL     OW26842   6.676   0.317   2.091
 8648SOL    HW126843   6.604   0.256   2.059
 8648SOL    HW226844   6.672   0.325   2.191
 8649SOL     OW26845   5.808   5.619   0.151
 8649SOL    HW126846   5.821   5.698   0.210
 8649SOL    HW226847   5.719   5.577   0.170
 8650SOL     OW26848   1.741   6.752   4.742
 8650SOL    HW126849   1.652   6.790   4.764
 8650SOL    HW226850   1.730   6.670   4.686
 8651SOL     OW26851   3.992   1.266   0.743
 8651SOL    HW126852   4.066   1.254   0.808
 8651SOL    HW226853   3.940   1.348   0.766
 8652SOL     OW26854   0.814   4.927   3.140
 8652SOL    HW126855   0.870   4.862   3.192
 8652SOL    HW226856   0.778   4.881   3.059
 8653SOL     OW26857   6.702   1.381   6.262
 8653SOL    HW126858   6.729   1.345   6.173
 8653SOL    HW226859   6.746   1.328   6.335
 8654SOL     OW26860   0.158   5.036   1.215
 8654SOL    HW126861   0.164   5.053   1.314
 8654SOL    HW226862   0.250   5.040   1.175
 8655SOL     OW26863   5.968   7.019   4.640
 8655SOL    HW126864   5.898   0.044   4.588
 8655SOL    HW226865   5.988   0.045   4.724
 8656SOL     OW26866   6.492   1.185   2.177
 8656SOL    HW126867   6.515   1.281   2.190
 8656SOL    HW226868   6.480   1.141   2.265
 8657SOL     OW26869   5.300   5.861   0.380
 8657SOL    HW126870   5.331   5.946   0.423
 8657SOL    HW226871   5.232   5.817   0.438
 8658SOL     OW26872   6.621   5.857   0.403
 8658SOL    HW126873   6.583   5.778   0.451
 8658SOL    HW226874   6.693   5.899   0.459
 8659SOL     OW26875   5.280   2.277   2.459
 8659SOL    HW126876   5.200   2.298   2.404
 8659SOL    HW226877   5.286   2.178   2.472
 8660SOL     OW26878   6.469   3.625   2.058
 8660SOL    HW126879   6.519   3.584   1.982
 8660SOL    HW226880   6.447   3.554   2.125
 8661SOL     OW26881   6.362   3.595   1.712
 8661SOL    HW126882   6.297   3.633   1.646
 8661SOL    HW226883   6.319   3.588   1.802
 8662SOL     OW26884   3.952   5.838   1.872
 8662SOL    HW126885   4.032   5.821   1.815
 8662SOL    HW226886   3.905   5.920   1.840
 8663SOL     OW26887   2.278   5.699   2.327
 8663SOL    HW126888   2.360   5.756   2.339
 8663SOL    HW226889   2.305   5.603   2.323
 8664SOL     OW26890   2.252   5.041   1.840
 8664SOL    HW126891   2.331   4.994   1.802
 8664SOL    HW226892   2.168   4.994   1.813
 8665SOL     OW26893   6.333   5.437   4.707
 8665SOL    HW126894   6.306   5.491   4.627
 8665SOL    HW226895   6.313   5.490   4.790
 8666SOL     OW26896   5.596   0.602   4.022
 8666SOL    HW126897   5.601   0.670   3.949
 8666SOL    HW226898   5.522   0.537   4.002
 8667SOL     OW26899   5.101   1.747   3.859
 8667SOL    HW126900   5.040   1.810   3.907
 8667SOL    HW226901   5.098   1.658   3.904
 8668SOL     OW26902   5.238   3.750   4.214
 8668SOL    HW126903   5.297   3.729   4.292
 8668SOL    HW226904   5.172   3.676   4.201
 8669SOL     OW26905   0.396   6.073   6.699
 8669SOL    HW126906   0.417   6.095   6.604
 8669SOL    HW226907   0.324   6.004   6.703
 8670SOL     OW26908   4.151   5.367   6.168
 8670SOL    HW126909   4.189   5.393   6.257
 8670SOL    HW226910   4.070   5.310   6.182
 8671SOL     OW26911   0.782   1.904   3.212
 8671SOL    HW126912   0.708   1.935   3.153
 8671SOL    HW226913   0.745   1.849   3.287
 8672SOL     OW26914   0.422   6.436   3.566
 8672SOL    HW126915   0.446   6.367   3.634
 8672SOL    HW226916   0.323   6.448   3.564
 8673SOL     OW26917   6.030   2.208   0.796
 8673SOL    HW126918   6.034   2.267   0.876
 8673SOL    HW226919   5.980   2.124   0.819
 8674SOL     OW26920   5.757   5.320   2.807
 8674SOL    HW126921   5.819   5.247   2.780
 8674SOL    HW226922   5.776   5.348   2.902
 8675SOL     OW26923   4.603   1.377   4.939
 8675SOL    HW126924   4.546   1.297   4.922
 8675SOL    HW226925   4.699   1.352   4.931
 8676SOL     OW26926   5.609   6.590   3.064
 8676SOL    HW126927   5.514   6.613   3.087
 8676SOL    HW226928   5.646   6.528   3.134
 8677SOL     OW26929   2.247   5.843   5.332
 8677SOL    HW126930   2.222   5.748   5.310
 8677SOL    HW226931   2.274   5.848   5.428
 8678SOL     OW26932   1.012   6.832   0.506
 8678SOL    HW126933   0.972   6.741   0.506
 8678SOL    HW226934   1.043   6.855   0.414
 8679SOL     OW26935   1.512   1.379   3.408
 8679SOL    HW126936   1.581   1.387   3.480
 8679SOL    HW226937   1.440   1.447   3.423
 8680SOL     OW26938   5.923   3.956   0.190
 8680SOL    HW126939   5.892   4.051   0.192
 8680SOL    HW226940   5.845   3.895   0.175
 8681SOL     OW26941   4.693   5.607   1.343
 8681SOL    HW126942   4.613   5.660   1.372
 8681SOL    HW226943   4.687   5.515   1.380
 8682SOL     OW26944   6.556   0.499   2.650
 8682SOL    HW126945   6.499   0.516   2.569
 8682SOL    HW226946   6.499   0.463   2.724
 8683SOL     OW26947   1.832   2.499   5.766
 8683SOL    HW126948   1.881   2.500   5.679
 8683SOL    HW226949   1.758   2.566   5.764
 8684SOL     OW26950   6.285   3.260   4.569
 8684SOL    HW126951   6.252   3.355   4.569
 8684SOL    HW226952   6.246   3.212   4.491
 8685SOL     OW26953   5.929   3.040   6.455
 8685SOL    HW126954   6.014   3.092   6.453
 8685SOL    HW226955   5.870   3.075   6.527
 8686SOL     OW26956   6.734   0.957   2.009
 8686SOL    HW126957   6.813   0.976   1.949
 8686SOL    HW226958   6.665   0.905   1.958
 8687SOL     OW26959   5.145   4.954   2.813
 8687SOL    HW126960   5.226   4.984   2.763
 8687SOL    HW226961   5.074   4.926   2.747
 8688SOL     OW26962   1.434   4.807   6.561
 8688SOL    HW126963   1.516   4.756   6.588
 8688SOL    HW226964   1.440   4.830   6.463
 8689SOL     OW26965   4.309   2.373   0.530
 8689SOL    HW126966   4.240   2.399   0.598
 8689SOL    HW226967   4.338   2.279   0.546
 8690SOL     OW26968   1.330   3.523   3.888
 8690SOL    HW126969   1.270   3.448   3.917
 8690SOL    HW226970   1.288   3.611   3.912
 8691SOL     OW26971   4.005   2.060   5.919
 8691SOL    HW126972   3.912   2.033   5.944
 8691SOL    HW226973   4.003   2.149   5.875
 8692SOL     OW26974   3.687   0.952   4.422
 8692SOL    HW126975   3.637   0.999   4.350
 8692SOL    HW226976   3.747   1.016   4.470
 8693SOL     OW26977   5.816   0.381   0.019
 8693SOL    HW126978   5.883   0.309   0.037
 8693SOL    HW226979   5.796   0.385   6.946
 8694SOL     OW26980   5.899   1.684   5.155
 8694SOL    HW126981   5.831   1.754   5.133
 8694SOL    HW226982   5.881   1.647   5.246
 8695SOL     OW26983   3.464   2.917   6.098
 8695SOL    HW126984   3.415   2.985   6.153
 8695SOL    HW226985   3.499   2.960   6.015
 8696SOL     OW26986   2.954   5.805   5.493
 8696SOL    HW126987   3.000   5.717   5.498
 8696SOL    HW226988   3.001   5.865   5.428
 8697SOL     OW26989   0.481   4.283   6.395
 8697SOL    HW126990   0.482   4.316   6.301
 8697SOL    HW226991   0.453   4.358   6.456
 8698SOL     OW26992   4.831   6.233   4.867
 8698SOL    HW126993   4.797   6.146   4.829
 8698SOL    HW226994   4.754   6.284   4.906
 8699SOL     OW26995   1.677   3.520   5.204
 8699SOL    HW126996   1.707   3.438   5.155
 8699SOL    HW226997   1.695   3.508   5.302
 8700SOL     OW26998   0.451   0.501   4.800
 8700SOL    HW126999   0.549   0.502   4.779
 8700SOL    HW227000   0.417   0.595   4.809
 8701SOL     OW27001   1.480   1.549   0.613
 8701SOL    HW127002   1.520   1.628   0.568
 8701SOL    HW227003   1.384   1.540   0.587
 8702SOL     OW27004   5.239   5.354   1.432
 8702SOL    HW127005   5.324   5.402   1.451
 8702SOL    HW227006   5.213   5.299   1.511
 8703SOL     OW27007   2.884   4.491   6.905
 8703SOL    HW127008   2.955   4.433   6.944
 8703SOL    HW227009   2.795   4.447   6.917
 8704SOL     OW27010   6.763   4.188   3.377
 8704SOL    HW127011   6.740   4.282   3.353
 8704SOL    HW227012   6.844   4.159   3.327
 8705SOL     OW27013   4.911   1.807   6.535
 8705SOL    HW127014   4.934   1.904   6.525
 8705SOL    HW227015   4.993   1.752   6.520
 8706SOL     OW27016   4.685   1.958   0.340
 8706SOL    HW127017   4.695   1.948   0.439
 8706SOL    HW227018   4.604   1.908   0.309
 8707SOL     OW27019   1.149   2.379   4.196
 8707SOL    HW127020   1.179   2.411   4.106
 8707SOL    HW227021   1.153   2.455   4.261
 8708SOL     OW27022   4.334   1.226   3.596
 8708SOL    HW127023   4.276   1.254   3.519
 8708SOL    HW227024   4.276   1.184   3.667
 8709SOL     OW27025   6.495   6.642   6.564
 8709SOL    HW127026   6.562   6.573   6.538
 8709SOL    HW227027   6.541   6.729   6.581
 8710SOL     OW27028   2.437   2.349   3.523
 8710SOL    HW127029   2.388   2.436   3.515
 8710SOL    HW227030   2.436   2.302   3.435
 8711SOL     OW27031   2.153   6.622   3.072
 8711SOL    HW127032   2.197   6.603   2.984
 8711SOL    HW227033   2.142   6.536   3.122
 8712SOL     OW27034   3.563   1.527   4.589
 8712SOL    HW127035   3.606   1.465   4.655
 8712SOL    HW227036   3.631   1.558   4.523
 8713SOL     OW27037   6.774   3.614   2.141
 8713SOL    HW127038   6.676   3.600   2.126
 8713SOL    HW227039   6.825   3.539   2.099
 8714SOL     OW27040   1.444   0.354   6.397
 8714SOL    HW127041   1.406   0.284   6.336
 8714SOL    HW227042   1.511   0.409   6.346
 8715SOL     OW27043   3.861   1.332   0.518
 8715SOL    HW127044   3.881   1.424   0.483
 8715SOL    HW227045   3.887   1.326   0.614
 8716SOL     OW27046   0.128   5.902   0.161
 8716SOL    HW127047   0.200   5.970   0.171
 8716SOL    HW227048   0.039   5.946   0.171
 8717SOL     OW27049   2.427   3.545   5.417
 8717SOL    HW127050   2.381   3.613   5.361
 8717SOL    HW227051   2.406   3.453   5.383
 8718SOL     OW27052   1.682   2.020   5.722
 8718SOL    HW127053   1.624   2.040   5.800
 8718SOL    HW227054   1.744   2.096   5.705
 8719SOL     OW27055   3.440   0.651   0.326
 8719SOL    HW127056   3.534   0.670   0.295
 8719SOL    HW227057   3.388   0.613   0.250
 8720SOL     OW27058   0.808   6.336   6.046
 8720SOL    HW127059   0.793   6.292   5.957
 8720SOL    HW227060   0.878   6.286   6.096
 8721SOL     OW27061   6.470   1.432   0.570
 8721SOL    HW127062   6.443   1.380   0.651
 8721SOL    HW227063   6.493   1.526   0.597
 8722SOL     OW27064   2.733   0.651   1.137
 8722SOL    HW127065   2.773   0.718   1.075
 8722SOL    HW227066   2.796   0.634   1.213
 8723SOL     OW27067   5.318   0.134   2.001
 8723SOL    HW127068   5.305   0.201   1.928
 8723SOL    HW227069   5.361   0.177   2.080
 8724SOL     OW27070   5.660   7.013   4.278
 8724SOL    HW127071   5.666   0.065   4.215
 8724SOL    HW227072   5.751   6.987   4.309
 8725SOL     OW27073   1.201   5.439   5.674
 8725SOL    HW127074   1.265   5.501   5.720
 8725SOL    HW227075   1.210   5.347   5.712
 8726SOL     OW27076   6.783   0.602   1.691
 8726SOL    HW127077   6.831   0.690   1.693
 8726SOL    HW227078   6.799   0.554   1.777
 8727SOL     OW27079   5.834   0.267   0.757
 8727SOL    HW127080   5.928   0.300   0.745
 8727SOL    HW227081   5.785   0.328   0.820
 8728SOL     OW27082   5.346   1.413   2.457
 8728SOL    HW127083   5.325   1.351   2.381
 8728SOL    HW227084   5.299   1.382   2.539
 8729SOL     OW27085   3.563   4.917   4.946
 8729SOL    HW127086   3.466   4.920   4.970
 8729SOL    HW227087   3.618   4.939   5.027
 8730SOL     OW27088   5.178   4.219   3.275
 8730SOL    HW127089   5.251   4.257   3.220
 8730SOL    HW227090   5.193   4.121   3.288
 8731SOL     OW27091   0.909   4.055   2.785
 8731SOL    HW127092   0.977   4.047   2.858
 8731SOL    HW227093   0.888   3.964   2.749
 8732SOL     OW27094   5.486   4.316   2.113
 8732SOL    HW127095   5.405   4.373   2.098
 8732SOL    HW227096   5.473   4.260   2.195
 8733SOL     OW27097   1.353   5.847   0.305
 8733SOL    HW127098   1.384   5.759   0.269
 8733SOL    HW227099   1.315   5.834   0.397
 8734SOL     OW27100   0.380   3.454   2.939
 8734SOL    HW127101   0.414   3.367   2.905
 8734SOL    HW227102   0.371   3.450   3.038
 8735SOL     OW27103   0.945   2.704   5.252
 8735SOL    HW127104   1.020   2.683   5.189
 8735SOL    HW227105   0.975   2.774   5.317
 8736SOL     OW27106   6.841   5.357   1.927
 8736SOL    HW127107   6.856   5.450   1.962
 8736SOL    HW227108   6.743   5.344   1.910
 8737SOL     OW27109   2.416   6.782   0.021
 8737SOL    HW127110   2.411   6.718   0.098
 8737SOL    HW227111   2.429   6.731   6.961
 8738SOL     OW27112   2.520   6.096   3.436
 8738SOL    HW127113   2.537   6.192   3.459
 8738SOL    HW227114   2.599   6.041   3.462
 8739SOL     OW27115   5.434   5.654   5.901
 8739SOL    HW127116   5.400   5.636   5.809
 8739SOL    HW227117   5.530   5.683   5.896
 8740SOL     OW27118   4.274   1.883   3.001
 8740SOL    HW127119   4.364   1.854   3.032
 8740SOL    HW227120   4.245   1.964   3.052
 8741SOL     OW27121   2.371   0.933   2.859
 8741SOL    HW127122   2.367   0.966   2.953
 8741SOL    HW227123   2.362   1.011   2.796
 8742SOL     OW27124   4.517   0.459   1.914
 8742SOL    HW127125   4.441   0.395   1.901
 8742SOL    HW227126   4.603   0.414   1.889
 8743SOL     OW27127   1.779   0.540   0.997
 8743SOL    HW127128   1.868   0.523   0.953
 8743SOL    HW227129   1.790   0.608   1.069
 8744SOL     OW27130   4.174   2.869   0.723
 8744SOL    HW127131   4.100   2.928   0.692
 8744SOL    HW227132   4.218   2.826   0.644
 8745SOL     OW27133   6.373   2.422   6.213
 8745SOL    HW127134   6.363   2.451   6.117
 8745SOL    HW227135   6.356   2.324   6.220
 8746SOL     OW27136   4.903   5.948   3.876
 8746SOL    HW127137   4.887   5.850   3.883
 8746SOL    HW227138   4.879   5.992   3.962
 8747SOL     OW27139   0.475   1.131   2.360
 8747SOL    HW127140   0.384   1.120   2.400
 8747SOL    HW227141   0.544   1.130   2.432
 8748SOL     OW27142   1.078   1.961   4.440
 8748SOL    HW127143   1.137   1.894   4.484
 8748SOL    HW227144   0.994   1.971   4.493
 8749SOL     OW27145   1.839   0.365   5.313
 8749SOL    HW127146   1.840   0.456   5.270
 8749SOL    HW227147   1.900   0.304   5.263
 8750SOL     OW27148   3.254   3.393   5.845
 8750SOL    HW127149   3.353   3.402   5.841
 8750SOL    HW227150   3.212   3.467   5.793
 8751SOL     OW27151   6.832   1.349   2.320
 8751SOL    HW127152   6.796   1.441   2.302
 8751SOL    HW227153   6.833   1.297   2.235
 8752SOL     OW27154   4.455   2.912   6.800
 8752SOL    HW127155   4.375   2.865   6.763
 8752SOL    HW227156   4.457   2.904   6.899
 8753SOL     OW27157   2.813   2.578   6.500
 8753SOL    HW127158   2.771   2.600   6.411
 8753SOL    HW227159   2.745   2.536   6.559
 8754SOL     OW27160   2.283   4.788   5.686
 8754SOL    HW127161   2.233   4.717   5.735
 8754SOL    HW227162   2.219   4.846   5.636
 8755SOL     OW27163   1.985   0.469   1.317
 8755SOL    HW127164   2.076   0.430   1.331
 8755SOL    HW227165   1.916   0.397   1.324
 8756SOL     OW27166   1.349   3.225   3.460
 8756SOL    HW127167   1.331   3.294   3.531
 8756SOL    HW227168   1.275   3.226   3.393
 8757SOL     OW27169   4.712   5.889   0.040
 8757SOL    HW127170   4.732   5.953   6.991
 8757SOL    HW227171   4.790   5.827   0.053
 8758SOL     OW27172   4.485   6.227   2.618
 8758SOL    HW127173   4.402   6.263   2.575
 8758SOL    HW227174   4.483   6.246   2.716
 8759SOL     OW27175   5.839   3.403   0.265
 8759SOL    HW127176   5.752   3.450   0.250
 8759SOL    HW227177   5.888   3.395   0.178
 8760SOL     OW27178   3.303   0.591   4.881
 8760SOL    HW127179   3.340   0.557   4.968
 8760SOL    HW227180   3.212   0.553   4.866
 8761SOL     OW27181   5.805   1.997   0.893
 8761SOL    HW127182   5.709   2.020   0.876
 8761SOL    HW227183   5.832   2.030   0.983
 8762SOL     OW27184   0.807   5.745   4.404
 8762SOL    HW127185   0.865   5.798   4.342
 8762SOL    HW227186   0.846   5.654   4.417
 8763SOL     OW27187   5.991   6.835   5.202
 8763SOL    HW127188   6.025   6.751   5.244
 8763SOL    HW227189   6.067   6.899   5.188
 8764SOL     OW27190   4.604   6.974   6.061
 8764SOL    HW127191   4.602   7.011   5.969
 8764SOL    HW227192   4.544   0.005   6.121
 8765SOL     OW27193   4.693   1.301   4.420
 8765SOL    HW127194   4.747   1.260   4.493
 8765SOL    HW227195   4.729   1.273   4.331
 8766SOL     OW27196   4.078   4.202   5.223
 8766SOL    HW127197   4.136   4.273   5.184
 8766SOL    HW227198   4.010   4.174   5.155
 8767SOL     OW27199   4.923   6.181   2.950
 8767SOL    HW127200   4.901   6.201   2.855
 8767SOL    HW227201   4.869   6.103   2.982
 8768SOL     OW27202   0.928   2.776   0.914
 8768SOL    HW127203   0.878   2.761   0.829
 8768SOL    HW227204   1.018   2.733   0.908
 8769SOL     OW27205   6.865   1.190   2.103
 8769SOL    HW127206   6.793   1.142   2.052
 8769SOL    HW227207   6.941   1.210   2.042
 8770SOL     OW27208   4.709   4.306   2.514
 8770SOL    HW127209   4.675   4.283   2.606
 8770SOL    HW227210   4.740   4.222   2.469
 8771SOL     OW27211   0.579   2.484   6.413
 8771SOL    HW127212   0.647   2.556   6.405
 8771SOL    HW227213   0.577   2.431   6.328
 8772SOL     OW27214   5.010   0.656   6.116
 8772SOL    HW127215   5.040   0.739   6.163
 8772SOL    HW227216   5.058   0.577   6.155
 8773SOL     OW27217   5.177   2.628   3.094
 8773SOL    HW127218   5.125   2.547   3.067
 8773SOL    HW227219   5.275   2.606   3.094
 8774SOL     OW27220   0.515   0.370   0.218
 8774SOL    HW127221   0.476   0.425   0.145
 8774SOL    HW227222   0.487   0.406   0.307
 8775SOL     OW27223   5.316   1.453   5.974
 8775SOL    HW127224   5.296   1.427   5.879
 8775SOL    HW227225   5.304   1.373   6.033
 8776SOL     OW27226   4.883   3.473   1.452
 8776SOL    HW127227   4.843   3.564   1.459
 8776SOL    HW227228   4.977   3.475   1.486
 8777SOL     OW27229   6.685   4.548   3.615
 8777SOL    HW127230   6.671   4.610   3.537
 8777SOL    HW227231   6.754   4.480   3.591
 8778SOL     OW27232   5.424   3.043   5.327
 8778SOL    HW127233   5.480   2.961   5.315
 8778SOL    HW227234   5.412   3.089   5.239
 8779SOL     OW27235   1.910   5.689   2.436
 8779SOL    HW127236   1.977   5.626   2.476
 8779SOL    HW227237   1.922   5.689   2.336
 8780SOL     OW27238   0.141   6.905   2.801
 8780SOL    HW127239   0.104   6.940   2.715
 8780SOL    HW227240   0.208   6.969   2.838
 8781SOL     OW27241   4.757   0.213   3.837
 8781SOL    HW127242   4.808   0.127   3.826
 8781SOL    HW227243   4.771   0.271   3.757
 8782SOL     OW27244   6.317   1.030   1.663
 8782SOL    HW127245   6.306   0.947   1.609
 8782SOL    HW227246   6.340   1.006   1.757
 8783SOL     OW27247   6.503   4.057   3.898
 8783SOL    HW127248   6.492   4.048   3.799
 8783SOL    HW227249   6.418   4.091   3.938
 8784SOL     OW27250   6.686   6.614   6.289
 8784SOL    HW127251   6.659   6.696   6.238
 8784SOL    HW227252   6.690   6.536   6.227
 8785SOL     OW27253   6.729   5.108   6.496
 8785SOL    HW127254   6.656   5.072   6.439
 8785SOL    HW227255   6.798   5.153   6.439
 8786SOL     OW27256   2.932   1.333   1.483
 8786SOL    HW127257   3.017   1.299   1.523
 8786SOL    HW227258   2.932   1.314   1.384
 8787SOL     OW27259   3.750   0.258   2.456
 8787SOL    HW127260   3.735   0.164   2.425
 8787SOL    HW227261   3.706   0.272   2.545
 8788SOL     OW27262   6.734   1.821   5.242
 8788SOL    HW127263   6.682   1.837   5.158
 8788SOL    HW227264   6.827   1.856   5.230
 8789SOL     OW27265   6.493   4.699   5.683
 8789SOL    HW127266   6.423   4.664   5.747
 8789SOL    HW227267   6.476   4.662   5.592
 8790SOL     OW27268   6.136   0.900   6.301
 8790SOL    HW127269   6.064   0.970   6.300
 8790SOL    HW227270   6.212   0.930   6.243
 8791SOL     OW27271   5.074   6.946   4.562
 8791SOL    HW127272   5.002   6.915   4.499
 8791SOL    HW227273   5.113   0.006   4.528
 8792SOL     OW27274   3.258   5.155   2.867
 8792SOL    HW127275   3.209   5.080   2.913
 8792SOL    HW227276   3.315   5.118   2.794
 8793SOL     OW27277   1.000   4.732   3.239
 8793SOL    HW127278   1.066   4.737   3.164
 8793SOL    HW227279   0.925   4.671   3.214
 8794SOL     OW27280   5.467   1.044   3.258
 8794SOL    HW127281   5.427   0.953   3.247
 8794SOL    HW227282   5.557   1.036   3.301
 8795SOL     OW27283   1.240   4.649   5.001
 8795SOL    HW127284   1.297   4.573   5.030
 8795SOL    HW227285   1.241   4.657   4.902
 8796SOL     OW27286   5.840   2.856   2.668
 8796SOL    HW127287   5.851   2.926   2.598
 8796SOL    HW227288   5.742   2.845   2.689
 8797SOL     OW27289   0.219   0.038   5.360
 8797SOL    HW127290   0.256   7.023   5.277
 8797SOL    HW227291   0.119   0.044   5.353
 8798SOL     OW27292   4.348   6.123   6.381
 8798SOL    HW127293   4.297   6.048   6.338
 8798SOL    HW227294   4.345   6.203   6.321
 8799SOL     OW27295   2.490   5.252   3.044
 8799SOL    HW127296   2.502   5.255   3.144
 8799SOL    HW227297   2.578   5.232   3.001
 8800SOL     OW27298   5.453   5.476   6.291
 8800SOL    HW127299   5.376   5.538   6.303
 8800SOL    HW227300   5.422   5.390   6.251
 8801SOL     OW27301   6.092   1.853   4.573
 8801SOL    HW127302   6.017   1.795   4.603
 8801SOL    HW227303   6.172   1.838   4.631
 8802SOL     OW27304   1.899   5.837   5.818
 8802SOL    HW127305   1.912   5.745   5.783
 8802SOL    HW227306   1.850   5.833   5.906
 8803SOL     OW27307   7.006   0.059   6.791
 8803SOL    HW127308   6.914   0.080   6.758
 8803SOL    HW227309   0.007   6.992   6.762
 8804SOL     OW27310   2.433   6.110   1.347
 8804SOL    HW127311   2.371   6.033   1.365
 8804SOL    HW227312   2.523   6.074   1.321
 8805SOL     OW27313   3.685   5.510   3.102
 8805SOL    HW127314   3.644   5.551   3.184
 8805SOL    HW227315   3.778   5.480   3.124
 8806SOL     OW27316   2.458   5.046   0.933
 8806SOL    HW127317   2.444   5.000   1.021
 8806SOL    HW227318   2.536   5.007   0.886
 8807SOL     OW27319   4.204   1.579   0.507
 8807SOL    HW127320   4.283   1.631   0.540
 8807SOL    HW227321   4.232   1.486   0.484
 8808SOL     OW27322   6.751   2.402   5.793
 8808SOL    HW127323   6.850   2.396   5.788
 8808SOL    HW227324   6.723   2.400   5.889
 8809SOL     OW27325   2.289   4.646   3.535
 8809SOL    HW127326   2.232   4.584   3.589
 8809SOL    HW227327   2.336   4.595   3.463
 8810SOL     OW27328   5.726   1.383   4.961
 8810SOL    HW127329   5.705   1.474   4.995
 8810SOL    HW227330   5.685   1.370   4.871
 8811SOL     OW27331   3.022   0.360   2.646
 8811SOL    HW127332   2.936   0.409   2.654
 8811SOL    HW227333   3.005   0.261   2.645
 8812SOL     OW27334   2.653   0.501   0.767
 8812SOL    HW127335   2.744   0.511   0.806
 8812SOL    HW227336   2.630   0.404   0.759
 8813SOL     OW27337   1.710   5.164   3.097
 8813SOL    HW127338   1.740   5.209   3.181
 8813SOL    HW227339   1.638   5.217   3.053
 8814SOL     OW27340   6.008   7.005   0.828
 8814SOL    HW127341   5.983   6.914   0.863
 8814SOL    HW227342   5.938   0.011   0.763
 8815SOL     OW27343   5.567   6.585   1.058
 8815SOL    HW127344   5.525   6.592   1.148
 8815SOL    HW227345   5.509   6.629   0.990
 8816SOL     OW27346   0.924   6.719   6.359
 8816SOL    HW127347   0.865   6.651   6.316
 8816SOL    HW227348   0.877   6.759   6.437
 8817SOL     OW27349   0.137   4.285   3.919
 8817SOL    HW127350   0.223   4.321   3.953
 8817SOL    HW227351   0.129   4.304   3.821
 8818SOL     OW27352   1.106   6.189   3.688
 8818SOL    HW127353   1.076   6.095   3.671
 8818SOL    HW227354   1.197   6.203   3.649
 8819SOL     OW27355   6.470   4.252   6.310
 8819SOL    HW127356   6.421   4.227   6.227
 8819SOL    HW227357   6.553   4.196   6.318
 8820SOL     OW27358   3.071   1.673   4.913
 8820SOL    HW127359   3.101   1.764   4.882
 8820SOL    HW227360   2.971   1.670   4.915
 8821SOL     OW27361   1.304   5.757   0.808
 8821SOL    HW127362   1.263   5.715   0.889
 8821SOL    HW227363   1.322   5.688   0.739
 8822SOL     OW27364   0.446   0.363   3.796
 8822SOL    HW127365   0.376   0.345   3.865
 8822SOL    HW227366   0.511   0.286   3.795
 8823SOL     OW27367   2.013   1.375   2.148
 8823SOL    HW127368   2.103   1.409   2.122
 8823SOL    HW227369   2.004   1.375   2.247
 8824SOL     OW27370   1.394   0.781   0.567
 8824SOL    HW127371   1.328   0.764   0.494
 8824SOL    HW227372   1.478   0.731   0.548
 8825SOL     OW27373   0.992   1.583   1.536
 8825SOL    HW127374   0.911   1.610   1.588
 8825SOL    HW227375   1.032   1.664   1.491
 8826SOL     OW27376   0.959   3.345   0.950
 8826SOL    HW127377   1.010   3.339   0.864
 8826SOL    HW227378   1.010   3.401   1.015
 8827SOL     OW27379   3.784   0.120   3.496
 8827SOL    HW127380   3.763   0.121   3.398
 8827SOL    HW227381   3.867   0.172   3.513
 8828SOL     OW27382   4.126   4.986   6.718
 8828SOL    HW127383   4.200   4.940   6.669
 8828SOL    HW227384   4.046   4.994   6.658
 8829SOL     OW27385   5.432   1.322   1.578
 8829SOL    HW127386   5.502   1.261   1.613
 8829SOL    HW227387   5.471   1.380   1.506
 8830SOL     OW27388   2.012   1.361   2.444
 8830SOL    HW127389   2.035   1.440   2.501
 8830SOL    HW227390   2.072   1.285   2.466
 8831SOL     OW27391   6.153   2.437   2.545
 8831SOL    HW127392   6.125   2.353   2.498
 8831SOL    HW227393   6.078   2.503   2.543
 8832SOL     OW27394   6.772   6.183   4.122
 8832SOL    HW127395   6.815   6.198   4.211
 8832SOL    HW227396   6.673   6.173   4.134
 8833SOL     OW27397   3.899   4.012   6.312
 8833SOL    HW127398   3.969   4.084   6.317
 8833SOL    HW227399   3.943   3.925   6.289
 8834SOL     OW27400   5.622   4.112   4.668
 8834SOL    HW127401   5.677   4.137   4.748
 8834SOL    HW227402   5.580   4.022   4.683
 8835SOL     OW27403   5.567   0.910   6.244
 8835SOL    HW127404   5.491   0.848   6.225
 8835SOL    HW227405   5.544   0.968   6.322
 8836SOL     OW27406   4.743   2.268   1.313
 8836SOL    HW127407   4.681   2.298   1.240
 8836SOL    HW227408   4.835   2.304   1.294
 8837SOL     OW27409   0.097   0.341   2.261
 8837SOL    HW127410   0.150   0.283   2.200
 8837SOL    HW227411   0.154   0.418   2.291
 8838SOL     OW27412   1.723   4.077   3.119
 8838SOL    HW127413   1.637   4.031   3.096
 8838SOL    HW227414   1.706   4.144   3.192
 8839SOL     OW27415   3.602   6.307   1.952
 8839SOL    HW127416   3.659   6.313   1.869
 8839SOL    HW227417   3.660   6.321   2.032
 8840SOL     OW27418   6.874   0.509   2.487
 8840SOL    HW127419   6.816   0.452   2.430
 8840SOL    HW227420   6.919   0.579   2.431
 8841SOL     OW27421   6.174   1.611   3.583
 8841SOL    HW127422   6.135   1.666   3.657
 8841SOL    HW227423   6.201   1.671   3.508
 8842SOL     OW27424   3.193   3.646   3.563
 8842SOL    HW127425   3.274   3.695   3.595
 8842SOL    HW227426   3.211   3.548   3.564
 8843SOL     OW27427   1.816   3.661   4.119
 8843SOL    HW127428   1.868   3.682   4.202
 8843SOL    HW227429   1.778   3.746   4.082
 8844SOL     OW27430   6.782   1.408   4.656
 8844SOL    HW127431   6.708   1.355   4.616
 8844SOL    HW227432   6.795   1.492   4.603
 8845SOL     OW27433   2.511   4.090   0.659
 8845SOL    HW127434   2.443   4.144   0.708
 8845SOL    HW227435   2.465   4.015   0.611
 8846SOL     OW27436   3.961   5.031   3.988
 8846SOL    HW127437   3.900   4.994   3.918
 8846SOL    HW227438   4.054   5.001   3.971
 8847SOL     OW27439   2.256   1.641   3.705
 8847SOL    HW127440   2.164   1.605   3.690
 8847SOL    HW227441   2.315   1.612   3.629
 8848SOL     OW27442   2.658   1.710   2.493
 8848SOL    HW127443   2.705   1.691   2.407
 8848SOL    HW227444   2.645   1.625   2.544
 8849SOL     OW27445   3.213   4.898   2.926
 8849SOL    HW127446   3.133   4.918   2.870
 8849SOL    HW227447   3.199   4.811   2.973
 8850SOL     OW27448   2.956   1.507   0.291
 8850SOL    HW127449   2.966   1.467   0.200
 8850SOL    HW227450   3.046   1.530   0.328
 8851SOL     OW27451   1.282   4.887   2.094
 8851SOL    HW127452   1.272   4.788   2.101
 8851SOL    HW227453   1.236   4.919   2.011
 8852SOL     OW27454   4.298   3.390   5.987
 8852SOL    HW127455   4.327   3.294   5.987
 8852SOL    HW227456   4.374   3.448   6.014
 8853SOL     OW27457   3.072   0.239   5.250
 8853SOL    HW127458   3.064   0.320   5.309
 8853SOL    HW227459   3.161   0.197   5.264
 8854SOL     OW27460   2.513   0.933   6.487
 8854SOL    HW127461   2.459   0.978   6.558
 8854SOL    HW227462   2.454   0.870   6.436
 8855SOL     OW27463   6.923   6.006   0.154
 8855SOL    HW127464   6.867   5.923   0.158
 8855SOL    HW227465   6.948   6.023   0.058
 8856SOL     OW27466   5.540   0.580   6.123
 8856SOL    HW127467   5.582   0.497   6.160
 8856SOL    HW227468   5.503   0.635   6.198
 8857SOL     OW27469   6.676   1.764   3.800
 8857SOL    HW127470   6.726   1.760   3.887
 8857SOL    HW227471   6.619   1.682   3.791
 8858SOL     OW27472   1.509   2.597   6.018
 8858SOL    HW127473   1.580   2.662   6.044
 8858SOL    HW227474   1.496   2.600   5.919
 8859SOL     OW27475   0.133   0.449   4.636
 8859SOL    HW127476   0.155   0.367   4.688
 8859SOL    HW227477   0.096   0.423   4.546
 8860SOL     OW27478   1.753   3.626   2.972
 8860SOL    HW127479   1.693   3.600   2.896
 8860SOL    HW227480   1.771   3.546   3.030
 8861SOL     OW27481   3.727   2.293   5.924
 8861SOL    HW127482   3.746   2.224   5.995
 8861SOL    HW227483   3.764   2.381   5.953
 8862SOL     OW27484   6.227   0.869   3.687
 8862SOL    HW127485   6.325   0.853   3.696
 8862SOL    HW227486   6.180   0.839   3.770
 8863SOL     OW27487   1.749   5.784   4.428
 8863SOL    HW127488   1.734   5.869   4.479
 8863SOL    HW227489   1.762   5.709   4.493
 8864SOL     OW27490   2.068   3.061   6.091
 8864SOL    HW127491   2.106   3.016   6.172
 8864SOL    HW227492   2.136   3.062   6.018
 8865SOL     OW27493   3.576   1.765   5.894
 8865SOL    HW127494   3.520   1.686   5.921
 8865SOL    HW227495   3.565   1.781   5.796
 8866SOL     OW27496   5.432   6.928   4.412
 8866SOL    HW127497   5.357   6.977   4.367
 8866SOL    HW227498   5.517   6.945   4.362
 8867SOL     OW27499   5.172   3.696   3.190
 8867SOL    HW127500   5.115   3.620   3.222
 8867SOL    HW227501   5.177   3.767   3.260
 8868SOL     OW27502   6.376   3.432   0.701
 8868SOL    HW127503   6.368   3.333   0.689
 8868SOL    HW227504   6.356   3.456   0.796
 8869SOL     OW27505   4.655   5.767   3.750
 8869SOL    HW127506   4.579   5.773   3.685
 8869SOL    HW227507   4.668   5.672   3.777
 8870SOL     OW27508   4.185   0.085   0.442
 8870SOL    HW127509   4.126   0.033   0.504
 8870SOL    HW227510   4.271   0.106   0.488
 8871SOL     OW27511   1.798   0.925   4.118
 8871SOL    HW127512   1.884   0.876   4.125
 8871SOL    HW227513   1.805   0.995   4.048
 8872SOL     OW27514   1.471   4.265   4.826
 8872SOL    HW127515   1.514   4.285   4.738
 8872SOL    HW227516   1.522   4.311   4.899
 8873SOL     OW27517   7.016   5.038   1.802
 8873SOL    HW127518   6.917   5.026   1.813
 8873SOL    HW227519   0.037   5.009   1.886
 8874SOL     OW27520   2.721   6.315   1.522
 8874SOL    HW127521   2.816   6.295   1.497
 8874SOL    HW227522   2.697   6.267   1.606
 8875SOL     OW27523   0.004   3.133   4.825
 8875SOL    HW127524   7.014   3.035   4.811
 8875SOL    HW227525   7.014   3.181   4.738
 8876SOL     OW27526   1.944   0.315   4.190
 8876SOL    HW127527   1.852   0.318   4.152
 8876SOL    HW227528   1.966   0.221   4.218
 8877SOL     OW27529   2.388   1.530   4.220
 8877SOL    HW127530   2.441   1.445   4.210
 8877SOL    HW227531   2.303   1.510   4.268
 8878SOL     OW27532   0.394   5.835   0.746
 8878SOL    HW127533   0.325   5.905   0.765
 8878SOL    HW227534   0.349   5.753   0.710
 8879SOL     OW27535   5.483   5.098   1.038
 8879SOL    HW127536   5.412   5.035   1.007
 8879SOL    HW227537   5.523   5.064   1.124
 8880SOL     OW27538   6.335   5.550   4.441
 8880SOL    HW127539   6.356   5.647   4.429
 8880SOL    HW227540   6.281   5.518   4.364
 8881SOL     OW27541   6.160   6.778   4.698
 8881SOL    HW127542   6.096   6.847   4.666
 8881SOL    HW227543   6.194   6.803   4.789
 8882SOL     OW27544   5.339   1.310   0.459
 8882SOL    HW127545   5.328   1.380   0.529
 8882SOL    HW227546   5.268   1.320   0.389
 8883SOL     OW27547   1.424   0.319   5.287
 8883SOL    HW127548   1.496   0.377   5.249
 8883SOL    HW227549   1.349   0.311   5.222
 8884SOL     OW27550   6.225   4.854   6.316
 8884SOL    HW127551   6.227   4.808   6.227
 8884SOL    HW227552   6.293   4.928   6.317
 8885SOL     OW27553   0.245   3.159   0.785
 8885SOL    HW127554   0.261   3.088   0.716
 8885SOL    HW227555   0.169   3.217   0.757
 8886SOL     OW27556   3.789   6.489   5.534
 8886SOL    HW127557   3.875   6.453   5.498
 8886SOL    HW227558   3.807   6.540   5.618
 8887SOL     OW27559   3.202   1.233   1.518
 8887SOL    HW127560   3.254   1.305   1.565
 8887SOL    HW227561   3.197   1.152   1.576
 8888SOL     OW27562   1.607   1.931   0.972
 8888SOL    HW127563   1.563   1.904   0.887
 8888SOL    HW227564   1.677   1.864   0.996
 8889SOL     OW27565   5.888   6.926   5.449
 8889SOL    HW127566   5.882   7.022   5.475
 8889SOL    HW227567   5.920   6.918   5.355
 8890SOL     OW27568   5.807   5.438   4.149
 8890SOL    HW127569   5.726   5.380   4.162
 8890SOL    HW227570   5.889   5.381   4.147
 8891SOL     OW27571   5.367   3.446   5.536
 8891SOL    HW127572   5.327   3.443   5.444
 8891SOL    HW227573   5.429   3.524   5.542
 8892SOL     OW27574   3.651   5.815   2.657
 8892SOL    HW127575   3.620   5.753   2.729
 8892SOL    HW227576   3.692   5.762   2.583
 8893SOL     OW27577   0.682   0.163   2.633
 8893SOL    HW127578   0.697   0.086   2.571
 8893SOL    HW227579   0.587   0.194   2.626
 8894SOL     OW27580   4.287   2.165   5.658
 8894SOL    HW127581   4.287   2.149   5.559
 8894SOL    HW227582   4.323   2.256   5.677
 8895SOL     OW27583   6.413   2.032   1.466
 8895SOL    HW127584   6.422   1.940   1.428
 8895SOL    HW227585   6.428   2.100   1.393
 8896SOL     OW27586   1.765   2.949   5.249
 8896SOL    HW127587   1.673   2.977   5.277
 8896SOL    HW227588   1.772   2.951   5.149
 8897SOL     OW27589   1.812   2.723   3.494
 8897SOL    HW127590   1.759   2.675   3.424
 8897SOL    HW227591   1.797   2.821   3.486
 8898SOL     OW27592   5.830   3.881   4.549
 8898SOL    HW127593   5.774   3.955   4.587
 8898SOL    HW227594   5.918   3.918   4.518
 8899SOL     OW27595   2.121   4.807   7.012
 8899SOL    HW127596   2.030   4.845   0.003
 8899SOL    HW227597   2.170   4.799   0.074
 8900SOL     OW27598   5.521   2.629   2.561
 8900SOL    HW127599   5.460   2.556   2.591
 8900SOL    HW227600   5.606   2.589   2.526
 8901SOL     OW27601   2.151   1.435   4.321
 8901SOL    HW127602   2.118   1.370   4.252
 8901SOL    HW227603   2.081   1.449   4.390
 8902SOL     OW27604   3.331   6.692   6.811
 8902SOL    HW127605   3.250   6.634   6.821
 8902SOL    HW227606   3.361   6.724   6.901
 8903SOL     OW27607   0.465   1.295   4.900
 8903SOL    HW127608   0.527   1.222   4.869
 8903SOL    HW227609   0.405   1.260   4.972
 8904SOL     OW27610   5.846   5.560   3.878
 8904SOL    HW127611   5.809   5.570   3.970
 8904SOL    HW227612   5.945   5.543   3.883
 8905SOL     OW27613   2.111   3.709   4.282
 8905SOL    HW127614   2.125   3.777   4.354
 8905SOL    HW227615   2.014   3.687   4.275
 8906SOL     OW27616   6.839   6.619   6.840
 8906SOL    HW127617   6.890   6.542   6.880
 8906SOL    HW227618   6.815   6.684   6.912
 8907SOL     OW27619   3.367   1.756   4.687
 8907SOL    HW127620   3.438   1.691   4.660
 8907SOL    HW227621   3.370   1.836   4.627
 8908SOL     OW27622   1.317   3.406   6.467
 8908SOL    HW127623   1.381   3.416   6.543
 8908SOL    HW227624   1.301   3.309   6.449
 8909SOL     OW27625   1.713   0.985   5.462
 8909SOL    HW127626   1.655   1.045   5.516
 8909SOL    HW227627   1.809   1.007   5.481
 8910SOL     OW27628   1.176   3.245   6.287
 8910SOL    HW127629   1.147   3.339   6.304
 8910SOL    HW227630   1.271   3.245   6.256
 8911SOL     OW27631   4.396   2.362   4.866
 8911SOL    HW127632   4.323   2.411   4.913
 8911SOL    HW227633   4.415   2.407   4.778
 8912SOL     OW27634   4.445   1.726   0.929
 8912SOL    HW127635   4.461   1.774   1.016
 8912SOL    HW227636   4.510   1.650   0.921
 8913SOL     OW27637   4.794   5.037   0.359
 8913SOL    HW127638   4.731   4.966   0.389
 8913SOL    HW227639   4.816   5.024   0.262
 8914SOL     OW27640   4.217   1.165   5.167
 8914SOL    HW127641   4.220   1.252   5.116
 8914SOL    HW227642   4.285   1.102   5.130
 8915SOL     OW27643   0.795   2.176   3.598
 8915SOL    HW127644   0.716   2.174   3.660
 8915SOL    HW227645   0.875   2.211   3.646
 8916SOL     OW27646   0.291   3.569   0.998
 8916SOL    HW127647   0.371   3.510   1.004
 8916SOL    HW227648   0.215   3.519   0.957
 8917SOL     OW27649   6.150   4.363   6.225
 8917SOL    HW127650   6.133   4.387   6.130
 8917SOL    HW227651   6.178   4.268   6.232
 8918SOL     OW27652   0.162   4.120   1.409
 8918SOL    HW127653   0.177   4.054   1.483
 8918SOL    HW227654   0.202   4.085   1.324
 8919SOL     OW27655   4.140   3.733   1.196
 8919SOL    HW127656   4.220   3.741   1.256
 8919SOL    HW227657   4.085   3.816   1.202
 8920SOL     OW27658   0.794   6.365   6.451
 8920SOL    HW127659   0.859   6.394   6.521
 8920SOL    HW227660   0.787   6.435   6.381
 8921SOL     OW27661   2.505   2.128   2.767
 8921SOL    HW127662   2.499   2.220   2.729
 8921SOL    HW227663   2.579   2.124   2.834
 8922SOL     OW27664   3.286   5.226   1.679
 8922SOL    HW127665   3.229   5.171   1.740
 8922SOL    HW227666   3.300   5.177   1.593
 8923SOL     OW27667   1.407   3.665   5.717
 8923SOL    HW127668   1.409   3.756   5.758
 8923SOL    HW227669   1.313   3.642   5.692
 8924SOL     OW27670   3.284   5.712   5.535
 8924SOL    HW127671   3.303   5.799   5.491
 8924SOL    HW227672   3.275   5.640   5.466
 8925SOL     OW27673   0.707   0.666   2.831
 8925SOL    HW127674   0.655   0.738   2.878
 8925SOL    HW227675   0.655   0.634   2.752
 8926SOL     OW27676   5.674   3.829   6.426
 8926SOL    HW127677   5.765   3.865   6.449
 8926SOL    HW227678   5.651   3.755   6.489
 8927SOL     OW27679   1.105   1.453   4.434
 8927SOL    HW127680   1.122   1.495   4.345
 8927SOL    HW227681   1.058   1.519   4.493
 8928SOL     OW27682   6.567   0.994   5.537
 8928SOL    HW127683   6.620   1.030   5.460
 8928SOL    HW227684   6.486   1.050   5.551
 8929SOL     OW27685   6.788   3.334   3.957
 8929SOL    HW127686   6.821   3.239   3.962
 8929SOL    HW227687   6.784   3.372   4.049
 8930SOL     OW27688   2.016   4.183   3.949
 8930SOL    HW127689   2.066   4.159   3.866
 8930SOL    HW227690   2.028   4.110   4.017
 8931SOL     OW27691   3.072   3.014   1.345
 8931SOL    HW127692   3.145   3.067   1.387
 8931SOL    HW227693   3.064   2.926   1.392
 8932SOL     OW27694   5.156   0.465   0.341
 8932SOL    HW127695   5.076   0.419   0.303
 8932SOL    HW227696   5.184   0.538   0.279
 8933SOL     OW27697   1.026   2.213   5.993
 8933SOL    HW127698   1.029   2.251   6.086
 8933SOL    HW227699   1.091   2.261   5.935
 8934SOL     OW27700   3.362   5.465   4.015
 8934SOL    HW127701   3.456   5.482   3.983
 8934SOL    HW227702   3.298   5.520   3.962
 8935SOL     OW27703   5.624   3.901   1.512
 8935SOL    HW127704   5.707   3.847   1.501
 8935SOL    HW227705   5.611   3.924   1.608
 8936SOL     OW27706   1.069   3.488   1.159
 8936SOL    HW127707   1.008   3.450   1.227
 8936SOL    HW227708   1.085   3.585   1.178
 8937SOL     OW27709   0.356   0.598   4.513
 8937SOL    HW127710   0.352   0.587   4.612
 8937SOL    HW227711   0.265   0.615   4.477
 8938SOL     OW27712   6.801   0.978   0.166
 8938SOL    HW127713   6.843   1.061   0.131
 8938SOL    HW227714   6.757   0.997   0.254
 8939SOL     OW27715   6.549   3.493   4.297
 8939SOL    HW127716   6.497   3.451   4.223
 8939SOL    HW227717   6.556   3.591   4.281
 8940SOL     OW27718   6.179   1.887   1.228
 8940SOL    HW127719   6.119   1.905   1.305
 8940SOL    HW227720   6.187   1.970   1.172
 8941SOL     OW27721   6.393   2.751   2.292
 8941SOL    HW127722   6.375   2.706   2.204
 8941SOL    HW227723   6.306   2.767   2.339
 8942SOL     OW27724   0.734   6.112   4.179
 8942SOL    HW127725   0.724   6.047   4.103
 8942SOL    HW227726   0.821   6.160   4.171
 8943SOL     OW27727   4.002   5.296   0.187
 8943SOL    HW127728   3.929   5.350   0.145
 8943SOL    HW227729   4.079   5.288   0.123
 8944SOL     OW27730   5.168   5.637   4.570
 8944SOL    HW127731   5.113   5.621   4.488
 8944SOL    HW227732   5.111   5.683   4.639
 8945SOL     OW27733   0.022   2.275   4.233
 8945SOL    HW127734   7.018   2.300   4.325
 8945SOL    HW227735   0.092   2.339   4.201
 8946SOL     OW27736   4.014   0.931   3.926
 8946SOL    HW127737   3.981   0.994   3.856
 8946SOL    HW227738   3.938   0.903   3.985
 8947SOL     OW27739   1.687   3.223   5.518
 8947SOL    HW127740   1.769   3.174   5.547
 8947SOL    HW227741   1.611   3.202   5.580
 8948SOL     OW27742   5.874   5.871   3.317
 8948SOL    HW127743   5.956   5.836   3.273
 8948SOL    HW227744   5.828   5.796   3.365
 8949SOL     OW27745   4.166   5.678   0.774
 8949SOL    HW127746   4.256   5.693   0.734
 8949SOL    HW227747   4.125   5.596   0.732
 8950SOL     OW27748   4.158   2.895   1.208
 8950SOL    HW127749   4.077   2.836   1.205
 8950SOL    HW227750   4.149   2.967   1.139
 8951SOL     OW27751   2.112   1.025   4.884
 8951SOL    HW127752   2.144   1.031   4.789
 8951SOL    HW227753   2.019   0.989   4.886
 8952SOL     OW27754   0.503   5.135   3.348
 8952SOL    HW127755   0.507   5.127   3.249
 8952SOL    HW227756   0.594   5.157   3.384
 8953SOL     OW27757   1.446   4.810   0.866
 8953SOL    HW127758   1.361   4.760   0.850
 8953SOL    HW227759   1.491   4.828   0.779
 8954SOL     OW27760   0.186   6.998   4.175
 8954SOL    HW127761   0.259   6.938   4.142
 8954SOL    HW227762   0.118   7.010   4.102
 8955SOL     OW27763   0.093   3.963   2.991
 8955SOL    HW127764   0.137   4.042   2.948
 8955SOL    HW227765   0.150   3.931   3.067
 8956SOL     OW27766   1.574   0.361   5.752
 8956SOL    HW127767   1.576   0.286   5.818
 8956SOL    HW227768   1.649   0.351   5.687
 8957SOL     OW27769   2.234   4.730   1.178
 8957SOL    HW127770   2.225   4.662   1.105
 8957SOL    HW227771   2.302   4.699   1.244
 8958SOL     OW27772   1.186   2.372   5.775
 8958SOL    HW127773   1.227   2.309   5.709
 8958SOL    HW227774   1.181   2.464   5.736
 8959SOL     OW27775   1.554   3.688   2.500
 8959SOL    HW127776   1.652   3.665   2.502
 8959SOL    HW227777   1.516   3.675   2.592
 8960SOL     OW27778   5.789   5.025   4.093
 8960SOL    HW127779   5.815   5.086   4.019
 8960SOL    HW227780   5.764   4.935   4.056
 8961SOL     OW27781   4.090   1.488   3.617
 8961SOL    HW127782   4.126   1.448   3.533
 8961SOL    HW227783   4.000   1.528   3.599
 8962SOL     OW27784   6.651   5.388   1.547
 8962SOL    HW127785   6.680   5.484   1.542
 8962SOL    HW227786   6.649   5.359   1.643
 8963SOL     OW27787   3.841   6.750   5.288
 8963SOL    HW127788   3.782   6.688   5.237
 8963SOL    HW227789   3.914   6.697   5.332
 8964SOL     OW27790   5.723   3.164   2.807
 8964SOL    HW127791   5.698   3.251   2.850
 8964SOL    HW227792   5.755   3.100   2.877
 8965SOL     OW27793   3.383   4.823   6.940
 8965SOL    HW127794   3.344   4.900   6.991
 8965SOL    HW227795   3.447   4.858   6.871
 8966SOL     OW27796   6.781   4.422   0.241
 8966SOL    HW127797   6.740   4.493   0.183
 8966SOL    HW227798   6.743   4.333   0.216
 8967SOL     OW27799   4.056   1.446   2.977
 8967SOL    HW127800   4.029   1.366   2.924
 8967SOL    HW227801   4.133   1.492   2.933
 8968SOL     OW27802   3.199   5.924   2.564
 8968SOL    HW127803   3.224   5.851   2.628
 8968SOL    HW227804   3.246   5.910   2.477
 8969SOL     OW27805   6.975   0.418   3.759
 8969SOL    HW127806   0.013   0.388   3.831
 8969SOL    HW227807   6.997   0.371   3.674
 8970SOL     OW27808   1.133   2.115   6.861
 8970SOL    HW127809   1.046   2.132   6.907
 8970SOL    HW227810   1.198   2.076   6.926
 8971SOL     OW27811   5.524   6.692   1.639
 8971SOL    HW127812   5.477   6.758   1.698
 8971SOL    HW227813   5.456   6.646   1.582
 8972SOL     OW27814   5.292   4.119   0.695
 8972SOL    HW127815   5.375   4.151   0.650
 8972SOL    HW227816   5.315   4.042   0.755
 8973SOL     OW27817   0.301   3.253   2.464
 8973SOL    HW127818   0.302   3.319   2.389
 8973SOL    HW227819   0.245   3.288   2.539
 8974SOL     OW27820   1.924   3.212   4.101
 8974SOL    HW127821   1.863   3.274   4.051
 8974SOL    HW227822   1.883   3.121   4.105
 8975SOL     OW27823   0.733   5.908   6.620
 8975SOL    HW127824   0.827   5.945   6.620
 8975SOL    HW227825   0.695   5.915   6.712
 8976SOL     OW27826   0.177   5.444   0.541
 8976SOL    HW127827   0.266   5.403   0.561
 8976SOL    HW227828   0.185   5.505   0.462
 8977SOL     OW27829   6.584   3.982   6.923
 8977SOL    HW127830   6.565   3.952   6.830
 8977SOL    HW227831   6.640   4.065   6.920
 8978SOL     OW27832   5.383   0.109   4.778
 8978SOL    HW127833   5.474   0.109   4.738
 8978SOL    HW227834   5.351   0.015   4.788
 8979SOL     OW27835   1.684   5.307   5.667
 8979SOL    HW127836   1.720   5.357   5.588
 8979SOL    HW227837   1.742   5.229   5.686
 8980SOL     OW27838   5.341   2.466   5.904
 8980SOL    HW127839   5.334   2.397   5.832
 8980SOL    HW227840   5.346   2.557   5.863
 8981SOL     OW27841   5.306   1.811   5.434
 8981SOL    HW127842   5.253   1.879   5.485
 8981SOL    HW227843   5.243   1.746   5.390
 8982SOL     OW27844   0.336   1.886   1.081
 8982SOL    HW127845   0.371   1.877   0.988
 8982SOL    HW227846   0.377   1.966   1.125
 8983SOL     OW27847   0.643   5.456   0.842
 8983SOL    HW127848   0.723   5.467   0.784
 8983SOL    HW227849   0.615   5.545   0.878
 8984SOL     OW27850   6.769   6.781   4.044
 8984SOL    HW127851   6.783   6.685   4.068
 8984SOL    HW227852   6.684   6.814   4.086
 8985SOL     OW27853   2.790   1.971   1.777
 8985SOL    HW127854   2.829   1.886   1.741
 8985SOL    HW227855   2.847   2.005   1.852
 8986SOL     OW27856   4.804   4.981   2.852
 8986SOL    HW127857   4.777   5.002   2.759
 8986SOL    HW227858   4.815   4.882   2.862
 8987SOL     OW27859   2.972   6.852   1.428
 8987SOL    HW127860   2.973   6.755   1.454
 8987SOL    HW227861   2.920   6.904   1.495
 8988SOL     OW27862   1.831   5.097   0.189
 8988SOL    HW127863   1.819   5.196   0.175
 8988SOL    HW227864   1.824   5.077   0.286
 8989SOL     OW27865   4.986   3.272   2.510
 8989SOL    HW127866   5.044   3.274   2.429
 8989SOL    HW227867   4.890   3.278   2.483
 8990SOL     OW27868   2.347   5.678   1.568
 8990SOL    HW127869   2.324   5.680   1.471
 8990SOL    HW227870   2.309   5.759   1.613
 8991SOL     OW27871   2.632   1.306   1.543
 8991SOL    HW127872   2.727   1.325   1.567
 8991SOL    HW227873   2.609   1.357   1.460
 8992SOL     OW27874   0.006   2.855   0.042
 8992SOL    HW127875   0.067   2.903   0.104
 8992SOL    HW227876   6.989   2.920   7.003
 8993SOL     OW27877   4.676   2.678   3.115
 8993SOL    HW127878   4.736   2.749   3.150
 8993SOL    HW227879   4.686   2.673   3.015
 8994SOL     OW27880   1.286   5.700   3.683
 8994SOL    HW127881   1.372   5.650   3.691
 8994SOL    HW227882   1.247   5.713   3.774
 8995SOL     OW27883   1.551   2.129   5.938
 8995SOL    HW127884   1.582   2.223   5.921
 8995SOL    HW227885   1.579   2.101   6.030
 8996SOL     OW27886   0.667   4.330   1.860
 8996SOL    HW127887   0.670   4.390   1.780
 8996SOL    HW227888   0.572   4.309   1.883
 8997SOL     OW27889   4.657   1.044   6.735
 8997SOL    HW127890   4.587   1.068   6.668
 8997SOL    HW227891   4.663   0.945   6.744
 8998SOL     OW27892   0.578   1.697   4.757
 8998SOL    HW127893   0.520   1.761   4.707
 8998SOL    HW227894   0.631   1.642   4.691
 8999SOL     OW27895   4.402   0.450   0.197
 8999SOL    HW127896   4.349   0.425   0.115
 8999SOL    HW227897   4.339   0.479   0.269
 9000SOL     OW27898   2.444   3.708   6.322
 9000SOL    HW127899   2.470   3.711   6.226
 9000SOL    HW227900   2.494   3.778   6.373
 9001SOL     OW27901   1.555   5.342   2.941
 9001SOL    HW127902   1.510   5.310   2.857
 9001SOL    HW227903   1.530   5.437   2.957
 9002SOL     OW27904   0.727   5.199   5.428
 9002SOL    HW127905   0.771   5.273   5.376
 9002SOL    HW227906   0.769   5.112   5.405
 9003SOL     OW27907   5.803   3.089   1.395
 9003SOL    HW127908   5.781   3.187   1.393
 9003SOL    HW227909   5.732   3.041   1.447
 9004SOL     OW27910   4.506   6.686   1.471
 9004SOL    HW127911   4.431   6.651   1.415
 9004SOL    HW227912   4.565   6.609   1.498
 9005SOL     OW27913   6.300   1.489   4.103
 9005SOL    HW127914   6.391   1.470   4.140
 9005SOL    HW227915   6.307   1.555   4.028
 9006SOL     OW27916   1.435   6.182   1.225
 9006SOL    HW127917   1.486   6.182   1.139
 9006SOL    HW227918   1.467   6.258   1.283
 9007SOL     OW27919   3.799   5.640   3.512
 9007SOL    HW127920   3.824   5.731   3.544
 9007SOL    HW227921   3.718   5.646   3.454
 9008SOL     OW27922   6.575   5.362   2.941
 9008SOL    HW127923   6.478   5.375   2.919
 9008SOL    HW227924   6.599   5.416   3.021
 9009SOL     OW27925   3.350   6.566   0.648
 9009SOL    HW127926   3.281   6.562   0.576
 9009SOL    HW227927   3.423   6.627   0.621
 9010SOL     OW27928   1.042   6.646   4.888
 9010SOL    HW127929   1.048   6.628   4.790
 9010SOL    HW227930   1.072   6.739   4.907
 9011SOL     OW27931   3.867   1.863   1.458
 9011SOL    HW127932   3.796   1.808   1.415
 9011SOL    HW227933   3.828   1.914   1.535
 9012SOL     OW27934   2.805   5.334   1.250
 9012SOL    HW127935   2.733   5.401   1.272
 9012SOL    HW227936   2.829   5.342   1.154
 9013SOL     OW27937   6.057   5.627   4.739
 9013SOL    HW127938   5.988   5.618   4.811
 9013SOL    HW227939   6.147   5.638   4.780
 9014SOL     OW27940   1.173   1.264   0.566
 9014SOL    HW127941   1.205   1.192   0.504
 9014SOL    HW227942   1.199   1.353   0.529
 9015SOL     OW27943   6.054   0.506   0.638
 9015SOL    HW127944   6.046   0.559   0.722
 9015SOL    HW227945   5.963   0.493   0.598
 9016SOL     OW27946   6.591   6.218   6.005
 9016SOL    HW127947   6.638   6.192   5.921
 9016SOL    HW227948   6.526   6.146   6.031
 9017SOL     OW27949   5.384   2.429   3.120
 9017SOL    HW127950   5.314   2.393   3.182
 9017SOL    HW227951   5.405   2.359   3.051
 9018SOL     OW27952   4.396   1.662   5.579
 9018SOL    HW127953   4.327   1.618   5.635
 9018SOL    HW227954   4.461   1.711   5.638
 9019SOL     OW27955   1.106   6.571   0.722
 9019SOL    HW127956   1.066   6.501   0.781
 9019SOL    HW227957   1.080   6.662   0.755
 9020SOL     OW27958   1.774   3.368   1.969
 9020SOL    HW127959   1.732   3.342   1.882
 9020SOL    HW227960   1.790   3.467   1.969
 9021SOL     OW27961   6.599   0.145   3.705
 9021SOL    HW127962   6.640   0.198   3.631
 9021SOL    HW227963   6.500   0.163   3.708
 9022SOL     OW27964   2.701   0.824   1.426
 9022SOL    HW127965   2.612   0.789   1.396
 9022SOL    HW227966   2.706   0.922   1.406
 9023SOL     OW27967   3.901   3.246   3.046
 9023SOL    HW127968   3.972   3.297   3.094
 9023SOL    HW227969   3.940   3.203   2.964
 9024SOL     OW27970   1.566   5.741   5.997
 9024SOL    HW127971   1.529   5.722   6.088
 9024SOL    HW227972   1.630   5.669   5.971
 9025SOL     OW27973   6.324   6.131   0.913
 9025SOL    HW127974   6.364   6.134   0.821
 9025SOL    HW227975   6.396   6.145   0.981
 9026SOL     OW27976   3.885   3.071   3.297
 9026SOL    HW127977   3.915   3.112   3.384
 9026SOL    HW227978   3.826   3.136   3.249
 9027SOL     OW27979   3.148   2.145   3.723
 9027SOL    HW127980   3.129   2.084   3.800
 9027SOL    HW227981   3.108   2.235   3.742
 9028SOL     OW27982   2.533   4.402   6.105
 9028SOL    HW127983   2.484   4.387   6.019
 9028SOL    HW227984   2.517   4.496   6.136
 9029SOL     OW27985   3.759   5.687   4.771
 9029SOL    HW127986   3.678   5.724   4.726
 9029SOL    HW227987   3.737   5.598   4.811
 9030SOL     OW27988   1.924   1.267   2.908
 9030SOL    HW127989   1.940   1.200   2.835
 9030SOL    HW227990   1.916   1.358   2.869
 9031SOL     OW27991   4.339   5.318   5.560
 9031SOL    HW127992   4.255   5.373   5.555
 9031SOL    HW227993   4.315   5.221   5.550
 9032SOL     OW27994   4.151   2.441   0.737
 9032SOL    HW127995   4.119   2.363   0.792
 9032SOL    HW227996   4.154   2.523   0.794
 9033SOL     OW27997   1.701   3.408   4.052
 9033SOL    HW127998   1.658   3.426   3.963
 9033SOL    HW227999   1.741   3.493   4.087
 9034SOL     OW28000   2.561   6.526   4.904
 9034SOL    HW128001   2.594   6.554   4.995
 9034SOL    HW228002   2.636   6.537   4.838
 9035SOL     OW28003   0.649   6.505   5.054
 9035SOL    HW128004   0.642   6.579   4.987
 9035SOL    HW228005   0.593   6.427   5.024
 9036SOL     OW28006   1.502   1.689   4.468
 9036SOL    HW128007   1.602   1.689   4.479
 9036SOL    HW228008   1.464   1.769   4.515
 9037SOL     OW28009   1.567   4.100   6.516
 9037SOL    HW128010   1.554   4.001   6.507
 9037SOL    HW228011   1.535   4.145   6.433
 9038SOL     OW28012   5.117   0.471   5.413
 9038SOL    HW128013   5.069   0.393   5.374
 9038SOL    HW228014   5.052   0.528   5.464
 9039SOL     OW28015   1.636   4.552   4.402
 9039SOL    HW128016   1.589   4.604   4.330
 9039SOL    HW228017   1.734   4.551   4.383
 9040SOL     OW28018   2.925   1.867   3.155
 9040SOL    HW128019   3.002   1.837   3.100
 9040SOL    HW228020   2.955   1.939   3.218
 9041SOL     OW28021   0.834   1.769   2.114
 9041SOL    HW128022   0.772   1.803   2.185
 9041SOL    HW228023   0.926   1.760   2.151
 9042SOL     OW28024   3.284   5.735   3.817
 9042SOL    HW128025   3.267   5.732   3.915
 9042SOL    HW228026   3.199   5.757   3.769
 9043SOL     OW28027   2.238   1.290   5.412
 9043SOL    HW128028   2.309   1.220   5.410
 9043SOL    HW228029   2.219   1.321   5.319
 9044SOL     OW28030   6.363   1.512   1.490
 9044SOL    HW128031   6.381   1.421   1.450
 9044SOL    HW228032   6.389   1.512   1.586
 9045SOL     OW28033   3.225   1.581   2.340
 9045SOL    HW128034   3.279   1.666   2.339
 9045SOL    HW228035   3.154   1.586   2.270
 9046SOL     OW28036   3.239   3.976   4.261
 9046SOL    HW128037   3.147   3.948   4.236
 9046SOL    HW228038   3.287   3.898   4.302
 9047SOL     OW28039   1.387   3.366   5.579
 9047SOL    HW128040   1.447   3.318   5.643
 9047SOL    HW228041   1.294   3.331   5.589
 9048SOL     OW28042   6.359   3.096   6.499
 9048SOL    HW128043   6.319   3.104   6.408
 9048SOL    HW228044   6.450   3.137   6.499
 9049SOL     OW28045   4.533   6.625   6.520
 9049SOL    HW128046   4.542   6.643   6.618
 9049SOL    HW228047   4.549   6.528   6.502
 9050SOL     OW28048   1.135   5.274   5.940
 9050SOL    HW128049   1.211   5.235   5.888
 9050SOL    HW228050   1.170   5.343   6.003
 9051SOL     OW28051   4.460   6.042   0.987
 9051SOL    HW128052   4.460   5.987   1.071
 9051SOL    HW228053   4.500   6.132   1.006
 9052SOL     OW28054   2.109   3.896   4.042
 9052SOL    HW128055   2.140   3.808   4.077
 9052SOL    HW228056   2.048   3.881   3.964
 9053SOL     OW28057   2.181   2.056   3.227
 9053SOL    HW128058   2.098   2.040   3.280
 9053SOL    HW228059   2.225   2.140   3.258
 9054SOL     OW28060   1.544   0.544   1.916
 9054SOL    HW128061   1.465   0.501   1.872
 9054SOL    HW228062   1.524   0.561   2.012
 9055SOL     OW28063   0.581   3.850   3.343
 9055SOL    HW128064   0.518   3.805   3.280
 9055SOL    HW228065   0.578   3.805   3.432
 9056SOL     OW28066   5.441   0.176   2.400
 9056SOL    HW128067   5.389   0.230   2.335
 9056SOL    HW228068   5.396   0.089   2.416
 9057SOL     OW28069   5.937   5.214   5.904
 9057SOL    HW128070   5.890   5.188   5.821
 9057SOL    HW228071   5.944   5.135   5.965
 9058SOL     OW28072   2.459   1.506   3.856
 9058SOL    HW128073   2.398   1.569   3.809
 9058SOL    HW228074   2.407   1.451   3.921
 9059SOL     OW28075   0.029   1.281   4.032
 9059SOL    HW128076   0.082   1.353   4.078
 9059SOL    HW228077   0.031   1.198   4.087
 9060SOL     OW28078   0.214   4.412   2.043
 9060SOL    HW128079   0.304   4.372   2.025
 9060SOL    HW228080   0.143   4.351   2.007
 9061SOL     OW28081   4.027   5.742   2.555
 9061SOL    HW128082   4.014   5.676   2.481
 9061SOL    HW228083   3.976   5.712   2.636
 9062SOL     OW28084   1.525   4.848   2.383
 9062SOL    HW128085   1.531   4.754   2.349
 9062SOL    HW228086   1.598   4.902   2.342
 9063SOL     OW28087   2.519   0.630   2.643
 9063SOL    HW128088   2.557   0.603   2.731
 9063SOL    HW228089   2.483   0.723   2.649
 9064SOL     OW28090   6.312   4.239   4.440
 9064SOL    HW128091   6.387   4.221   4.504
 9064SOL    HW228092   6.345   4.225   4.346
 9065SOL     OW28093   3.167   5.287   6.477
 9065SOL    HW128094   3.192   5.217   6.545
 9065SOL    HW228095   3.229   5.365   6.486
 9066SOL     OW28096   5.283   0.295   6.730
 9066SOL    HW128097   5.294   0.196   6.733
 9066SOL    HW228098   5.285   0.332   6.823
 9067SOL     OW28099   5.768   6.405   5.492
 9067SOL    HW128100   5.688   6.351   5.466
 9067SOL    HW228101   5.742   6.502   5.498
 9068SOL     OW28102   3.338   0.847   5.136
 9068SOL    HW128103   3.342   0.945   5.155
 9068SOL    HW228104   3.357   0.831   5.039
 9069SOL     OW28105   3.460   2.030   1.922
 9069SOL    HW128106   3.521   2.105   1.949
 9069SOL    HW228107   3.514   1.956   1.884
 9070SOL     OW28108   0.511   3.009   5.704
 9070SOL    HW128109   0.436   3.074   5.690
 9070SOL    HW228110   0.473   2.917   5.713
 9071SOL     OW28111   5.277   6.550   0.758
 9071SOL    HW128112   5.310   6.502   0.676
 9071SOL    HW228113   5.323   6.638   0.766
 9072SOL     OW28114   5.035   0.390   1.852
 9072SOL    HW128115   5.040   0.380   1.951
 9072SOL    HW228116   5.099   0.328   1.808
 9073SOL     OW28117   3.636   6.669   1.038
 9073SOL    HW128118   3.544   6.672   0.999
 9073SOL    HW228119   3.637   6.718   1.125
 9074SOL     OW28120   1.613   0.675   0.787
 9074SOL    HW128121   1.517   0.681   0.813
 9074SOL    HW228122   1.667   0.644   0.865
 9075SOL     OW28123   0.374   7.005   1.477
 9075SOL    HW128124   0.440   6.936   1.448
 9075SOL    HW228125   0.360   0.046   1.404
 9076SOL     OW28126   5.524   1.619   4.891
 9076SOL    HW128127   5.437   1.668   4.887
 9076SOL    HW228128   5.531   1.558   4.812
 9077SOL     OW28129   5.041   1.057   6.889
 9077SOL    HW128130   4.956   1.012   6.918
 9077SOL    HW228131   5.028   1.156   6.888
 9078SOL     OW28132   4.969   3.356   0.497
 9078SOL    HW128133   4.912   3.425   0.541
 9078SOL    HW228134   5.026   3.400   0.428
 9079SOL     OW28135   1.910   6.582   4.065
 9079SOL    HW128136   2.006   6.584   4.093
 9079SOL    HW228137   1.876   6.488   4.066
 9080SOL     OW28138   5.869   2.645   6.655
 9080SOL    HW128139   5.967   2.638   6.675
 9080SOL    HW228140   5.831   2.723   6.704
 9081SOL     OW28141   3.068   0.123   2.269
 9081SOL    HW128142   3.165   0.128   2.295
 9081SOL    HW228143   3.032   0.032   2.291
 9082SOL     OW28144   2.693   6.224   5.735
 9082SOL    HW128145   2.670   6.260   5.826
 9082SOL    HW228146   2.645   6.138   5.720
 9083SOL     OW28147   3.794   4.397   5.464
 9083SOL    HW128148   3.726   4.350   5.408
 9083SOL    HW228149   3.885   4.361   5.443
 9084SOL     OW28150   1.856   2.613   6.202
 9084SOL    HW128151   1.898   2.522   6.203
 9084SOL    HW228152   1.890   2.665   6.124
 9085SOL     OW28153   1.446   5.249   0.938
 9085SOL    HW128154   1.477   5.342   0.956
 9085SOL    HW228155   1.355   5.251   0.896
 9086SOL     OW28156   6.833   3.956   1.332
 9086SOL    HW128157   6.887   4.019   1.388
 9086SOL    HW228158   6.777   4.008   1.267
 9087SOL     OW28159   4.946   3.235   2.074
 9087SOL    HW128160   4.882   3.166   2.039
 9087SOL    HW228161   4.943   3.316   2.015
 9088SOL     OW28162   6.747   6.005   0.592
 9088SOL    HW128163   6.725   6.081   0.531
 9088SOL    HW228164   6.783   6.041   0.678
 9089SOL     OW28165   4.012   5.888   5.822
 9089SOL    HW128166   3.976   5.813   5.878
 9089SOL    HW228167   3.939   5.955   5.807
 9090SOL     OW28168   6.036   6.999   3.618
 9090SOL    HW128169   6.031   0.071   3.593
 9090SOL    HW228170   5.948   6.969   3.654
 9091SOL     OW28171   2.735   3.585   0.632
 9091SOL    HW128172   2.822   3.552   0.596
 9091SOL    HW228173   2.749   3.622   0.724
 9092SOL     OW28174   0.131   1.403   0.238
 9092SOL    HW128175   0.142   1.313   0.194
 9092SOL    HW228176   0.221   1.445   0.249
 9093SOL     OW28177   1.825   6.125   6.250
 9093SOL    HW128178   1.851   6.142   6.156
 9093SOL    HW228179   1.831   6.209   6.303
 9094SOL     OW28180   0.216   4.935   3.049
 9094SOL    HW128181   0.134   4.890   3.014
 9094SOL    HW228182   0.289   4.926   2.981
 9095SOL     OW28183   3.944   3.678   5.980
 9095SOL    HW128184   3.993   3.610   6.033
 9095SOL    HW228185   4.002   3.709   5.904
 9096SOL     OW28186   5.607   4.110   1.984
 9096SOL    HW128187   5.655   4.078   2.066
 9096SOL    HW228188   5.558   4.195   2.005
 9097SOL     OW28189   0.875   2.843   6.613
 9097SOL    HW128190   0.951   2.849   6.547
 9097SOL    HW228191   0.902   2.785   6.690
 9098SOL     OW28192   4.073   2.443   0.090
 9098SOL    HW128193   4.132   2.409   0.163
 9098SOL    HW228194   3.980   2.453   0.125
 9099SOL     OW28195   3.722   3.663   0.234
 9099SOL    HW128196   3.811   3.658   0.189
 9099SOL    HW228197   3.715   3.750   0.282
 9100SOL     OW28198   0.704   3.203   3.106
 9100SOL    HW128199   0.660   3.263   3.173
 9100SOL    HW228200   0.802   3.221   3.105
 9101SOL     OW28201   2.387   2.608   3.250
 9101SOL    HW128202   2.358   2.580   3.341
 9101SOL    HW228203   2.390   2.528   3.190
 9102SOL     OW28204   2.205   7.011   1.832
 9102SOL    HW128205   2.301   0.014   1.846
 9102SOL    HW228206   2.148   0.069   1.829
 9103SOL     OW28207   6.446   3.760   0.396
 9103SOL    HW128208   6.480   3.802   0.311
 9103SOL    HW228209   6.346   3.756   0.393
 9104SOL     OW28210   5.531   6.350   2.891
 9104SOL    HW128211   5.501   6.269   2.842
 9104SOL    HW228212   5.551   6.423   2.826
 9105SOL     OW28213   1.590   1.169   0.833
 9105SOL    HW128214   1.593   1.156   0.734
 9105SOL    HW228215   1.649   1.246   0.858
 9106SOL     OW28216   6.298   4.086   0.807
 9106SOL    HW128217   6.199   4.089   0.796
 9106SOL    HW228218   6.342   4.140   0.735
 9107SOL     OW28219   3.116   0.659   6.209
 9107SOL    HW128220   3.178   0.671   6.287
 9107SOL    HW228221   3.023   0.686   6.236
 9108SOL     OW28222   5.064   4.206   5.619
 9108SOL    HW128223   5.112   4.184   5.704
 9108SOL    HW228224   5.000   4.133   5.597
 9109SOL     OW28225   0.511   2.503   2.602
 9109SOL    HW128226   0.432   2.559   2.627
 9109SOL    HW228227   0.529   2.437   2.675
 9110SOL     OW28228   2.100   3.946   3.634
 9110SOL    HW128229   2.084   3.888   3.554
 9110SOL    HW228230   2.022   3.939   3.696
 9111SOL     OW28231   4.444   1.947   0.764
 9111SOL    HW128232   4.357   1.986   0.794
 9111SOL    HW228233   4.452   1.854   0.798
 9112SOL     OW28234   0.666   4.731   4.686
 9112SOL    HW128235   0.673   4.779   4.599
 9112SOL    HW228236   0.578   4.752   4.730
 9113SOL     OW28237   4.572   0.723   1.683
 9113SOL    HW128238   4.623   0.715   1.598
 9113SOL    HW228239   4.624   0.776   1.749
 9114SOL     OW28240   1.141   4.343   1.852
 9114SOL    HW128241   1.091   4.261   1.825
 9114SOL    HW228242   1.154   4.343   1.952
 9115SOL     OW28243   0.374   4.921   5.253
 9115SOL    HW128244   0.426   4.962   5.328
 9115SOL    HW228245   0.431   4.916   5.171
 9116SOL     OW28246   6.545   1.130   0.948
 9116SOL    HW128247   6.639   1.154   0.924
 9116SOL    HW228248   6.513   1.190   1.021
 9117SOL     OW28249   6.281   2.369   0.636
 9117SOL    HW128250   6.331   2.397   0.554
 9117SOL    HW228251   6.200   2.316   0.611
 9118SOL     OW28252   6.411   4.515   0.223
 9118SOL    HW128253   6.330   4.572   0.222
 9118SOL    HW228254   6.419   4.469   0.311
 9119SOL     OW28255   4.696   0.981   1.388
 9119SOL    HW128256   4.688   1.012   1.294
 9119SOL    HW228257   4.793   0.970   1.411
 9120SOL     OW28258   6.051   1.766   6.204
 9120SOL    HW128259   6.108   1.707   6.147
 9120SOL    HW228260   6.092   1.858   6.209
 9121SOL     OW28261   2.916   1.908   5.174
 9121SOL    HW128262   2.919   1.824   5.229
 9121SOL    HW228263   2.900   1.986   5.234
 9122SOL     OW28264   1.924   4.106   2.363
 9122SOL    HW128265   1.858   4.176   2.390
 9122SOL    HW228266   1.913   4.085   2.266
 9123SOL     OW28267   2.339   0.495   4.150
 9123SOL    HW128268   2.317   0.422   4.085
 9123SOL    HW228269   2.437   0.515   4.147
 9124SOL     OW28270   5.703   6.357   6.843
 9124SOL    HW128271   5.666   6.331   6.753
 9124SOL    HW228272   5.632   6.346   6.912
 9125SOL     OW28273   4.707   4.463   1.348
 9125SOL    HW128274   4.686   4.465   1.446
 9125SOL    HW228275   4.802   4.434   1.335
 9126SOL     OW28276   5.325   3.188   2.115
 9126SOL    HW128277   5.266   3.247   2.060
 9126SOL    HW228278   5.298   3.093   2.101
 9127SOL     OW28279   6.086   1.140   5.968
 9127SOL    HW128280   6.061   1.229   6.008
 9127SOL    HW228281   6.151   1.094   6.028
 9128SOL     OW28282   5.885   1.609   5.414
 9128SOL    HW128283   5.944   1.557   5.476
 9128SOL    HW228284   5.818   1.660   5.467
 9129SOL     OW28285   0.449   2.577   0.327
 9129SOL    HW128286   0.369   2.562   0.268
 9129SOL    HW228287   0.525   2.522   0.294
 9130SOL     OW28288   0.072   3.486   6.999
 9130SOL    HW128289   0.063   3.404   0.031
 9130SOL    HW228290   0.115   3.461   6.912
 9131SOL     OW28291   6.108   2.917   5.144
 9131SOL    HW128292   6.031   2.964   5.188
 9131SOL    HW228293   6.192   2.967   5.162
 9132SOL     OW28294   0.616   5.354   4.335
 9132SOL    HW128295   0.629   5.261   4.300
 9132SOL    HW228296   0.654   5.420   4.271
 9133SOL     OW28297   4.027   5.517   1.804
 9133SOL    HW128298   4.078   5.509   1.890
 9133SOL    HW228299   3.936   5.476   1.815
 9134SOL     OW28300   5.123   5.241   0.864
 9134SOL    HW128301   5.041   5.269   0.814
 9134SOL    HW228302   5.145   5.146   0.842
 9135SOL     OW28303   6.510   6.924   1.921
 9135SOL    HW128304   6.601   6.902   1.884
 9135SOL    HW228305   6.449   6.846   1.906
 9136SOL     OW28306   5.187   5.458   6.666
 9136SOL    HW128307   5.162   5.419   6.577
 9136SOL    HW228308   5.188   5.557   6.660
 9137SOL     OW28309   5.524   1.208   1.106
 9137SOL    HW128310   5.502   1.190   1.011
 9137SOL    HW228311   5.463   1.155   1.166
 9138SOL     OW28312   0.317   5.650   6.183
 9138SOL    HW128313   0.355   5.631   6.092
 9138SOL    HW228314   0.369   5.599   6.252
 9139SOL     OW28315   2.992   1.926   3.836
 9139SOL    HW128316   2.949   1.840   3.863
 9139SOL    HW228317   2.922   1.988   3.801
 9140SOL     OW28318   6.685   3.639   2.930
 9140SOL    HW128319   6.589   3.611   2.921
 9140SOL    HW228320   6.708   3.702   2.857
 9141SOL     OW28321   5.485   0.502   0.575
 9141SOL    HW128322   5.512   0.547   0.490
 9141SOL    HW228323   5.481   0.569   0.649
 9142SOL     OW28324   0.718   2.554   1.015
 9142SOL    HW128325   0.639   2.560   1.077
 9142SOL    HW228326   0.784   2.624   1.039
 9143SOL     OW28327   6.112   3.379   6.642
 9143SOL    HW128328   6.139   3.283   6.652
 9143SOL    HW228329   6.039   3.386   6.574
 9144SOL     OW28330   2.423   5.149   4.772
 9144SOL    HW128331   2.394   5.233   4.818
 9144SOL    HW228332   2.517   5.129   4.797
 9145SOL     OW28333   0.211   5.569   0.296
 9145SOL    HW128334   0.292   5.618   0.263
 9145SOL    HW228335   0.139   5.635   0.317
 9146SOL     OW28336   5.443   2.787   3.287
 9146SOL    HW128337   5.431   2.828   3.377
 9146SOL    HW228338   5.404   2.846   3.217
 9147SOL     OW28339   6.274   0.268   5.049
 9147SOL    HW128340   6.323   0.341   5.095
 9147SOL    HW228341   6.199   0.306   4.995
 9148SOL     OW28342   5.296   6.087   1.224
 9148SOL    HW128343   5.245   6.076   1.310
 9148SOL    HW228344   5.238   6.133   1.157
 9149SOL     OW28345   5.993   3.752   3.735
 9149SOL    HW128346   5.971   3.666   3.781
 9149SOL    HW228347   5.940   3.759   3.650
 9150SOL     OW28348   3.333   5.658   1.331
 9150SOL    HW128349   3.315   5.751   1.298
 9150SOL    HW228350   3.263   5.633   1.399
 9151SOL     OW28351   1.828   4.260   3.371
 9151SOL    HW128352   1.788   4.335   3.318
 9151SOL    HW228353   1.918   4.288   3.403
 9152SOL     OW28354   2.054   3.923   4.460
 9152SOL    HW128355   1.958   3.895   4.466
 9152SOL    HW228356   2.102   3.898   4.544
 9153SOL     OW28357   1.584   3.193   6.480
 9153SOL    HW128358   1.565   3.163   6.574
 9153SOL    HW228359   1.544   3.283   6.464
 9154SOL     OW28360   4.416   4.801   0.149
 9154SOL    HW128361   4.461   4.712   0.159
 9154SOL    HW228362   4.393   4.816   0.052
 9155SOL     OW28363   1.630   3.689   2.127
 9155SOL    HW128364   1.689   3.646   2.058
 9155SOL    HW228365   1.602   3.620   2.194
 9156SOL     OW28366   0.973   2.299   6.719
 9156SOL    HW128367   1.055   2.243   6.715
 9156SOL    HW228368   0.909   2.270   6.648
 9157SOL     OW28369   0.962   4.042   6.149
 9157SOL    HW128370   0.878   3.989   6.135
 9157SOL    HW228371   0.961   4.121   6.089
 9158SOL     OW28372   5.631   3.532   4.404
 9158SOL    HW128373   5.692   3.604   4.372
 9158SOL    HW228374   5.660   3.501   4.495
 9159SOL     OW28375   1.760   0.726   2.342
 9159SOL    HW128376   1.771   0.811   2.291
 9159SOL    HW228377   1.748   0.747   2.439
 9160SOL     OW28378   6.183   6.353   5.530
 9160SOL    HW128379   6.237   6.416   5.587
 9160SOL    HW228380   6.105   6.320   5.583
 9161SOL     OW28381   5.081   4.135   3.936
 9161SOL    HW128382   5.118   4.078   3.863
 9161SOL    HW228383   5.156   4.179   3.985
 9162SOL     OW28384   4.526   1.074   3.847
 9162SOL    HW128385   4.514   1.152   3.908
 9162SOL    HW228386   4.438   1.028   3.835
 9163SOL     OW28387   1.213   2.342   4.815
 9163SOL    HW128388   1.288   2.305   4.759
 9163SOL    HW228389   1.132   2.285   4.803
 9164SOL     OW28390   2.777   6.807   6.627
 9164SOL    HW128391   2.792   6.728   6.688
 9164SOL    HW228392   2.779   6.891   6.681
 9165SOL     OW28393   6.432   1.556   5.264
 9165SOL    HW128394   6.528   1.530   5.254
 9165SOL    HW228395   6.418   1.601   5.352
 9166SOL     OW28396   3.764   6.169   1.446
 9166SOL    HW128397   3.805   6.180   1.356
 9166SOL    HW228398   3.701   6.092   1.446
 9167SOL     OW28399   2.000   2.372   6.210
 9167SOL    HW128400   1.967   2.293   6.260
 9167SOL    HW228401   2.096   2.389   6.232
 9168SOL     OW28402   6.943   6.342   5.975
 9168SOL    HW128403   6.928   6.400   6.054
 9168SOL    HW228404   6.966   6.249   6.006
 9169SOL     OW28405   6.487   0.139   5.904
 9169SOL    HW128406   6.554   0.072   5.937
 9169SOL    HW228407   6.425   0.164   5.978
 9170SOL     OW28408   1.407   6.471   6.773
 9170SOL    HW128409   1.331   6.407   6.784
 9170SOL    HW228410   1.493   6.428   6.801
 9171SOL     OW28411   4.244   4.877   1.015
 9171SOL    HW128412   4.244   4.786   0.972
 9171SOL    HW228413   4.175   4.880   1.087
 9172SOL     OW28414   4.405   0.976   2.594
 9172SOL    HW128415   4.388   0.954   2.690
 9172SOL    HW228416   4.349   1.054   2.568
 9173SOL     OW28417   6.432   3.753   5.938
 9173SOL    HW128418   6.467   3.722   6.027
 9173SOL    HW228419   6.453   3.850   5.926
 9174SOL     OW28420   6.289   4.626   1.542
 9174SOL    HW128421   6.196   4.597   1.518
 9174SOL    HW228422   6.353   4.550   1.528
 9175SOL     OW28423   0.966   0.035   5.972
 9175SOL    HW128424   0.951   6.963   5.994
 9175SOL    HW228425   1.064   0.051   5.958
 9176SOL     OW28426   2.209   0.902   3.276
 9176SOL    HW128427   2.132   0.965   3.265
 9176SOL    HW228428   2.193   0.821   3.220
 9177SOL     OW28429   0.869   4.917   4.077
 9177SOL    HW128430   0.924   4.977   4.019
 9177SOL    HW228431   0.775   4.913   4.043
 9178SOL     OW28432   1.992   5.704   0.671
 9178SOL    HW128433   2.046   5.785   0.646
 9178SOL    HW228434   2.049   5.641   0.724
 9179SOL     OW28435   1.707   5.009   3.444
 9179SOL    HW128436   1.735   5.104   3.457
 9179SOL    HW228437   1.730   4.956   3.525
 9180SOL     OW28438   6.411   2.689   3.527
 9180SOL    HW128439   6.506   2.710   3.548
 9180SOL    HW228440   6.385   2.604   3.573
 9181SOL     OW28441   6.141   2.689   4.369
 9181SOL    HW128442   6.220   2.643   4.328
 9181SOL    HW228443   6.172   2.753   4.439
 9182SOL     OW28444   2.670   6.594   2.976
 9182SOL    HW128445   2.606   6.616   2.902
 9182SOL    HW228446   2.633   6.518   3.030
 9183SOL     OW28447   4.281   4.801   0.479
 9183SOL    HW128448   4.246   4.726   0.423
 9183SOL    HW228449   4.262   4.888   0.433
 9184SOL     OW28450   4.603   2.485   0.876
 9184SOL    HW128451   4.557   2.570   0.900
 9184SOL    HW228452   4.560   2.409   0.925
 9185SOL     OW28453   5.012   6.858   4.915
 9185SOL    HW128454   5.016   6.820   5.007
 9185SOL    HW228455   5.105   6.875   4.882
 9186SOL     OW28456   5.894   6.196   5.023
 9186SOL    HW128457   5.922   6.260   5.094
 9186SOL    HW228458   5.966   6.188   4.954
 9187SOL     OW28459   3.265   1.563   0.352
 9187SOL    HW128460   3.323   1.490   0.317
 9187SOL    HW228461   3.296   1.651   0.314
 9188SOL     OW28462   1.717   6.956   1.607
 9188SOL    HW128463   1.798   6.927   1.658
 9188SOL    HW228464   1.640   6.898   1.632
 9189SOL     OW28465   2.712   6.182   2.115
 9189SOL    HW128466   2.639   6.249   2.103
 9189SOL    HW228467   2.751   6.159   2.026
 9190SOL     OW28468   1.970   4.059   5.234
 9190SOL    HW128469   2.043   4.115   5.195
 9190SOL    HW228470   1.973   3.968   5.193
 9191SOL     OW28471   5.705   1.449   0.294
 9191SOL    HW128472   5.711   1.397   0.209
 9191SOL    HW228473   5.609   1.463   0.318
 9192SOL     OW28474   0.359   2.161   6.177
 9192SOL    HW128475   0.382   2.065   6.197
 9192SOL    HW228476   0.294   2.194   6.246
 9193SOL     OW28477   3.846   3.722   5.110
 9193SOL    HW128478   3.870   3.628   5.136
 9193SOL    HW228479   3.781   3.721   5.034
 9194SOL     OW28480   3.796   1.132   3.130
 9194SOL    HW128481   3.770   1.228   3.135
 9194SOL    HW228482   3.811   1.106   3.035
 9195SOL     OW28483   0.640   2.871   2.159
 9195SOL    HW128484   0.653   2.930   2.238
 9195SOL    HW228485   0.691   2.786   2.172
 9196SOL     OW28486   5.714   0.357   3.478
 9196SOL    HW128487   5.690   0.427   3.410
 9196SOL    HW228488   5.813   0.353   3.489
 9197SOL     OW28489   2.690   5.077   1.354
 9197SOL    HW128490   2.701   5.174   1.338
 9197SOL    HW228491   2.767   5.027   1.316
 9198SOL     OW28492   5.931   4.401   6.716
 9198SOL    HW128493   5.965   4.438   6.630
 9198SOL    HW228494   5.892   4.474   6.771
 9199SOL     OW28495   0.188   3.253   5.267
 9199SOL    HW128496   0.135   3.168   5.262
 9199SOL    HW228497   0.142   3.324   5.213
 9200SOL     OW28498   3.192   5.990   6.880
 9200SOL    HW128499   3.129   5.914   6.896
 9200SOL    HW228500   3.237   6.015   6.966
 9201SOL     OW28501   0.385   3.668   0.089
 9201SOL    HW128502   0.359   3.639   0.181
 9201SOL    HW228503   0.305   3.664   0.029
 9202SOL     OW28504   0.728   6.449   2.893
 9202SOL    HW128505   0.683   6.371   2.936
 9202SOL    HW228506   0.820   6.424   2.866
 9203SOL     OW28507   6.657   3.214   6.263
 9203SOL    HW128508   6.668   3.312   6.275
 9203SOL    HW228509   6.744   3.174   6.233
 9204SOL     OW28510   4.857   3.189   5.204
 9204SOL    HW128511   4.761   3.202   5.226
 9204SOL    HW228512   4.882   3.247   5.127
 9205SOL     OW28513   5.238   5.997   3.215
 9205SOL    HW128514   5.328   6.005   3.256
 9205SOL    HW228515   5.168   6.002   3.287
 9206SOL     OW28516   3.357   5.034   3.418
 9206SOL    HW128517   3.389   5.129   3.417
 9206SOL    HW228518   3.284   5.025   3.486
 9207SOL     OW28519   4.931   4.358   6.514
 9207SOL    HW128520   5.016   4.396   6.551
 9207SOL    HW228521   4.856   4.375   6.577
 9208SOL     OW28522   5.784   4.627   3.658
 9208SOL    HW128523   5.695   4.616   3.702
 9208SOL    HW228524   5.772   4.665   3.566
 9209SOL     OW28525   4.383   0.705   0.485
 9209SOL    HW128526   4.356   0.763   0.562
 9209SOL    HW228527   4.358   0.749   0.399
 9210SOL     OW28528   1.254   1.834   1.972
 9210SOL    HW128529   1.347   1.832   2.009
 9210SOL    HW228530   1.222   1.929   1.967
 9211SOL     OW28531   6.549   2.914   5.619
 9211SOL    HW128532   6.485   2.838   5.615
 9211SOL    HW228533   6.600   2.919   5.533
 9212SOL     OW28534   4.342   5.646   4.694
 9212SOL    HW128535   4.352   5.563   4.748
 9212SOL    HW228536   4.254   5.644   4.645
 9213SOL     OW28537   5.498   4.554   5.278
 9213SOL    HW128538   5.437   4.632   5.268
 9213SOL    HW228539   5.480   4.489   5.204
 9214SOL     OW28540   0.302   3.319   5.731
 9214SOL    HW128541   0.206   3.345   5.737
 9214SOL    HW228542   0.332   3.321   5.636
 9215SOL     OW28543   2.052   3.291   2.004
 9215SOL    HW128544   1.971   3.349   2.015
 9215SOL    HW228545   2.098   3.315   1.918
 9216SOL     OW28546   3.052   0.212   3.353
 9216SOL    HW128547   3.125   0.272   3.386
 9216SOL    HW228548   3.010   0.252   3.272
 9217SOL     OW28549   6.372   3.581   6.613
 9217SOL    HW128550   6.278   3.556   6.640
 9217SOL    HW228551   6.421   3.498   6.587
 9218SOL     OW28552   2.643   0.694   6.900
 9218SOL    HW128553   2.672   0.711   6.995
 9218SOL    HW228554   2.561   0.748   6.881
 9219SOL     OW28555   5.525   3.743   6.816
 9219SOL    HW128556   5.547   3.840   6.829
 9219SOL    HW228557   5.432   3.735   6.780
 9220SOL     OW28558   1.007   5.898   1.517
 9220SOL    HW128559   0.977   5.994   1.516
 9220SOL    HW228560   0.997   5.860   1.609
 9221SOL     OW28561   1.706   0.894   2.936
 9221SOL    HW128562   1.734   0.877   2.841
 9221SOL    HW228563   1.623   0.842   2.955
 9222SOL     OW28564   2.414   5.706   6.018
 9222SOL    HW128565   2.420   5.617   6.062
 9222SOL    HW228566   2.352   5.701   5.939
 9223SOL     OW28567   1.065   2.057   3.946
 9223SOL    HW128568   1.096   2.059   4.041
 9223SOL    HW228569   1.112   1.984   3.897
 9224SOL     OW28570   1.007   5.423   4.328
 9224SOL    HW128571   0.935   5.421   4.398
 9224SOL    HW228572   0.983   5.489   4.257
 9225SOL     OW28573   3.415   6.044   6.398
 9225SOL    HW128574   3.356   6.122   6.380
 9225SOL    HW228575   3.397   6.010   6.491
 9226SOL     OW28576   6.672   6.467   1.171
 9226SOL    HW128577   6.648   6.501   1.262
 9226SOL    HW228578   6.592   6.469   1.112
 9227SOL     OW28579   2.095   5.994   1.542
 9227SOL    HW128580   2.039   5.912   1.529
 9227SOL    HW228581   2.050   6.072   1.498
 9228SOL     OW28582   2.668   1.672   6.332
 9228SOL    HW128583   2.712   1.583   6.343
 9228SOL    HW228584   2.738   1.743   6.329
 9229SOL     OW28585   1.376   5.471   4.911
 9229SOL    HW128586   1.448   5.530   4.875
 9229SOL    HW228587   1.414   5.382   4.936
 9230SOL     OW28588   5.323   2.809   3.537
 9230SOL    HW128589   5.233   2.768   3.553
 9230SOL    HW228590   5.316   2.908   3.541
 9231SOL     OW28591   1.075   2.997   4.620
 9231SOL    HW128592   1.169   2.995   4.586
 9231SOL    HW228593   1.059   3.084   4.668
 9232SOL     OW28594   3.599   5.468   6.857
 9232SOL    HW128595   3.550   5.510   6.934
 9232SOL    HW228596   3.580   5.369   6.856
 9233SOL     OW28597   5.897   5.848   1.981
 9233SOL    HW128598   5.992   5.866   2.006
 9233SOL    HW228599   5.845   5.826   2.063
 9234SOL     OW28600   3.935   5.287   6.610
 9234SOL    HW128601   4.012   5.347   6.587
 9234SOL    HW228602   3.945   5.199   6.563
 9235SOL     OW28603   1.504   3.095   3.842
 9235SOL    HW128604   1.567   3.019   3.831
 9235SOL    HW228605   1.425   3.065   3.896
 9236SOL     OW28606   1.696   4.410   6.122
 9236SOL    HW128607   1.686   4.337   6.054
 9236SOL    HW228608   1.721   4.370   6.210
 9237SOL     OW28609   0.356   6.720   3.882
 9237SOL    HW128610   0.426   6.733   3.812
 9237SOL    HW228611   0.347   6.623   3.904
 9238SOL     OW28612   1.985   1.594   0.119
 9238SOL    HW128613   2.015   1.687   0.098
 9238SOL    HW228614   1.899   1.575   0.072
 9239SOL     OW28615   6.786   3.872   0.082
 9239SOL    HW128616   6.885   3.866   0.089
 9239SOL    HW228617   6.760   3.890   7.011
 9240SOL     OW28618   4.949   2.331   1.959
 9240SOL    HW128619   4.881   2.309   2.028
 9240SOL    HW228620   4.905   2.376   1.882
 9241SOL     OW28621   1.311   5.153   5.761
 9241SOL    HW128622   1.270   5.067   5.792
 9241SOL    HW228623   1.372   5.134   5.683
 9242SOL     OW28624   1.475   5.257   0.117
 9242SOL    HW128625   1.483   5.158   0.103
 9242SOL    HW228626   1.383   5.278   0.150
 9243SOL     OW28627   0.022   6.864   1.792
 9243SOL    HW128628   0.098   6.860   1.857
 9243SOL    HW228629   0.055   6.896   1.703
 9244SOL     OW28630   3.930   5.217   6.178
 9244SOL    HW128631   3.906   5.290   6.242
 9244SOL    HW228632   3.863   5.143   6.185
 9245SOL     OW28633   1.116   5.339   3.618
 9245SOL    HW128634   1.039   5.277   3.632
 9245SOL    HW228635   1.181   5.329   3.693
 9246SOL     OW28636   5.888   6.168   2.185
 9246SOL    HW128637   5.948   6.088   2.189
 9246SOL    HW228638   5.861   6.194   2.278
 9247SOL     OW28639   1.890   6.393   3.682
 9247SOL    HW128640   1.866   6.324   3.750
 9247SOL    HW228641   1.929   6.348   3.602
 9248SOL     OW28642   2.431   2.287   4.969
 9248SOL    HW128643   2.459   2.337   5.050
 9248SOL    HW228644   2.388   2.201   4.997
 9249SOL     OW28645   3.611   3.701   0.917
 9249SOL    HW128646   3.609   3.664   0.824
 9249SOL    HW228647   3.616   3.801   0.914
 9250SOL     OW28648   5.993   3.040   4.003
 9250SOL    HW128649   5.985   2.968   4.072
 9250SOL    HW228650   6.070   3.019   3.943
 9251SOL     OW28651   3.460   1.871   2.840
 9251SOL    HW128652   3.407   1.943   2.885
 9251SOL    HW228653   3.435   1.866   2.744
 9252SOL     OW28654   4.883   6.997   3.825
 9252SOL    HW128655   4.946   7.019   3.750
 9252SOL    HW228656   4.883   6.898   3.840
 9253SOL     OW28657   5.832   5.929   5.882
 9253SOL    HW128658   5.911   5.918   5.942
 9253SOL    HW228659   5.765   5.858   5.902
 9254SOL     OW28660   5.965   4.853   2.850
 9254SOL    HW128661   5.911   4.834   2.933
 9254SOL    HW228662   6.030   4.925   2.869
 9255SOL     OW28663   4.602   4.135   0.199
 9255SOL    HW128664   4.578   4.038   0.187
 9255SOL    HW228665   4.589   4.161   0.295
 9256SOL     OW28666   2.628   0.589   2.884
 9256SOL    HW128667   2.676   0.672   2.857
 9256SOL    HW228668   2.694   0.517   2.904
 9257SOL     OW28669   0.584   4.022   3.004
 9257SOL    HW128670   0.634   3.937   2.988
 9257SOL    HW228671   0.495   4.002   3.044
 9258SOL     OW28672   3.020   3.184   2.556
 9258SOL    HW128673   2.993   3.279   2.542
 9258SOL    HW228674   3.073   3.152   2.477
 9259SOL     OW28675   0.986   2.485   0.158
 9259SOL    HW128676   1.006   2.431   0.077
 9259SOL    HW228677   1.060   2.550   0.174
 9260SOL     OW28678   6.257   1.495   4.957
 9260SOL    HW128679   6.168   1.450   4.952
 9260SOL    HW228680   6.289   1.497   5.051
 9261SOL     OW28681   2.466   1.329   0.561
 9261SOL    HW128682   2.391   1.387   0.594
 9261SOL    HW228683   2.547   1.385   0.545
 9262SOL     OW28684   7.017   5.013   5.137
 9262SOL    HW128685   0.058   5.079   5.100
 9262SOL    HW228686   0.009   5.001   5.235
 9263SOL     OW28687   4.858   6.656   0.995
 9263SOL    HW128688   4.901   6.585   1.051
 9263SOL    HW228689   4.881   6.642   0.899
 9264SOL     OW28690   4.619   4.820   0.364
 9264SOL    HW128691   4.556   4.802   0.440
 9264SOL    HW228692   4.567   4.850   0.284
 9265SOL     OW28693   3.249   1.887   0.736
 9265SOL    HW128694   3.193   1.947   0.793
 9265SOL    HW228695   3.258   1.926   0.644
 9266SOL     OW28696   1.936   6.837   1.291
 9266SOL    HW128697   1.887   6.797   1.214
 9266SOL    HW228698   1.992   6.766   1.335
 9267SOL     OW28699   0.034   2.919   4.490
 9267SOL    HW128700   0.010   3.002   4.540
 9267SOL    HW228701   0.087   2.943   4.409
 9268SOL     OW28702   0.881   5.351   2.769
 9268SOL    HW128703   0.928   5.432   2.733
 9268SOL    HW228704   0.783   5.360   2.754
 9269SOL     OW28705   3.545   1.714   6.175
 9269SOL    HW128706   3.528   1.799   6.126
 9269SOL    HW228707   3.470   1.650   6.159
 9270SOL     OW28708   4.590   0.000   6.516
 9270SOL    HW128709   4.652   6.969   6.461
 9270SOL    HW228710   4.500   0.003   6.472
 9271SOL     OW28711   5.650   0.066   0.685
 9271SOL    HW128712   5.704   0.145   0.657
 9271SOL    HW228713   5.695   7.007   0.655
 9272SOL     OW28714   1.014   5.989   4.709
 9272SOL    HW128715   1.049   5.899   4.683
 9272SOL    HW228716   1.088   6.056   4.708
 9273SOL     OW28717   5.738   6.735   2.862
 9273SOL    HW128718   5.710   6.831   2.855
 9273SOL    HW228719   5.699   6.695   2.945
 9274SOL     OW28720   6.335   1.814   6.882
 9274SOL    HW128721   6.351   1.776   6.791
 9274SOL    HW228722   6.239   1.843   6.890
 9275SOL     OW28723   6.448   0.845   0.486
 9275SOL    HW128724   6.376   0.778   0.506
 9275SOL    HW228725   6.451   0.913   0.559
 9276SOL     OW28726   1.988   3.553   1.530
 9276SOL    HW128727   1.893   3.529   1.506
 9276SOL    HW228728   2.024   3.486   1.595
 9277SOL     OW28729   4.718   3.723   0.461
 9277SOL    HW128730   4.668   3.636   0.462
 9277SOL    HW228731   4.662   3.794   0.503
 9278SOL     OW28732   2.019   0.436   5.689
 9278SOL    HW128733   2.088   0.424   5.760
 9278SOL    HW228734   2.022   0.531   5.656
 9279SOL     OW28735   4.300   1.327   2.343
 9279SOL    HW128736   4.393   1.322   2.306
 9279SOL    HW228737   4.248   1.396   2.292
 9280SOL     OW28738   1.941   2.079   3.385
 9280SOL    HW128739   1.968   2.173   3.407
 9280SOL    HW228740   1.956   2.021   3.465
 9281SOL     OW28741   2.416   3.646   6.973
 9281SOL    HW128742   2.329   3.683   6.939
 9281SOL    HW228743   2.466   3.719   7.021
 9282SOL     OW28744   5.169   0.929   3.574
 9282SOL    HW128745   5.251   0.905   3.625
 9282SOL    HW228746   5.108   0.850   3.569
 9283SOL     OW28747   5.783   0.470   4.210
 9283SOL    HW128748   5.787   0.506   4.303
 9283SOL    HW228749   5.716   0.522   4.157
 9284SOL     OW28750   3.293   3.298   5.133
 9284SOL    HW128751   3.294   3.321   5.230
 9284SOL    HW228752   3.379   3.255   5.108
 9285SOL     OW28753   5.163   2.549   0.737
 9285SOL    HW128754   5.145   2.466   0.791
 9285SOL    HW228755   5.153   2.629   0.796
 9286SOL     OW28756   5.342   5.651   0.945
 9286SOL    HW128757   5.325   5.716   1.018
 9286SOL    HW228758   5.439   5.651   0.921
 9287SOL     OW28759   2.948   4.642   6.687
 9287SOL    HW128760   2.941   4.582   6.766
 9287SOL    HW228761   3.005   4.598   6.617
 9288SOL     OW28762   4.772   1.355   3.261
 9288SOL    HW128763   4.686   1.340   3.311
 9288SOL    HW228764   4.759   1.428   3.194
 9289SOL     OW28765   3.714   1.198   2.431
 9289SOL    HW128766   3.661   1.266   2.481
 9289SOL    HW228767   3.703   1.212   2.333
 9290SOL     OW28768   5.681   1.458   2.992
 9290SOL    HW128769   5.609   1.460   3.060
 9290SOL    HW228770   5.770   1.468   3.037
 9291SOL     OW28771   1.295   6.184   4.180
 9291SOL    HW128772   1.392   6.186   4.203
 9291SOL    HW228773   1.241   6.200   4.262
 9292SOL     OW28774   2.058   2.660   6.711
 9292SOL    HW128775   2.050   2.593   6.784
 9292SOL    HW228776   2.138   2.639   6.655
 9293SOL     OW28777   5.235   2.918   6.608
 9293SOL    HW128778   5.290   2.887   6.685
 9293SOL    HW228779   5.138   2.919   6.634
 9294SOL     OW28780   4.197   0.790   5.732
 9294SOL    HW128781   4.265   0.725   5.699
 9294SOL    HW228782   4.145   0.827   5.654
 9295SOL     OW28783   5.294   1.745   4.888
 9295SOL    HW128784   5.247   1.773   4.972
 9295SOL    HW228785   5.311   1.825   4.832
 9296SOL     OW28786   1.345   5.723   6.748
 9296SOL    HW128787   1.309   5.816   6.741
 9296SOL    HW228788   1.307   5.678   6.828
 9297SOL     OW28789   6.799   0.036   2.068
 9297SOL    HW128790   6.811   7.010   1.983
 9297SOL    HW228791   6.857   0.118   2.068
 9298SOL     OW28792   1.339   6.766   6.022
 9298SOL    HW128793   1.258   6.752   6.079
 9298SOL    HW228794   1.324   6.726   5.932
 9299SOL     OW28795   0.584   2.506   5.425
 9299SOL    HW128796   0.593   2.515   5.326
 9299SOL    HW228797   0.669   2.468   5.463
 9300SOL     OW28798   7.014   4.777   5.850
 9300SOL    HW128799   7.016   4.876   5.867
 9300SOL    HW228800   6.921   4.749   5.828
 9301SOL     OW28801   5.114   5.037   4.014
 9301SOL    HW128802   5.201   4.990   4.005
 9301SOL    HW228803   5.083   5.034   4.109
 9302SOL     OW28804   2.422   2.625   4.371
 9302SOL    HW128805   2.391   2.629   4.276
 9302SOL    HW228806   2.490   2.552   4.380
 9303SOL     OW28807   2.792   3.879   0.698
 9303SOL    HW128808   2.712   3.917   0.743
 9303SOL    HW228809   2.764   3.827   0.617
 9304SOL     OW28810   4.061   4.900   1.847
 9304SOL    HW128811   4.142   4.847   1.825
 9304SOL    HW228812   3.990   4.883   1.779
 9305SOL     OW28813   3.336   1.364   0.689
 9305SOL    HW128814   3.324   1.372   0.590
 9305SOL    HW228815   3.298   1.446   0.734
 9306SOL     OW28816   0.374   5.542   4.958
 9306SOL    HW128817   0.416   5.552   4.867
 9306SOL    HW228818   0.440   5.569   5.028
 9307SOL     OW28819   1.722   3.446   1.363
 9307SOL    HW128820   1.769   3.437   1.276
 9307SOL    HW228821   1.652   3.375   1.372
 9308SOL     OW28822   2.303   3.337   0.528
 9308SOL    HW128823   2.298   3.396   0.447
 9308SOL    HW228824   2.374   3.372   0.590
 9309SOL     OW28825   3.593   4.459   5.681
 9309SOL    HW128826   3.665   4.485   5.617
 9309SOL    HW228827   3.546   4.378   5.646
 9310SOL     OW28828   5.007   5.186   6.681
 9310SOL    HW128829   4.909   5.169   6.669
 9310SOL    HW228830   5.059   5.132   6.615
 9311SOL     OW28831   4.562   4.784   1.683
 9311SOL    HW128832   4.559   4.853   1.611
 9311SOL    HW228833   4.649   4.792   1.732
 9312SOL     OW28834   1.079   3.752   1.226
 9312SOL    HW128835   1.112   3.812   1.154
 9312SOL    HW228836   1.145   3.751   1.302
 9313SOL     OW28837   0.742   0.857   1.010
 9313SOL    HW128838   0.659   0.808   1.038
 9313SOL    HW228839   0.820   0.795   1.016
 9314SOL     OW28840   5.151   4.734   0.044
 9314SOL    HW128841   5.112   4.765   6.982
 9314SOL    HW228842   5.239   4.780   0.059
 9315SOL     OW28843   6.262   0.003   5.208
 9315SOL    HW128844   6.266   7.018   5.307
 9315SOL    HW228845   6.239   0.097   5.184
 9316SOL     OW28846   5.547   6.439   5.889
 9316SOL    HW128847   5.542   6.523   5.835
 9316SOL    HW228848   5.599   6.456   5.973
 9317SOL     OW28849   5.447   4.843   3.442
 9317SOL    HW128850   5.396   4.919   3.482
 9317SOL    HW228851   5.397   4.806   3.364
 9318SOL     OW28852   5.505   0.742   5.898
 9318SOL    HW128853   5.524   0.697   5.986
 9318SOL    HW228854   5.500   0.673   5.826
 9319SOL     OW28855   2.797   3.054   0.096
 9319SOL    HW128856   2.707   3.039   0.055
 9319SOL    HW228857   2.794   3.134   0.155
 9320SOL     OW28858   3.575   0.732   5.259
 9320SOL    HW128859   3.635   0.687   5.192
 9320SOL    HW228860   3.500   0.777   5.211
 9321SOL     OW28861   0.087   0.513   4.176
 9321SOL    HW128862   0.147   0.566   4.116
 9321SOL    HW228863   0.065   0.426   4.132
 9322SOL     OW28864   6.779   3.441   6.421
 9322SOL    HW128865   6.732   3.409   6.503
 9322SOL    HW228866   6.799   3.539   6.430
 9323SOL     OW28867   1.483   0.649   5.798
 9323SOL    HW128868   1.441   0.690   5.717
 9323SOL    HW228869   1.519   0.558   5.775
 9324SOL     OW28870   1.128   4.509   1.041
 9324SOL    HW128871   1.227   4.495   1.032
 9324SOL    HW228872   1.082   4.420   1.040
 9325SOL     OW28873   5.850   0.822   0.027
 9325SOL    HW128874   5.844   0.754   6.978
 9325SOL    HW228875   5.832   0.913   7.014
 9326SOL     OW28876   2.572   5.378   0.584
 9326SOL    HW128877   2.531   5.380   0.493
 9326SOL    HW228878   2.579   5.283   0.615
 9327SOL     OW28879   5.232   0.229   2.970
 9327SOL    HW128880   5.284   0.171   3.032
 9327SOL    HW228881   5.136   0.200   2.968
 9328SOL     OW28882   2.543   1.207   5.080
 9328SOL    HW128883   2.627   1.193   5.132
 9328SOL    HW228884   2.548   1.294   5.031
 9329SOL     OW28885   6.228   3.794   1.225
 9329SOL    HW128886   6.211   3.705   1.184
 9329SOL    HW228887   6.144   3.848   1.224
 9330SOL     OW28888   6.852   0.228   5.758
 9330SOL    HW128889   6.785   0.290   5.717
 9330SOL    HW228890   6.891   0.271   5.839
 9331SOL     OW28891   1.965   0.925   0.236
 9331SOL    HW128892   1.882   0.903   0.184
 9331SOL    HW228893   2.014   1.000   0.192
 9332SOL     OW28894   4.245   4.223   1.184
 9332SOL    HW128895   4.342   4.237   1.206
 9332SOL    HW228896   4.205   4.159   1.250
 9333SOL     OW28897   3.939   3.758   0.030
 9333SOL    HW128898   4.029   3.716   0.041
 9333SOL    HW228899   3.887   3.706   6.986
 9334SOL     OW28900   5.686   5.933   3.748
 9334SOL    HW128901   5.682   5.998   3.824
 9334SOL    HW228902   5.595   5.897   3.731
 9335SOL     OW28903   0.949   1.039   6.637
 9335SOL    HW128904   0.947   0.948   6.594
 9335SOL    HW228905   1.043   1.073   6.639
 9336SOL     OW28906   3.664   5.872   5.975
 9336SOL    HW128907   3.690   5.916   5.889
 9336SOL    HW228908   3.564   5.871   5.984
 9337SOL     OW28909   3.825   1.275   4.705
 9337SOL    HW128910   3.844   1.264   4.608
 9337SOL    HW228911   3.829   1.372   4.729
 9338SOL     OW28912   5.793   6.783   1.576
 9338SOL    HW128913   5.844   6.850   1.629
 9338SOL    HW228914   5.709   6.758   1.626
 9339SOL     OW28915   6.129   6.511   1.179
 9339SOL    HW128916   6.054   6.542   1.238
 9339SOL    HW228917   6.137   6.570   1.100
 9340SOL     OW28918   4.299   4.696   3.739
 9340SOL    HW128919   4.214   4.703   3.791
 9340SOL    HW228920   4.279   4.661   3.647
 9341SOL     OW28921   0.172   5.364   0.880
 9341SOL    HW128922   0.155   5.434   0.810
 9341SOL    HW228923   0.099   5.296   0.879
 9342SOL     OW28924   3.338   6.238   3.732
 9342SOL    HW128925   3.407   6.244   3.803
 9342SOL    HW228926   3.322   6.328   3.692
 9343SOL     OW28927   5.497   4.408   1.722
 9343SOL    HW128928   5.574   4.351   1.697
 9343SOL    HW228929   5.513   4.449   1.812
 9344SOL     OW28930   5.191   6.702   2.893
 9344SOL    HW128931   5.189   6.607   2.861
 9344SOL    HW228932   5.245   6.708   2.977
 9345SOL     OW28933   6.677   5.713   1.817
 9345SOL    HW128934   6.745   5.714   1.743
 9345SOL    HW228935   6.706   5.648   1.887
 9346SOL     OW28936   5.753   0.994   1.382
 9346SOL    HW128937   5.836   0.940   1.368
 9346SOL    HW228938   5.703   1.000   1.296
 9347SOL     OW28939   3.149   3.717   0.104
 9347SOL    HW128940   3.154   3.656   0.183
 9347SOL    HW228941   3.066   3.772   0.110
 9348SOL     OW28942   2.809   6.634   2.716
 9348SOL    HW128943   2.830   6.540   2.686
 9348SOL    HW228944   2.795   6.634   2.815
 9349SOL     OW28945   6.523   5.302   2.635
 9349SOL    HW128946   6.542   5.247   2.716
 9349SOL    HW228947   6.568   5.391   2.644
 9350SOL     OW28948   6.838   2.744   5.202
 9350SOL    HW128949   6.777   2.667   5.219
 9350SOL    HW228950   6.932   2.718   5.223
 9351SOL     OW28951   3.109   6.382   6.566
 9351SOL    HW128952   3.180   6.360   6.633
 9351SOL    HW228953   3.087   6.301   6.512
 9352SOL     OW28954   3.777   2.009   6.081
 9352SOL    HW128955   3.701   1.945   6.080
 9352SOL    HW228956   3.847   1.978   6.146
 9353SOL     OW28957   0.891   4.445   0.823
 9353SOL    HW128958   0.886   4.456   0.922
 9353SOL    HW228959   0.924   4.353   0.801
 9354SOL     OW28960   0.358   1.885   6.310
 9354SOL    HW128961   0.284   1.867   6.245
 9354SOL    HW228962   0.438   1.831   6.286
 9355SOL     OW28963   0.413   1.887   4.659
 9355SOL    HW128964   0.409   1.960   4.590
 9355SOL    HW228965   0.338   1.823   4.645
 9356SOL     OW28966   4.622   6.601   2.321
 9356SOL    HW128967   4.615   6.574   2.417
 9356SOL    HW228968   4.557   6.675   2.303
 9357SOL     OW28969   1.525   3.754   6.534
 9357SOL    HW128970   1.510   3.721   6.441
 9357SOL    HW228971   1.441   3.798   6.567
 9358SOL     OW28972   0.346   2.794   1.809
 9358SOL    HW128973   0.343   2.893   1.798
 9358SOL    HW228974   0.391   2.772   1.896
 9359SOL     OW28975   2.177   4.139   5.459
 9359SOL    HW128976   2.175   4.147   5.360
 9359SOL    HW228977   2.166   4.230   5.500
 9360SOL     OW28978   0.967   4.671   6.619
 9360SOL    HW128979   1.059   4.705   6.641
 9360SOL    HW228980   0.906   4.686   6.697
 9361SOL     OW28981   1.336   5.354   2.741
 9361SOL    HW128982   1.390   5.322   2.664
 9361SOL    HW228983   1.302   5.275   2.793
 9362SOL     OW28984   1.859   2.576   3.078
 9362SOL    HW128985   1.866   2.566   2.979
 9362SOL    HW228986   1.931   2.523   3.122
 9363SOL     OW28987   3.390   6.570   1.360
 9363SOL    HW128988   3.448   6.628   1.302
 9363SOL    HW228989   3.416   6.474   1.348
 9364SOL     OW28990   2.978   3.259   6.473
 9364SOL    HW128991   2.925   3.206   6.407
 9364SOL    HW228992   3.039   3.322   6.424
 9365SOL     OW28993   2.499   2.061   3.891
 9365SOL    HW128994   2.564   2.033   3.962
 9365SOL    HW228995   2.427   1.992   3.882
 9366SOL     OW28996   3.802   5.451   5.996
 9366SOL    HW128997   3.799   5.551   5.999
 9366SOL    HW228998   3.798   5.415   6.089
 9367SOL     OW28999   6.662   6.708   2.697
 9367SOL    HW129000   6.699   6.783   2.753
 9367SOL    HW229001   6.736   6.667   2.643
 9368SOL     OW29002   3.042   0.745   2.935
 9368SOL    HW129003   3.036   0.649   2.905
 9368SOL    HW229004   3.136   0.765   2.961
 9369SOL     OW29005   0.087   6.562   3.977
 9369SOL    HW129006   0.047   6.534   4.064
 9369SOL    HW229007   0.028   6.632   3.935
 9370SOL     OW29008   5.306   0.682   3.857
 9370SOL    HW129009   5.359   0.758   3.893
 9370SOL    HW229010   5.233   0.658   3.922
 9371SOL     OW29011   2.474   4.882   0.357
 9371SOL    HW129012   2.545   4.952   0.347
 9371SOL    HW229013   2.446   4.877   0.453
 9372SOL     OW29014   4.774   0.445   1.721
 9372SOL    HW129015   4.861   0.445   1.771
 9372SOL    HW229016   4.769   0.527   1.664
 9373SOL     OW29017   4.669   2.064   1.750
 9373SOL    HW129018   4.575   2.097   1.759
 9373SOL    HW229019   4.701   2.080   1.656
 9374SOL     OW29020   0.549   3.232   0.368
 9374SOL    HW129021   0.551   3.139   0.332
 9374SOL    HW229022   0.636   3.252   0.413
 9375SOL     OW29023   0.814   1.698   1.238
 9375SOL    HW129024   0.848   1.606   1.256
 9375SOL    HW229025   0.814   1.715   1.140
 9376SOL     OW29026   2.110   4.204   1.404
 9376SOL    HW129027   2.207   4.223   1.421
 9376SOL    HW229028   2.057   4.228   1.485
 9377SOL     OW29029   1.877   5.320   3.324
 9377SOL    HW129030   1.879   5.420   3.332
 9377SOL    HW229031   1.956   5.290   3.270
 9378SOL     OW29032   2.376   0.854   3.514
 9378SOL    HW129033   2.315   0.867   3.436
 9378SOL    HW229034   2.466   0.892   3.492
 9379SOL     OW29035   4.512   0.468   5.432
 9379SOL    HW129036   4.571   0.519   5.369
 9379SOL    HW229037   4.565   0.395   5.475
 9380SOL     OW29038   3.871   5.591   5.651
 9380SOL    HW129039   3.893   5.502   5.690
 9380SOL    HW229040   3.953   5.649   5.651
 9381SOL     OW29041   4.923   2.864   5.687
 9381SOL    HW129042   4.916   2.784   5.746
 9381SOL    HW229043   4.993   2.926   5.722
 9382SOL     OW29044   3.787   0.463   4.051
 9382SOL    HW129045   3.762   0.558   4.071
 9382SOL    HW229046   3.842   0.460   3.968
 9383SOL     OW29047   5.576   5.535   4.452
 9383SOL    HW129048   5.515   5.576   4.384
 9383SOL    HW229049   5.666   5.577   4.445
 9384SOL     OW29050   4.289   0.570   2.254
 9384SOL    HW129051   4.222   0.586   2.181
 9384SOL    HW229052   4.276   0.479   2.293
 9385SOL     OW29053   4.527   1.591   3.828
 9385SOL    HW129054   4.460   1.574   3.755
 9385SOL    HW229055   4.601   1.647   3.792
 9386SOL     OW29056   3.345   5.949   5.304
 9386SOL    HW129057   3.251   5.983   5.305
 9386SOL    HW229058   3.385   5.962   5.213
 9387SOL     OW29059   2.690   2.147   0.234
 9387SOL    HW129060   2.647   2.064   0.199
 9387SOL    HW229061   2.695   2.142   0.334
 9388SOL     OW29062   2.780   5.780   3.240
 9388SOL    HW129063   2.779   5.760   3.338
 9388SOL    HW229064   2.686   5.801   3.210
 9389SOL     OW29065   2.379   0.203   3.277
 9389SOL    HW129066   2.377   0.298   3.246
 9389SOL    HW229067   2.353   0.199   3.373
 9390SOL     OW29068   5.168   4.486   6.667
 9390SOL    HW129069   5.259   4.525   6.680
 9390SOL    HW229070   5.117   4.490   6.753
 9391SOL     OW29071   1.315   0.816   5.640
 9391SOL    HW129072   1.319   0.897   5.700
 9391SOL    HW229073   1.279   0.843   5.551
 9392SOL     OW29074   5.326   5.575   5.662
 9392SOL    HW129075   5.389   5.507   5.627
 9392SOL    HW229076   5.245   5.580   5.604
 9393SOL     OW29077   2.522   0.127   5.990
 9393SOL    HW129078   2.618   0.129   5.962
 9393SOL    HW229079   2.513   0.168   6.081
 9394SOL     OW29080   6.587   0.830   1.829
 9394SOL    HW129081   6.573   0.744   1.878
 9394SOL    HW229082   6.594   0.812   1.731
 9395SOL     OW29083   2.912   0.655   1.407
 9395SOL    HW129084   2.840   0.724   1.404
 9395SOL    HW229085   2.981   0.683   1.475
 9396SOL     OW29086   2.222   4.150   4.247
 9396SOL    HW129087   2.181   4.180   4.333
 9396SOL    HW229088   2.166   4.077   4.207
 9397SOL     OW29089   3.640   6.108   6.171
 9397SOL    HW129090   3.665   6.026   6.222
 9397SOL    HW229091   3.541   6.115   6.165
 9398SOL     OW29092   6.220   0.901   5.375
 9398SOL    HW129093   6.124   0.900   5.406
 9398SOL    HW229094   6.253   0.995   5.372
 9399SOL     OW29095   0.809   3.017   5.205
 9399SOL    HW129096   0.867   2.936   5.212
 9399SOL    HW229097   0.867   3.098   5.201
 9400SOL     OW29098   5.439   0.911   1.225
 9400SOL    HW129099   5.371   0.864   1.281
 9400SOL    HW229100   5.394   0.951   1.145
 9401SOL     OW29101   6.898   1.568   2.810
 9401SOL    HW129102   6.897   1.478   2.853
 9401SOL    HW229103   6.928   1.559   2.715
 9402SOL     OW29104   1.439   4.624   3.349
 9402SOL    HW129105   1.384   4.673   3.417
 9402SOL    HW229106   1.534   4.654   3.356
 9403SOL     OW29107   6.454   1.341   1.926
 9403SOL    HW129108   6.439   1.242   1.934
 9403SOL    HW229109   6.472   1.379   2.016
 9404SOL     OW29110   0.989   2.115   0.775
 9404SOL    HW129111   0.955   2.206   0.753
 9404SOL    HW229112   1.000   2.063   0.690
 9405SOL     OW29113   2.295   4.126   3.737
 9405SOL    HW129114   2.344   4.052   3.782
 9405SOL    HW229115   2.254   4.091   3.652
 9406SOL     OW29116   1.040   2.615   6.253
 9406SOL    HW129117   1.108   2.639   6.184
 9406SOL    HW229118   1.087   2.585   6.337
 9407SOL     OW29119   2.114   5.126   3.688
 9407SOL    HW129120   2.152   5.064   3.619
 9407SOL    HW229121   2.187   5.161   3.746
 9408SOL     OW29122   6.908   3.474   6.022
 9408SOL    HW129123   6.996   3.433   6.047
 9408SOL    HW229124   6.923   3.569   5.994
 9409SOL     OW29125   6.673   5.782   1.214
 9409SOL    HW129126   6.671   5.781   1.114
 9409SOL    HW229127   6.606   5.718   1.249
 9410SOL     OW29128   2.263   0.851   2.435
 9410SOL    HW129129   2.236   0.848   2.532
 9410SOL    HW229130   2.227   0.771   2.388
 9411SOL     OW29131   3.491   3.161   3.188
 9411SOL    HW129132   3.577   3.189   3.231
 9411SOL    HW229133   3.496   3.177   3.089
 9412SOL     OW29134   1.813   1.330   1.988
 9412SOL    HW129135   1.798   1.231   1.983
 9412SOL    HW229136   1.884   1.350   2.056
 9413SOL     OW29137   4.579   4.734   3.373
 9413SOL    HW129138   4.663   4.755   3.324
 9413SOL    HW229139   4.597   4.662   3.441
 9414SOL     OW29140   2.628   1.225   3.842
 9414SOL    HW129141   2.635   1.324   3.848
 9414SOL    HW229142   2.532   1.197   3.855
 9415SOL     OW29143   1.989   0.076   2.605
 9415SOL    HW129144   2.068   0.053   2.662
 9415SOL    HW229145   2.019   0.089   2.511
 9416SOL     OW29146   0.362   1.091   6.160
 9416SOL    HW129147   0.368   1.051   6.068
 9416SOL    HW229148   0.384   1.188   6.155
 9417SOL     OW29149   3.469   0.839   1.340
 9417SOL    HW129150   3.477   0.788   1.255
 9417SOL    HW229151   3.506   0.785   1.416
 9418SOL     OW29152   1.939   1.343   1.171
 9418SOL    HW129153   1.956   1.317   1.266
 9418SOL    HW229154   1.935   1.260   1.114
 9419SOL     OW29155   2.200   3.697   6.515
 9419SOL    HW129156   2.226   3.609   6.556
 9419SOL    HW229157   2.268   3.724   6.448
 9420SOL     OW29158   6.085   4.883   0.775
 9420SOL    HW129159   6.098   4.970   0.727
 9420SOL    HW229160   6.055   4.813   0.709
 9421SOL     OW29161   2.986   6.317   4.898
 9421SOL    HW129162   2.896   6.309   4.854
 9421SOL    HW229163   3.053   6.265   4.846
 9422SOL     OW29164   2.922   5.691   2.930
 9422SOL    HW129165   2.991   5.696   3.002
 9422SOL    HW229166   2.834   5.665   2.969
 9423SOL     OW29167   3.844   6.393   3.608
 9423SOL    HW129168   3.827   6.406   3.510
 9423SOL    HW229169   3.816   6.476   3.657
 9424SOL     OW29170   4.958   2.303   4.119
 9424SOL    HW129171   4.951   2.254   4.205
 9424SOL    HW229172   5.000   2.244   4.050
 9425SOL     OW29173   5.286   4.022   1.651
 9425SOL    HW129174   5.224   4.069   1.715
 9425SOL    HW229175   5.247   3.933   1.627
 9426SOL     OW29176   3.455   1.434   6.301
 9426SOL    HW129177   3.467   1.525   6.341
 9426SOL    HW229178   3.389   1.382   6.356
 9427SOL     OW29179   3.065   5.260   3.305
 9427SOL    HW129180   3.064   5.170   3.259
 9427SOL    HW229181   3.050   5.247   3.403
 9428SOL     OW29182   0.254   0.488   0.902
 9428SOL    HW129183   0.253   0.406   0.959
 9428SOL    HW229184   0.170   0.540   0.915
 9429SOL     OW29185   2.115   3.451   3.900
 9429SOL    HW129186   2.158   3.512   3.834
 9429SOL    HW229187   2.017   3.469   3.904
 9430SOL     OW29188   0.300   2.300   4.982
 9430SOL    HW129189   0.290   2.396   5.011
 9430SOL    HW229190   0.349   2.297   4.896
 9431SOL     OW29191   6.438   4.724   1.347
 9431SOL    HW129192   6.354   4.691   1.390
 9431SOL    HW229193   6.434   4.705   1.249
 9432SOL     OW29194   6.413   0.451   4.150
 9432SOL    HW129195   6.374   0.418   4.064
 9432SOL    HW229196   6.502   0.493   4.132
 9433SOL     OW29197   3.215   6.619   3.277
 9433SOL    HW129198   3.137   6.603   3.338
 9433SOL    HW229199   3.230   6.717   3.266
 9434SOL     OW29200   5.537   6.023   1.838
 9434SOL    HW129201   5.587   5.938   1.822
 9434SOL    HW229202   5.598   6.091   1.880
 9435SOL     OW29203   0.040   2.148   3.349
 9435SOL    HW129204   6.990   2.209   3.374
 9435SOL    HW229205   0.009   2.053   3.354
 9436SOL     OW29206   1.317   2.029   2.263
 9436SOL    HW129207   1.270   2.037   2.175
 9436SOL    HW229208   1.256   1.983   2.329
 9437SOL     OW29209   0.275   6.195   3.375
 9437SOL    HW129210   0.314   6.169   3.287
 9437SOL    HW229211   0.334   6.263   3.419
 9438SOL     OW29212   0.710   0.315   1.875
 9438SOL    HW129213   0.797   0.301   1.923
 9438SOL    HW229214   0.725   0.375   1.797
 9439SOL     OW29215   0.851   3.145   0.672
 9439SOL    HW129216   0.879   3.059   0.630
 9439SOL    HW229217   0.795   3.127   0.752
 9440SOL     OW29218   3.626   5.010   3.366
 9440SOL    HW129219   3.551   4.989   3.429
 9440SOL    HW229220   3.605   4.974   3.275
 9441SOL     OW29221   6.387   4.935   6.044
 9441SOL    HW129222   6.373   4.919   5.946
 9441SOL    HW229223   6.485   4.939   6.062
 9442SOL     OW29224   5.578   3.714   1.850
 9442SOL    HW129225   5.567   3.806   1.811
 9442SOL    HW229226   5.510   3.653   1.811
 9443SOL     OW29227   2.489   5.423   0.327
 9443SOL    HW129228   2.484   5.505   0.270
 9443SOL    HW229229   2.449   5.346   0.277
 9444SOL     OW29230   1.793   4.079   0.822
 9444SOL    HW129231   1.864   4.126   0.769
 9444SOL    HW229232   1.757   4.002   0.769
 9445SOL     OW29233   6.598   3.631   3.476
 9445SOL    HW129234   6.543   3.622   3.560
 9445SOL    HW229235   6.654   3.713   3.482
 9446SOL     OW29236   6.486   5.841   4.993
 9446SOL    HW129237   6.432   5.922   5.018
 9446SOL    HW229238   6.582   5.867   4.981
 9447SOL     OW29239   5.499   4.461   3.863
 9447SOL    HW129240   5.492   4.532   3.793
 9447SOL    HW229241   5.553   4.385   3.828
 9448SOL     OW29242   6.697   0.297   6.134
 9448SOL    HW129243   6.706   0.208   6.179
 9448SOL    HW229244   6.780   0.317   6.083
 9449SOL     OW29245   5.570   6.519   0.215
 9449SOL    HW129246   5.654   6.474   0.246
 9449SOL    HW229247   5.537   6.475   0.132
 9450SOL     OW29248   2.455   5.789   3.342
 9450SOL    HW129249   2.473   5.692   3.359
 9450SOL    HW229250   2.479   5.841   3.424
 9451SOL     OW29251   4.105   5.442   5.511
 9451SOL    HW129252   4.016   5.405   5.538
 9451SOL    HW229253   4.095   5.493   5.425
 9452SOL     OW29254   1.470   4.044   0.171
 9452SOL    HW129255   1.398   4.034   0.103
 9452SOL    HW229256   1.461   4.133   0.217
 9453SOL     OW29257   2.935   5.489   2.767
 9453SOL    HW129258   2.880   5.479   2.684
 9453SOL    HW229259   2.918   5.579   2.808
 9454SOL     OW29260   3.843   3.730   6.600
 9454SOL    HW129261   3.778   3.778   6.541
 9454SOL    HW229262   3.863   3.640   6.562
 9455SOL     OW29263   2.778   2.066   3.788
 9455SOL    HW129264   2.825   2.134   3.845
 9455SOL    HW229265   2.727   2.113   3.716
 9456SOL     OW29266   6.695   3.705   0.999
 9456SOL    HW129267   6.608   3.735   1.037
 9456SOL    HW229268   6.680   3.649   0.918
 9457SOL     OW29269   0.795   4.681   4.251
 9457SOL    HW129270   0.840   4.770   4.247
 9457SOL    HW229271   0.696   4.693   4.254
 9458SOL     OW29272   0.673   3.874   6.600
 9458SOL    HW129273   0.762   3.883   6.644
 9458SOL    HW229274   0.660   3.950   6.535
 9459SOL     OW29275   5.316   4.821   4.119
 9459SOL    HW129276   5.400   4.833   4.173
 9459SOL    HW229277   5.242   4.790   4.179
 9460SOL     OW29278   2.173   3.585   5.049
 9460SOL    HW129279   2.162   3.579   4.950
 9460SOL    HW229280   2.165   3.495   5.090
 9461SOL     OW29281   0.421   2.119   1.767
 9461SOL    HW129282   0.351   2.072   1.821
 9461SOL    HW229283   0.381   2.199   1.723
 9462SOL     OW29284   1.143   2.923   3.767
 9462SOL    HW129285   1.219   2.946   3.706
 9462SOL    HW229286   1.151   2.827   3.796
 9463SOL     OW29287   5.858   0.185   1.544
 9463SOL    HW129288   5.764   0.214   1.530
 9463SOL    HW229289   5.912   0.262   1.578
 9464SOL     OW29290   5.988   0.568   0.907
 9464SOL    HW129291   6.035   0.646   0.948
 9464SOL    HW229292   5.903   0.551   0.956
 9465SOL     OW29293   0.176   3.767   1.977
 9465SOL    HW129294   0.109   3.788   2.048
 9465SOL    HW229295   0.252   3.716   2.017
 9466SOL     OW29296   3.365   4.737   5.290
 9466SOL    HW129297   3.353   4.789   5.206
 9466SOL    HW229298   3.307   4.776   5.362
 9467SOL     OW29299   0.840   3.188   1.128
 9467SOL    HW129300   0.748   3.211   1.160
 9467SOL    HW229301   0.873   3.261   1.068
 9468SOL     OW29302   5.497   4.011   6.498
 9468SOL    HW129303   5.485   4.007   6.597
 9468SOL    HW229304   5.567   3.946   6.470
 9469SOL     OW29305   1.082   5.836   1.251
 9469SOL    HW129306   1.113   5.912   1.194
 9469SOL    HW229307   1.061   5.869   1.342
 9470SOL     OW29308   5.126   3.492   0.326
 9470SOL    HW129309   5.153   3.443   0.243
 9470SOL    HW229310   5.207   3.522   0.375
 9471SOL     OW29311   6.820   2.111   4.651
 9471SOL    HW129312   6.752   2.176   4.686
 9471SOL    HW229313   6.863   2.064   4.728
 9472SOL     OW29314   0.050   3.012   5.290
 9472SOL    HW129315   0.084   2.928   5.331
 9472SOL    HW229316   6.979   3.027   5.317
 9473SOL     OW29317   3.295   4.400   0.017
 9473SOL    HW129318   3.325   4.344   0.093
 9473SOL    HW229319   3.371   4.415   6.978
 9474SOL     OW29320   6.790   3.436   1.236
 9474SOL    HW129321   6.761   3.518   1.285
 9474SOL    HW229322   6.875   3.402   1.276
 9475SOL     OW29323   3.963   3.244   0.805
 9475SOL    HW129324   4.014   3.317   0.758
 9475SOL    HW229325   3.965   3.161   0.749
 9476SOL     OW29326   3.997   3.904   4.564
 9476SOL    HW129327   4.035   3.878   4.652
 9476SOL    HW229328   4.033   3.843   4.493
 9477SOL     OW29329   0.158   2.772   1.093
 9477SOL    HW129330   0.129   2.689   1.045
 9477SOL    HW229331   0.192   2.838   1.026
 9478SOL     OW29332   5.489   3.428   1.236
 9478SOL    HW129333   5.469   3.330   1.224
 9478SOL    HW229334   5.407   3.475   1.268
 9479SOL     OW29335   4.252   6.690   0.514
 9479SOL    HW129336   4.316   6.715   0.585
 9479SOL    HW229337   4.169   6.653   0.555
 9480SOL     OW29338   6.380   5.265   0.383
 9480SOL    HW129339   6.445   5.195   0.352
 9480SOL    HW229340   6.358   5.249   0.479
 9481SOL     OW29341   4.946   2.480   2.500
 9481SOL    HW129342   4.883   2.553   2.472
 9481SOL    HW229343   5.027   2.521   2.541
 9482SOL     OW29344   0.522   0.522   3.181
 9482SOL    HW129345   0.543   0.424   3.177
 9482SOL    HW229346   0.594   0.570   3.230
 9483SOL     OW29347   1.071   0.233   0.514
 9483SOL    HW129348   1.118   0.319   0.531
 9483SOL    HW229349   0.989   0.249   0.459
 9484SOL     OW29350   3.564   0.559   4.771
 9484SOL    HW129351   3.477   0.581   4.815
 9484SOL    HW229352   3.603   0.477   4.814
 9485SOL     OW29353   0.335   1.301   1.014
 9485SOL    HW129354   0.362   1.346   1.099
 9485SOL    HW229355   0.417   1.278   0.962
 9486SOL     OW29356   4.039   5.905   0.813
 9486SOL    HW129357   4.095   5.823   0.801
 9486SOL    HW229358   3.973   5.890   0.887
 9487SOL     OW29359   3.495   4.194   3.832
 9487SOL    HW129360   3.445   4.125   3.885
 9487SOL    HW229361   3.507   4.276   3.887
 9488SOL     OW29362   2.924   6.914   1.045
 9488SOL    HW129363   2.868   6.834   1.022
 9488SOL    HW229364   2.952   6.909   1.141
 9489SOL     OW29365   5.250   4.358   1.180
 9489SOL    HW129366   5.295   4.435   1.136
 9489SOL    HW229367   5.285   4.346   1.272
 9490SOL     OW29368   6.436   5.428   3.460
 9490SOL    HW129369   6.424   5.511   3.406
 9490SOL    HW229370   6.383   5.435   3.545
 9491SOL     OW29371   5.033   4.916   3.722
 9491SOL    HW129372   5.053   4.943   3.816
 9491SOL    HW229373   4.946   4.958   3.694
 9492SOL     OW29374   3.780   3.633   4.556
 9492SOL    HW129375   3.824   3.604   4.641
 9492SOL    HW229376   3.850   3.661   4.490
 9493SOL     OW29377   3.115   5.683   4.061
 9493SOL    HW129378   3.098   5.643   4.152
 9493SOL    HW229379   3.065   5.630   3.992
 9494SOL     OW29380   5.483   3.050   2.863
 9494SOL    HW129381   5.408   3.115   2.864
 9494SOL    HW229382   5.570   3.098   2.852
 9495SOL     OW29383   6.821   1.971   2.832
 9495SOL    HW129384   6.807   1.913   2.912
 9495SOL    HW229385   6.913   1.956   2.796
 9496SOL     OW29386   5.773   3.603   1.608
 9496SOL    HW129387   5.823   3.688   1.626
 9496SOL    HW229388   5.829   3.525   1.637
 9497SOL     OW29389   4.924   5.889   5.040
 9497SOL    HW129390   5.001   5.878   4.978
 9497SOL    HW229391   4.930   5.822   5.114
 9498SOL     OW29392   5.746   5.608   4.700
 9498SOL    HW129393   5.771   5.548   4.624
 9498SOL    HW229394   5.648   5.599   4.718
 9499SOL     OW29395   1.732   5.569   5.841
 9499SOL    HW129396   1.682   5.503   5.785
 9499SOL    HW229397   1.830   5.554   5.830
 9500SOL     OW29398   4.253   6.657   0.206
 9500SOL    HW129399   4.266   6.679   0.302
 9500SOL    HW229400   4.160   6.624   0.191
 9501SOL     OW29401   2.552   1.438   4.938
 9501SOL    HW129402   2.584   1.471   4.849
 9501SOL    HW229403   2.619   1.463   5.008
 9502SOL     OW29404   5.654   3.246   4.731
 9502SOL    HW129405   5.576   3.229   4.671
 9502SOL    HW229406   5.719   3.308   4.686
 9503SOL     OW29407   0.223   1.816   0.803
 9503SOL    HW129408   0.161   1.878   0.757
 9503SOL    HW229409   0.317   1.850   0.796
 9504SOL     OW29410   6.978   3.646   1.021
 9504SOL    HW129411   6.887   3.684   1.008
 9504SOL    HW229412   6.987   3.614   1.116
 9505SOL     OW29413   5.344   4.849   5.205
 9505SOL    HW129414   5.444   4.843   5.201
 9505SOL    HW229415   5.310   4.885   5.118
 9506SOL     OW29416   1.522   2.491   0.188
 9506SOL    HW129417   1.619   2.484   0.164
 9506SOL    HW229418   1.509   2.465   0.284
 9507SOL     OW29419   0.542   1.134   2.056
 9507SOL    HW129420   0.601   1.063   2.094
 9507SOL    HW229421   0.517   1.199   2.128
 9508SOL     OW29422   6.125   1.819   2.332
 9508SOL    HW129423   6.043   1.764   2.349
 9508SOL    HW229424   6.150   1.869   2.414
 9509SOL     OW29425   0.337   1.098   3.795
 9509SOL    HW129426   0.364   1.162   3.866
 9509SOL    HW229427   0.238   1.104   3.781
 9510SOL     OW29428   1.476   4.027   3.819
 9510SOL    HW129429   1.528   3.969   3.757
 9510SOL    HW229430   1.490   4.123   3.796
 9511SOL     OW29431   1.832   0.080   0.849
 9511SOL    HW129432   1.763   0.047   0.913
 9511SOL    HW229433   1.793   0.082   0.757
 9512SOL     OW29434   6.689   1.464   1.129
 9512SOL    HW129435   6.728   1.413   1.053
 9512SOL    HW229436   6.594   1.437   1.142
 9513SOL     OW29437   2.337   4.044   6.065
 9513SOL    HW129438   2.367   3.981   5.994
 9513SOL    HW229439   2.311   4.131   6.024
 9514SOL     OW29440   2.130   5.073   6.022
 9514SOL    HW129441   2.131   5.171   6.003
 9514SOL    HW229442   2.221   5.043   6.051
 9515SOL     OW29443   1.799   5.813   1.929
 9515SOL    HW129444   1.718   5.864   1.959
 9515SOL    HW229445   1.839   5.858   1.849
 9516SOL     OW29446   5.341   5.083   6.785
 9516SOL    HW129447   5.301   5.035   6.863
 9516SOL    HW229448   5.356   5.179   6.809
 9517SOL     OW29449   1.482   4.162   1.340
 9517SOL    HW129450   1.564   4.127   1.386
 9517SOL    HW229451   1.401   4.135   1.393
 9518SOL     OW29452   2.216   1.504   0.686
 9518SOL    HW129453   2.161   1.478   0.606
 9518SOL    HW229454   2.224   1.603   0.690
 9519SOL     OW29455   3.340   3.008   5.555
 9519SOL    HW129456   3.415   2.956   5.513
 9519SOL    HW229457   3.360   3.106   5.551
 9520SOL     OW29458   2.592   1.315   2.859
 9520SOL    HW129459   2.680   1.357   2.882
 9520SOL    HW229460   2.524   1.339   2.929
 9521SOL     OW29461   5.019   5.829   2.712
 9521SOL    HW129462   5.086   5.813   2.785
 9521SOL    HW229463   5.017   5.927   2.690
 9522SOL     OW29464   3.020   5.580   1.195
 9522SOL    HW129465   3.118   5.578   1.175
 9522SOL    HW229466   2.990   5.490   1.227
 9523SOL     OW29467   3.983   5.333   4.444
 9523SOL    HW129468   4.077   5.352   4.415
 9523SOL    HW229469   3.920   5.352   4.369
 9524SOL     OW29470   3.832   1.963   1.193
 9524SOL    HW129471   3.803   1.880   1.146
 9524SOL    HW229472   3.872   1.938   1.281
 9525SOL     OW29473   2.709   2.885   5.958
 9525SOL    HW129474   2.779   2.949   5.990
 9525SOL    HW229475   2.749   2.794   5.949
 9526SOL     OW29476   5.052   5.647   2.082
 9526SOL    HW129477   5.092   5.706   2.012
 9526SOL    HW229478   4.965   5.686   2.112
 9527SOL     OW29479   0.607   0.371   2.850
 9527SOL    HW129480   0.630   0.392   2.944
 9527SOL    HW229481   0.690   0.345   2.800
 9528SOL     OW29482   6.673   0.369   0.693
 9528SOL    HW129483   6.665   0.466   0.716
 9528SOL    HW229484   6.582   0.329   0.685
 9529SOL     OW29485   6.276   3.025   5.505
 9529SOL    HW129486   6.312   3.043   5.414
 9529SOL    HW229487   6.350   3.032   5.572
 9530SOL     OW29488   1.954   2.853   3.076
 9530SOL    HW129489   2.050   2.857   3.049
 9530SOL    HW229490   1.923   2.758   3.074
 9531SOL     OW29491   4.247   5.742   2.800
 9531SOL    HW129492   4.170   5.730   2.863
 9531SOL    HW229493   4.324   5.782   2.850
 9532SOL     OW29494   0.888   6.541   1.818
 9532SOL    HW129495   0.853   6.619   1.870
 9532SOL    HW229496   0.917   6.571   1.728
 9533SOL     OW29497   6.676   0.524   5.033
 9533SOL    HW129498   6.762   0.475   5.045
 9533SOL    HW229499   6.680   0.581   4.951
 9534SOL     OW29500   5.997   3.281   5.143
 9534SOL    HW129501   5.919   3.339   5.121
 9534SOL    HW229502   6.044   3.316   5.224
 9535SOL     OW29503   2.708   1.084   5.557
 9535SOL    HW129504   2.741   1.146   5.485
 9535SOL    HW229505   2.662   1.137   5.628
 9536SOL     OW29506   3.286   4.923   5.051
 9536SOL    HW129507   3.210   4.883   5.102
 9536SOL    HW229508   3.254   4.957   4.963
 9537SOL     OW29509   2.289   0.030   2.376
 9537SOL    HW129510   2.361   0.095   2.349
 9537SOL    HW229511   2.317   6.962   2.353
 9538SOL     OW29512   6.514   2.041   3.526
 9538SOL    HW129513   6.449   2.005   3.592
 9538SOL    HW229514   6.478   2.124   3.485
 9539SOL     OW29515   1.989   3.737   5.341
 9539SOL    HW129516   1.908   3.679   5.337
 9539SOL    HW229517   2.069   3.681   5.364
 9540SOL     OW29518   4.881   3.980   4.551
 9540SOL    HW129519   4.882   4.023   4.642
 9540SOL    HW229520   4.793   3.934   4.537
 9541SOL     OW29521   2.741   1.794   5.811
 9541SOL    HW129522   2.680   1.838   5.745
 9541SOL    HW229523   2.771   1.862   5.878
 9542SOL     OW29524   4.888   4.091   4.804
 9542SOL    HW129525   4.894   4.021   4.875
 9542SOL    HW229526   4.891   4.181   4.846
 9543SOL     OW29527   3.445   0.968   4.675
 9543SOL    HW129528   3.470   0.964   4.578
 9543SOL    HW229529   3.520   1.009   4.727
 9544SOL     OW29530   6.957   1.178   2.599
 9544SOL    HW129531   6.985   1.128   2.682
 9544SOL    HW229532   6.926   1.112   2.530
 9545SOL     OW29533   6.897   4.731   3.802
 9545SOL    HW129534   6.853   4.666   3.740
 9545SOL    HW229535   6.933   4.682   3.882
 9546SOL     OW29536   2.468   2.877   5.838
 9546SOL    HW129537   2.427   2.786   5.838
 9546SOL    HW229538   2.555   2.875   5.886
 9547SOL     OW29539   1.611   5.901   3.841
 9547SOL    HW129540   1.582   5.911   3.745
 9547SOL    HW229541   1.709   5.918   3.847
 9548SOL     OW29542   6.092   6.215   4.821
 9548SOL    HW129543   6.045   6.161   4.751
 9548SOL    HW229544   6.102   6.309   4.790
 9549SOL     OW29545   2.841   4.229   1.391
 9549SOL    HW129546   2.794   4.294   1.450
 9549SOL    HW229547   2.776   4.192   1.324
 9550SOL     OW29548   6.918   1.184   0.027
 9550SOL    HW129549   7.015   1.206   0.013
 9550SOL    HW229550   6.863   1.233   6.985
 9551SOL     OW29551   6.772   0.435   4.651
 9551SOL    HW129552   6.854   0.462   4.601
 9551SOL    HW229553   6.724   0.363   4.600
 9552SOL     OW29554   0.877   5.938   2.245
 9552SOL    HW129555   0.926   6.024   2.255
 9552SOL    HW229556   0.939   5.862   2.263
 9553SOL     OW29557   5.847   4.162   6.786
 9553SOL    HW129558   5.883   4.092   6.725
 9553SOL    HW229559   5.894   4.249   6.768
 9554SOL     OW29560   2.442   0.389   1.414
 9554SOL    HW129561   2.542   0.386   1.407
 9554SOL    HW229562   2.413   0.478   1.447
 9555SOL     OW29563   0.057   0.935   0.884
 9555SOL    HW129564   0.088   1.019   0.840
 9555SOL    HW229565   0.085   0.935   0.980
 9556SOL     OW29566   2.503   2.659   1.154
 9556SOL    HW129567   2.452   2.719   1.093
 9556SOL    HW229568   2.439   2.596   1.199
 9557SOL     OW29569   6.422   0.852   2.950
 9557SOL    HW129570   6.468   0.896   2.873
 9557SOL    HW229571   6.325   0.874   2.947
 9558SOL     OW29572   5.598   5.218   4.136
 9558SOL    HW129573   5.672   5.152   4.122
 9558SOL    HW229574   5.573   5.221   4.232
 9559SOL     OW29575   6.968   3.687   1.804
 9559SOL    HW129576   7.019   3.728   1.879
 9559SOL    HW229577   7.021   3.694   1.720
 9560SOL     OW29578   1.200   1.599   2.415
 9560SOL    HW129579   1.130   1.619   2.484
 9560SOL    HW229580   1.287   1.637   2.445
 9561SOL     OW29581   1.726   6.594   0.743
 9561SOL    HW129582   1.684   6.640   0.821
 9561SOL    HW229583   1.765   6.506   0.773
 9562SOL     OW29584   3.300   6.481   5.023
 9562SOL    HW129585   3.275   6.486   4.927
 9562SOL    HW229586   3.240   6.539   5.077
 9563SOL     OW29587   6.148   6.487   0.254
 9563SOL    HW129588   6.102   6.565   0.211
 9563SOL    HW229589   6.236   6.517   0.292
 9564SOL     OW29590   2.499   0.102   6.417
 9564SOL    HW129591   2.512   0.006   6.442
 9564SOL    HW229592   2.453   0.151   6.491
 9565SOL     OW29593   4.239   6.135   5.086
 9565SOL    HW129594   4.279   6.217   5.127
 9565SOL    HW229595   4.259   6.055   5.143
 9566SOL     OW29596   3.480   4.575   0.326
 9566SOL    HW129597   3.511   4.620   0.241
 9566SOL    HW229598   3.387   4.540   0.313
 9567SOL     OW29599   6.549   5.474   6.463
 9567SOL    HW129600   6.458   5.464   6.503
 9567SOL    HW229601   6.543   5.520   6.375
 9568SOL     OW29602   4.527   2.925   6.154
 9568SOL    HW129603   4.486   2.998   6.098
 9568SOL    HW229604   4.620   2.907   6.123
 9569SOL     OW29605   0.018   0.730   1.829
 9569SOL    HW129606   0.070   0.672   1.893
 9569SOL    HW229607   0.029   0.826   1.855
 9570SOL     OW29608   1.083   2.045   2.073
 9570SOL    HW129609   1.040   2.116   2.017
 9570SOL    HW229610   1.027   2.028   2.154
 9571SOL     OW29611   2.892   3.419   6.959
 9571SOL    HW129612   2.802   3.410   7.003
 9571SOL    HW229613   2.896   3.359   6.879
 9572SOL     OW29614   2.149   5.537   0.826
 9572SOL    HW129615   2.142   5.473   0.902
 9572SOL    HW229616   2.212   5.501   0.758
 9573SOL     OW29617   0.424   1.703   6.642
 9573SOL    HW129618   0.364   1.777   6.613
 9573SOL    HW229619   0.496   1.689   6.574
 9574SOL     OW29620   4.067   3.265   4.654
 9574SOL    HW129621   3.974   3.228   4.664
 9574SOL    HW229622   4.129   3.190   4.632
 9575SOL     OW29623   5.271   0.610   0.980
 9575SOL    HW129624   5.261   0.689   0.919
 9575SOL    HW229625   5.198   0.609   1.048
 9576SOL     OW29626   3.241   1.424   2.560
 9576SOL    HW129627   3.229   1.497   2.494
 9576SOL    HW229628   3.173   1.352   2.545
 9577SOL     OW29629   1.415   0.441   2.778
 9577SOL    HW129630   1.476   0.380   2.727
 9577SOL    HW229631   1.436   0.437   2.875
 9578SOL     OW29632   6.567   3.308   3.288
 9578SOL    HW129633   6.632   3.333   3.215
 9578SOL    HW229634   6.498   3.379   3.297
 9579SOL     OW29635   1.245   6.302   2.944
 9579SOL    HW129636   1.337   6.289   2.908
 9579SOL    HW229637   1.230   6.240   3.021
 9580SOL     OW29638   5.461   3.324   0.434
 9580SOL    HW129639   5.398   3.301   0.508
 9580SOL    HW229640   5.435   3.413   0.395
 9581SOL     OW29641   1.596   5.359   6.157
 9581SOL    HW129642   1.643   5.272   6.170
 9581SOL    HW229643   1.544   5.357   6.071
 9582SOL     OW29644   4.346   4.737   4.543
 9582SOL    HW129645   4.329   4.725   4.641
 9582SOL    HW229646   4.394   4.657   4.508
 9583SOL     OW29647   2.377   3.466   1.342
 9583SOL    HW129648   2.467   3.464   1.386
 9583SOL    HW229649   2.373   3.542   1.278
 9584SOL     OW29650   5.756   6.103   6.917
 9584SOL    HW129651   5.750   6.190   6.870
 9584SOL    HW229652   5.799   6.035   6.857
 9585SOL     OW29653   6.510   0.602   2.993
 9585SOL    HW129654   6.487   0.699   2.990
 9585SOL    HW229655   6.427   0.548   2.982
 9586SOL     OW29656   5.739   4.379   2.241
 9586SOL    HW129657   5.744   4.313   2.316
 9586SOL    HW229658   5.658   4.360   2.185
 9587SOL     OW29659   6.385   0.504   2.435
 9587SOL    HW129660   6.340   0.435   2.378
 9587SOL    HW229661   6.423   0.576   2.377
 9588SOL     OW29662   0.561   1.319   1.832
 9588SOL    HW129663   0.504   1.401   1.840
 9588SOL    HW229664   0.531   1.250   1.898
 9589SOL     OW29665   2.588   5.657   6.939
 9589SOL    HW129666   2.605   5.756   6.930
 9589SOL    HW229667   2.543   5.624   6.856
 9590SOL     OW29668   6.930   4.922   2.455
 9590SOL    HW129669   7.014   4.922   2.509
 9590SOL    HW229670   6.901   5.016   2.439
 9591SOL     OW29671   3.100   6.223   0.086
 9591SOL    HW129672   3.184   6.170   0.076
 9591SOL    HW229673   3.063   6.246   7.021
 9592SOL     OW29674   3.890   5.413   2.151
 9592SOL    HW129675   3.876   5.333   2.210
 9592SOL    HW229676   3.976   5.404   2.102
 9593SOL     OW29677   5.398   1.110   4.727
 9593SOL    HW129678   5.469   1.144   4.665
 9593SOL    HW229679   5.324   1.177   4.732
 9594SOL     OW29680   6.913   5.926   3.549
 9594SOL    HW129681   6.938   5.866   3.625
 9594SOL    HW229682   6.865   6.006   3.585
 9595SOL     OW29683   1.999   4.773   4.623
 9595SOL    HW129684   2.086   4.765   4.574
 9595SOL    HW229685   1.997   4.859   4.674
 9596SOL     OW29686   0.352   5.097   6.667
 9596SOL    HW129687   0.278   5.038   6.631
 9596SOL    HW229688   0.383   5.061   6.755
 9597SOL     OW29689   0.238   3.716   1.243
 9597SOL    HW129690   0.242   3.662   1.159
 9597SOL    HW229691   0.142   3.734   1.266
 9598SOL     OW29692   0.705   4.147   5.483
 9598SOL    HW129693   0.605   4.151   5.477
 9598SOL    HW229694   0.745   4.160   5.392
 9599SOL     OW29695   3.657   0.881   4.964
 9599SOL    HW129696   3.698   0.810   4.907
 9599SOL    HW229697   3.613   0.950   4.906
 9600SOL     OW29698   1.873   0.247   5.999
 9600SOL    HW129699   1.958   0.280   5.959
 9600SOL    HW229700   1.861   0.151   5.977
 9601SOL     OW29701   6.370   4.148   6.067
 9601SOL    HW129702   6.450   4.112   6.018
 9601SOL    HW229703   6.304   4.074   6.081
 9602SOL     OW29704   6.797   4.689   6.520
 9602SOL    HW129705   6.872   4.754   6.526
 9602SOL    HW229706   6.722   4.719   6.579
 9603SOL     OW29707   2.378   6.834   4.548
 9603SOL    HW129708   2.366   6.778   4.630
 9603SOL    HW229709   2.366   6.931   4.571
 9604SOL     OW29710   5.230   0.634   0.089
 9604SOL    HW129711   5.145   0.686   0.080
 9604SOL    HW229712   5.307   0.690   0.059
 9605SOL     OW29713   0.504   4.713   5.629
 9605SOL    HW129714   0.417   4.762   5.639
 9605SOL    HW229715   0.580   4.778   5.643
 9606SOL     OW29716   1.103   6.952   4.573
 9606SOL    HW129717   1.070   0.010   4.527
 9606SOL    HW229718   1.071   6.871   4.523
 9607SOL     OW29719   0.939   1.888   1.669
 9607SOL    HW129720   1.023   1.921   1.712
 9607SOL    HW229721   0.871   1.869   1.740
 9608SOL     OW29722   6.987   6.915   2.552
 9608SOL    HW129723   6.900   6.910   2.502
 9608SOL    HW229724   0.032   6.862   2.503
 9609SOL     OW29725   0.953   3.836   4.580
 9609SOL    HW129726   0.954   3.782   4.665
 9609SOL    HW229727   0.871   3.813   4.527
 9610SOL     OW29728   1.014   3.256   5.226
 9610SOL    HW129729   0.955   3.307   5.288
 9610SOL    HW229730   1.023   3.305   5.140
 9611SOL     OW29731   0.078   6.788   1.179
 9611SOL    HW129732   0.032   6.874   1.158
 9611SOL    HW229733   0.014   6.712   1.170
 9612SOL     OW29734   6.288   2.788   0.569
 9612SOL    HW129735   6.219   2.812   0.501
 9612SOL    HW229736   6.347   2.868   0.585
 9613SOL     OW29737   5.447   6.145   4.237
 9613SOL    HW129738   5.392   6.176   4.314
 9613SOL    HW229739   5.414   6.188   4.153
 9614SOL     OW29740   4.301   3.746   1.775
 9614SOL    HW129741   4.222   3.758   1.834
 9614SOL    HW229742   4.337   3.835   1.748
 9615SOL     OW29743   2.433   6.119   3.169
 9615SOL    HW129744   2.365   6.046   3.162
 9615SOL    HW229745   2.469   6.121   3.262
 9616SOL     OW29746   4.369   3.298   1.039
 9616SOL    HW129747   4.436   3.297   0.965
 9616SOL    HW229748   4.415   3.284   1.126
 9617SOL     OW29749   1.263   3.832   3.895
 9617SOL    HW129750   1.230   3.868   3.982
 9617SOL    HW229751   1.338   3.889   3.862
 9618SOL     OW29752   3.284   0.672   6.627
 9618SOL    HW129753   3.327   0.740   6.687
 9618SOL    HW229754   3.319   0.683   6.534
 9619SOL     OW29755   0.599   6.880   1.057
 9619SOL    HW129756   0.593   6.914   0.963
 9619SOL    HW229757   0.521   6.820   1.076
 9620SOL     OW29758   4.316   1.259   6.749
 9620SOL    HW129759   4.292   1.192   6.819
 9620SOL    HW229760   4.367   1.212   6.676
 9621SOL     OW29761   1.516   1.090   1.608
 9621SOL    HW129762   1.457   1.016   1.641
 9621SOL    HW229763   1.588   1.052   1.550
 9622SOL     OW29764   6.481   1.209   6.747
 9622SOL    HW129765   6.400   1.160   6.714
 9622SOL    HW229766   6.498   1.185   6.842
 9623SOL     OW29767   4.609   5.301   6.847
 9623SOL    HW129768   4.597   5.337   6.940
 9623SOL    HW229769   4.602   5.375   6.781
 9624SOL     OW29770   4.962   4.770   5.565
 9624SOL    HW129771   5.038   4.825   5.530
 9624SOL    HW229772   4.984   4.673   5.556
 9625SOL     OW29773   4.596   4.490   6.678
 9625SOL    HW129774   4.659   4.436   6.734
 9625SOL    HW229775   4.581   4.445   6.590
 9626SOL     OW29776   1.767   5.434   4.445
 9626SOL    HW129777   1.757   5.501   4.519
 9626SOL    HW229778   1.854   5.386   4.456
 9627SOL     OW29779   0.954   4.668   4.689
 9627SOL    HW129780   0.983   4.597   4.753
 9627SOL    HW229781   0.869   4.710   4.723
 9628SOL     OW29782   5.993   3.989   0.816
 9628SOL    HW129783   5.933   3.932   0.872
 9628SOL    HW229784   6.071   3.935   0.785
 9629SOL     OW29785   6.850   6.314   3.465
 9629SOL    HW129786   6.805   6.271   3.386
 9629SOL    HW229787   6.901   6.394   3.435
 9630SOL     OW29788   6.068   5.495   5.189
 9630SOL    HW129789   6.008   5.512   5.112
 9630SOL    HW229790   6.054   5.565   5.259
 9631SOL     OW29791   4.490   1.086   1.539
 9631SOL    HW129792   4.411   1.037   1.575
 9631SOL    HW229793   4.570   1.026   1.541
 9632SOL     OW29794   1.938   5.384   1.528
 9632SOL    HW129795   1.883   5.431   1.597
 9632SOL    HW229796   2.015   5.339   1.573
 9633SOL     OW29797   4.288   3.226   1.473
 9633SOL    HW129798   4.369   3.217   1.414
 9633SOL    HW229799   4.314   3.211   1.568
 9634SOL     OW29800   5.870   5.410   3.053
 9634SOL    HW129801   5.934   5.484   3.030
 9634SOL    HW229802   5.914   5.346   3.115
 9635SOL     OW29803   6.959   4.645   5.126
 9635SOL    HW129804   6.897   4.711   5.084
 9635SOL    HW229805   6.982   4.676   5.219
 9636SOL     OW29806   3.791   1.560   6.088
 9636SOL    HW129807   3.695   1.578   6.067
 9636SOL    HW229808   3.804   1.462   6.103
 9637SOL     OW29809   3.443   3.371   1.617
 9637SOL    HW129810   3.502   3.290   1.605
 9637SOL    HW229811   3.348   3.346   1.598
 9638SOL     OW29812   0.051   4.082   6.312
 9638SOL    HW129813   7.018   4.066   6.392
 9638SOL    HW229814   0.146   4.094   6.341
 9639SOL     OW29815   4.610   2.874   1.687
 9639SOL    HW129816   4.643   2.952   1.740
 9639SOL    HW229817   4.593   2.903   1.593
 9640SOL     OW29818   3.936   1.388   2.056
 9640SOL    HW129819   3.901   1.317   2.117
 9640SOL    HW229820   3.990   1.454   2.108
 9641SOL     OW29821   5.016   6.310   2.519
 9641SOL    HW129822   5.014   6.330   2.421
 9641SOL    HW229823   4.985   6.390   2.570
 9642SOL     OW29824   1.109   0.144   4.347
 9642SOL    HW129825   1.140   0.235   4.320
 9642SOL    HW229826   1.036   0.152   4.415
 9643SOL     OW29827   5.268   3.806   3.573
 9643SOL    HW129828   5.315   3.745   3.509
 9643SOL    HW229829   5.188   3.759   3.612
 9644SOL     OW29830   2.128   5.977   4.826
 9644SOL    HW129831   2.217   6.012   4.795
 9644SOL    HW229832   2.093   6.036   4.898
 9645SOL     OW29833   1.087   3.871   4.931
 9645SOL    HW129834   1.084   3.967   4.902
 9645SOL    HW229835   1.157   3.860   5.001
 9646SOL     OW29836   2.927   6.281   3.034
 9646SOL    HW129837   3.015   6.308   3.073
 9646SOL    HW229838   2.873   6.234   3.103
 9647SOL     OW29839   6.887   6.381   2.828
 9647SOL    HW129840   6.971   6.398   2.777
 9647SOL    HW229841   6.844   6.468   2.850
 9648SOL     OW29842   5.256   3.231   1.264
 9648SOL    HW129843   5.223   3.216   1.357
 9648SOL    HW229844   5.241   3.149   1.209
 9649SOL     OW29845   2.693   3.803   6.550
 9649SOL    HW129846   2.756   3.775   6.622
 9649SOL    HW229847   2.600   3.809   6.587
 9650SOL     OW29848   4.996   4.377   3.176
 9650SOL    HW129849   5.045   4.316   3.237
 9650SOL    HW229850   4.903   4.342   3.161
 9651SOL     OW29851   4.069   1.071   1.457
 9651SOL    HW129852   4.082   1.072   1.556
 9651SOL    HW229853   3.991   1.013   1.434
 9652SOL     OW29854   0.598   4.617   0.734
 9652SOL    HW129855   0.532   4.550   0.767
 9652SOL    HW229856   0.648   4.656   0.811
 9653SOL     OW29857   4.544   4.352   6.066
 9653SOL    HW129858   4.583   4.288   5.999
 9653SOL    HW229859   4.599   4.435   6.070
 9654SOL     OW29860   2.875   3.408   2.511
 9654SOL    HW129861   2.916   3.497   2.495
 9654SOL    HW229862   2.777   3.419   2.529
 9655SOL     OW29863   0.121   1.852   0.416
 9655SOL    HW129864   0.201   1.793   0.404
 9655SOL    HW229865   0.042   1.796   0.442
 9656SOL     OW29866   4.792   2.144   0.901
 9656SOL    HW129867   4.800   2.230   0.951
 9656SOL    HW229868   4.854   2.145   0.822
 9657SOL     OW29869   5.915   4.425   3.409
 9657SOL    HW129870   5.971   4.505   3.392
 9657SOL    HW229871   5.971   4.353   3.451
 9658SOL     OW29872   5.486   1.937   2.705
 9658SOL    HW129873   5.479   1.892   2.617
 9658SOL    HW229874   5.398   1.979   2.729
 9659SOL     OW29875   1.383   2.297   0.045
 9659SOL    HW129876   1.421   2.209   0.019
 9659SOL    HW229877   1.444   2.343   0.109
 9660SOL     OW29878   0.519   0.584   1.672
 9660SOL    HW129879   0.426   0.548   1.657
 9660SOL    HW229880   0.536   0.590   1.771
 9661SOL     OW29881   4.515   5.884   1.204
 9661SOL    HW129882   4.546   5.819   1.135
 9661SOL    HW229883   4.518   5.841   1.294
 9662SOL     OW29884   5.073   3.757   0.628
 9662SOL    HW129885   5.151   3.702   0.598
 9662SOL    HW229886   5.095   3.801   0.715
 9663SOL     OW29887   0.187   5.550   2.412
 9663SOL    HW129888   0.258   5.504   2.464
 9663SOL    HW229889   0.186   5.647   2.435
 9664SOL     OW29890   5.382   4.163   5.077
 9664SOL    HW129891   5.293   4.129   5.109
 9664SOL    HW229892   5.367   4.234   5.009
 9665SOL     OW29893   6.368   5.999   5.940
 9665SOL    HW129894   6.388   6.049   5.855
 9665SOL    HW229895   6.392   5.903   5.928
 9666SOL     OW29896   6.129   3.575   2.174
 9666SOL    HW129897   6.164   3.665   2.148
 9666SOL    HW229898   6.114   3.520   2.092
 9667SOL     OW29899   4.377   3.568   1.536
 9667SOL    HW129900   4.447   3.554   1.466
 9667SOL    HW229901   4.344   3.662   1.532
 9668SOL     OW29902   1.503   1.217   6.363
 9668SOL    HW129903   1.529   1.160   6.441
 9668SOL    HW229904   1.510   1.163   6.279
 9669SOL     OW29905   2.153   6.686   1.164
 9669SOL    HW129906   2.138   6.629   1.245
 9669SOL    HW229907   2.220   6.642   1.104
 9670SOL     OW29908   0.174   5.539   5.180
 9670SOL    HW129909   0.091   5.582   5.145
 9670SOL    HW229910   0.241   5.531   5.107
 9671SOL     OW29911   6.514   4.561   0.663
 9671SOL    HW129912   6.464   4.626   0.605
 9671SOL    HW229913   6.602   4.540   0.622
 9672SOL     OW29914   1.311   4.789   3.526
 9672SOL    HW129915   1.365   4.866   3.493
 9672SOL    HW229916   1.356   4.749   3.606
 9673SOL     OW29917   3.679   3.563   1.162
 9673SOL    HW129918   3.587   3.533   1.189
 9673SOL    HW229919   3.683   3.572   1.063
 9674SOL     OW29920   4.096   6.907   3.108
 9674SOL    HW129921   4.008   6.868   3.134
 9674SOL    HW229922   4.170   6.855   3.150
 9675SOL     OW29923   4.978   2.661   6.696
 9675SOL    HW129924   4.910   2.718   6.648
 9675SOL    HW229925   4.930   2.593   6.752
 9676SOL     OW29926   1.606   3.775   5.524
 9676SOL    HW129927   1.579   3.734   5.611
 9676SOL    HW229928   1.658   3.709   5.470
 9677SOL     OW29929   6.702   5.049   6.034
 9677SOL    HW129930   6.762   5.124   6.063
 9677SOL    HW229931   6.728   4.965   6.083
 9678SOL     OW29932   3.007   3.830   4.239
 9678SOL    HW129933   3.029   3.737   4.268
 9678SOL    HW229934   2.987   3.830   4.141
 9679SOL     OW29935   2.892   0.639   4.162
 9679SOL    HW129936   2.887   0.628   4.262
 9679SOL    HW229937   2.896   0.549   4.119
 9680SOL     OW29938   4.270   0.370   5.319
 9680SOL    HW129939   4.187   0.424   5.332
 9680SOL    HW229940   4.344   0.408   5.374
 9681SOL     OW29941   3.500   2.089   0.626
 9681SOL    HW129942   3.405   2.107   0.598
 9681SOL    HW229943   3.508   2.099   0.725
 9682SOL     OW29944   4.996   3.716   3.634
 9682SOL    HW129945   4.961   3.623   3.623
 9682SOL    HW229946   4.962   3.774   3.561
 9683SOL     OW29947   3.127   5.886   0.425
 9683SOL    HW129948   3.095   5.922   0.513
 9683SOL    HW229949   3.053   5.890   0.358
 9684SOL     OW29950   0.959   4.455   4.902
 9684SOL    HW129951   1.052   4.417   4.899
 9684SOL    HW229952   0.899   4.390   4.948
 9685SOL     OW29953   4.697   3.405   0.661
 9685SOL    HW129954   4.638   3.405   0.580
 9685SOL    HW229955   4.718   3.499   0.688
 9686SOL     OW29956   0.761   3.089   6.602
 9686SOL    HW129957   0.684   3.088   6.666
 9686SOL    HW229958   0.810   3.002   6.607
 9687SOL     OW29959   6.410   0.802   2.539
 9687SOL    HW129960   6.503   0.769   2.530
 9687SOL    HW229961   6.405   0.897   2.510
 9688SOL     OW29962   1.016   3.365   0.680
 9688SOL    HW129963   1.013   3.428   0.603
 9688SOL    HW229964   0.947   3.294   0.668
 9689SOL     OW29965   0.604   4.524   0.010
 9689SOL    HW129966   0.607   4.522   6.934
 9689SOL    HW229967   0.684   4.476   0.047
 9690SOL     OW29968   5.194   6.512   5.707
 9690SOL    HW129969   5.158   6.446   5.774
 9690SOL    HW229970   5.285   6.483   5.679
 9691SOL     OW29971   2.942   3.974   1.740
 9691SOL    HW129972   2.974   4.063   1.709
 9691SOL    HW229973   2.996   3.902   1.697
 9692SOL     OW29974   4.561   5.708   1.000
 9692SOL    HW129975   4.488   5.642   1.016
 9692SOL    HW229976   4.592   5.702   0.905
 9693SOL     OW29977   6.147   4.166   3.234
 9693SOL    HW129978   6.110   4.102   3.166
 9693SOL    HW229979   6.103   4.149   3.322
 9694SOL     OW29980   3.292   1.053   2.589
 9694SOL    HW129981   3.295   0.974   2.649
 9694SOL    HW229982   3.286   1.024   2.494
 9695SOL     OW29983   6.404   2.826   3.288
 9695SOL    HW129984   6.411   2.779   3.375
 9695SOL    HW229985   6.442   2.769   3.215
 9696SOL     OW29986   5.924   2.991   1.624
 9696SOL    HW129987   5.939   2.894   1.603
 9696SOL    HW229988   5.891   3.038   1.543
 9697SOL     OW29989   0.729   6.225   0.469
 9697SOL    HW129990   0.692   6.291   0.535
 9697SOL    HW229991   0.726   6.265   0.377
 9698SOL     OW29992   5.405   2.783   5.550
 9698SOL    HW129993   5.496   2.754   5.519
 9698SOL    HW229994   5.392   2.880   5.530
 9699SOL     OW29995   0.368   5.346   0.287
 9699SOL    HW129996   0.354   5.309   0.195
 9699SOL    HW229997   0.331   5.439   0.292
 9700SOL     OW29998   6.705   5.170   4.751
 9700SOL    HW129999   6.679   5.262   4.780
 9700SOL    HW230000   6.801   5.154   4.773
 9701SOL     OW30001   4.332   4.029   5.714
 9701SOL    HW130002   4.364   3.936   5.734
 9701SOL    HW230003   4.233   4.034   5.730
 9702SOL     OW30004   4.213   1.882   0.608
 9702SOL    HW130005   4.122   1.845   0.622
 9702SOL    HW230006   4.280   1.808   0.610
 9703SOL     OW30007   4.899   3.466   3.642
 9703SOL    HW130008   4.914   3.380   3.592
 9703SOL    HW230009   4.829   3.452   3.712
 9704SOL     OW30010   3.572   5.904   1.768
 9704SOL    HW130011   3.517   5.981   1.802
 9704SOL    HW230012   3.537   5.818   1.806
 9705SOL     OW30013   5.512   4.315   6.017
 9705SOL    HW130014   5.413   4.319   6.005
 9705SOL    HW230015   5.542   4.220   6.008
 9706SOL     OW30016   2.784   1.725   1.427
 9706SOL    HW130017   2.858   1.790   1.445
 9706SOL    HW230018   2.716   1.769   1.367
 9707SOL     OW30019   5.473   5.206   2.522
 9707SOL    HW130020   5.494   5.292   2.569
 9707SOL    HW230021   5.557   5.167   2.486
 9708SOL     OW30022   0.886   1.168   3.472
 9708SOL    HW130023   0.944   1.095   3.433
 9708SOL    HW230024   0.793   1.159   3.437
 9709SOL     OW30025   5.237   4.793   2.185
 9709SOL    HW130026   5.242   4.710   2.240
 9709SOL    HW230027   5.143   4.804   2.151
 9710SOL     OW30028   6.639   1.492   1.604
 9710SOL    HW130029   6.634   1.572   1.545
 9710SOL    HW230030   6.568   1.497   1.673
 9711SOL     OW30031   4.559   5.274   6.011
 9711SOL    HW130032   4.535   5.269   6.107
 9711SOL    HW230033   4.640   5.332   6.000
 9712SOL     OW30034   5.628   3.575   0.186
 9712SOL    HW130035   5.647   3.557   0.089
 9712SOL    HW230036   5.618   3.673   0.200
 9713SOL     OW30037   2.092   4.921   3.248
 9713SOL    HW130038   2.168   4.985   3.252
 9713SOL    HW230039   2.014   4.965   3.203
 9714SOL     OW30040   4.278   6.649   6.348
 9714SOL    HW130041   4.366   6.616   6.381
 9714SOL    HW230042   4.225   6.684   6.425
 9715SOL     OW30043   5.486   4.310   7.014
 9715SOL    HW130044   5.405   4.293   6.958
 9715SOL    HW230045   5.459   4.325   0.084
 9716SOL     OW30046   3.729   4.162   6.865
 9716SOL    HW130047   3.745   4.082   6.924
 9716SOL    HW230048   3.718   4.131   6.771
 9717SOL     OW30049   4.981   6.343   6.181
 9717SOL    HW130050   5.005   6.316   6.275
 9717SOL    HW230051   4.885   6.371   6.178
 9718SOL     OW30052   4.760   3.236   1.427
 9718SOL    HW130053   4.815   3.159   1.394
 9718SOL    HW230054   4.818   3.315   1.444
 9719SOL     OW30055   5.505   0.517   5.725
 9719SOL    HW130056   5.430   0.488   5.666
 9719SOL    HW230057   5.542   0.438   5.774
 9720SOL     OW30058   0.820   3.730   2.208
 9720SOL    HW130059   0.766   3.810   2.233
 9720SOL    HW230060   0.875   3.700   2.286
 9721SOL     OW30061   0.159   1.155   0.115
 9721SOL    HW130062   0.106   1.081   0.074
 9721SOL    HW230063   0.178   1.133   0.211
 9722SOL     OW30064   3.481   1.248   5.423
 9722SOL    HW130065   3.451   1.190   5.347
 9722SOL    HW230066   3.568   1.292   5.399
 9723SOL     OW30067   4.146   6.038   4.189
 9723SOL    HW130068   4.075   6.036   4.118
 9723SOL    HW230069   4.136   6.122   4.242
 9724SOL     OW30070   1.348   4.649   0.291
 9724SOL    HW130071   1.301   4.672   0.377
 9724SOL    HW230072   1.446   4.641   0.308
 9725SOL     OW30073   4.278   6.312   6.158
 9725SOL    HW130074   4.331   6.305   6.073
 9725SOL    HW230075   4.263   6.409   6.179
 9726SOL     OW30076   4.363   1.614   4.088
 9726SOL    HW130077   4.383   1.541   4.152
 9726SOL    HW230078   4.391   1.587   3.996
 9727SOL     OW30079   0.914   1.909   6.727
 9727SOL    HW130080   0.980   1.909   6.803
 9727SOL    HW230081   0.964   1.910   6.640
 9728SOL     OW30082   0.398   1.578   5.382
 9728SOL    HW130083   0.455   1.498   5.370
 9728SOL    HW230084   0.312   1.566   5.333
 9729SOL     OW30085   1.233   4.480   4.123
 9729SOL    HW130086   1.324   4.447   4.096
 9729SOL    HW230087   1.168   4.404   4.118
 9730SOL     OW30088   0.748   4.112   3.598
 9730SOL    HW130089   0.767   4.014   3.594
 9730SOL    HW230090   0.794   4.152   3.677
 9731SOL     OW30091   5.188   5.453   1.809
 9731SOL    HW130092   5.098   5.426   1.773
 9731SOL    HW230093   5.195   5.427   1.905
 9732SOL     OW30094   1.631   3.939   2.319
 9732SOL    HW130095   1.587   3.856   2.285
 9732SOL    HW230096   1.578   4.019   2.292
 9733SOL     OW30097   4.975   5.664   0.269
 9733SOL    HW130098   5.070   5.682   0.243
 9733SOL    HW230099   4.939   5.591   0.211
 9734SOL     OW30100   6.511   0.425   0.423
 9734SOL    HW130101   6.584   0.388   0.481
 9734SOL    HW230102   6.422   0.410   0.466
 9735SOL     OW30103   1.705   2.958   3.474
 9735SOL    HW130104   1.733   3.044   3.518
 9735SOL    HW230105   1.630   2.976   3.411
 9736SOL     OW30106   5.597   1.680   6.236
 9736SOL    HW130107   5.596   1.779   6.246
 9736SOL    HW230108   5.576   1.655   6.142
 9737SOL     OW30109   4.955   2.145   2.778
 9737SOL    HW130110   5.033   2.083   2.790
 9737SOL    HW230111   4.988   2.238   2.765
 9738SOL     OW30112   1.795   6.357   0.889
 9738SOL    HW130113   1.779   6.417   0.968
 9738SOL    HW230114   1.830   6.269   0.920
 9739SOL     OW30115   5.254   5.518   0.628
 9739SOL    HW130116   5.195   5.573   0.568
 9739SOL    HW230117   5.317   5.464   0.571
 9740SOL     OW30118   0.548   0.895   3.411
 9740SOL    HW130119   0.467   0.904   3.352
 9740SOL    HW230120   0.519   0.889   3.506
 9741SOL     OW30121   2.261   1.370   2.794
 9741SOL    HW130122   2.197   1.447   2.791
 9741SOL    HW230123   2.324   1.381   2.870
 9742SOL     OW30124   4.243   0.828   0.673
 9742SOL    HW130125   4.182   0.794   0.744
 9742SOL    HW230126   4.260   0.926   0.687
 9743SOL     OW30127   6.545   4.409   3.060
 9743SOL    HW130128   6.491   4.329   3.089
 9743SOL    HW230129   6.620   4.379   3.001
 9744SOL     OW30130   1.450   0.166   2.348
 9744SOL    HW130131   1.548   0.151   2.335
 9744SOL    HW230132   1.427   0.260   2.324
 9745SOL     OW30133   4.420   2.810   6.363
 9745SOL    HW130134   4.475   2.850   6.290
 9745SOL    HW230135   4.375   2.884   6.415
 9746SOL     OW30136   5.815   0.137   5.581
 9746SOL    HW130137   5.874   0.079   5.637
 9746SOL    HW230138   5.828   0.233   5.607
 9747SOL     OW30139   2.540   2.078   1.889
 9747SOL    HW130140   2.616   2.040   1.836
 9747SOL    HW230141   2.575   2.148   1.951
 9748SOL     OW30142   6.469   6.670   3.782
 9748SOL    HW130143   6.528   6.597   3.748
 9748SOL    HW230144   6.488   6.755   3.733
 9749SOL     OW30145   0.949   0.749   4.155
 9749SOL    HW130146   1.016   0.790   4.216
 9749SOL    HW230147   0.864   0.802   4.158
 9750SOL     OW30148   5.692   5.018   3.332
 9750SOL    HW130149   5.637   5.017   3.248
 9750SOL    HW230150   5.760   4.945   3.328
 9751SOL     OW30151   2.538   7.015   1.169
 9751SOL    HW130152   2.524   0.090   1.166
 9751SOL    HW230153   2.540   6.979   1.076
 9752SOL     OW30154   4.559   1.761   5.113
 9752SOL    HW130155   4.470   1.807   5.116
 9752SOL    HW230156   4.547   1.663   5.123
 9753SOL     OW30157   0.555   5.343   5.601
 9753SOL    HW130158   0.606   5.291   5.532
 9753SOL    HW230159   0.599   5.431   5.617
 9754SOL     OW30160   2.010   0.321   0.677
 9754SOL    HW130161   2.025   0.358   0.769
 9754SOL    HW230162   2.010   0.221   0.682
 9755SOL     OW30163   3.333   3.754   4.369
 9755SOL    HW130164   3.408   3.719   4.424
 9755SOL    HW230165   3.261   3.684   4.362
 9756SOL     OW30166   6.149   2.304   6.046
 9756SOL    HW130167   6.139   2.326   6.143
 9756SOL    HW230168   6.065   2.329   5.998
 9757SOL     OW30169   5.628   4.807   5.127
 9757SOL    HW130170   5.699   4.737   5.123
 9757SOL    HW230171   5.668   4.896   5.108
 9758SOL     OW30172   1.697   0.898   0.478
 9758SOL    HW130173   1.708   0.818   0.419
 9758SOL    HW230174   1.786   0.926   0.514
 9759SOL     OW30175   1.498   0.971   0.222
 9759SOL    HW130176   1.440   1.041   0.264
 9759SOL    HW230177   1.593   0.990   0.245
 9760SOL     OW30178   4.927   3.485   5.605
 9760SOL    HW130179   4.859   3.436   5.550
 9760SOL    HW230180   4.927   3.582   5.579
 9761SOL     OW30181   0.268   2.599   1.629
 9761SOL    HW130182   0.330   2.521   1.626
 9761SOL    HW230183   0.309   2.672   1.684
 9762SOL     OW30184   3.826   1.797   4.831
 9762SOL    HW130185   3.910   1.849   4.820
 9762SOL    HW230186   3.765   1.814   4.754
 9763SOL     OW30187   5.126   1.561   3.441
 9763SOL    HW130188   5.050   1.619   3.471
 9763SOL    HW230189   5.157   1.590   3.351
 9764SOL     OW30190   6.917   2.680   2.698
 9764SOL    HW130191   6.862   2.760   2.722
 9764SOL    HW230192   6.920   2.617   2.776
 9765SOL     OW30193   6.726   5.943   3.350
 9765SOL    HW130194   6.708   6.039   3.327
 9765SOL    HW230195   6.798   5.939   3.419
 9766SOL     OW30196   2.017   6.614   1.916
 9766SOL    HW130197   2.023   6.701   1.966
 9766SOL    HW230198   1.954   6.625   1.839
 9767SOL     OW30199   2.524   2.323   5.747
 9767SOL    HW130200   2.611   2.334   5.699
 9767SOL    HW230201   2.464   2.399   5.724
 9768SOL     OW30202   4.871   1.290   1.244
 9768SOL    HW130203   4.953   1.238   1.268
 9768SOL    HW230204   4.826   1.323   1.328
 9769SOL     OW30205   3.205   1.428   4.943
 9769SOL    HW130206   3.155   1.514   4.934
 9769SOL    HW230207   3.300   1.446   4.966
 9770SOL     OW30208   3.610   0.949   5.833
 9770SOL    HW130209   3.707   0.947   5.807
 9770SOL    HW230210   3.554   0.963   5.752
 9771SOL     OW30211   2.715   5.479   0.804
 9771SOL    HW130212   2.678   5.546   0.868
 9771SOL    HW230213   2.647   5.460   0.733
 9772SOL     OW30214   1.511   6.111   1.960
 9772SOL    HW130215   1.562   6.097   2.045
 9772SOL    HW230216   1.485   6.207   1.951
 9773SOL     OW30217   4.972   5.423   3.709
 9773SOL    HW130218   4.978   5.522   3.697
 9773SOL    HW230219   4.935   5.402   3.800
 9774SOL     OW30220   6.987   4.709   1.745
 9774SOL    HW130221   6.997   4.809   1.751
 9774SOL    HW230222   6.955   4.685   1.653
 9775SOL     OW30223   3.245   0.364   3.535
 9775SOL    HW130224   3.333   0.406   3.560
 9775SOL    HW230225   3.215   0.303   3.608
 9776SOL     OW30226   0.703   5.192   5.795
 9776SOL    HW130227   0.641   5.227   5.725
 9776SOL    HW230228   0.786   5.247   5.797
 9777SOL     OW30229   6.128   4.676   0.561
 9777SOL    HW130230   6.220   4.710   0.544
 9777SOL    HW230231   6.133   4.579   0.586
 9778SOL     OW30232   0.215   1.698   4.548
 9778SOL    HW130233   0.258   1.617   4.588
 9778SOL    HW230234   0.130   1.718   4.597
 9779SOL     OW30235   0.396   1.286   3.990
 9779SOL    HW130236   0.383   1.385   3.985
 9779SOL    HW230237   0.443   1.262   4.075
 9780SOL     OW30238   2.335   2.459   0.361
 9780SOL    HW130239   2.306   2.552   0.338
 9780SOL    HW230240   2.258   2.396   0.349
 9781SOL     OW30241   2.083   2.179   5.037
 9781SOL    HW130242   2.003   2.218   4.993
 9781SOL    HW230243   2.128   2.249   5.093
 9782SOL     OW30244   0.693   2.188   0.464
 9782SOL    HW130245   0.617   2.164   0.403
 9782SOL    HW230246   0.658   2.243   0.540
 9783SOL     OW30247   4.488   2.397   3.429
 9783SOL    HW130248   4.480   2.475   3.491
 9783SOL    HW230249   4.584   2.374   3.416
 9784SOL     OW30250   3.161   1.029   6.426
 9784SOL    HW130251   3.101   0.978   6.487
 9784SOL    HW230252   3.208   0.966   6.365
 9785SOL     OW30253   0.281   2.002   5.458
 9785SOL    HW130254   0.324   1.998   5.548
 9785SOL    HW230255   0.190   1.962   5.463
 9786SOL     OW30256   2.564   4.273   0.413
 9786SOL    HW130257   2.511   4.245   0.494
 9786SOL    HW230258   2.595   4.191   0.364
 9787SOL     OW30259   3.237   3.016   2.651
 9787SOL    HW130260   3.251   2.991   2.747
 9787SOL    HW230261   3.154   3.072   2.644
 9788SOL     OW30262   0.836   6.862   2.591
 9788SOL    HW130263   0.804   6.922   2.517
 9788SOL    HW230264   0.896   6.913   2.652
 9789SOL     OW30265   1.876   5.468   0.607
 9789SOL    HW130266   1.892   5.565   0.622
 9789SOL    HW230267   1.799   5.438   0.664
 9790SOL     OW30268   6.363   4.714   6.511
 9790SOL    HW130269   6.360   4.614   6.509
 9790SOL    HW230270   6.298   4.752   6.445
 9791SOL     OW30271   0.428   0.102   6.657
 9791SOL    HW130272   0.509   0.147   6.694
 9791SOL    HW230273   0.436   0.003   6.670
 9792SOL     OW30274   3.008   4.048   0.771
 9792SOL    HW130275   2.915   4.012   0.779
 9792SOL    HW230276   3.003   4.143   0.741
 9793SOL     OW30277   4.140   0.119   2.586
 9793SOL    HW130278   4.096   0.203   2.553
 9793SOL    HW230279   4.206   0.143   2.658
 9794SOL     OW30280   6.739   4.233   6.465
 9794SOL    HW130281   6.787   4.308   6.420
 9794SOL    HW230282   6.805   4.161   6.487
 9795SOL     OW30283   1.206   1.767   4.635
 9795SOL    HW130284   1.241   1.735   4.723
 9795SOL    HW230285   1.269   1.834   4.596
 9796SOL     OW30286   4.120   3.228   2.283
 9796SOL    HW130287   4.072   3.164   2.223
 9796SOL    HW230288   4.211   3.247   2.247
 9797SOL     OW30289   2.316   5.514   0.610
 9797SOL    HW130290   2.296   5.536   0.515
 9797SOL    HW230291   2.395   5.453   0.614
 9798SOL     OW30292   3.351   0.603   2.518
 9798SOL    HW130293   3.357   0.508   2.487
 9798SOL    HW230294   3.275   0.613   2.581
 9799SOL     OW30295   2.330   4.388   5.601
 9799SOL    HW130296   2.231   4.397   5.602
 9799SOL    HW230297   2.372   4.478   5.599
 9800SOL     OW30298   4.824   5.419   5.098
 9800SOL    HW130299   4.908   5.381   5.059
 9800SOL    HW230300   4.841   5.511   5.131
 9801SOL     OW30301   4.351   3.864   6.671
 9801SOL    HW130302   4.259   3.846   6.638
 9801SOL    HW230303   4.407   3.900   6.597
 9802SOL     OW30304   6.070   4.904   1.869
 9802SOL    HW130305   6.018   4.820   1.887
 9802SOL    HW230306   6.015   4.983   1.895
 9803SOL     OW30307   1.905   2.182   6.347
 9803SOL    HW130308   1.840   2.142   6.283
 9803SOL    HW230309   1.856   2.234   6.417
 9804SOL     OW30310   0.573   6.662   2.875
 9804SOL    HW130311   0.606   6.724   2.946
 9804SOL    HW230312   0.626   6.577   2.879
 9805SOL     OW30313   0.588   6.712   2.621
 9805SOL    HW130314   0.678   6.753   2.636
 9805SOL    HW230315   0.546   6.689   2.709
 9806SOL     OW30316   1.507   1.645   6.890
 9806SOL    HW130317   1.420   1.600   6.868
 9806SOL    HW230318   1.510   1.734   6.844
 9807SOL     OW30319   3.162   3.675   1.562
 9807SOL    HW130320   3.219   3.735   1.618
 9807SOL    HW230321   3.120   3.728   1.488
 9808SOL     OW30322   4.086   6.706   4.977
 9808SOL    HW130323   4.016   6.746   4.918
 9808SOL    HW230324   4.045   6.635   5.034
 9809SOL     OW30325   1.021   3.724   6.751
 9809SOL    HW130326   1.016   3.817   6.712
 9809SOL    HW230327   1.040   3.659   6.678
 9810SOL     OW30328   2.934   2.271   4.542
 9810SOL    HW130329   2.931   2.371   4.532
 9810SOL    HW230330   2.921   2.247   4.639
 9811SOL     OW30331   5.647   4.661   3.381
 9811SOL    HW130332   5.599   4.745   3.405
 9811SOL    HW230333   5.581   4.587   3.369
 9812SOL     OW30334   3.945   1.628   5.416
 9812SOL    HW130335   3.980   1.575   5.493
 9812SOL    HW230336   3.845   1.634   5.422
 9813SOL     OW30337   4.830   1.758   0.872
 9813SOL    HW130338   4.887   1.731   0.795
 9813SOL    HW230339   4.888   1.782   0.950
 9814SOL     OW30340   6.902   0.239   6.475
 9814SOL    HW130341   6.932   0.284   6.559
 9814SOL    HW230342   6.979   0.189   6.434
 9815SOL     OW30343   4.884   3.655   4.469
 9815SOL    HW130344   4.861   3.645   4.565
 9815SOL    HW230345   4.965   3.600   4.448
 9816SOL     OW30346   1.099   1.014   6.026
 9816SOL    HW130347   1.074   0.918   6.028
 9816SOL    HW230348   1.111   1.043   5.931
 9817SOL     OW30349   2.600   6.355   3.480
 9817SOL    HW130350   2.594   6.449   3.447
 9817SOL    HW230351   2.660   6.351   3.559
 9818SOL     OW30352   0.313   0.696   3.754
 9818SOL    HW130353   0.259   0.704   3.671
 9818SOL    HW230354   0.407   0.725   3.736
 9819SOL     OW30355   5.428   3.640   3.423
 9819SOL    HW130356   5.502   3.687   3.375
 9819SOL    HW230357   5.431   3.542   3.402
 9820SOL     OW30358   3.386   2.883   6.677
 9820SOL    HW130359   3.437   2.866   6.593
 9820SOL    HW230360   3.308   2.942   6.658
 9821SOL     OW30361   5.326   1.231   0.066
 9821SOL    HW130362   5.343   1.257   6.995
 9821SOL    HW230363   5.279   1.305   0.113
 9822SOL     OW30364   2.125   6.923   3.036
 9822SOL    HW130365   2.146   6.825   3.040
 9822SOL    HW230366   2.060   6.947   3.108
 9823SOL     OW30367   2.501   0.383   6.916
 9823SOL    HW130368   2.546   0.402   6.829
 9823SOL    HW230369   2.402   0.386   6.903
 9824SOL     OW30370   1.987   5.264   4.420
 9824SOL    HW130371   1.928   5.197   4.465
 9824SOL    HW230372   2.056   5.217   4.366
 9825SOL     OW30373   4.067   5.071   5.388
 9825SOL    HW130374   4.042   5.015   5.309
 9825SOL    HW230375   4.158   5.045   5.420
 9826SOL     OW30376   5.393   5.167   6.501
 9826SOL    HW130377   5.445   5.107   6.439
 9826SOL    HW230378   5.409   5.139   6.595
 9827SOL     OW30379   2.030   3.786   3.447
 9827SOL    HW130380   1.933   3.766   3.433
 9827SOL    HW230381   2.082   3.751   3.370
 9828SOL     OW30382   2.035   2.778   6.033
 9828SOL    HW130383   2.019   2.870   6.068
 9828SOL    HW230384   2.129   2.769   6.003
 9829SOL     OW30385   3.928   5.083   0.370
 9829SOL    HW130386   3.910   5.156   0.305
 9829SOL    HW230387   3.937   5.121   0.462
 9830SOL     OW30388   5.826   2.777   1.847
 9830SOL    HW130389   5.749   2.815   1.796
 9830SOL    HW230390   5.809   2.680   1.865
 9831SOL     OW30391   2.239   5.124   1.161
 9831SOL    HW130392   2.326   5.074   1.160
 9831SOL    HW230393   2.171   5.071   1.211
 9832SOL     OW30394   4.745   5.418   3.034
 9832SOL    HW130395   4.766   5.331   3.080
 9832SOL    HW230396   4.680   5.470   3.089
 9833SOL     OW30397   3.673   3.785   5.304
 9833SOL    HW130398   3.750   3.751   5.250
 9833SOL    HW230399   3.590   3.737   5.277
 9834SOL     OW30400   3.039   4.824   5.081
 9834SOL    HW130401   2.941   4.834   5.065
 9834SOL    HW230402   3.056   4.741   5.135
 9835SOL     OW30403   3.604   3.168   5.609
 9835SOL    HW130404   3.586   3.256   5.652
 9835SOL    HW230405   3.696   3.168   5.570
 9836SOL     OW30406   6.418   4.970   3.797
 9836SOL    HW130407   6.431   4.975   3.698
 9836SOL    HW230408   6.336   4.916   3.818
 9837SOL     OW30409   2.997   0.418   3.197
 9837SOL    HW130410   3.025   0.410   3.102
 9837SOL    HW230411   3.010   0.513   3.228
 9838SOL     OW30412   1.815   6.819   6.577
 9838SOL    HW130413   1.765   6.764   6.510
 9838SOL    HW230414   1.864   6.892   6.530
 9839SOL     OW30415   5.663   0.768   3.781
 9839SOL    HW130416   5.576   0.749   3.737
 9839SOL    HW230417   5.734   0.781   3.711
 9840SOL     OW30418   6.457   1.308   1.131
 9840SOL    HW130419   6.373   1.353   1.098
 9840SOL    HW230420   6.441   1.272   1.223
 9841SOL     OW30421   1.691   4.080   5.098
 9841SOL    HW130422   1.763   4.088   5.167
 9841SOL    HW230423   1.710   4.002   5.038
 9842SOL     OW30424   3.822   2.980   2.380
 9842SOL    HW130425   3.747   2.929   2.338
 9842SOL    HW230426   3.898   2.987   2.315
 9843SOL     OW30427   6.118   0.826   0.910
 9843SOL    HW130428   6.032   0.864   0.943
 9843SOL    HW230429   6.177   0.900   0.877
 9844SOL     OW30430   6.493   0.669   2.238
 9844SOL    HW130431   6.407   0.699   2.198
 9844SOL    HW230432   6.557   0.646   2.164
 9845SOL     OW30433   2.614   2.251   4.070
 9845SOL    HW130434   2.652   2.222   4.157
 9845SOL    HW230435   2.551   2.181   4.035
 9846SOL     OW30436   4.046   3.603   1.508
 9846SOL    HW130437   4.053   3.546   1.426
 9846SOL    HW230438   4.070   3.698   1.485
 9847SOL     OW30439   3.391   2.877   4.274
 9847SOL    HW130440   3.335   2.914   4.200
 9847SOL    HW230441   3.464   2.820   4.236
 9848SOL     OW30442   3.242   3.660   5.285
 9848SOL    HW130443   3.256   3.734   5.220
 9848SOL    HW230444   3.144   3.644   5.298
 9849SOL     OW30445   0.540   6.484   6.493
 9849SOL    HW130446   0.534   6.454   6.588
 9849SOL    HW230447   0.634   6.473   6.461
 9850SOL     OW30448   5.873   0.104   3.944
 9850SOL    HW130449   5.788   0.098   3.997
 9850SOL    HW230450   5.891   0.200   3.922
 9851SOL     OW30451   5.022   0.626   4.862
 9851SOL    HW130452   5.056   0.583   4.778
 9851SOL    HW230453   5.090   0.691   4.896
 9852SOL     OW30454   3.978   2.150   3.757
 9852SOL    HW130455   3.963   2.136   3.659
 9852SOL    HW230456   4.047   2.221   3.770
 9853SOL     OW30457   5.188   3.946   4.779
 9853SOL    HW130458   5.135   3.926   4.696
 9853SOL    HW230459   5.130   3.996   4.844
 9854SOL     OW30460   0.227   6.026   4.685
 9854SOL    HW130461   0.246   6.101   4.749
 9854SOL    HW230462   0.311   6.001   4.638
 9855SOL     OW30463   2.686   3.028   0.724
 9855SOL    HW130464   2.681   2.972   0.807
 9855SOL    HW230465   2.623   2.992   0.656
 9856SOL     OW30466   5.176   4.908   5.426
 9856SOL    HW130467   5.135   4.999   5.434
 9856SOL    HW230468   5.220   4.899   5.337
 9857SOL     OW30469   4.414   1.978   3.726
 9857SOL    HW130470   4.446   1.985   3.631
 9857SOL    HW230471   4.317   1.952   3.727
 9858SOL     OW30472   6.673   0.792   1.295
 9858SOL    HW130473   6.771   0.782   1.279
 9858SOL    HW230474   6.633   0.850   1.223
 9859SOL     OW30475   6.245   0.311   2.292
 9859SOL    HW130476   6.240   0.274   2.199
 9859SOL    HW230477   6.249   0.236   2.357
 9860SOL     OW30478   1.176   1.321   4.098
 9860SOL    HW130479   1.138   1.229   4.091
 9860SOL    HW230480   1.264   1.317   4.146
 9861SOL     OW30481   2.926   0.033   3.547
 9861SOL    HW130482   2.999   0.054   3.482
 9861SOL    HW230483   2.876   0.117   3.569
 9862SOL     OW30484   4.181   3.656   0.108
 9862SOL    HW130485   4.228   3.719   0.171
 9862SOL    HW230486   4.133   3.586   0.161
 9863SOL     OW30487   3.249   6.894   3.252
 9863SOL    HW130488   3.313   6.951   3.201
 9863SOL    HW230489   3.212   6.946   3.329
 9864SOL     OW30490   3.976   6.411   4.146
 9864SOL    HW130491   3.968   6.508   4.167
 9864SOL    HW230492   4.071   6.388   4.126
 9865SOL     OW30493   1.351   1.036   4.551
 9865SOL    HW130494   1.448   1.040   4.525
 9865SOL    HW230495   1.298   1.096   4.492
 9866SOL     OW30496   4.992   4.828   6.175
 9866SOL    HW130497   5.016   4.855   6.082
 9866SOL    HW230498   4.894   4.806   6.179
 9867SOL     OW30499   6.547   0.830   0.848
 9867SOL    HW130500   6.492   0.751   0.876
 9867SOL    HW230501   6.591   0.870   0.928
 9868SOL     OW30502   0.525   3.681   6.430
 9868SOL    HW130503   0.579   3.765   6.443
 9868SOL    HW230504   0.430   3.698   6.457
 9869SOL     OW30505   1.771   3.227   2.202
 9869SOL    HW130506   1.852   3.191   2.248
 9869SOL    HW230507   1.800   3.278   2.120
 9870SOL     OW30508   3.744   5.600   2.449
 9870SOL    HW130509   3.835   5.594   2.409
 9870SOL    HW230510   3.732   5.526   2.516
 9871SOL     OW30511   0.409   5.598   5.939
 9871SOL    HW130512   0.498   5.628   5.904
 9871SOL    HW230513   0.359   5.549   5.868
 9872SOL     OW30514   2.174   5.431   3.919
 9872SOL    HW130515   2.109   5.437   3.843
 9872SOL    HW230516   2.229   5.348   3.909
 9873SOL     OW30517   2.854   2.251   0.047
 9873SOL    HW130518   2.800   2.215   0.124
 9873SOL    HW230519   2.853   2.351   0.049
 9874SOL     OW30520   6.544   3.036   4.903
 9874SOL    HW130521   6.546   3.136   4.897
 9874SOL    HW230522   6.616   3.005   4.965
 9875SOL     OW30523   6.089   5.988   2.159
 9875SOL    HW130524   6.140   5.904   2.139
 9875SOL    HW230525   6.135   6.066   2.118
 9876SOL     OW30526   6.413   0.211   3.356
 9876SOL    HW130527   6.383   0.215   3.261
 9876SOL    HW230528   6.370   0.284   3.409
 9877SOL     OW30529   7.012   6.165   4.000
 9877SOL    HW130530   6.998   6.209   3.911
 9877SOL    HW230531   6.934   6.183   4.059
 9878SOL     OW30532   2.565   4.719   4.999
 9878SOL    HW130533   2.649   4.664   4.998
 9878SOL    HW230534   2.531   4.730   4.906
 9879SOL     OW30535   5.626   5.453   5.075
 9879SOL    HW130536   5.719   5.488   5.085
 9879SOL    HW230537   5.585   5.489   4.991
 9880SOL     OW30538   3.346   0.901   6.213
 9880SOL    HW130539   3.444   0.884   6.205
 9880SOL    HW230540   3.316   0.962   6.140
 9881SOL     OW30541   0.489   0.950   5.023
 9881SOL    HW130542   0.525   0.932   5.115
 9881SOL    HW230543   0.412   1.014   5.029
 9882SOL     OW30544   1.156   3.335   4.002
 9882SOL    HW130545   1.056   3.336   3.997
 9882SOL    HW230546   1.185   3.351   4.096
 9883SOL     OW30547   1.229   6.488   0.094
 9883SOL    HW130548   1.190   6.516   0.006
 9883SOL    HW230549   1.160   6.499   0.165
 9884SOL     OW30550   5.289   2.607   1.506
 9884SOL    HW130551   5.330   2.529   1.553
 9884SOL    HW230552   5.345   2.689   1.521
 9885SOL     OW30553   6.625   2.165   4.991
 9885SOL    HW130554   6.668   2.206   5.071
 9885SOL    HW230555   6.663   2.074   4.975
 9886SOL     OW30556   1.211   4.501   2.602
 9886SOL    HW130557   1.249   4.469   2.515
 9886SOL    HW230558   1.114   4.523   2.589
 9887SOL     OW30559   4.199   0.328   6.364
 9887SOL    HW130560   4.182   0.375   6.278
 9887SOL    HW230561   4.111   0.305   6.407
 9888SOL     OW30562   5.671   4.593   2.742
 9888SOL    HW130563   5.734   4.548   2.679
 9888SOL    HW230564   5.632   4.525   2.804
 9889SOL     OW30565   6.771   4.962   1.496
 9889SOL    HW130566   6.788   5.035   1.430
 9889SOL    HW230567   6.786   4.873   1.453
 9890SOL     OW30568   1.349   2.847   0.625
 9890SOL    HW130569   1.250   2.833   0.626
 9890SOL    HW230570   1.395   2.768   0.665
 9891SOL     OW30571   5.447   3.426   2.151
 9891SOL    HW130572   5.421   3.473   2.066
 9891SOL    HW230573   5.383   3.353   2.170
 9892SOL     OW30574   0.242   4.845   0.972
 9892SOL    HW130575   0.289   4.914   1.027
 9892SOL    HW230576   0.242   4.873   0.876
 9893SOL     OW30577   0.849   0.922   1.326
 9893SOL    HW130578   0.927   0.974   1.362
 9893SOL    HW230579   0.833   0.950   1.231
 9894SOL     OW30580   3.409   2.661   0.679
 9894SOL    HW130581   3.369   2.597   0.613
 9894SOL    HW230582   3.359   2.748   0.676
 9895SOL     OW30583   5.946   5.195   5.086
 9895SOL    HW130584   6.004   5.135   5.141
 9895SOL    HW230585   5.995   5.222   5.003
 9896SOL     OW30586   6.124   0.982   0.593
 9896SOL    HW130587   6.138   0.901   0.535
 9896SOL    HW230588   6.209   1.003   0.642
 9897SOL     OW30589   5.546   6.326   2.365
 9897SOL    HW130590   5.489   6.245   2.376
 9897SOL    HW230591   5.547   6.354   2.269
 9898SOL     OW30592   1.379   5.160   5.193
 9898SOL    HW130593   1.308   5.228   5.182
 9898SOL    HW230594   1.339   5.068   5.185
 9899SOL     OW30595   1.771   5.860   0.771
 9899SOL    HW130596   1.706   5.868   0.694
 9899SOL    HW230597   1.857   5.822   0.737
 9900SOL     OW30598   1.220   2.683   3.330
 9900SOL    HW130599   1.308   2.729   3.325
 9900SOL    HW230600   1.228   2.592   3.288
 9901SOL     OW30601   2.894   0.709   6.753
 9901SOL    HW130602   2.969   0.649   6.782
 9901SOL    HW230603   2.819   0.702   6.818
 9902SOL     OW30604   2.828   4.720   1.572
 9902SOL    HW130605   2.900   4.707   1.504
 9902SOL    HW230606   2.869   4.754   1.657
 9903SOL     OW30607   5.750   2.103   1.961
 9903SOL    HW130608   5.843   2.091   1.925
 9903SOL    HW230609   5.704   2.015   1.962
 9904SOL     OW30610   0.745   4.059   0.366
 9904SOL    HW130611   0.781   4.151   0.383
 9904SOL    HW230612   0.683   4.034   0.440
 9905SOL     OW30613   2.405   0.757   6.231
 9905SOL    HW130614   2.417   0.678   6.292
 9905SOL    HW230615   2.308   0.778   6.222
 9906SOL     OW30616   1.706   3.073   0.648
 9906SOL    HW130617   1.606   3.074   0.642
 9906SOL    HW230618   1.745   3.100   0.560
 9907SOL     OW30619   0.569   0.213   0.846
 9907SOL    HW130620   0.546   0.120   0.817
 9907SOL    HW230621   0.659   0.214   0.890
 9908SOL     OW30622   6.673   1.795   5.521
 9908SOL    HW130623   6.749   1.730   5.518
 9908SOL    HW230624   6.649   1.823   5.428
 9909SOL     OW30625   4.333   1.201   2.811
 9909SOL    HW130626   4.330   1.107   2.846
 9909SOL    HW230627   4.241   1.237   2.803
 9910SOL     OW30628   1.110   4.960   1.871
 9910SOL    HW130629   1.108   4.885   1.805
 9910SOL    HW230630   1.101   5.048   1.823
 9911SOL     OW30631   2.866   6.394   2.484
 9911SOL    HW130632   2.964   6.412   2.472
 9911SOL    HW230633   2.851   6.352   2.574
 9912SOL     OW30634   3.716   1.056   1.116
 9912SOL    HW130635   3.715   1.141   1.063
 9912SOL    HW230636   3.630   1.048   1.166
 9913SOL     OW30637   6.654   4.007   0.507
 9913SOL    HW130638   6.556   3.991   0.521
 9913SOL    HW230639   6.667   4.072   0.433
 9914SOL     OW30640   5.731   1.052   4.590
 9914SOL    HW130641   5.827   1.042   4.616
 9914SOL    HW230642   5.675   0.988   4.643
 9915SOL     OW30643   5.907   0.823   3.676
 9915SOL    HW130644   5.922   0.902   3.736
 9915SOL    HW230645   5.924   0.850   3.581
 9916SOL     OW30646   2.389   2.250   3.283
 9916SOL    HW130647   2.429   2.158   3.289
 9916SOL    HW230648   2.426   2.296   3.202
 9917SOL     OW30649   4.022   3.759   6.259
 9917SOL    HW130650   3.998   3.782   6.165
 9917SOL    HW230651   4.119   3.736   6.264
 9918SOL     OW30652   1.910   2.302   2.997
 9918SOL    HW130653   1.948   2.300   2.905
 9918SOL    HW230654   1.815   2.331   2.994
 9919SOL     OW30655   1.210   5.582   1.009
 9919SOL    HW130656   1.163   5.505   1.052
 9919SOL    HW230657   1.309   5.572   1.025
 9920SOL     OW30658   4.901   0.495   2.530
 9920SOL    HW130659   4.904   0.403   2.490
 9920SOL    HW230660   4.952   0.496   2.616
 9921SOL     OW30661   4.274   6.350   4.728
 9921SOL    HW130662   4.343   6.345   4.656
 9921SOL    HW230663   4.307   6.301   4.809
 9922SOL     OW30664   3.474   3.922   1.110
 9922SOL    HW130665   3.376   3.923   1.093
 9922SOL    HW230666   3.493   3.874   1.195
 9923SOL     OW30667   5.851   4.648   6.862
 9923SOL    HW130668   5.825   4.704   6.783
 9923SOL    HW230669   5.899   4.705   6.929
 9924SOL     OW30670   6.262   1.824   3.406
 9924SOL    HW130671   6.346   1.828   3.352
 9924SOL    HW230672   6.206   1.904   3.385
 9925SOL     OW30673   0.338   5.237   3.862
 9925SOL    HW130674   0.287   5.320   3.885
 9925SOL    HW230675   0.287   5.157   3.894
 9926SOL     OW30676   4.222   2.729   1.439
 9926SOL    HW130677   4.187   2.783   1.363
 9926SOL    HW230678   4.159   2.654   1.458
 9927SOL     OW30679   1.550   6.757   0.894
 9927SOL    HW130680   1.605   6.820   0.948
 9927SOL    HW230681   1.488   6.809   0.835
 9928SOL     OW30682   4.795   5.160   3.106
 9928SOL    HW130683   4.720   5.130   3.165
 9928SOL    HW230684   4.791   5.111   3.019
 9929SOL     OW30685   3.189   4.125   4.847
 9929SOL    HW130686   3.197   4.168   4.757
 9929SOL    HW230687   3.146   4.035   4.838
 9930SOL     OW30688   0.253   6.413   5.552
 9930SOL    HW130689   0.340   6.458   5.533
 9930SOL    HW230690   0.262   6.357   5.635
 9931SOL     OW30691   0.152   5.541   4.454
 9931SOL    HW130692   0.243   5.508   4.476
 9931SOL    HW230693   0.129   5.518   4.360
 9932SOL     OW30694   2.446   3.254   6.062
 9932SOL    HW130695   2.393   3.239   5.979
 9932SOL    HW230696   2.482   3.167   6.095
 9933SOL     OW30697   1.696   7.017   3.670
 9933SOL    HW130698   1.707   0.080   3.624
 9933SOL    HW230699   1.654   6.951   3.608
 9934SOL     OW30700   6.979   2.288   5.667
 9934SOL    HW130701   6.967   2.364   5.604
 9934SOL    HW230702   0.052   2.279   5.690
 9935SOL     OW30703   3.066   6.681   0.859
 9935SOL    HW130704   3.052   6.582   0.864
 9935SOL    HW230705   3.013   6.726   0.930
 9936SOL     OW30706   6.620   4.605   1.074
 9936SOL    HW130707   6.696   4.612   1.009
 9936SOL    HW230708   6.533   4.609   1.024
 9937SOL     OW30709   0.535   2.322   1.251
 9937SOL    HW130710   0.482   2.369   1.180
 9937SOL    HW230711   0.611   2.381   1.280
 9938SOL     OW30712   6.008   4.769   3.802
 9938SOL    HW130713   5.983   4.866   3.805
 9938SOL    HW230714   5.929   4.715   3.773
 9939SOL     OW30715   4.905   3.070   1.232
 9939SOL    HW130716   4.841   3.077   1.155
 9939SOL    HW230717   4.989   3.026   1.201
 9940SOL     OW30718   1.165   0.790   1.810
 9940SOL    HW130719   1.105   0.860   1.850
 9940SOL    HW230720   1.215   0.830   1.733
 9941SOL     OW30721   3.507   3.145   5.049
 9941SOL    HW130722   3.554   3.144   4.961
 9941SOL    HW230723   3.509   3.053   5.089
 9942SOL     OW30724   2.669   5.248   2.674
 9942SOL    HW130725   2.717   5.325   2.717
 9942SOL    HW230726   2.736   5.177   2.650
 9943SOL     OW30727   0.958   4.323   6.349
 9943SOL    HW130728   0.895   4.245   6.350
 9943SOL    HW230729   0.924   4.393   6.286
 9944SOL     OW30730   0.731   4.721   6.452
 9944SOL    HW130731   0.704   4.813   6.423
 9944SOL    HW230732   0.824   4.723   6.490
 9945SOL     OW30733   4.369   6.003   0.125
 9945SOL    HW130734   4.453   6.054   0.144
 9945SOL    HW230735   4.305   6.016   0.201
 9946SOL     OW30736   6.100   0.623   3.390
 9946SOL    HW130737   6.143   0.712   3.409
 9946SOL    HW230738   6.144   0.582   3.310
 9947SOL     OW30739   2.924   2.214   4.824
 9947SOL    HW130740   2.869   2.135   4.852
 9947SOL    HW230741   3.017   2.205   4.861
 9948SOL     OW30742   6.759   4.812   6.163
 9948SOL    HW130743   6.856   4.815   6.187
 9948SOL    HW230744   6.742   4.733   6.103
 9949SOL     OW30745   6.604   4.393   3.993
 9949SOL    HW130746   6.582   4.475   3.940
 9949SOL    HW230747   6.688   4.352   3.957
 9950SOL     OW30748   5.659   6.148   6.032
 9950SOL    HW130749   5.634   6.072   5.972
 9950SOL    HW230750   5.732   6.119   6.093
 9951SOL     OW30751   1.440   2.175   3.949
 9951SOL    HW130752   1.430   2.163   3.850
 9951SOL    HW230753   1.492   2.098   3.986
 9952SOL     OW30754   1.466   5.019   0.356
 9952SOL    HW130755   1.372   4.991   0.374
 9952SOL    HW230756   1.513   4.947   0.305
 9953SOL     OW30757   6.324   2.539   4.253
 9953SOL    HW130758   6.272   2.490   4.183
 9953SOL    HW230759   6.416   2.558   4.219
 9954SOL     OW30760   1.111   0.665   5.765
 9954SOL    HW130761   1.208   0.669   5.744
 9954SOL    HW230762   1.061   0.726   5.704
 9955SOL     OW30763   5.630   4.077   5.959
 9955SOL    HW130764   5.643   4.048   6.053
 9955SOL    HW230765   5.715   4.065   5.908
 9956SOL     OW30766   0.378   5.795   2.842
 9956SOL    HW130767   0.400   5.892   2.832
 9956SOL    HW230768   0.433   5.756   2.916
 9957SOL     OW30769   5.663   0.270   1.982
 9957SOL    HW130770   5.613   0.192   1.945
 9957SOL    HW230771   5.732   0.299   1.915
 9958SOL     OW30772   1.749   5.465   6.445
 9958SOL    HW130773   1.731   5.406   6.367
 9958SOL    HW230774   1.670   5.465   6.506
 9959SOL     OW30775   4.130   3.697   4.145
 9959SOL    HW130776   4.134   3.642   4.061
 9959SOL    HW230777   4.190   3.777   4.135
 9960SOL     OW30778   6.722   0.306   2.364
 9960SOL    HW130779   6.809   0.256   2.360
 9960SOL    HW230780   6.650   0.244   2.397
 9961SOL     OW30781   1.589   5.242   4.496
 9961SOL    HW130782   1.574   5.178   4.420
 9961SOL    HW230783   1.639   5.322   4.463
 9962SOL     OW30784   4.685   6.902   1.886
 9962SOL    HW130785   4.698   6.930   1.790
 9962SOL    HW230786   4.719   6.809   1.898
 9963SOL     OW30787   2.746   2.615   6.239
 9963SOL    HW130788   2.769   2.572   6.151
 9963SOL    HW230789   2.780   2.708   6.241
 9964SOL     OW30790   4.671   3.690   5.570
 9964SOL    HW130791   4.686   3.626   5.495
 9964SOL    HW230792   4.615   3.767   5.538
 9965SOL     OW30793   3.810   4.830   6.358
 9965SOL    HW130794   3.881   4.775   6.315
 9965SOL    HW230795   3.728   4.774   6.373
 9966SOL     OW30796   2.197   5.987   2.280
 9966SOL    HW130797   2.281   6.023   2.238
 9966SOL    HW230798   2.218   5.902   2.329
 9967SOL     OW30799   6.157   6.818   2.210
 9967SOL    HW130800   6.094   6.818   2.288
 9967SOL    HW230801   6.118   6.763   2.136
 9968SOL     OW30802   3.146   3.699   6.678
 9968SOL    HW130803   3.054   3.719   6.711
 9968SOL    HW230804   3.173   3.608   6.710
 9969SOL     OW30805   1.874   2.327   4.325
 9969SOL    HW130806   1.880   2.274   4.240
 9969SOL    HW230807   1.963   2.330   4.369
 9970SOL     OW30808   5.445   4.250   2.754
 9970SOL    HW130809   5.449   4.177   2.686
 9970SOL    HW230810   5.510   4.322   2.730
 9971SOL     OW30811   2.691   3.997   0.302
 9971SOL    HW130812   2.628   4.007   0.226
 9971SOL    HW230813   2.782   3.976   0.268
 9972SOL     OW30814   3.646   4.499   0.531
 9972SOL    HW130815   3.597   4.538   0.453
 9972SOL    HW230816   3.673   4.405   0.510
 9973SOL     OW30817   4.538   1.837   4.100
 9973SOL    HW130818   4.453   1.785   4.100
 9973SOL    HW230819   4.574   1.843   4.193
 9974SOL     OW30820   6.541   3.960   3.297
 9974SOL    HW130821   6.617   3.950   3.361
 9974SOL    HW230822   6.531   4.056   3.272
 9975SOL     OW30823   6.478   4.268   0.648
 9975SOL    HW130824   6.472   4.367   0.650
 9975SOL    HW230825   6.573   4.240   0.662
 9976SOL     OW30826   0.209   6.056   5.408
 9976SOL    HW130827   0.149   6.119   5.458
 9976SOL    HW230828   0.278   6.020   5.470
 9977SOL     OW30829   0.384   5.019   6.182
 9977SOL    HW130830   0.428   5.108   6.166
 9977SOL    HW230831   0.367   4.974   6.094
 9978SOL     OW30832   6.130   3.089   3.268
 9978SOL    HW130833   6.127   3.015   3.201
 9978SOL    HW230834   6.057   3.155   3.249
 9979SOL     OW30835   6.325   5.054   5.555
 9979SOL    HW130836   6.368   5.027   5.469
 9979SOL    HW230837   6.291   5.148   5.548
 9980SOL     OW30838   1.663   1.828   6.144
 9980SOL    HW130839   1.732   1.795   6.208
 9980SOL    HW230840   1.689   1.803   6.050
 9981SOL     OW30841   2.432   2.120   1.669
 9981SOL    HW130842   2.471   2.111   1.761
 9981SOL    HW230843   2.442   2.214   1.638
 9982SOL     OW30844   0.511   0.879   3.698
 9982SOL    HW130845   0.460   0.943   3.755
 9982SOL    HW230846   0.609   0.894   3.712
 9983SOL     OW30847   1.412   2.471   2.944
 9983SOL    HW130848   1.366   2.492   2.858
 9983SOL    HW230849   1.346   2.472   3.018
 9984SOL     OW30850   1.253   0.758   0.336
 9984SOL    HW130851   1.220   0.684   0.278
 9984SOL    HW230852   1.302   0.825   0.280
 9985SOL     OW30853   2.075   0.948   1.793
 9985SOL    HW130854   2.134   0.989   1.863
 9985SOL    HW230855   1.984   0.988   1.800
 9986SOL     OW30856   4.622   3.923   6.431
 9986SOL    HW130857   4.700   3.958   6.484
 9986SOL    HW230858   4.581   3.997   6.379
 9987SOL     OW30859   6.186   2.091   3.180
 9987SOL    HW130860   6.134   2.146   3.246
 9987SOL    HW230861   6.138   2.090   3.093
 9988SOL     OW30862   0.476   5.997   4.519
 9988SOL    HW130863   0.451   6.064   4.450
 9988SOL    HW230864   0.571   6.012   4.548
 9989SOL     OW30865   6.429   4.342   3.712
 9989SOL    HW130866   6.431   4.424   3.655
 9989SOL    HW230867   6.423   4.369   3.808
 9990SOL     OW30868   2.607   6.704   2.160
 9990SOL    HW130869   2.614   6.604   2.166
 9990SOL    HW230870   2.607   6.732   2.064
 9991SOL     OW30871   2.098   3.162   3.905
 9991SOL    HW130872   2.053   3.169   3.994
 9991SOL    HW230873   2.130   3.253   3.876
 9992SOL     OW30874   4.944   4.418   0.585
 9992SOL    HW130875   4.988   4.358   0.517
 9992SOL    HW230876   4.977   4.394   0.676
 9993SOL     OW30877   3.698   0.424   1.868
 9993SOL    HW130878   3.730   0.506   1.917
 9993SOL    HW230879   3.599   0.416   1.878
 9994SOL     OW30880   6.973   4.572   4.003
 9994SOL    HW130881   6.934   4.493   3.956
 9994SOL    HW230882   6.932   4.581   4.093
 9995SOL     OW30883   3.539   0.959   2.958
 9995SOL    HW130884   3.619   1.000   2.914
 9995SOL    HW230885   3.569   0.904   3.036
 9996SOL     OW30886   2.711   3.412   1.806
 9996SOL    HW130887   2.612   3.429   1.812
 9996SOL    HW230888   2.728   3.344   1.735
 9997SOL     OW30889   3.584   1.491   1.120
 9997SOL    HW130890   3.596   1.590   1.126
 9997SOL    HW230891   3.564   1.454   1.210
 9998SOL     OW30892   5.981   4.755   1.317
 9998SOL    HW130893   6.007   4.676   1.373
 9998SOL    HW230894   6.063   4.808   1.294
 9999SOL     OW30895   6.363   2.980   5.240
 9999SOL    HW130896   6.382   2.883   5.259
 9999SOL    HW230897   6.439   3.019   5.188
10000SOL     OW30898   6.383   3.532   0.151
10000SOL    HW130899   6.438   3.615   0.138
10000SOL    HW230900   6.371   3.515   0.248
10001SOL     OW30901   5.237   0.624   1.835
10001SOL    HW130902   5.213   0.645   1.930
10001SOL    HW230903   5.171   0.559   1.798
10002SOL     OW30904   1.702   0.577   1.682
10002SOL    HW130905   1.654   0.555   1.767
10002SOL    HW230906   1.646   0.639   1.627
10003SOL     OW30907   3.973   1.539   4.226
10003SOL    HW130908   4.006   1.618   4.175
10003SOL    HW230909   3.873   1.534   4.219
10004SOL     OW30910   4.417   2.332   4.432
10004SOL    HW130911   4.510   2.332   4.395
10004SOL    HW230912   4.353   2.302   4.362
10005SOL     OW30913   4.131   0.247   3.957
10005SOL    HW130914   4.121   0.283   3.864
10005SOL    HW230915   4.204   0.297   4.004
10006SOL     OW30916   5.231   0.612   3.590
10006SOL    HW130917   5.309   0.600   3.529
10006SOL    HW230918   5.261   0.657   3.675
10007SOL     OW30919   0.667   5.129   4.794
10007SOL    HW130920   0.655   5.109   4.891
10007SOL    HW230921   0.683   5.227   4.782
10008SOL     OW30922   4.166   1.274   4.826
10008SOL    HW130923   4.100   1.205   4.854
10008SOL    HW230924   4.141   1.362   4.866
10009SOL     OW30925   1.845   3.857   1.583
10009SOL    HW130926   1.888   3.845   1.672
10009SOL    HW230927   1.908   3.830   1.510
10010SOL     OW30928   1.898   6.859   6.163
10010SOL    HW130929   1.972   6.923   6.182
10010SOL    HW230930   1.810   6.904   6.182
10011SOL     OW30931   5.934   1.681   4.740
10011SOL    HW130932   5.939   1.647   4.834
10011SOL    HW230933   5.858   1.745   4.732
10012SOL     OW30934   4.903   1.034   3.491
10012SOL    HW130935   4.984   1.023   3.549
10012SOL    HW230936   4.832   1.082   3.543
10013SOL     OW30937   1.266   1.569   3.437
10013SOL    HW130938   1.198   1.521   3.492
10013SOL    HW230939   1.220   1.628   3.371
10014SOL     OW30940   6.840   3.621   0.271
10014SOL    HW130941   6.748   3.640   0.304
10014SOL    HW230942   6.839   3.614   0.172
10015SOL     OW30943   2.189   4.122   0.504
10015SOL    HW130944   2.247   4.048   0.470
10015SOL    HW230945   2.183   4.194   0.435
10016SOL     OW30946   1.954   0.868   5.976
10016SOL    HW130947   1.896   0.808   5.920
10016SOL    HW230948   1.915   0.960   5.976
10017SOL     OW30949   2.904   2.227   2.664
10017SOL    HW130950   2.895   2.248   2.566
10017SOL    HW230951   3.000   2.210   2.686
10018SOL     OW30952   5.133   0.164   5.560
10018SOL    HW130953   5.197   0.110   5.506
10018SOL    HW230954   5.067   0.208   5.499
10019SOL     OW30955   0.061   1.978   2.773
10019SOL    HW130956   0.117   1.947   2.850
10019SOL    HW230957   0.089   2.070   2.746
10020SOL     OW30958   1.389   2.580   1.436
10020SOL    HW130959   1.476   2.532   1.440
10020SOL    HW230960   1.339   2.566   1.522
10021SOL     OW30961   0.321   2.443   1.059
10021SOL    HW130962   0.300   2.412   0.967
10021SOL    HW230963   0.241   2.430   1.118
10022SOL     OW30964   2.999   0.101   6.502
10022SOL    HW130965   3.068   0.093   6.429
10022SOL    HW230966   3.037   0.065   6.587
10023SOL     OW30967   1.230   5.406   6.253
10023SOL    HW130968   1.327   5.394   6.277
10023SOL    HW230969   1.173   5.386   6.332
10024SOL     OW30970   1.719   6.577   1.695
10024SOL    HW130971   1.667   6.662   1.699
10024SOL    HW230972   1.673   6.512   1.635
10025SOL     OW30973   1.817   1.660   1.683
10025SOL    HW130974   1.868   1.576   1.665
10025SOL    HW230975   1.723   1.638   1.708
10026SOL     OW30976   5.440   6.687   3.701
10026SOL    HW130977   5.522   6.743   3.715
10026SOL    HW230978   5.370   6.742   3.655
10027SOL     OW30979   6.610   3.910   5.357
10027SOL    HW130980   6.707   3.927   5.336
10027SOL    HW230981   6.567   3.996   5.386
10028SOL     OW30982   2.047   1.507   1.665
10028SOL    HW130983   2.099   1.482   1.583
10028SOL    HW230984   2.060   1.436   1.735
10029SOL     OW30985   4.404   2.070   4.756
10029SOL    HW130986   4.345   1.993   4.780
10029SOL    HW230987   4.380   2.150   4.811
10030SOL     OW30988   2.694   6.787   3.757
10030SOL    HW130989   2.630   6.857   3.727
10030SOL    HW230990   2.754   6.761   3.682
10031SOL     OW30991   6.402   4.916   4.575
10031SOL    HW130992   6.313   4.878   4.552
10031SOL    HW230993   6.413   5.005   4.530
10032SOL     OW30994   2.467   1.896   5.435
10032SOL    HW130995   2.376   1.928   5.460
10032SOL    HW230996   2.479   1.904   5.336
10033SOL     OW30997   6.116   2.081   3.560
10033SOL    HW130998   6.024   2.070   3.598
10033SOL    HW230999   6.184   2.075   3.633
10034SOL     OW31000   2.593   0.319   3.966
10034SOL    HW131001   2.572   0.271   4.052
10034SOL    HW231002   2.608   0.253   3.893
10035SOL     OW31003   6.440   4.234   2.064
10035SOL    HW131004   6.528   4.186   2.063
10035SOL    HW231005   6.376   4.187   2.002
10036SOL     OW31006   6.282   2.308   1.545
10036SOL    HW131007   6.322   2.297   1.454
10036SOL    HW231008   6.339   2.261   1.612
10037SOL     OW31009   6.847   0.915   1.089
10037SOL    HW131010   6.832   0.820   1.062
10037SOL    HW231011   6.904   0.961   1.020
10038SOL     OW31012   5.004   0.747   0.080
10038SOL    HW131013   4.964   0.827   0.034
10038SOL    HW231014   4.940   0.670   0.073
10039SOL     OW31015   3.093   0.582   3.439
10039SOL    HW131016   3.052   0.619   3.523
10039SOL    HW231017   3.117   0.487   3.453
10040SOL     OW31018   5.037   5.407   6.406
10040SOL    HW131019   5.009   5.322   6.450
10040SOL    HW231020   5.065   5.388   6.312
10041SOL     OW31021   4.008   6.258   6.650
10041SOL    HW131022   3.936   6.194   6.677
10041SOL    HW231023   3.989   6.293   6.558
10042SOL     OW31024   0.976   2.288   3.828
10042SOL    HW131025   0.918   2.336   3.894
10042SOL    HW231026   1.012   2.205   3.870
10043SOL     OW31027   6.524   1.206   5.137
10043SOL    HW131028   6.506   1.220   5.040
10043SOL    HW231029   6.438   1.191   5.186
10044SOL     OW31030   1.913   1.918   4.199
10044SOL    HW131031   2.005   1.954   4.209
10044SOL    HW231032   1.878   1.941   4.108
10045SOL     OW31033   4.183   0.313   2.335
10045SOL    HW131034   4.095   0.327   2.379
10045SOL    HW231035   4.171   0.310   2.236
10046SOL     OW31036   2.180   3.617   0.464
10046SOL    HW131037   2.115   3.693   0.473
10046SOL    HW231038   2.149   3.554   0.393
10047SOL     OW31039   1.192   3.189   4.852
10047SOL    HW131040   1.167   3.104   4.899
10047SOL    HW231041   1.270   3.172   4.792
10048SOL     OW31042   6.986   0.175   2.437
10048SOL    HW131043   6.990   0.084   2.396
10048SOL    HW231044   0.005   0.241   2.376
10049SOL     OW31045   1.459   1.549   5.755
10049SOL    HW131046   1.416   1.512   5.673
10049SOL    HW231047   1.441   1.489   5.833
10050SOL     OW31048   5.707   3.869   5.197
10050SOL    HW131049   5.640   3.932   5.234
10050SOL    HW231050   5.667   3.819   5.119
10051SOL     OW31051   0.261   4.088   4.750
10051SOL    HW131052   0.336   4.059   4.810
10051SOL    HW231053   0.224   4.175   4.782
10052SOL     OW31054   2.385   1.218   3.445
10052SOL    HW131055   2.316   1.212   3.373
10052SOL    HW231056   2.361   1.156   3.519
10053SOL     OW31057   4.606   5.998   4.309
10053SOL    HW131058   4.511   5.968   4.299
10053SOL    HW231059   4.613   6.065   4.383
10054SOL     OW31060   5.863   5.533   5.684
10054SOL    HW131061   5.868   5.490   5.594
10054SOL    HW231062   5.901   5.625   5.679
10055SOL     OW31063   6.114   1.848   5.332
10055SOL    HW131064   6.105   1.749   5.318
10055SOL    HW231065   6.113   1.869   5.430
10056SOL     OW31066   5.154   4.426   2.926
10056SOL    HW131067   5.122   4.421   3.020
10056SOL    HW231068   5.113   4.504   2.880
10057SOL     OW31069   5.187   3.739   5.587
10057SOL    HW131070   5.267   3.730   5.529
10057SOL    HW231071   5.214   3.734   5.683
10058SOL     OW31072   6.289   3.551   5.010
10058SOL    HW131073   6.347   3.626   5.038
10058SOL    HW231074   6.249   3.507   5.090
10059SOL     OW31075   0.415   1.297   0.353
10059SOL    HW131076   0.413   1.340   0.262
10059SOL    HW231077   0.471   1.214   0.349
10060SOL     OW31078   2.194   2.628   2.772
10060SOL    HW131079   2.232   2.541   2.740
10060SOL    HW231080   2.225   2.701   2.712
10061SOL     OW31081   4.718   1.145   3.649
10061SOL    HW131082   4.678   1.189   3.569
10061SOL    HW231083   4.648   1.133   3.719
10062SOL     OW31084   6.642   0.257   4.426
10062SOL    HW131085   6.563   0.224   4.375
10062SOL    HW231086   6.722   0.200   4.406
10063SOL     OW31087   3.093   1.422   4.455
10063SOL    HW131088   3.072   1.344   4.395
10063SOL    HW231089   3.152   1.391   4.530
10064SOL     OW31090   4.962   6.468   6.652
10064SOL    HW131091   4.891   6.481   6.722
10064SOL    HW231092   4.956   6.542   6.585
10065SOL     OW31093   1.974   1.207   1.431
10065SOL    HW131094   1.941   1.238   1.520
10065SOL    HW231095   2.061   1.160   1.442
10066SOL     OW31096   0.536   2.234   5.155
10066SOL    HW131097   0.522   2.333   5.161
10066SOL    HW231098   0.530   2.206   5.059
10067SOL     OW31099   0.221   2.935   6.350
10067SOL    HW131100   0.134   2.910   6.393
10067SOL    HW231101   0.228   3.035   6.346
10068SOL     OW31102   1.013   3.847   3.184
10068SOL    HW131103   0.958   3.925   3.155
10068SOL    HW231104   0.954   3.767   3.196
10069SOL     OW31105   3.085   4.904   1.549
10069SOL    HW131106   3.038   4.992   1.545
10069SOL    HW231107   3.165   4.906   1.488
10070SOL     OW31108   0.250   5.245   5.266
10070SOL    HW131109   0.234   5.340   5.237
10070SOL    HW231110   0.234   5.238   5.365
10071SOL     OW31111   0.741   0.104   4.333
10071SOL    HW131112   0.661   0.117   4.275
10071SOL    HW231113   0.815   0.064   4.279
10072SOL     OW31114   0.289   1.045   3.502
10072SOL    HW131115   0.192   1.019   3.498
10072SOL    HW231116   0.320   1.046   3.597
10073SOL     OW31117   0.011   3.857   3.761
10073SOL    HW131118   6.991   3.780   3.808
10073SOL    HW231119   0.003   3.939   3.816
10074SOL     OW31120   1.983   6.314   6.586
10074SOL    HW131121   2.020   6.251   6.654
10074SOL    HW231122   1.919   6.377   6.629
10075SOL     OW31123   1.231   1.117   2.745
10075SOL    HW131124   1.138   1.153   2.743
10075SOL    HW231125   1.279   1.143   2.661
10076SOL     OW31126   4.518   5.535   2.771
10076SOL    HW131127   4.489   5.607   2.708
10076SOL    HW231128   4.595   5.485   2.731
10077SOL     OW31129   4.719   2.738   1.057
10077SOL    HW131130   4.627   2.749   1.019
10077SOL    HW231131   4.713   2.698   1.148
10078SOL     OW31132   7.019   6.225   4.639
10078SOL    HW131133   0.009   6.131   4.609
10078SOL    HW231134   0.052   6.286   4.585
10079SOL     OW31135   5.966   2.623   2.529
10079SOL    HW131136   5.939   2.706   2.577
10079SOL    HW231137   5.885   2.569   2.505
10080SOL     OW31138   4.621   1.131   6.372
10080SOL    HW131139   4.610   1.216   6.423
10080SOL    HW231140   4.566   1.134   6.289
10081SOL     OW31141   0.913   1.573   0.005
10081SOL    HW131142   0.841   1.636   7.001
10081SOL    HW231143   0.875   1.505   0.068
10082SOL     OW31144   0.840   5.349   3.062
10082SOL    HW131145   0.899   5.288   3.114
10082SOL    HW231146   0.867   5.346   2.965
10083SOL     OW31147   3.213   0.136   3.681
10083SOL    HW131148   3.272   0.107   3.756
10083SOL    HW231149   3.130   0.177   3.718
10084SOL     OW31150   0.584   6.944   5.366
10084SOL    HW131151   0.543   0.007   5.342
10084SOL    HW231152   0.652   6.919   5.298
10085SOL     OW31153   3.860   0.294   0.575
10085SOL    HW131154   3.811   0.351   0.509
10085SOL    HW231155   3.823   0.201   0.573
10086SOL     OW31156   5.826   6.749   3.393
10086SOL    HW131157   5.782   6.805   3.323
10086SOL    HW231158   5.891   6.687   3.349
10087SOL     OW31159   6.699   6.504   4.099
10087SOL    HW131160   6.602   6.513   4.122
10087SOL    HW231161   6.746   6.454   4.171
10088SOL     OW31162   6.824   0.418   1.467
10088SOL    HW131163   6.743   0.363   1.447
10088SOL    HW231164   6.796   0.505   1.508
10089SOL     OW31165   3.096   1.921   2.919
10089SOL    HW131166   3.077   1.954   2.826
10089SOL    HW231167   3.097   1.821   2.920
10090SOL     OW31168   0.496   4.978   2.097
10090SOL    HW131169   0.560   5.025   2.036
10090SOL    HW231170   0.402   4.999   2.069
10091SOL     OW31171   6.319   6.255   0.151
10091SOL    HW131172   6.353   6.209   0.234
10091SOL    HW231173   6.353   6.349   0.150
10092SOL     OW31174   1.054   2.919   5.356
10092SOL    HW131175   0.997   2.961   5.426
10092SOL    HW231176   1.129   2.981   5.333
10093SOL     OW31177   4.921   3.588   4.765
10093SOL    HW131178   5.011   3.556   4.794
10093SOL    HW231179   4.863   3.603   4.845
10094SOL     OW31180   2.458   6.572   0.737
10094SOL    HW131181   2.401   6.533   0.665
10094SOL    HW231182   2.488   6.500   0.799
10095SOL     OW31183   5.405   1.534   4.510
10095SOL    HW131184   5.502   1.543   4.488
10095SOL    HW231185   5.364   1.624   4.520
10096SOL     OW31186   4.668   0.406   2.783
10096SOL    HW131187   4.656   0.491   2.730
10096SOL    HW231188   4.765   0.382   2.784
10097SOL     OW31189   2.363   2.151   6.172
10097SOL    HW131190   2.356   2.130   6.074
10097SOL    HW231191   2.459   2.171   6.195
10098SOL     OW31192   2.933   6.935   5.025
10098SOL    HW131193   2.851   6.957   4.971
10098SOL    HW231194   2.907   6.908   5.117
10099SOL     OW31195   6.540   4.471   2.175
10099SOL    HW131196   6.494   4.399   2.124
10099SOL    HW231197   6.631   4.438   2.202
10100SOL     OW31198   5.556   5.882   5.653
10100SOL    HW131199   5.637   5.940   5.644
10100SOL    HW231200   5.499   5.914   5.728
10101SOL     OW31201   6.574   2.865   1.739
10101SOL    HW131202   6.578   2.861   1.839
10101SOL    HW231203   6.649   2.810   1.701
10102SOL     OW31204   6.564   0.359   1.391
10102SOL    HW131205   6.490   0.344   1.325
10102SOL    HW231206   6.574   0.457   1.408
10103SOL     OW31207   1.638   0.166   4.866
10103SOL    HW131208   1.637   0.240   4.798
10103SOL    HW231209   1.565   0.181   4.932
10104SOL     OW31210   2.008   1.175   6.082
10104SOL    HW131211   2.102   1.146   6.068
10104SOL    HW231212   1.979   1.234   6.006
10105SOL     OW31213   1.798   1.095   6.244
10105SOL    HW131214   1.868   1.150   6.200
10105SOL    HW231215   1.736   1.059   6.175
10106SOL     OW31216   3.762   6.384   1.160
10106SOL    HW131217   3.785   6.459   1.222
10106SOL    HW231218   3.799   6.403   1.069
10107SOL     OW31219   5.515   1.945   6.268
10107SOL    HW131220   5.571   2.024   6.240
10107SOL    HW231221   5.421   1.959   6.239
10108SOL     OW31222   0.456   2.788   0.965
10108SOL    HW131223   0.381   2.774   0.900
10108SOL    HW231224   0.432   2.745   1.052
10109SOL     OW31225   0.585   1.093   0.287
10109SOL    HW131226   0.661   1.158   0.276
10109SOL    HW231227   0.596   1.018   0.222
10110SOL     OW31228   4.600   5.032   3.250
10110SOL    HW131229   4.586   5.072   3.341
10110SOL    HW231230   4.527   4.966   3.232
10111SOL     OW31231   0.220   3.427   2.688
10111SOL    HW131232   0.271   3.344   2.712
10111SOL    HW231233   0.259   3.505   2.735
10112SOL     OW31234   5.937   3.497   3.451
10112SOL    HW131235   6.015   3.559   3.467
10112SOL    HW231236   5.928   3.434   3.528
10113SOL     OW31237   4.071   0.340   0.395
10113SOL    HW131238   4.109   0.247   0.399
10113SOL    HW231239   3.989   0.344   0.452
10114SOL     OW31240   3.632   2.003   3.403
10114SOL    HW131241   3.666   2.097   3.413
10114SOL    HW231242   3.544   1.994   3.449
10115SOL     OW31243   3.758   1.726   4.384
10115SOL    HW131244   3.847   1.765   4.361
10115SOL    HW231245   3.725   1.671   4.308
10116SOL     OW31246   6.933   0.407   6.010
10116SOL    HW131247   6.883   0.487   5.977
10116SOL    HW231248   6.995   0.434   6.084
10117SOL     OW31249   6.868   5.963   5.715
10117SOL    HW131250   6.925   6.022   5.658
10117SOL    HW231251   6.892   5.976   5.811
10118SOL     OW31252   2.755   4.703   4.387
10118SOL    HW131253   2.750   4.656   4.299
10118SOL    HW231254   2.851   4.719   4.411
10119SOL     OW31255   6.868   5.497   4.491
10119SOL    HW131256   6.830   5.569   4.548
10119SOL    HW231257   6.960   5.522   4.462
10120SOL     OW31258   1.046   2.887   3.390
10120SOL    HW131259   1.065   2.936   3.475
10120SOL    HW231260   1.092   2.799   3.391
10121SOL     OW31261   5.838   4.409   1.174
10121SOL    HW131262   5.912   4.343   1.189
10121SOL    HW231263   5.770   4.401   1.248
10122SOL     OW31264   6.406   2.321   3.844
10122SOL    HW131265   6.493   2.340   3.890
10122SOL    HW231266   6.398   2.223   3.826
10123SOL     OW31267   5.978   6.670   0.594
10123SOL    HW131268   5.999   6.693   0.690
10123SOL    HW231269   5.978   6.571   0.583
10124SOL     OW31270   1.768   5.548   1.944
10124SOL    HW131271   1.705   5.518   2.015
10124SOL    HW231272   1.776   5.648   1.947
10125SOL     OW31273   2.350   0.959   1.336
10125SOL    HW131274   2.387   0.869   1.361
10125SOL    HW231275   2.301   0.997   1.414
10126SOL     OW31276   6.372   0.076   6.142
10126SOL    HW131277   6.354   0.138   6.218
10126SOL    HW231278   6.287   0.029   6.117
10127SOL     OW31279   1.405   4.131   5.977
10127SOL    HW131280   1.479   4.132   6.044
10127SOL    HW231281   1.330   4.075   6.011
10128SOL     OW31282   2.878   0.357   6.721
10128SOL    HW131283   2.922   0.363   6.632
10128SOL    HW231284   2.931   0.408   6.788
10129SOL     OW31285   0.276   1.347   2.033
10129SOL    HW131286   0.198   1.329   1.974
10129SOL    HW231287   0.251   1.330   2.128
10130SOL     OW31288   0.949   2.799   1.398
10130SOL    HW131289   0.937   2.838   1.307
10130SOL    HW231290   1.047   2.789   1.418
10131SOL     OW31291   1.637   0.395   4.097
10131SOL    HW131292   1.671   0.474   4.046
10131SOL    HW231293   1.547   0.415   4.134
10132SOL     OW31294   0.962   0.829   2.242
10132SOL    HW131295   0.994   0.924   2.239
10132SOL    HW231296   0.949   0.801   2.337
10133SOL     OW31297   4.191   6.208   1.062
10133SOL    HW131298   4.219   6.288   1.009
10133SOL    HW231299   4.138   6.146   1.003
10134SOL     OW31300   0.136   1.828   3.064
10134SOL    HW131301   0.166   1.917   3.099
10134SOL    HW231302   0.217   1.773   3.042
10135SOL     OW31303   5.579   1.305   3.550
10135SOL    HW131304   5.576   1.404   3.559
10135SOL    HW231305   5.490   1.272   3.517
10136SOL     OW31306   4.498   2.394   2.492
10136SOL    HW131307   4.550   2.444   2.423
10136SOL    HW231308   4.551   2.388   2.576
10137SOL     OW31309   0.650   4.778   6.059
10137SOL    HW131310   0.581   4.718   6.017
10137SOL    HW231311   0.607   4.832   6.131
10138SOL     OW31312   5.289   1.996   0.078
10138SOL    HW131313   5.302   2.082   0.129
10138SOL    HW231314   5.373   1.973   0.029
10139SOL     OW31315   3.868   3.090   4.751
10139SOL    HW131316   3.914   3.114   4.836
10139SOL    HW231317   3.807   3.012   4.767
10140SOL     OW31318   6.965   6.471   6.234
10140SOL    HW131319   0.020   6.532   6.235
10140SOL    HW231320   6.893   6.509   6.291
10141SOL     OW31321   4.376   0.643   3.211
10141SOL    HW131322   4.417   0.731   3.187
10141SOL    HW231323   4.277   0.647   3.196
10142SOL     OW31324   5.836   6.491   5.123
10142SOL    HW131325   5.895   6.480   5.204
10142SOL    HW231326   5.893   6.497   5.041
10143SOL     OW31327   5.939   3.133   0.285
10143SOL    HW131328   6.034   3.164   0.280
10143SOL    HW231329   5.878   3.213   0.292
10144SOL     OW31330   4.043   6.921   5.627
10144SOL    HW131331   4.088   7.005   5.599
10144SOL    HW231332   4.069   6.846   5.566
10145SOL     OW31333   4.161   6.117   2.738
10145SOL    HW131334   4.095   6.071   2.797
10145SOL    HW231335   4.135   6.213   2.727
10146SOL     OW31336   0.026   4.138   4.471
10146SOL    HW131337   6.979   4.086   4.425
10146SOL    HW231338   7.011   4.185   4.550
10147SOL     OW31339   4.879   4.974   0.097
10147SOL    HW131340   4.810   4.914   0.057
10147SOL    HW231341   4.897   5.050   0.035
10148SOL     OW31342   6.331   4.197   1.681
10148SOL    HW131343   6.268   4.275   1.679
10148SOL    HW231344   6.425   4.230   1.680
10149SOL     OW31345   4.745   4.711   1.196
10149SOL    HW131346   4.676   4.759   1.142
10149SOL    HW231347   4.714   4.617   1.214
10150SOL     OW31348   5.349   3.562   1.795
10150SOL    HW131349   5.394   3.550   1.706
10150SOL    HW231350   5.297   3.480   1.817
10151SOL     OW31351   0.476   6.735   5.714
10151SOL    HW131352   0.407   6.759   5.645
10151SOL    HW231353   0.567   6.734   5.671
10152SOL     OW31354   6.015   5.583   3.470
10152SOL    HW131355   5.952   5.600   3.545
10152SOL    HW231356   5.971   5.523   3.403
10153SOL     OW31357   4.471   6.110   3.562
10153SOL    HW131358   4.459   6.010   3.563
10153SOL    HW231359   4.445   6.147   3.651
10154SOL     OW31360   4.204   5.372   5.900
10154SOL    HW131361   4.175   5.368   5.996
10154SOL    HW231362   4.267   5.449   5.888
10155SOL     OW31363   5.215   1.901   6.143
10155SOL    HW131364   5.190   1.830   6.076
10155SOL    HW231365   5.192   1.870   6.235
10156SOL     OW31366   4.444   0.176   1.254
10156SOL    HW131367   4.537   0.174   1.291
10156SOL    HW231368   4.421   0.270   1.228
10157SOL     OW31369   0.474   2.015   0.293
10157SOL    HW131370   0.402   2.055   0.237
10157SOL    HW231371   0.435   1.979   0.378
10158SOL     OW31372   6.015   6.458   2.499
10158SOL    HW131373   5.956   6.413   2.565
10158SOL    HW231374   6.049   6.544   2.537
10159SOL     OW31375   3.500   3.155   2.919
10159SOL    HW131376   3.441   3.074   2.922
10159SOL    HW231377   3.544   3.160   2.829
10160SOL     OW31378   2.364   4.361   3.131
10160SOL    HW131379   2.280   4.415   3.115
10160SOL    HW231380   2.344   4.287   3.195
10161SOL     OW31381   3.792   4.564   6.810
10161SOL    HW131382   3.856   4.626   6.855
10161SOL    HW231383   3.761   4.495   6.875
10162SOL     OW31384   1.990   4.529   1.543
10162SOL    HW131385   1.952   4.437   1.538
10162SOL    HW231386   2.000   4.567   1.451
10163SOL     OW31387   0.991   5.642   5.814
10163SOL    HW131388   1.073   5.647   5.757
10163SOL    HW231389   0.979   5.728   5.863
10164SOL     OW31390   6.406   3.500   3.643
10164SOL    HW131391   6.364   3.433   3.582
10164SOL    HW231392   6.423   3.457   3.732
10165SOL     OW31393   5.977   2.448   3.753
10165SOL    HW131394   5.992   2.475   3.849
10165SOL    HW231395   6.061   2.462   3.701
10166SOL     OW31396   1.921   2.914   0.734
10166SOL    HW131397   1.840   2.965   0.706
10166SOL    HW231398   1.893   2.836   0.790
10167SOL     OW31399   0.187   4.864   6.951
10167SOL    HW131400   0.249   4.937   6.981
10167SOL    HW231401   0.107   4.905   6.907
10168SOL     OW31402   5.842   1.204   5.650
10168SOL    HW131403   5.937   1.227   5.631
10168SOL    HW231404   5.838   1.136   5.724
10169SOL     OW31405   6.694   4.022   2.858
10169SOL    HW131406   6.729   3.971   2.937
10169SOL    HW231407   6.685   4.118   2.882
10170SOL     OW31408   6.376   5.153   6.701
10170SOL    HW131409   6.467   5.119   6.723
10170SOL    HW231410   6.353   5.127   6.607
10171SOL     OW31411   1.195   2.622   5.643
10171SOL    HW131412   1.230   2.626   5.549
10171SOL    HW231413   1.100   2.653   5.644
10172SOL     OW31414   0.136   0.186   4.322
10172SOL    HW131415   0.214   0.242   4.348
10172SOL    HW231416   0.167   0.105   4.271
10173SOL     OW31417   2.953   3.887   0.197
10173SOL    HW131418   3.018   3.957   0.225
10173SOL    HW231419   2.916   3.909   0.107
10174SOL     OW31420   5.246   5.606   3.327
10174SOL    HW131421   5.250   5.655   3.240
10174SOL    HW231422   5.292   5.518   3.317
10175SOL     OW31423   6.738   1.545   3.253
10175SOL    HW131424   6.767   1.621   3.195
10175SOL    HW231425   6.660   1.498   3.210
10176SOL     OW31426   6.525   3.594   5.291
10176SOL    HW131427   6.492   3.507   5.257
10176SOL    HW231428   6.512   3.665   5.221
10177SOL     OW31429   2.149   0.208   1.244
10177SOL    HW131430   2.242   0.197   1.209
10177SOL    HW231431   2.084   0.202   1.168
10178SOL     OW31432   1.271   0.640   0.920
10178SOL    HW131433   1.338   0.613   0.990
10178SOL    HW231434   1.287   0.735   0.893
10179SOL     OW31435   0.114   4.089   0.010
10179SOL    HW131436   0.119   4.187   0.028
10179SOL    HW231437   0.179   4.041   0.069
10180SOL     OW31438   4.952   0.101   0.788
10180SOL    HW131439   4.989   0.116   0.696
10180SOL    HW231440   4.870   0.157   0.801
10181SOL     OW31441   6.970   3.050   1.074
10181SOL    HW131442   6.893   3.045   1.138
10181SOL    HW231443   0.031   3.060   1.125
10182SOL     OW31444   5.131   0.951   0.366
10182SOL    HW131445   5.209   0.891   0.384
10182SOL    HW231446   5.050   0.896   0.349
10183SOL     OW31447   5.929   2.822   5.859
10183SOL    HW131448   5.987   2.856   5.784
10183SOL    HW231449   5.915   2.894   5.926
10184SOL     OW31450   5.513   2.780   5.957
10184SOL    HW131451   5.574   2.735   5.892
10184SOL    HW231452   5.421   2.786   5.919
10185SOL     OW31453   4.556   5.953   2.674
10185SOL    HW131454   4.515   6.044   2.672
10185SOL    HW231455   4.547   5.914   2.765
10186SOL     OW31456   4.901   3.901   5.023
10186SOL    HW131457   4.877   3.813   4.983
10186SOL    HW231458   4.858   3.909   5.113
10187SOL     OW31459   2.220   4.228   5.171
10187SOL    HW131460   2.180   4.295   5.109
10187SOL    HW231461   2.252   4.149   5.119
10188SOL     OW31462   3.324   5.488   6.945
10188SOL    HW131463   3.295   5.397   6.974
10188SOL    HW231464   3.327   5.492   6.845
10189SOL     OW31465   1.196   0.646   0.094
10189SOL    HW131466   1.198   0.732   0.043
10189SOL    HW231467   1.233   0.573   0.036
10190SOL     OW31468   3.457   3.633   1.516
10190SOL    HW131469   3.461   3.541   1.554
10190SOL    HW231470   3.399   3.690   1.573
10191SOL     OW31471   5.850   5.785   1.328
10191SOL    HW131472   5.792   5.706   1.347
10191SOL    HW231473   5.848   5.847   1.407
10192SOL     OW31474   2.411   2.244   4.683
10192SOL    HW131475   2.501   2.210   4.655
10192SOL    HW231476   2.413   2.266   4.780
10193SOL     OW31477   3.241   3.870   2.441
10193SOL    HW131478   3.216   3.841   2.533
10193SOL    HW231479   3.161   3.909   2.395
10194SOL     OW31480   3.595   0.042   4.984
10194SOL    HW131481   3.538   0.124   4.981
10194SOL    HW231482   3.547   6.992   4.938
10195SOL     OW31483   6.790   0.092   1.673
10195SOL    HW131484   6.712   0.101   1.612
10195SOL    HW231485   6.861   0.158   1.647
10196SOL     OW31486   5.758   2.136   3.357
10196SOL    HW131487   5.819   2.117   3.281
10196SOL    HW231488   5.795   2.096   3.441
10197SOL     OW31489   5.505   0.948   4.201
10197SOL    HW131490   5.580   0.897   4.242
10197SOL    HW231491   5.519   0.954   4.102
10198SOL     OW31492   3.676   6.503   0.535
10198SOL    HW131493   3.675   6.409   0.568
10198SOL    HW231494   3.644   6.564   0.608
10199SOL     OW31495   0.749   1.168   6.783
10199SOL    HW131496   0.671   1.184   6.722
10199SOL    HW231497   0.830   1.147   6.728
10200SOL     OW31498   5.146   3.056   5.437
10200SOL    HW131499   5.125   3.142   5.484
10200SOL    HW231500   5.149   3.071   5.339
10201SOL     OW31501   0.319   6.119   1.278
10201SOL    HW131502   0.272   6.105   1.365
10201SOL    HW231503   0.326   6.031   1.229
10202SOL     OW31504   1.536   3.510   0.485
10202SOL    HW131505   1.466   3.537   0.419
10202SOL    HW231506   1.499   3.519   0.577
10203SOL     OW31507   1.713   2.876   1.840
10203SOL    HW131508   1.784   2.924   1.789
10203SOL    HW231509   1.655   2.942   1.888
10204SOL     OW31510   4.127   4.757   6.065
10204SOL    HW131511   4.128   4.857   6.056
10204SOL    HW231512   4.091   4.716   5.981
10205SOL     OW31513   3.997   1.000   2.922
10205SOL    HW131514   4.039   0.995   3.012
10205SOL    HW231515   3.974   0.907   2.891
10206SOL     OW31516   5.408   6.091   6.198
10206SOL    HW131517   5.483   6.157   6.198
10206SOL    HW231518   5.380   6.072   6.104
10207SOL     OW31519   1.407   0.511   1.136
10207SOL    HW131520   1.483   0.454   1.166
10207SOL    HW231521   1.326   0.490   1.191
10208SOL     OW31522   6.650   4.766   4.719
10208SOL    HW131523   6.742   4.802   4.731
10208SOL    HW231524   6.599   4.825   4.655
10209SOL     OW31525   0.459   0.942   5.414
10209SOL    HW131526   0.472   0.849   5.449
10209SOL    HW231527   0.395   0.991   5.473
10210SOL     OW31528   4.957   0.106   1.728
10210SOL    HW131529   4.868   0.068   1.701
10210SOL    HW231530   4.954   0.137   1.823
10211SOL     OW31531   4.545   6.556   5.779
10211SOL    HW131532   4.475   6.528   5.712
10211SOL    HW231533   4.575   6.649   5.758
10212SOL     OW31534   0.317   1.435   4.571
10212SOL    HW131535   0.248   1.384   4.521
10212SOL    HW231536   0.403   1.383   4.572
10213SOL     OW31537   6.171   1.778   2.945
10213SOL    HW131538   6.222   1.769   2.859
10213SOL    HW231539   6.110   1.700   2.956
10214SOL     OW31540   0.758   1.329   2.216
10214SOL    HW131541   0.758   1.407   2.152
10214SOL    HW231542   0.730   1.247   2.167
10215SOL     OW31543   3.509   2.860   5.139
10215SOL    HW131544   3.598   2.836   5.100
10215SOL    HW231545   3.441   2.792   5.111
10216SOL     OW31546   6.675   6.963   0.730
10216SOL    HW131547   6.658   6.923   0.820
10216SOL    HW231548   6.726   6.898   0.674
10217SOL     OW31549   2.336   1.075   3.664
10217SOL    HW131550   2.348   1.088   3.762
10217SOL    HW231551   2.295   0.986   3.646
10218SOL     OW31552   1.023   1.184   1.018
10218SOL    HW131553   1.031   1.246   0.939
10218SOL    HW231554   1.087   1.213   1.089
10219SOL     OW31555   0.342   3.064   1.849
10219SOL    HW131556   0.420   3.056   1.910
10219SOL    HW231557   0.373   3.092   1.758
10220SOL     OW31558   4.119   1.538   2.246
10220SOL    HW131559   4.160   1.614   2.196
10220SOL    HW231560   4.089   1.570   2.336
10221SOL     OW31561   1.489   1.773   3.858
10221SOL    HW131562   1.475   1.838   3.934
10221SOL    HW231563   1.401   1.750   3.818
10222SOL     OW31564   0.818   3.476   5.685
10222SOL    HW131565   0.898   3.438   5.637
10222SOL    HW231566   0.778   3.406   5.744
10223SOL     OW31567   2.072   5.740   6.505
10223SOL    HW131568   2.044   5.647   6.527
10223SOL    HW231569   2.139   5.739   6.431
10224SOL     OW31570   0.206   0.986   4.521
10224SOL    HW131571   0.190   0.897   4.565
10224SOL    HW231572   0.139   1.052   4.553
10225SOL     OW31573   1.642   6.265   5.198
10225SOL    HW131574   1.561   6.227   5.153
10225SOL    HW231575   1.647   6.363   5.182
10226SOL     OW31576   2.767   0.435   0.331
10226SOL    HW131577   2.687   0.454   0.274
10226SOL    HW231578   2.798   0.520   0.374
10227SOL     OW31579   4.568   4.630   0.896
10227SOL    HW131580   4.643   4.665   0.841
10227SOL    HW231581   4.541   4.698   0.964
10228SOL     OW31582   0.905   5.478   2.263
10228SOL    HW131583   0.841   5.460   2.188
10228SOL    HW231584   0.954   5.394   2.286
10229SOL     OW31585   1.204   1.190   4.391
10229SOL    HW131586   1.158   1.270   4.430
10229SOL    HW231587   1.148   1.150   4.319
10230SOL     OW31588   6.837   0.062   3.563
10230SOL    HW131589   6.810   7.008   3.507
10230SOL    HW231590   6.795   0.145   3.527
10231SOL     OW31591   0.261   6.009   5.875
10231SOL    HW131592   0.162   6.023   5.884
10231SOL    HW231593   0.299   5.979   5.962
10232SOL     OW31594   3.243   0.551   4.197
10232SOL    HW131595   3.209   0.584   4.109
10232SOL    HW231596   3.320   0.608   4.227
10233SOL     OW31597   5.228   3.313   5.008
10233SOL    HW131598   5.312   3.260   5.019
10233SOL    HW231599   5.251   3.405   4.975
10234SOL     OW31600   5.454   0.427   1.044
10234SOL    HW131601   5.474   0.354   0.979
10234SOL    HW231602   5.365   0.468   1.022
10235SOL     OW31603   4.676   1.968   0.605
10235SOL    HW131604   4.586   1.964   0.649
10235SOL    HW231605   4.746   1.944   0.671
10236SOL     OW31606   1.440   6.327   2.196
10236SOL    HW131607   1.373   6.383   2.147
10236SOL    HW231608   1.394   6.274   2.267
10237SOL     OW31609   6.018   4.219   1.160
10237SOL    HW131610   6.017   4.131   1.207
10237SOL    HW231611   6.095   4.274   1.194
10238SOL     OW31612   3.540   4.192   4.402
10238SOL    HW131613   3.595   4.244   4.466
10238SOL    HW231614   3.505   4.109   4.447
10239SOL     OW31615   1.313   3.819   5.114
10239SOL    HW131616   1.367   3.865   5.043
10239SOL    HW231617   1.367   3.811   5.197
10240SOL     OW31618   1.767   4.759   2.968
10240SOL    HW131619   1.744   4.773   2.871
10240SOL    HW231620   1.697   4.803   3.025
10241SOL     OW31621   0.309   0.928   2.013
10241SOL    HW131622   0.353   1.004   1.965
10241SOL    HW231623   0.377   0.881   2.069
10242SOL     OW31624   6.609   1.783   6.950
10242SOL    HW131625   6.607   1.719   0.002
10242SOL    HW231626   6.516   1.809   6.925
10243SOL     OW31627   0.372   5.382   1.115
10243SOL    HW131628   0.339   5.300   1.163
10243SOL    HW231629   0.316   5.399   1.035
10244SOL     OW31630   1.819   4.602   0.005
10244SOL    HW131631   1.835   4.577   6.934
10244SOL    HW231632   1.806   4.701   0.012
10245SOL     OW31633   3.043   4.134   0.292
10245SOL    HW131634   2.970   4.194   0.325
10245SOL    HW231635   3.127   4.186   0.282
10246SOL     OW31636   2.952   3.790   3.968
10246SOL    HW131637   2.928   3.801   3.871
10246SOL    HW231638   3.011   3.711   3.979
10247SOL     OW31639   0.481   5.516   4.711
10247SOL    HW131640   0.425   5.441   4.677
10247SOL    HW231641   0.498   5.582   4.637
10248SOL     OW31642   3.017   0.059   1.804
10248SOL    HW131643   2.968   0.012   1.878
10248SOL    HW231644   3.077   0.129   1.844
10249SOL     OW31645   3.214   0.715   5.967
10249SOL    HW131646   3.184   0.808   5.945
10249SOL    HW231647   3.199   0.697   6.064
10250SOL     OW31648   0.007   1.919   1.349
10250SOL    HW131649   6.956   1.944   1.410
10250SOL    HW231650   7.020   1.967   1.262
10251SOL     OW31651   2.324   2.584   5.061
10251SOL    HW131652   2.390   2.628   5.000
10251SOL    HW231653   2.233   2.621   5.043
10252SOL     OW31654   0.007   5.748   0.330
10252SOL    HW131655   0.054   5.806   0.263
10252SOL    HW231656   6.933   5.757   0.319
10253SOL     OW31657   5.317   6.092   0.549
10253SOL    HW131658   5.407   6.119   0.515
10253SOL    HW231659   5.324   6.065   0.645
10254SOL     OW31660   4.188   2.165   5.051
10254SOL    HW131661   4.115   2.172   5.119
10254SOL    HW231662   4.208   2.256   5.014
10255SOL     OW31663   2.617   5.362   1.869
10255SOL    HW131664   2.518   5.372   1.882
10255SOL    HW231665   2.662   5.358   1.958
10256SOL     OW31666   5.458   0.425   1.678
10256SOL    HW131667   5.388   0.430   1.608
10256SOL    HW231668   5.526   0.496   1.663
10257SOL     OW31669   2.118   5.178   4.220
10257SOL    HW131670   2.180   5.256   4.215
10257SOL    HW231671   2.046   5.188   4.151
10258SOL     OW31672   4.502   0.196   3.943
10258SOL    HW131673   4.493   0.268   4.013
10258SOL    HW231674   4.595   0.197   3.906
10259SOL     OW31675   0.708   5.280   3.484
10259SOL    HW131676   0.630   5.339   3.465
10259SOL    HW231677   0.791   5.322   3.449
10260SOL     OW31678   0.309   0.296   3.259
10260SOL    HW131679   0.403   0.267   3.241
10260SOL    HW231680   0.245   0.228   3.224
10261SOL     OW31681   6.743   6.175   2.306
10261SOL    HW131682   6.731   6.076   2.305
10261SOL    HW231683   6.729   6.210   2.399
10262SOL     OW31684   2.785   6.250   4.685
10262SOL    HW131685   2.792   6.151   4.674
10262SOL    HW231686   2.719   6.286   4.619
10263SOL     OW31687   4.560   1.322   6.568
10263SOL    HW131688   4.608   1.323   6.656
10263SOL    HW231689   4.585   1.404   6.515
10264SOL     OW31690   5.544   2.017   6.987
10264SOL    HW131691   5.558   2.107   0.002
10264SOL    HW231692   5.632   1.974   6.968
10265SOL     OW31693   3.342   2.136   2.880
10265SOL    HW131694   3.285   2.162   2.957
10265SOL    HW231695   3.312   2.185   2.798
10266SOL     OW31696   3.506   2.856   5.409
10266SOL    HW131697   3.518   2.839   5.312
10266SOL    HW231698   3.575   2.806   5.461
10267SOL     OW31699   6.364   2.149   6.263
10267SOL    HW131700   6.295   2.083   6.232
10267SOL    HW231701   6.452   2.102   6.271
10268SOL     OW31702   3.804   6.022   1.733
10268SOL    HW131703   3.785   6.118   1.712
10268SOL    HW231704   3.718   5.973   1.746
10269SOL     OW31705   1.956   2.079   5.403
10269SOL    HW131706   2.053   2.072   5.380
10269SOL    HW231707   1.927   1.998   5.453
10270SOL     OW31708   2.269   5.367   2.939
10270SOL    HW131709   2.343   5.324   2.992
10270SOL    HW231710   2.308   5.435   2.877
10271SOL     OW31711   4.122   3.266   0.058
10271SOL    HW131712   4.103   3.168   0.052
10271SOL    HW231713   4.055   3.309   0.119
10272SOL     OW31714   0.915   0.165   4.519
10272SOL    HW131715   0.828   0.151   4.473
10272SOL    HW231716   0.921   0.260   4.551
10273SOL     OW31717   4.730   5.366   3.576
10273SOL    HW131718   4.827   5.376   3.598
10273SOL    HW231719   4.675   5.390   3.655
10274SOL     OW31720   1.224   4.396   4.770
10274SOL    HW131721   1.306   4.350   4.802
10274SOL    HW231722   1.248   4.486   4.733
10275SOL     OW31723   0.941   6.883   2.159
10275SOL    HW131724   0.913   6.951   2.228
10275SOL    HW231725   0.985   6.930   2.082
10276SOL     OW31726   6.211   5.521   6.203
10276SOL    HW131727   6.196   5.617   6.225
10276SOL    HW231728   6.280   5.483   6.265
10277SOL     OW31729   2.802   5.806   4.181
10277SOL    HW131730   2.883   5.858   4.154
10277SOL    HW231731   2.762   5.763   4.100
10278SOL     OW31732   5.508   0.791   4.978
10278SOL    HW131733   5.438   0.860   4.992
10278SOL    HW231734   5.571   0.791   5.056
10279SOL     OW31735   2.670   6.374   4.265
10279SOL    HW131736   2.630   6.465   4.260
10279SOL    HW231737   2.603   6.306   4.235
10280SOL     OW31738   2.061   3.719   1.167
10280SOL    HW131739   2.157   3.706   1.192
10280SOL    HW231740   2.021   3.789   1.225
10281SOL     OW31741   6.569   2.389   2.633
10281SOL    HW131742   6.540   2.409   2.539
10281SOL    HW231743   6.666   2.366   2.633
10282SOL     OW31744   6.429   3.987   4.302
10282SOL    HW131745   6.350   3.960   4.248
10282SOL    HW231746   6.463   4.076   4.271
10283SOL     OW31747   1.075   3.320   0.337
10283SOL    HW131748   1.170   3.327   0.306
10283SOL    HW231749   1.025   3.403   0.311
10284SOL     OW31750   4.947   4.445   5.663
10284SOL    HW131751   4.989   4.357   5.641
10284SOL    HW231752   4.994   4.487   5.740
10285SOL     OW31753   4.821   0.436   0.786
10285SOL    HW131754   4.912   0.431   0.828
10285SOL    HW231755   4.799   0.348   0.743
10286SOL     OW31756   3.223   2.173   4.010
10286SOL    HW131757   3.172   2.205   4.089
10286SOL    HW231758   3.164   2.173   3.929
10287SOL     OW31759   1.296   6.572   1.692
10287SOL    HW131760   1.351   6.645   1.651
10287SOL    HW231761   1.230   6.538   1.624
10288SOL     OW31762   5.216   6.504   2.289
10288SOL    HW131763   5.244   6.544   2.202
10288SOL    HW231764   5.142   6.559   2.329
10289SOL     OW31765   3.986   0.653   2.480
10289SOL    HW131766   4.063   0.716   2.474
10289SOL    HW231767   3.968   0.613   2.390
10290SOL     OW31768   3.943   3.622   2.849
10290SOL    HW131769   3.964   3.712   2.811
10290SOL    HW231770   4.020   3.560   2.834
10291SOL     OW31771   4.022   0.994   4.226
10291SOL    HW131772   3.999   1.001   4.323
10291SOL    HW231773   3.939   1.002   4.171
10292SOL     OW31774   0.774   1.415   4.773
10292SOL    HW131775   0.708   1.415   4.697
10292SOL    HW231776   0.745   1.349   4.842
10293SOL     OW31777   1.735   6.175   3.313
10293SOL    HW131778   1.724   6.082   3.348
10293SOL    HW231779   1.742   6.172   3.213
10294SOL     OW31780   4.896   3.390   3.103
10294SOL    HW131781   4.901   3.393   3.003
10294SOL    HW231782   4.870   3.481   3.137
10295SOL     OW31783   6.237   5.158   6.048
10295SOL    HW131784   6.162   5.151   5.982
10295SOL    HW231785   6.283   5.069   6.054
10296SOL     OW31786   5.080   3.025   6.240
10296SOL    HW131787   5.013   2.966   6.194
10296SOL    HW231788   5.035   3.110   6.268
10297SOL     OW31789   2.274   6.622   5.137
10297SOL    HW131790   2.337   6.662   5.203
10297SOL    HW231791   2.207   6.690   5.109
10298SOL     OW31792   4.130   5.155   2.455
10298SOL    HW131793   4.079   5.077   2.490
10298SOL    HW231794   4.224   5.151   2.487
10299SOL     OW31795   4.398   4.557   2.370
10299SOL    HW131796   4.335   4.510   2.431
10299SOL    HW231797   4.388   4.656   2.381
10300SOL     OW31798   2.091   4.796   2.635
10300SOL    HW131799   2.187   4.770   2.636
10300SOL    HW231800   2.052   4.788   2.727
10301SOL     OW31801   5.880   2.099   2.730
10301SOL    HW131802   5.825   2.048   2.663
10301SOL    HW231803   5.864   2.197   2.719
10302SOL     OW31804   0.963   6.256   4.138
10302SOL    HW131805   1.008   6.203   4.209
10302SOL    HW231806   1.027   6.275   4.064
10303SOL     OW31807   3.159   5.055   1.159
10303SOL    HW131808   3.216   5.012   1.229
10303SOL    HW231809   3.218   5.094   1.088
10304SOL     OW31810   5.435   0.991   2.745
10304SOL    HW131811   5.437   1.013   2.648
10304SOL    HW231812   5.465   1.071   2.797
10305SOL     OW31813   0.162   5.315   6.551
10305SOL    HW131814   0.223   5.243   6.583
10305SOL    HW231815   0.089   5.275   6.495
10306SOL     OW31816   4.504   6.366   6.667
10306SOL    HW131817   4.413   6.406   6.679
10306SOL    HW231818   4.514   6.335   6.572
10307SOL     OW31819   2.427   1.925   4.565
10307SOL    HW131820   2.424   1.962   4.472
10307SOL    HW231821   2.504   1.965   4.614
10308SOL     OW31822   2.671   5.025   3.812
10308SOL    HW131823   2.704   4.934   3.788
10308SOL    HW231824   2.685   5.040   3.910
10309SOL     OW31825   6.422   0.463   3.774
10309SOL    HW131826   6.493   0.510   3.826
10309SOL    HW231827   6.359   0.417   3.836
10310SOL     OW31828   3.705   2.786   1.583
10310SOL    HW131829   3.651   2.781   1.498
10310SOL    HW231830   3.675   2.714   1.646
10311SOL     OW31831   0.815   5.874   0.857
10311SOL    HW131832   0.843   5.954   0.910
10311SOL    HW231833   0.728   5.839   0.892
10312SOL     OW31834   3.207   5.428   1.035
10312SOL    HW131835   3.300   5.432   1.071
10312SOL    HW231836   3.197   5.494   0.961
10313SOL     OW31837   3.800   6.720   2.317
10313SOL    HW131838   3.724   6.655   2.322
10313SOL    HW231839   3.856   6.699   2.237
10314SOL     OW31840   5.877   0.982   1.715
10314SOL    HW131841   5.782   1.004   1.691
10314SOL    HW231842   5.938   1.021   1.647
10315SOL     OW31843   6.337   6.095   4.488
10315SOL    HW131844   6.290   6.027   4.432
10315SOL    HW231845   6.285   6.180   4.488
10316SOL     OW31846   6.493   3.777   5.083
10316SOL    HW131847   6.432   3.856   5.082
10316SOL    HW231848   6.588   3.807   5.081
10317SOL     OW31849   3.790   4.601   6.061
10317SOL    HW131850   3.728   4.638   6.131
10317SOL    HW231851   3.877   4.576   6.104
10318SOL     OW31852   6.679   5.390   1.273
10318SOL    HW131853   6.663   5.375   1.370
10318SOL    HW231854   6.643   5.313   1.220
10319SOL     OW31855   1.111   3.583   5.321
10319SOL    HW131856   1.037   3.633   5.366
10319SOL    HW231857   1.198   3.605   5.364
10320SOL     OW31858   0.679   0.768   0.602
10320SOL    HW131859   0.679   0.675   0.639
10320SOL    HW231860   0.743   0.774   0.526
10321SOL     OW31861   4.063   0.298   4.963
10321SOL    HW131862   4.151   0.269   5.000
10321SOL    HW231863   4.071   0.391   4.927
10322SOL     OW31864   6.295   5.865   0.097
10322SOL    HW131865   6.356   5.922   0.151
10322SOL    HW231866   6.211   5.848   0.148
10323SOL     OW31867   6.588   3.727   6.189
10323SOL    HW131868   6.638   3.812   6.208
10323SOL    HW231869   6.509   3.720   6.251
10324SOL     OW31870   3.049   3.208   3.450
10324SOL    HW131871   3.148   3.198   3.442
10324SOL    HW231872   3.005   3.178   3.366
10325SOL     OW31873   6.506   4.585   3.858
10325SOL    HW131874   6.416   4.627   3.868
10325SOL    HW231875   6.523   4.564   3.762
10326SOL     OW31876   5.007   2.779   0.544
10326SOL    HW131877   5.013   2.680   0.542
10326SOL    HW231878   4.936   2.808   0.608
10327SOL     OW31879   2.779   1.649   2.249
10327SOL    HW131880   2.836   1.577   2.210
10327SOL    HW231881   2.714   1.680   2.181
10328SOL     OW31882   6.192   3.331   1.434
10328SOL    HW131883   6.268   3.395   1.422
10328SOL    HW231884   6.213   3.268   1.509
10329SOL     OW31885   2.766   0.362   4.874
10329SOL    HW131886   2.831   0.343   4.947
10329SOL    HW231887   2.674   0.338   4.905
10330SOL     OW31888   3.171   5.413   2.854
10330SOL    HW131889   3.159   5.313   2.852
10330SOL    HW231890   3.090   5.457   2.818
10331SOL     OW31891   6.154   0.591   3.088
10331SOL    HW131892   6.177   0.576   2.992
10331SOL    HW231893   6.082   0.659   3.095
10332SOL     OW31894   6.524   1.678   0.640
10332SOL    HW131895   6.436   1.727   0.637
10332SOL    HW231896   6.561   1.681   0.732
10333SOL     OW31897   5.807   4.513   4.366
10333SOL    HW131898   5.771   4.606   4.355
10333SOL    HW231899   5.732   4.452   4.393
10334SOL     OW31900   2.265   5.891   3.196
10334SOL    HW131901   2.210   5.946   3.258
10334SOL    HW231902   2.339   5.846   3.247
10335SOL     OW31903   1.665   4.375   6.657
10335SOL    HW131904   1.576   4.411   6.629
10335SOL    HW231905   1.667   4.365   6.757
10336SOL     OW31906   5.330   6.646   3.115
10336SOL    HW131907   5.315   6.673   3.210
10336SOL    HW231908   5.338   6.546   3.110
10337SOL     OW31909   6.994   5.682   5.393
10337SOL    HW131910   6.983   5.587   5.363
10337SOL    HW231911   6.957   5.691   5.485
10338SOL     OW31912   3.508   6.357   1.220
10338SOL    HW131913   3.602   6.377   1.194
10338SOL    HW231914   3.447   6.380   1.145
10339SOL     OW31915   3.490   4.602   0.734
10339SOL    HW131916   3.547   4.555   0.667
10339SOL    HW231917   3.511   4.568   0.825
10340SOL     OW31918   1.595   5.842   6.879
10340SOL    HW131919   1.644   5.835   6.792
10340SOL    HW231920   1.497   5.853   6.860
10341SOL     OW31921   2.059   2.976   1.667
10341SOL    HW131922   1.983   2.973   1.602
10341SOL    HW231923   2.133   3.031   1.629
10342SOL     OW31924   2.327   5.812   5.591
10342SOL    HW131925   2.400   5.743   5.589
10342SOL    HW231926   2.366   5.903   5.578
10343SOL     OW31927   2.513   3.986   0.072
10343SOL    HW131928   2.420   3.989   0.035
10343SOL    HW231929   2.579   4.006   7.024
10344SOL     OW31930   4.114   3.649   3.327
10344SOL    HW131931   4.209   3.663   3.302
10344SOL    HW231932   4.088   3.714   3.399
10345SOL     OW31933   2.018   0.732   6.714
10345SOL    HW131934   1.942   0.667   6.716
10345SOL    HW231935   1.982   0.825   6.712
10346SOL     OW31936   5.938   0.729   1.365
10346SOL    HW131937   6.035   0.712   1.349
10346SOL    HW231938   5.887   0.707   1.282
10347SOL     OW31939   5.295   2.355   1.187
10347SOL    HW131940   5.290   2.290   1.111
10347SOL    HW231941   5.247   2.317   1.266
10348SOL     OW31942   6.630   0.952   6.349
10348SOL    HW131943   6.575   0.918   6.426
10348SOL    HW231944   6.669   0.875   6.299
10349SOL     OW31945   6.321   0.482   1.197
10349SOL    HW131946   6.259   0.438   1.262
10349SOL    HW231947   6.297   0.453   1.104
10350SOL     OW31948   3.342   6.439   4.726
10350SOL    HW131949   3.290   6.421   4.643
10350SOL    HW231950   3.365   6.353   4.771
10351SOL     OW31951   5.672   4.944   5.812
10351SOL    HW131952   5.715   5.011   5.752
10351SOL    HW231953   5.573   4.957   5.812
10352SOL     OW31954   5.695   2.347   6.314
10352SOL    HW131955   5.728   2.403   6.389
10352SOL    HW231956   5.757   2.357   6.235
10353SOL     OW31957   6.675   3.023   3.931
10353SOL    HW131958   6.662   2.952   4.000
10353SOL    HW231959   6.771   3.050   3.929
10354SOL     OW31960   0.695   3.818   0.881
10354SOL    HW131961   0.736   3.727   0.875
10354SOL    HW231962   0.603   3.810   0.921
10355SOL     OW31963   1.127   0.941   1.042
10355SOL    HW131964   1.184   0.934   0.960
10355SOL    HW231965   1.063   1.018   1.032
10356SOL     OW31966   0.024   3.379   6.469
10356SOL    HW131967   6.971   3.414   6.418
10356SOL    HW231968   0.001   3.290   6.508
10357SOL     OW31969   2.875   2.047   5.883
10357SOL    HW131970   2.905   2.142   5.892
10357SOL    HW231971   2.922   2.004   5.806
10358SOL     OW31972   1.119   3.420   3.180
10358SOL    HW131973   1.101   3.433   3.278
10358SOL    HW231974   1.216   3.437   3.161
10359SOL     OW31975   4.743   2.269   2.128
10359SOL    HW131976   4.800   2.197   2.168
10359SOL    HW231977   4.702   2.324   2.200
10360SOL     OW31978   5.024   5.209   2.388
10360SOL    HW131979   4.985   5.300   2.374
10360SOL    HW231980   5.123   5.213   2.383
10361SOL     OW31981   2.750   0.460   2.599
10361SOL    HW131982   2.663   0.508   2.607
10361SOL    HW231983   2.735   0.362   2.607
10362SOL     OW31984   0.587   5.136   2.457
10362SOL    HW131985   0.613   5.059   2.516
10362SOL    HW231986   0.654   5.145   2.384
10363SOL     OW31987   4.994   2.737   0.943
10363SOL    HW131988   4.923   2.703   1.005
10363SOL    HW231989   4.951   2.772   0.860
10364SOL     OW31990   5.165   4.739   1.796
10364SOL    HW131991   5.128   4.653   1.830
10364SOL    HW231992   5.260   4.725   1.766
10365SOL     OW31993   5.800   4.807   0.454
10365SOL    HW131994   5.883   4.815   0.399
10365SOL    HW231995   5.770   4.711   0.455
10366SOL     OW31996   4.268   6.780   3.592
10366SOL    HW131997   4.249   6.689   3.629
10366SOL    HW231998   4.220   6.849   3.646
10367SOL     OW31999   0.051   1.546   2.046
10367SOL    HW132000   0.118   1.588   1.985
10367SOL    HW232001   0.085   1.550   2.140
10368SOL     OW32002   1.981   1.068   2.735
10368SOL    HW132003   2.071   1.039   2.704
10368SOL    HW232004   1.919   1.076   2.657
10369SOL     OW32005   2.623   6.457   6.211
10369SOL    HW132006   2.643   6.476   6.307
10369SOL    HW232007   2.626   6.543   6.159
10370SOL     OW32008   6.259   1.679   4.751
10370SOL    HW132009   6.205   1.750   4.796
10370SOL    HW232010   6.274   1.604   4.815
10371SOL     OW32011   2.864   6.759   3.509
10371SOL    HW132012   2.862   6.859   3.520
10371SOL    HW232013   2.939   6.721   3.562
10372SOL     OW32014   2.691   1.086   1.354
10372SOL    HW132015   2.729   1.174   1.382
10372SOL    HW232016   2.633   1.099   1.274
10373SOL     OW32017   0.619   6.457   4.664
10373SOL    HW132018   0.628   6.368   4.708
10373SOL    HW232019   0.603   6.527   4.734
10374SOL     OW32020   2.842   0.148   4.661
10374SOL    HW132021   2.805   0.056   4.674
10374SOL    HW232022   2.825   0.203   4.744
10375SOL     OW32023   2.839   2.325   6.408
10375SOL    HW132024   2.890   2.411   6.408
10375SOL    HW232025   2.829   2.293   6.502
10376SOL     OW32026   1.104   6.327   3.937
10376SOL    HW132027   1.111   6.281   3.849
10376SOL    HW232028   1.196   6.340   3.974
10377SOL     OW32029   0.821   2.069   1.494
10377SOL    HW132030   0.739   2.032   1.449
10377SOL    HW232031   0.869   1.996   1.542
10378SOL     OW32032   6.866   5.288   6.092
10378SOL    HW132033   6.942   5.323   6.145
10378SOL    HW232034   6.789   5.351   6.098
10379SOL     OW32035   3.678   5.433   3.641
10379SOL    HW132036   3.710   5.524   3.613
10379SOL    HW232037   3.756   5.380   3.675
10380SOL     OW32038   0.857   2.230   5.001
10380SOL    HW132039   0.778   2.256   4.946
10380SOL    HW232040   0.893   2.311   5.047
10381SOL     OW32041   4.339   3.809   0.557
10381SOL    HW132042   4.264   3.850   0.610
10381SOL    HW232043   4.346   3.712   0.579
10382SOL     OW32044   3.049   6.225   1.774
10382SOL    HW132045   3.102   6.141   1.786
10382SOL    HW232046   2.999   6.245   1.858
10383SOL     OW32047   2.238   3.885   0.244
10383SOL    HW132048   2.229   3.785   0.238
10383SOL    HW232049   2.316   3.908   0.302
10384SOL     OW32050   6.778   6.442   0.644
10384SOL    HW132051   6.687   6.463   0.608
10384SOL    HW232052   6.769   6.386   0.726
10385SOL     OW32053   4.026   6.030   6.316
10385SOL    HW132054   4.021   6.050   6.218
10385SOL    HW232055   3.971   6.096   6.366
10386SOL     OW32056   1.008   0.916   5.512
10386SOL    HW132057   0.924   0.900   5.564
10386SOL    HW232058   0.995   0.884   5.418
10387SOL     OW32059   4.729   2.430   2.685
10387SOL    HW132060   4.743   2.359   2.753
10387SOL    HW232061   4.795   2.418   2.611
10388SOL     OW32062   1.900   6.617   1.028
10388SOL    HW132063   1.971   6.604   1.097
10388SOL    HW232064   1.924   6.695   0.969
10389SOL     OW32065   5.498   3.548   1.564
10389SOL    HW132066   5.468   3.623   1.505
10389SOL    HW232067   5.592   3.564   1.594
10390SOL     OW32068   1.853   2.364   6.548
10390SOL    HW132069   1.866   2.381   6.646
10390SOL    HW232070   1.817   2.447   6.504
10391SOL     OW32071   0.831   6.284   3.695
10391SOL    HW132072   0.796   6.374   3.718
10391SOL    HW232073   0.924   6.274   3.729
10392SOL     OW32074   5.777   5.147   5.350
10392SOL    HW132075   5.857   5.206   5.342
10392SOL    HW232076   5.694   5.202   5.337
10393SOL     OW32077   2.140   3.630   3.675
10393SOL    HW132078   2.145   3.659   3.580
10393SOL    HW232079   2.124   3.709   3.734
10394SOL     OW32080   2.553   5.501   4.743
10394SOL    HW132081   2.483   5.452   4.795
10394SOL    HW232082   2.514   5.586   4.708
10395SOL     OW32083   6.978   0.135   1.424
10395SOL    HW132084   6.982   0.194   1.343
10395SOL    HW232085   6.886   0.099   1.435
10396SOL     OW32086   3.831   1.570   3.922
10396SOL    HW132087   3.896   1.504   3.885
10396SOL    HW232088   3.845   1.659   3.878
10397SOL     OW32089   3.129   1.723   4.148
10397SOL    HW132090   3.218   1.764   4.126
10397SOL    HW232091   3.138   1.623   4.149
10398SOL     OW32092   6.339   2.797   0.914
10398SOL    HW132093   6.257   2.852   0.897
10398SOL    HW232094   6.322   2.703   0.886
10399SOL     OW32095   5.853   2.385   3.176
10399SOL    HW132096   5.915   2.406   3.101
10399SOL    HW232097   5.894   2.314   3.234
10400SOL     OW32098   4.288   5.679   0.192
10400SOL    HW132099   4.325   5.770   0.214
10400SOL    HW232100   4.208   5.690   0.133
10401SOL     OW32101   0.349   6.379   2.128
10401SOL    HW132102   0.420   6.350   2.193
10401SOL    HW232103   0.263   6.391   2.177
10402SOL     OW32104   6.589   1.925   5.755
10402SOL    HW132105   6.634   2.014   5.756
10402SOL    HW232106   6.617   1.873   5.675
10403SOL     OW32107   4.760   1.968   3.602
10403SOL    HW132108   4.801   2.019   3.526
10403SOL    HW232109   4.779   2.016   3.688
10404SOL     OW32110   5.788   6.190   4.283
10404SOL    HW132111   5.721   6.170   4.355
10404SOL    HW232112   5.759   6.272   4.234
10405SOL     OW32113   1.008   0.272   4.852
10405SOL    HW132114   0.977   0.180   4.827
10405SOL    HW232115   1.020   0.326   4.768
10406SOL     OW32116   2.083   4.379   3.442
10406SOL    HW132117   2.065   4.428   3.357
10406SOL    HW232118   2.064   4.440   3.519
10407SOL     OW32119   2.889   6.756   6.342
10407SOL    HW132120   2.815   6.693   6.367
10407SOL    HW232121   2.861   6.850   6.365
10408SOL     OW32122   4.251   6.988   1.246
10408SOL    HW132123   4.236   6.922   1.172
10408SOL    HW232124   4.315   0.034   1.214
10409SOL     OW32125   0.347   4.897   0.733
10409SOL    HW132126   0.386   4.832   0.666
10409SOL    HW232127   0.319   4.980   0.686
10410SOL     OW32128   5.342   2.328   1.602
10410SOL    HW132129   5.291   2.264   1.661
10410SOL    HW232130   5.311   2.318   1.508
10411SOL     OW32131   3.424   6.693   3.453
10411SOL    HW132132   3.380   6.650   3.374
10411SOL    HW232133   3.359   6.753   3.499
10412SOL     OW32134   0.419   1.143   6.973
10412SOL    HW132135   0.332   1.155   7.020
10412SOL    HW232136   0.494   1.166   0.011
10413SOL     OW32137   0.145   2.970   0.258
10413SOL    HW132138   0.156   3.064   0.289
10413SOL    HW232139   0.235   2.927   0.249
10414SOL     OW32140   3.953   5.321   5.780
10414SOL    HW132141   4.050   5.307   5.800
10414SOL    HW232142   3.904   5.342   5.864
10415SOL     OW32143   1.574   3.695   5.020
10415SOL    HW132144   1.591   3.628   5.092
10415SOL    HW232145   1.656   3.752   5.008
10416SOL     OW32146   6.154   0.470   4.909
10416SOL    HW132147   6.069   0.518   4.931
10416SOL    HW232148   6.230   0.535   4.905
10417SOL     OW32149   3.120   5.442   3.855
10417SOL    HW132150   3.132   5.408   3.762
10417SOL    HW232151   3.061   5.380   3.906
10418SOL     OW32152   6.861   4.069   6.918
10418SOL    HW132153   6.926   4.097   6.990
10418SOL    HW232154   6.903   3.997   6.862
10419SOL     OW32155   2.801   6.875   5.847
10419SOL    HW132156   2.749   6.859   5.931
10419SOL    HW232157   2.782   6.801   5.782
10420SOL     OW32158   0.565   3.951   3.776
10420SOL    HW132159   0.637   4.003   3.731
10420SOL    HW232160   0.572   3.963   3.875
10421SOL     OW32161   0.796   1.961   3.899
10421SOL    HW132162   0.829   1.949   3.806
10421SOL    HW232163   0.828   2.048   3.936
10422SOL     OW32164   6.203   3.418   5.244
10422SOL    HW132165   6.289   3.370   5.226
10422SOL    HW232166   6.210   3.467   5.331
10423SOL     OW32167   6.239   5.309   5.552
10423SOL    HW132168   6.204   5.370   5.623
10423SOL    HW232169   6.304   5.358   5.494
10424SOL     OW32170   5.248   2.869   6.998
10424SOL    HW132171   5.317   2.814   0.021
10424SOL    HW232172   5.195   2.921   0.040
10425SOL     OW32173   1.037   7.023   1.895
10425SOL    HW132174   1.088   0.084   1.890
10425SOL    HW232175   0.974   7.017   1.817
10426SOL     OW32176   5.857   5.197   0.522
10426SOL    HW132177   5.868   5.273   0.586
10426SOL    HW232178   5.769   5.152   0.538
10427SOL     OW32179   4.006   1.069   6.287
10427SOL    HW132180   4.058   0.999   6.238
10427SOL    HW232181   3.994   1.041   6.382
10428SOL     OW32182   3.385   1.104   3.929
10428SOL    HW132183   3.389   1.004   3.934
10428SOL    HW232184   3.407   1.134   3.837
10429SOL     OW32185   0.260   4.065   1.149
10429SOL    HW132186   0.319   3.989   1.176
10429SOL    HW232187   0.184   4.030   1.094
10430SOL     OW32188   4.831   0.114   4.356
10430SOL    HW132189   4.860   0.018   4.363
10430SOL    HW232190   4.859   0.163   4.438
10431SOL     OW32191   2.701   6.073   4.273
10431SOL    HW132192   2.785   6.095   4.322
10431SOL    HW232193   2.714   6.086   4.175
10432SOL     OW32194   5.279   6.995   5.087
10432SOL    HW132195   5.344   6.954   5.024
10432SOL    HW232196   5.314   0.058   5.119
10433SOL     OW32197   1.248   5.954   1.687
10433SOL    HW132198   1.315   5.929   1.757
10433SOL    HW232199   1.187   5.876   1.671
10434SOL     OW32200   4.153   6.349   3.297
10434SOL    HW132201   4.123   6.268   3.348
10434SOL    HW232202   4.115   6.431   3.338
10435SOL     OW32203   6.710   1.099   4.761
10435SOL    HW132204   6.676   1.035   4.691
10435SOL    HW232205   6.638   1.165   4.783
10436SOL     OW32206   0.504   4.949   5.767
10436SOL    HW132207   0.564   5.027   5.782
10436SOL    HW232208   0.432   4.948   5.836
10437SOL     OW32209   4.667   4.087   5.613
10437SOL    HW132210   4.758   4.048   5.597
10437SOL    HW232211   4.598   4.029   5.571
10438SOL     OW32212   5.902   6.612   0.104
10438SOL    HW132213   5.872   6.642   0.195
10438SOL    HW232214   5.963   6.680   0.065
10439SOL     OW32215   3.823   1.291   5.623
10439SOL    HW132216   3.770   1.215   5.585
10439SOL    HW232217   3.833   1.278   5.722
10440SOL     OW32218   1.171   0.197   0.124
10440SOL    HW132219   1.230   0.172   0.201
10440SOL    HW232220   1.135   0.289   0.139
10441SOL     OW32221   3.110   0.447   1.742
10441SOL    HW132222   3.087   0.469   1.837
10441SOL    HW232223   3.031   0.404   1.698
10442SOL     OW32224   3.572   6.582   5.987
10442SOL    HW132225   3.534   6.490   5.976
10442SOL    HW232226   3.663   6.577   6.027
10443SOL     OW32227   4.751   4.124   3.958
10443SOL    HW132228   4.668   4.146   4.010
10443SOL    HW232229   4.739   4.153   3.863
10444SOL     OW32230   4.162   6.233   4.379
10444SOL    HW132231   4.131   6.313   4.429
10444SOL    HW232232   4.179   6.157   4.443
10445SOL     OW32233   0.475   5.006   4.576
10445SOL    HW132234   0.520   5.040   4.659
10445SOL    HW232235   0.540   5.008   4.500
10446SOL     OW32236   1.440   2.747   5.093
10446SOL    HW132237   1.469   2.838   5.065
10446SOL    HW232238   1.514   2.702   5.143
10447SOL     OW32239   0.349   1.217   1.597
10447SOL    HW132240   0.336   1.135   1.652
10447SOL    HW232241   0.390   1.193   1.509
10448SOL     OW32242   4.371   0.556   2.541
10448SOL    HW132243   4.378   0.461   2.571
10448SOL    HW232244   4.335   0.559   2.447
10449SOL     OW32245   2.795   5.068   4.501
10449SOL    HW132246   2.711   5.019   4.480
10449SOL    HW232247   2.776   5.142   4.565
10450SOL     OW32248   0.839   1.940   0.480
10450SOL    HW132249   0.925   1.948   0.531
10450SOL    HW232250   0.788   2.026   0.488
10451SOL     OW32251   1.077   5.825   2.529
10451SOL    HW132252   1.029   5.783   2.452
10451SOL    HW232253   1.175   5.810   2.519
10452SOL     OW32254   6.445   3.289   2.419
10452SOL    HW132255   6.371   3.221   2.425
10452SOL    HW232256   6.406   3.381   2.428
10453SOL     OW32257   3.788   6.588   1.386
10453SOL    HW132258   3.735   6.665   1.351
10453SOL    HW232259   3.799   6.596   1.485
10454SOL     OW32260   4.280   3.512   0.462
10454SOL    HW132261   4.262   3.438   0.398
10454SOL    HW232262   4.193   3.551   0.493
10455SOL     OW32263   6.463   6.144   3.545
10455SOL    HW132264   6.424   6.213   3.485
10455SOL    HW232265   6.455   6.054   3.503
10456SOL     OW32266   3.385   6.288   0.725
10456SOL    HW132267   3.367   6.379   0.687
10456SOL    HW232268   3.464   6.248   0.679
10457SOL     OW32269   3.026   3.730   2.071
10457SOL    HW132270   2.938   3.685   2.081
10457SOL    HW232271   3.089   3.669   2.022
10458SOL     OW32272   0.068   1.641   6.464
10458SOL    HW132273   0.089   1.592   6.379
10458SOL    HW232274   7.012   1.698   6.450
10459SOL     OW32275   4.621   6.097   1.357
10459SOL    HW132276   4.597   6.046   1.275
10459SOL    HW232277   4.570   6.183   1.360
10460SOL     OW32278   1.490   4.622   1.819
10460SOL    HW132279   1.450   4.531   1.804
10460SOL    HW232280   1.521   4.659   1.731
10461SOL     OW32281   0.956   4.989   5.392
10461SOL    HW132282   1.043   5.007   5.438
10461SOL    HW232283   0.896   4.936   5.452
10462SOL     OW32284   6.347   1.838   3.652
10462SOL    HW132285   6.304   1.839   3.562
10462SOL    HW232286   6.395   1.752   3.665
10463SOL     OW32287   3.808   3.160   5.919
10463SOL    HW132288   3.838   3.131   5.828
10463SOL    HW232289   3.711   3.186   5.915
10464SOL     OW32290   6.330   6.714   1.051
10464SOL    HW132291   6.259   6.690   0.985
10464SOL    HW232292   6.301   6.794   1.104
10465SOL     OW32293   6.685   5.639   1.508
10465SOL    HW132294   6.606   5.679   1.463
10465SOL    HW232295   6.759   5.707   1.510
10466SOL     OW32296   4.422   5.401   6.337
10466SOL    HW132297   4.512   5.427   6.372
10466SOL    HW232298   4.424   5.306   6.307
10467SOL     OW32299   1.902   2.147   5.994
10467SOL    HW132300   1.830   2.122   6.060
10467SOL    HW232301   1.977   2.081   6.000
10468SOL     OW32302   3.483   4.969   2.860
10468SOL    HW132303   3.399   4.915   2.873
10468SOL    HW232304   3.534   4.972   2.946
10469SOL     OW32305   4.240   3.472   5.703
10469SOL    HW132306   4.275   3.436   5.790
10469SOL    HW232307   4.197   3.560   5.718
10470SOL     OW32308   2.737   2.386   3.819
10470SOL    HW132309   2.678   2.328   3.875
10470SOL    HW232310   2.692   2.474   3.802
10471SOL     OW32311   2.618   2.177   1.022
10471SOL    HW132312   2.616   2.099   0.959
10471SOL    HW232313   2.672   2.153   1.103
10472SOL     OW32314   3.710   5.444   0.348
10472SOL    HW132315   3.750   5.432   0.257
10472SOL    HW232316   3.640   5.515   0.345
10473SOL     OW32317   6.589   0.808   0.092
10473SOL    HW132318   6.649   0.887   0.077
10473SOL    HW232319   6.504   0.839   0.136
10474SOL     OW32320   4.838   1.624   4.666
10474SOL    HW132321   4.784   1.623   4.581
10474SOL    HW232322   4.805   1.698   4.725
10475SOL     OW32323   5.448   6.928   2.652
10475SOL    HW132324   5.395   6.921   2.568
10475SOL    HW232325   5.392   6.970   2.723
10476SOL     OW32326   6.995   6.296   6.746
10476SOL    HW132327   0.022   6.296   6.661
10476SOL    HW232328   0.006   6.368   6.806
10477SOL     OW32329   6.770   1.692   4.069
10477SOL    HW132330   6.865   1.680   4.099
10477SOL    HW232331   6.708   1.660   4.141
10478SOL     OW32332   0.496   0.715   1.001
10478SOL    HW132333   0.449   0.638   1.042
10478SOL    HW232334   0.442   0.751   0.925
10479SOL     OW32335   7.021   2.625   1.499
10479SOL    HW132336   6.945   2.638   1.562
10479SOL    HW232337   0.080   2.604   1.550
10480SOL     OW32338   6.575   0.610   1.959
10480SOL    HW132339   6.664   0.566   1.953
10480SOL    HW232340   6.504   0.540   1.966
10481SOL     OW32341   2.373   0.066   4.658
10481SOL    HW132342   2.461   0.096   4.620
10481SOL    HW232343   2.302   0.133   4.635
10482SOL     OW32344   0.099   5.571   4.811
10482SOL    HW132345   0.068   5.610   4.898
10482SOL    HW232346   0.173   5.627   4.774
10483SOL     OW32347   7.021   5.215   0.499
10483SOL    HW132348   0.054   5.296   0.508
10483SOL    HW232349   6.954   5.213   0.574
10484SOL     OW32350   6.060   1.313   1.789
10484SOL    HW132351   6.062   1.223   1.744
10484SOL    HW232352   6.153   1.339   1.815
10485SOL     OW32353   3.195   3.977   2.076
10485SOL    HW132354   3.139   3.894   2.080
10485SOL    HW232355   3.206   4.005   1.981
10486SOL     OW32356   6.219   0.746   5.821
10486SOL    HW132357   6.122   0.727   5.805
10486SOL    HW232358   6.266   0.661   5.847
10487SOL     OW32359   4.271   2.035   1.911
10487SOL    HW132360   4.203   2.064   1.979
10487SOL    HW232361   4.358   2.079   1.931
10488SOL     OW32362   2.356   1.769   6.326
10488SOL    HW132363   2.388   1.777   6.420
10488SOL    HW232364   2.431   1.741   6.267
10489SOL     OW32365   5.779   6.730   4.243
10489SOL    HW132366   5.874   6.702   4.227
10489SOL    HW232367   5.731   6.736   4.155
10490SOL     OW32368   6.121   1.724   0.851
10490SOL    HW132369   6.096   1.685   0.939
10490SOL    HW232370   6.040   1.732   0.793
10491SOL     OW32371   2.552   2.265   5.304
10491SOL    HW132372   2.490   2.269   5.383
10491SOL    HW232373   2.597   2.353   5.292
10492SOL     OW32374   4.904   6.203   1.303
10492SOL    HW132375   4.996   6.166   1.318
10492SOL    HW232376   4.837   6.133   1.326
10493SOL     OW32377   2.561   6.482   1.783
10493SOL    HW132378   2.467   6.512   1.801
10493SOL    HW232379   2.578   6.482   1.685
10494SOL     OW32380   5.673   4.450   6.197
10494SOL    HW132381   5.679   4.549   6.186
10494SOL    HW232382   5.599   4.414   6.141
10495SOL     OW32383   6.963   0.408   0.938
10495SOL    HW132384   6.937   0.502   0.914
10495SOL    HW232385   6.908   0.344   0.884
10496SOL     OW32386   6.131   4.692   6.103
10496SOL    HW132387   6.085   4.604   6.114
10496SOL    HW232388   6.102   4.734   6.017
10497SOL     OW32389   0.993   6.378   2.142
10497SOL    HW132390   1.088   6.389   2.171
10497SOL    HW232391   0.945   6.466   2.150
10498SOL     OW32392   5.917   5.575   0.671
10498SOL    HW132393   6.017   5.571   0.667
10498SOL    HW232394   5.883   5.493   0.716
10499SOL     OW32395   4.759   0.317   2.124
10499SOL    HW132396   4.693   0.360   2.186
10499SOL    HW232397   4.711   0.277   2.047
10500SOL     OW32398   6.027   1.854   5.865
10500SOL    HW132399   5.947   1.812   5.822
10500SOL    HW232400   5.998   1.929   5.923
10501SOL     OW32401   2.539   5.814   1.896
10501SOL    HW132402   2.586   5.819   1.807
10501SOL    HW232403   2.475   5.737   1.895
10502SOL     OW32404   2.794   3.409   1.218
10502SOL    HW132405   2.800   3.312   1.194
10502SOL    HW232406   2.851   3.427   1.298
10503SOL     OW32407   6.011   3.580   0.699
10503SOL    HW132408   6.003   3.485   0.668
10503SOL    HW232409   6.000   3.642   0.622
10504SOL     OW32410   0.089   2.775   5.822
10504SOL    HW132411   0.025   2.826   5.764
10504SOL    HW232412   0.178   2.770   5.777
10505SOL     OW32413   5.897   6.009   1.183
10505SOL    HW132414   5.854   5.941   1.242
10505SOL    HW232415   5.906   6.095   1.232
10506SOL     OW32416   0.820   3.310   6.914
10506SOL    HW132417   0.752   3.378   6.942
10506SOL    HW232418   0.881   3.350   6.846
10507SOL     OW32419   2.188   5.430   0.140
10507SOL    HW132420   2.228   5.521   0.128
10507SOL    HW232421   2.146   5.424   0.231
10508SOL     OW32422   0.244   5.930   4.290
10508SOL    HW132423   0.159   5.893   4.329
10508SOL    HW232424   0.291   5.984   4.360
10509SOL     OW32425   6.183   4.690   4.849
10509SOL    HW132426   6.103   4.645   4.890
10509SOL    HW232427   6.239   4.622   4.801
10510SOL     OW32428   4.215   6.373   0.312
10510SOL    HW132429   4.288   6.392   0.246
10510SOL    HW232430   4.240   6.413   0.400
10511SOL     OW32431   3.066   1.239   2.500
10511SOL    HW132432   3.140   1.181   2.534
10511SOL    HW232433   3.048   1.218   2.404
10512SOL     OW32434   3.312   0.321   6.190
10512SOL    HW132435   3.269   0.369   6.266
10512SOL    HW232436   3.250   0.251   6.155
10513SOL     OW32437   6.630   3.036   3.039
10513SOL    HW132438   6.553   3.086   3.079
10513SOL    HW232439   6.606   2.939   3.029
10514SOL     OW32440   1.246   2.458   1.651
10514SOL    HW132441   1.325   2.438   1.709
10514SOL    HW232442   1.177   2.387   1.662
10515SOL     OW32443   1.616   3.554   4.486
10515SOL    HW132444   1.669   3.622   4.436
10515SOL    HW232445   1.526   3.542   4.443
10516SOL     OW32446   2.770   1.730   0.320
10516SOL    HW132447   2.836   1.803   0.340
10516SOL    HW232448   2.814   1.641   0.334
10517SOL     OW32449   1.313   4.046   1.879
10517SOL    HW132450   1.235   4.109   1.888
10517SOL    HW232451   1.302   3.971   1.944
10518SOL     OW32452   6.859   6.288   1.685
10518SOL    HW132453   6.896   6.204   1.646
10518SOL    HW232454   6.804   6.335   1.616
10519SOL     OW32455   3.029   3.841   0.984
10519SOL    HW132456   3.044   3.914   0.918
10519SOL    HW232457   3.019   3.754   0.935
10520SOL     OW32458   0.377   2.516   5.831
10520SOL    HW132459   0.287   2.528   5.873
10520SOL    HW232460   0.417   2.430   5.862
10521SOL     OW32461   0.332   5.553   1.438
10521SOL    HW132462   0.242   5.594   1.422
10521SOL    HW232463   0.398   5.591   1.373
10522SOL     OW32464   0.040   2.563   3.560
10522SOL    HW132465   0.099   2.556   3.480
10522SOL    HW232466   0.078   2.631   3.623
10523SOL     OW32467   0.489   4.454   3.160
10523SOL    HW132468   0.417   4.522   3.153
10523SOL    HW232469   0.509   4.436   3.257
10524SOL     OW32470   0.183   6.336   4.174
10524SOL    HW132471   0.119   6.301   4.105
10524SOL    HW232472   0.145   6.420   4.214
10525SOL     OW32473   3.769   0.940   5.248
10525SOL    HW132474   3.774   0.903   5.155
10525SOL    HW232475   3.712   0.879   5.304
10526SOL     OW32476   0.739   0.062   1.479
10526SOL    HW132477   0.758   0.009   1.562
10526SOL    HW232478   0.661   0.122   1.496
10527SOL     OW32479   1.453   0.864   5.954
10527SOL    HW132480   1.409   0.846   6.042
10527SOL    HW232481   1.460   0.779   5.902
10528SOL     OW32482   1.385   4.209   6.312
10528SOL    HW132483   1.310   4.255   6.263
10528SOL    HW232484   1.461   4.193   6.248
10529SOL     OW32485   2.236   6.053   4.357
10529SOL    HW132486   2.254   5.956   4.342
10529SOL    HW232487   2.310   6.093   4.411
10530SOL     OW32488   1.124   6.705   6.191
10530SOL    HW132489   1.061   6.758   6.248
10530SOL    HW232490   1.134   6.613   6.228
10531SOL     OW32491   2.674   2.184   4.367
10531SOL    HW132492   2.598   2.123   4.347
10531SOL    HW232493   2.752   2.131   4.401
10532SOL     OW32494   0.124   6.694   6.253
10532SOL    HW132495   0.197   6.661   6.193
10532SOL    HW232496   0.117   6.793   6.245
10533SOL     OW32497   3.571   5.623   3.332
10533SOL    HW132498   3.471   5.613   3.338
10533SOL    HW232499   3.593   5.689   3.260
10534SOL     OW32500   6.316   4.771   2.097
10534SOL    HW132501   6.320   4.690   2.038
10534SOL    HW232502   6.336   4.853   2.044
10535SOL     OW32503   2.094   1.722   2.262
10535SOL    HW132504   2.003   1.697   2.228
10535SOL    HW232505   2.107   1.820   2.254
10536SOL     OW32506   4.501   0.773   4.178
10536SOL    HW132507   4.420   0.828   4.162
10536SOL    HW232508   4.557   0.816   4.249
10537SOL     OW32509   4.898   6.731   3.873
10537SOL    HW132510   4.902   6.635   3.846
10537SOL    HW232511   4.807   6.751   3.910
10538SOL     OW32512   6.955   3.391   0.416
10538SOL    HW132513   6.864   3.351   0.430
10538SOL    HW232514   6.946   3.489   0.401
10539SOL     OW32515   6.264   5.924   1.173
10539SOL    HW132516   6.226   5.834   1.191
10539SOL    HW232517   6.336   5.917   1.103
10540SOL     OW32518   2.149   2.829   5.565
10540SOL    HW132519   2.217   2.890   5.527
10540SOL    HW232520   2.084   2.802   5.494
10541SOL     OW32521   3.735   3.300   3.256
10541SOL    HW132522   3.696   3.392   3.257
10541SOL    HW232523   3.817   3.299   3.198
10542SOL     OW32524   6.690   1.106   5.327
10542SOL    HW132525   6.639   1.152   5.254
10542SOL    HW232526   6.773   1.064   5.289
10543SOL     OW32527   0.965   1.777   4.062
10543SOL    HW132528   0.933   1.844   3.995
10543SOL    HW232529   0.929   1.801   4.152
10544SOL     OW32530   2.044   6.307   1.844
10544SOL    HW132531   2.141   6.282   1.843
10544SOL    HW232532   1.991   6.233   1.885
10545SOL     OW32533   1.811   2.698   1.612
10545SOL    HW132534   1.883   2.650   1.662
10545SOL    HW232535   1.832   2.795   1.607
10546SOL     OW32536   2.894   6.389   0.704
10546SOL    HW132537   2.847   6.311   0.661
10546SOL    HW232538   2.841   6.473   0.686
10547SOL     OW32539   5.551   2.361   3.896
10547SOL    HW132540   5.634   2.359   3.839
10547SOL    HW232541   5.472   2.384   3.839
10548SOL     OW32542   0.256   4.445   4.151
10548SOL    HW132543   0.175   4.468   4.204
10548SOL    HW232544   0.244   4.479   4.057
10549SOL     OW32545   0.786   1.451   0.845
10549SOL    HW132546   0.742   1.368   0.810
10549SOL    HW232547   0.884   1.445   0.831
10550SOL     OW32548   4.506   6.375   3.790
10550SOL    HW132549   4.562   6.400   3.710
10550SOL    HW232550   4.527   6.281   3.817
10551SOL     OW32551   1.757   1.516   6.933
10551SOL    HW132552   1.731   1.427   6.972
10551SOL    HW232553   1.674   1.567   6.910
10552SOL     OW32554   1.637   0.768   5.275
10552SOL    HW132555   1.547   0.772   5.231
10552SOL    HW232556   1.647   0.845   5.338
10553SOL     OW32557   0.442   4.654   1.207
10553SOL    HW132558   0.397   4.655   1.117
10553SOL    HW232559   0.477   4.562   1.225
10554SOL     OW32560   5.027   5.507   1.507
10554SOL    HW132561   5.119   5.476   1.481
10554SOL    HW232562   4.972   5.519   1.424
10555SOL     OW32563   2.695   2.830   0.913
10555SOL    HW132564   2.723   2.750   0.859
10555SOL    HW232565   2.758   2.842   0.989
10556SOL     OW32566   2.482   0.641   3.376
10556SOL    HW132567   2.433   0.691   3.447
10556SOL    HW232568   2.505   0.703   3.301
10557SOL     OW32569   1.633   2.899   3.734
10557SOL    HW132570   1.638   2.799   3.737
10557SOL    HW232571   1.656   2.930   3.642
10558SOL     OW32572   3.787   6.017   5.759
10558SOL    HW132573   3.820   5.960   5.684
10558SOL    HW232574   3.710   6.072   5.729
10559SOL     OW32575   3.790   0.074   1.504
10559SOL    HW132576   3.801   0.072   1.405
10559SOL    HW232577   3.751   0.162   1.531
10560SOL     OW32578   4.981   0.038   2.965
10560SOL    HW132579   4.998   6.965   2.977
10560SOL    HW232580   5.021   0.069   2.879
10561SOL     OW32581   3.701   4.361   1.714
10561SOL    HW132582   3.779   4.389   1.657
10561SOL    HW232583   3.657   4.443   1.752
10562SOL     OW32584   3.989   5.417   0.419
10562SOL    HW132585   3.997   5.389   0.323
10562SOL    HW232586   3.907   5.473   0.430
10563SOL     OW32587   0.966   0.947   1.926
10563SOL    HW132588   0.923   0.991   1.847
10563SOL    HW232589   0.992   1.017   1.993
10564SOL     OW32590   5.735   6.287   3.500
10564SOL    HW132591   5.825   6.318   3.469
10564SOL    HW232592   5.722   6.191   3.476
10565SOL     OW32593   6.670   6.272   5.426
10565SOL    HW132594   6.678   6.354   5.483
10565SOL    HW232595   6.761   6.245   5.393
10566SOL     OW32596   3.508   1.792   6.444
10566SOL    HW132597   3.412   1.805   6.423
10566SOL    HW232598   3.557   1.766   6.360
10567SOL     OW32599   1.949   2.871   5.775
10567SOL    HW132600   1.958   2.838   5.869
10567SOL    HW232601   2.010   2.819   5.716
10568SOL     OW32602   6.313   3.163   0.770
10568SOL    HW132603   6.264   3.164   0.857
10568SOL    HW232604   6.252   3.127   0.699
10569SOL     OW32605   5.520   0.683   2.249
10569SOL    HW132606   5.589   0.712   2.315
10569SOL    HW232607   5.454   0.624   2.294
10570SOL     OW32608   1.718   4.737   3.694
10570SOL    HW132609   1.792   4.805   3.692
10570SOL    HW232610   1.753   4.651   3.730
10571SOL     OW32611   6.949   4.110   5.096
10571SOL    HW132612   6.954   4.208   5.116
10571SOL    HW232613   0.013   4.067   5.114
10572SOL     OW32614   6.650   4.591   2.757
10572SOL    HW132615   6.719   4.660   2.735
10572SOL    HW232616   6.563   4.636   2.776
10573SOL     OW32617   4.876   0.347   4.984
10573SOL    HW132618   4.826   0.433   4.973
10573SOL    HW232619   4.822   0.284   5.040
10574SOL     OW32620   0.309   1.786   4.040
10574SOL    HW132621   0.344   1.748   4.125
10574SOL    HW232622   0.322   1.720   3.966
10575SOL     OW32623   0.161   0.751   3.541
10575SOL    HW132624   0.228   0.752   3.466
10575SOL    HW232625   0.091   0.683   3.522
10576SOL     OW32626   0.822   6.020   3.441
10576SOL    HW132627   0.875   6.104   3.431
10576SOL    HW232628   0.727   6.042   3.460
10577SOL     OW32629   1.542   4.217   0.370
10577SOL    HW132630   1.619   4.161   0.342
10577SOL    HW232631   1.502   4.180   0.454
10578SOL     OW32632   3.788   1.450   3.071
10578SOL    HW132633   3.758   1.422   2.980
10578SOL    HW232634   3.885   1.476   3.068
10579SOL     OW32635   3.983   2.804   1.707
10579SOL    HW132636   3.894   2.809   1.662
10579SOL    HW232637   4.048   2.757   1.647
10580SOL     OW32638   6.667   6.474   6.050
10580SOL    HW132639   6.662   6.375   6.035
10580SOL    HW232640   6.576   6.514   6.038
10581SOL     OW32641   5.908   0.778   2.992
10581SOL    HW132642   5.847   0.837   2.939
10581SOL    HW232643   5.899   0.683   2.960
10582SOL     OW32644   4.424   4.720   6.044
10582SOL    HW132645   4.460   4.703   5.952
10582SOL    HW232646   4.334   4.762   6.036
10583SOL     OW32647   4.736   0.678   3.763
10583SOL    HW132648   4.722   0.674   3.664
10583SOL    HW232649   4.659   0.725   3.806
10584SOL     OW32650   6.274   0.144   0.239
10584SOL    HW132651   6.300   0.218   0.300
10584SOL    HW232652   6.349   0.078   0.231
10585SOL     OW32653   2.914   1.718   5.375
10585SOL    HW132654   2.980   1.674   5.314
10585SOL    HW232655   2.949   1.808   5.403
10586SOL     OW32656   5.251   5.132   5.881
10586SOL    HW132657   5.318   5.123   5.808
10586SOL    HW232658   5.244   5.045   5.931
10587SOL     OW32659   6.613   5.015   6.730
10587SOL    HW132660   6.680   5.045   6.662
10587SOL    HW232661   6.584   4.922   6.710
10588SOL     OW32662   1.464   2.052   4.805
10588SOL    HW132663   1.466   1.983   4.876
10588SOL    HW232664   1.460   2.143   4.847
10589SOL     OW32665   4.738   0.812   4.611
10589SOL    HW132666   4.777   0.860   4.690
10589SOL    HW232667   4.794   0.733   4.589
10590SOL     OW32668   0.031   0.171   0.447
10590SOL    HW132669   7.012   0.261   0.436
10590SOL    HW232670   0.087   0.171   0.530
10591SOL     OW32671   2.335   2.066   0.410
10591SOL    HW132672   2.418   2.122   0.417
10591SOL    HW232673   2.308   2.058   0.314
10592SOL     OW32674   5.405   4.105   4.007
10592SOL    HW132675   5.353   4.035   3.957
10592SOL    HW232676   5.502   4.096   3.987
10593SOL     OW32677   3.248   6.027   0.940
10593SOL    HW132678   3.214   6.121   0.938
10593SOL    HW232679   3.254   5.992   0.847
10594SOL     OW32680   4.906   1.894   2.093
10594SOL    HW132681   4.807   1.901   2.101
10594SOL    HW232682   4.944   1.850   2.174
10595SOL     OW32683   5.722   0.092   0.366
10595SOL    HW132684   5.625   0.073   0.381
10595SOL    HW232685   5.732   0.178   0.316
10596SOL     OW32686   4.308   0.919   0.296
10596SOL    HW132687   4.300   0.882   0.204
10596SOL    HW232688   4.369   0.998   0.295
10597SOL     OW32689   3.525   1.482   5.958
10597SOL    HW132690   3.464   1.422   6.009
10597SOL    HW232691   3.549   1.440   5.870
10598SOL     OW32692   3.480   2.701   6.855
10598SOL    HW132693   3.458   2.794   6.826
10598SOL    HW232694   3.575   2.697   6.884
10599SOL     OW32695   5.648   3.481   6.947
10599SOL    HW132696   5.665   3.575   6.916
10599SOL    HW232697   5.675   3.417   6.875
10600SOL     OW32698   3.249   2.452   1.680
10600SOL    HW132699   3.174   2.506   1.720
10600SOL    HW232700   3.231   2.354   1.696
10601SOL     OW32701   1.183   4.730   5.733
10601SOL    HW132702   1.137   4.737   5.645
10601SOL    HW232703   1.282   4.743   5.720
10602SOL     OW32704   0.916   1.434   1.310
10602SOL    HW132705   0.990   1.377   1.275
10602SOL    HW232706   0.938   1.467   1.401
10603SOL     OW32707   4.227   0.252   3.366
10603SOL    HW132708   4.304   0.305   3.332
10603SOL    HW232709   4.159   0.241   3.293
10604SOL     OW32710   6.512   5.205   5.175
10604SOL    HW132711   6.593   5.182   5.122
10604SOL    HW232712   6.530   5.286   5.230
10605SOL     OW32713   1.944   6.754   7.005
10605SOL    HW132714   1.849   6.784   7.014
10605SOL    HW232715   1.992   6.813   6.940
10606SOL     OW32716   0.129   0.915   1.138
10606SOL    HW132717   0.034   0.918   1.170
10606SOL    HW232718   0.172   1.004   1.153
10607SOL     OW32719   4.192   4.655   0.253
10607SOL    HW132720   4.224   4.736   0.204
10607SOL    HW232721   4.180   4.580   0.188
10608SOL     OW32722   0.045   3.740   4.346
10608SOL    HW132723   0.140   3.719   4.370
10608SOL    HW232724   0.044   3.801   4.267
10609SOL     OW32725   2.874   6.518   6.658
10609SOL    HW132726   2.913   6.443   6.605
10609SOL    HW232727   2.946   6.564   6.710
10610SOL     OW32728   0.547   2.102   3.699
10610SOL    HW132729   0.525   2.076   3.793
10610SOL    HW232730   0.486   2.176   3.670
10611SOL     OW32731   3.130   4.481   6.524
10611SOL    HW132732   3.059   4.422   6.485
10611SOL    HW232733   3.208   4.425   6.552
10612SOL     OW32734   5.148   1.886   4.126
10612SOL    HW132735   5.198   1.909   4.209
10612SOL    HW232736   5.169   1.955   4.056
10613SOL     OW32737   6.397   5.727   5.883
10613SOL    HW132738   6.357   5.757   5.796
10613SOL    HW232739   6.377   5.629   5.896
10614SOL     OW32740   5.062   1.254   4.119
10614SOL    HW132741   5.071   1.283   4.215
10614SOL    HW232742   5.151   1.226   4.085
10615SOL     OW32743   3.447   1.073   6.021
10615SOL    HW132744   3.496   1.033   5.943
10615SOL    HW232745   3.512   1.115   6.084
10616SOL     OW32746   3.108   6.574   6.841
10616SOL    HW132747   3.094   6.475   6.845
10616SOL    HW232748   3.022   6.620   6.860
10617SOL     OW32749   3.088   4.108   1.399
10617SOL    HW132750   2.994   4.136   1.419
10617SOL    HW232751   3.135   4.183   1.353
10618SOL     OW32752   1.205   4.351   5.955
10618SOL    HW132753   1.221   4.380   6.050
10618SOL    HW232754   1.264   4.273   5.934
10619SOL     OW32755   0.010   2.989   3.708
10619SOL    HW132756   7.022   2.953   3.615
10619SOL    HW232757   0.108   3.002   3.724
10620SOL     OW32758   0.927   7.021   4.788
10620SOL    HW132759   1.003   6.983   4.840
10620SOL    HW232760   0.955   0.009   4.693
10621SOL     OW32761   0.874   4.957   2.010
10621SOL    HW132762   0.964   4.962   1.966
10621SOL    HW232763   0.856   4.863   2.041
10622SOL     OW32764   4.630   2.112   2.478
10622SOL    HW132765   4.559   2.171   2.441
10622SOL    HW232766   4.610   2.089   2.573
10623SOL     OW32767   6.629   5.051   5.771
10623SOL    HW132768   6.540   5.010   5.792
10623SOL    HW232769   6.686   5.051   5.853
10624SOL     OW32770   0.344   2.768   5.705
10624SOL    HW132771   0.376   2.759   5.610
10624SOL    HW232772   0.358   2.682   5.753
10625SOL     OW32773   0.948   4.303   1.134
10625SOL    HW132774   0.875   4.240   1.161
10625SOL    HW232775   0.933   4.392   1.176
10626SOL     OW32776   3.579   2.818   0.984
10626SOL    HW132777   3.560   2.720   0.972
10626SOL    HW232778   3.497   2.870   0.962
10627SOL     OW32779   5.564   1.758   0.136
10627SOL    HW132780   5.602   1.762   0.043
10627SOL    HW232781   5.464   1.768   0.131
10628SOL     OW32782   4.274   6.703   0.987
10628SOL    HW132783   4.272   6.691   1.086
10628SOL    HW232784   4.315   6.792   0.965
10629SOL     OW32785   2.582   4.912   4.473
10629SOL    HW132786   2.539   4.869   4.552
10629SOL    HW232787   2.621   4.842   4.414
10630SOL     OW32788   6.343   1.797   2.739
10630SOL    HW132789   6.424   1.854   2.755
10630SOL    HW232790   6.369   1.700   2.749
10631SOL     OW32791   4.056   4.601   5.318
10631SOL    HW132792   4.062   4.517   5.373
10631SOL    HW232793   3.961   4.631   5.313
10632SOL     OW32794   5.383   6.574   3.383
10632SOL    HW132795   5.384   6.578   3.483
10632SOL    HW232796   5.315   6.506   3.353
10633SOL     OW32797   2.819   2.841   1.719
10633SOL    HW132798   2.724   2.845   1.749
10633SOL    HW232799   2.823   2.841   1.619
10634SOL     OW32800   2.113   4.745   0.674
10634SOL    HW132801   2.077   4.770   0.764
10634SOL    HW232802   2.077   4.806   0.604
10635SOL     OW32803   1.767   3.381   6.723
10635SOL    HW132804   1.765   3.304   6.787
10635SOL    HW232805   1.836   3.364   6.653
10636SOL     OW32806   0.728   2.280   1.007
10636SOL    HW132807   0.794   2.248   1.075
10636SOL    HW232808   0.714   2.378   1.018
10637SOL     OW32809   0.849   4.916   5.838
10637SOL    HW132810   0.781   4.874   5.899
10637SOL    HW232811   0.834   5.015   5.836
10638SOL     OW32812   5.553   5.961   2.681
10638SOL    HW132813   5.506   5.880   2.646
10638SOL    HW232814   5.488   6.019   2.730
10639SOL     OW32815   1.209   3.794   2.580
10639SOL    HW132816   1.247   3.718   2.633
10639SOL    HW232817   1.203   3.875   2.638
10640SOL     OW32818   4.391   0.139   3.590
10640SOL    HW132819   4.318   0.119   3.525
10640SOL    HW232820   4.395   0.067   3.658
10641SOL     OW32821   2.357   1.681   2.449
10641SOL    HW132822   2.308   1.767   2.466
10641SOL    HW232823   2.449   1.687   2.487
10642SOL     OW32824   6.658   1.716   0.879
10642SOL    HW132825   6.639   1.731   0.976
10642SOL    HW232826   6.745   1.668   0.869
10643SOL     OW32827   2.572   5.863   4.590
10643SOL    HW132828   2.634   5.799   4.544
10643SOL    HW232829   2.483   5.820   4.603
10644SOL     OW32830   5.595   2.903   1.231
10644SOL    HW132831   5.610   2.817   1.280
10644SOL    HW232832   5.497   2.926   1.235
10645SOL     OW32833   1.791   2.968   4.128
10645SOL    HW132834   1.696   2.983   4.154
10645SOL    HW232835   1.797   2.889   4.067
10646SOL     OW32836   0.457   6.925   5.899
10646SOL    HW132837   0.541   6.976   5.882
10646SOL    HW232838   0.452   6.846   5.838
10647SOL     OW32839   3.049   5.776   4.454
10647SOL    HW132840   3.057   5.701   4.388
10647SOL    HW232841   3.113   5.849   4.431
10648SOL     OW32842   5.747   4.710   6.165
10648SOL    HW132843   5.697   4.794   6.143
10648SOL    HW232844   5.800   4.723   6.248
10649SOL     OW32845   0.558   4.299   2.932
10649SOL    HW132846   0.565   4.204   2.964
10649SOL    HW232847   0.545   4.359   3.011
10650SOL     OW32848   0.945   0.005   4.172
10650SOL    HW132849   0.984   0.018   4.081
10650SOL    HW232850   1.004   0.046   4.241
10651SOL     OW32851   5.842   6.608   6.751
10651SOL    HW132852   5.937   6.612   6.782
10651SOL    HW232853   5.795   6.531   6.795
10652SOL     OW32854   3.151   6.209   5.919
10652SOL    HW132855   3.086   6.218   5.843
10652SOL    HW232856   3.111   6.150   5.989
10653SOL     OW32857   4.018   5.666   4.735
10653SOL    HW132858   4.040   5.688   4.640
10653SOL    HW232859   3.923   5.690   4.754
10654SOL     OW32860   5.038   0.442   6.601
10654SOL    HW132861   5.025   0.378   6.525
10654SOL    HW232862   5.095   0.400   6.671
10655SOL     OW32863   2.247   5.693   0.414
10655SOL    HW132864   2.221   5.785   0.383
10655SOL    HW232865   2.318   5.657   0.354
10656SOL     OW32866   0.282   1.779   2.615
10656SOL    HW132867   0.272   1.684   2.582
10656SOL    HW232868   0.311   1.778   2.711
10657SOL     OW32869   5.927   0.188   5.069
10657SOL    HW132870   5.892   0.278   5.097
10657SOL    HW232871   5.855   0.120   5.081
10658SOL     OW32872   6.750   4.508   4.750
10658SOL    HW132873   6.706   4.598   4.754
10658SOL    HW232874   6.696   4.443   4.803
10659SOL     OW32875   0.977   5.599   0.815
10659SOL    HW132876   1.039   5.585   0.892
10659SOL    HW232877   0.926   5.685   0.827
10660SOL     OW32878   5.456   3.536   6.349
10660SOL    HW132879   5.527   3.541   6.419
10660SOL    HW232880   5.366   3.537   6.393
10661SOL     OW32881   0.657   0.071   1.207
10661SOL    HW132882   0.640   7.009   1.160
10661SOL    HW232883   0.682   0.054   1.302
10662SOL     OW32884   4.580   0.472   2.282
10662SOL    HW132885   4.506   0.496   2.220
10662SOL    HW232886   4.596   0.548   2.346
10663SOL     OW32887   0.852   2.003   2.615
10663SOL    HW132888   0.828   1.977   2.522
10663SOL    HW232889   0.881   2.099   2.617
10664SOL     OW32890   6.158   4.315   5.037
10664SOL    HW132891   6.132   4.273   5.124
10664SOL    HW232892   6.158   4.246   4.965
10665SOL     OW32893   0.773   1.802   6.996
10665SOL    HW132894   0.705   1.837   6.932
10665SOL    HW232895   0.745   1.822   0.065
10666SOL     OW32896   3.434   3.735   1.870
10666SOL    HW132897   3.481   3.652   1.839
10666SOL    HW232898   3.493   3.786   1.932
10667SOL     OW32899   4.809   2.463   3.933
10667SOL    HW132900   4.712   2.442   3.943
10667SOL    HW232901   4.863   2.395   3.982
10668SOL     OW32902   2.741   1.149   5.251
10668SOL    HW132903   2.760   1.051   5.259
10668SOL    HW232904   2.821   1.201   5.281
10669SOL     OW32905   5.636   0.304   1.504
10669SOL    HW132906   5.604   0.342   1.417
10669SOL    HW232907   5.602   0.361   1.579
10670SOL     OW32908   5.709   5.055   5.019
10670SOL    HW132909   5.758   5.097   5.096
10670SOL    HW232910   5.687   5.125   4.951
10671SOL     OW32911   2.058   2.018   3.867
10671SOL    HW132912   2.042   2.108   3.827
10671SOL    HW232913   1.972   1.981   3.902
10672SOL     OW32914   6.228   4.107   1.920
10672SOL    HW132915   6.263   4.027   1.968
10672SOL    HW232916   6.282   4.123   1.838
10673SOL     OW32917   0.509   0.790   6.959
10673SOL    HW132918   0.519   0.831   6.868
10673SOL    HW232919   0.477   0.696   6.950
10674SOL     OW32920   3.876   3.782   3.211
10674SOL    HW132921   3.971   3.755   3.220
10674SOL    HW232922   3.827   3.763   3.297
10675SOL     OW32923   1.802   7.016   0.006
10675SOL    HW132924   1.768   6.972   6.947
10675SOL    HW232925   1.731   7.016   0.075
10676SOL     OW32926   6.517   5.981   5.313
10676SOL    HW132927   6.517   6.081   5.314
10676SOL    HW232928   6.452   5.948   5.244
10677SOL     OW32929   1.473   0.929   1.053
10677SOL    HW132930   1.466   1.025   1.077
10677SOL    HW232931   1.418   0.910   0.971
10678SOL     OW32932   4.792   5.614   4.318
10678SOL    HW132933   4.748   5.638   4.405
10678SOL    HW232934   4.762   5.677   4.247
10679SOL     OW32935   4.550   5.555   6.737
10679SOL    HW132936   4.537   5.612   6.818
10679SOL    HW232937   4.625   5.591   6.682
10680SOL     OW32938   3.998   1.890   4.408
10680SOL    HW132939   4.080   1.917   4.357
10680SOL    HW232940   3.934   1.967   4.410
10681SOL     OW32941   0.925   4.182   0.761
10681SOL    HW132942   1.016   4.190   0.720
10681SOL    HW232943   0.930   4.125   0.842
10682SOL     OW32944   0.501   1.337   5.371
10682SOL    HW132945   0.595   1.303   5.374
10682SOL    HW232946   0.438   1.262   5.352
10683SOL     OW32947   4.788   1.788   3.994
10683SOL    HW132948   4.823   1.721   4.059
10683SOL    HW232949   4.690   1.801   4.009
10684SOL     OW32950   5.016   4.947   3.069
10684SOL    HW132951   5.098   4.942   3.125
10684SOL    HW232952   5.041   4.953   2.972
10685SOL     OW32953   0.976   5.756   1.781
10685SOL    HW132954   1.000   5.771   1.877
10685SOL    HW232955   1.046   5.698   1.738
10686SOL     OW32956   0.849   4.301   5.675
10686SOL    HW132957   0.797   4.381   5.705
10686SOL    HW232958   0.802   4.259   5.596
10687SOL     OW32959   5.809   5.383   3.662
10687SOL    HW132960   5.805   5.467   3.717
10687SOL    HW232961   5.865   5.315   3.709
10688SOL     OW32962   6.647   3.423   1.878
10688SOL    HW132963   6.738   3.413   1.839
10688SOL    HW232964   6.603   3.334   1.885
10689SOL     OW32965   0.140   6.432   3.571
10689SOL    HW132966   0.104   6.428   3.478
10689SOL    HW232967   0.091   6.367   3.629
10690SOL     OW32968   6.905   5.625   4.179
10690SOL    HW132969   6.822   5.575   4.206
10690SOL    HW232970   6.881   5.693   4.109
10691SOL     OW32971   0.749   2.624   2.228
10691SOL    HW132972   0.831   2.627   2.285
10691SOL    HW232973   0.671   2.593   2.283
10692SOL     OW32974   3.216   6.089   3.559
10692SOL    HW132975   3.237   6.146   3.638
10692SOL    HW232976   3.289   6.022   3.546
10693SOL     OW32977   2.087   6.185   0.271
10693SOL    HW132978   2.126   6.254   0.211
10693SOL    HW232979   1.989   6.177   0.255
10694SOL     OW32980   5.471   6.917   1.319
10694SOL    HW132981   5.532   6.841   1.295
10694SOL    HW232982   5.399   6.885   1.380
10695SOL     OW32983   0.059   2.480   2.590
10695SOL    HW132984   0.109   2.469   2.504
10695SOL    HW232985   0.038   2.577   2.604
10696SOL     OW32986   0.175   4.319   3.658
10696SOL    HW132987   0.170   4.340   3.561
10696SOL    HW232988   0.268   4.292   3.683
10697SOL     OW32989   6.754   5.890   4.871
10697SOL    HW132990   6.761   5.792   4.851
10697SOL    HW232991   6.800   5.909   4.958
10698SOL     OW32992   5.218   4.336   6.087
10698SOL    HW132993   5.232   4.298   6.179
10698SOL    HW232994   5.189   4.431   6.094
10699SOL     OW32995   3.939   3.822   2.152
10699SOL    HW132996   3.952   3.902   2.211
10699SOL    HW232997   3.844   3.818   2.121
10700SOL     OW32998   6.614   6.785   0.961
10700SOL    HW132999   6.658   6.792   1.050
10700SOL    HW233000   6.554   6.705   0.960
10701SOL     OW33001   3.303   6.268   6.723
10701SOL    HW133002   3.314   6.186   6.779
10701SOL    HW233003   3.390   6.291   6.679
10702SOL     OW33004   5.978   2.737   1.545
10702SOL    HW133005   5.946   2.725   1.450
10702SOL    HW233006   6.014   2.650   1.578
10703SOL     OW33007   3.178   2.952   5.019
10703SOL    HW133008   3.205   3.040   5.057
10703SOL    HW233009   3.190   2.881   5.088
10704SOL     OW33010   6.033   5.832   1.640
10704SOL    HW133011   6.092   5.886   1.580
10704SOL    HW233012   5.938   5.860   1.629
10705SOL     OW33013   5.604   4.645   2.333
10705SOL    HW133014   5.697   4.619   2.304
10705SOL    HW233015   5.566   4.572   2.390
10706SOL     OW33016   5.464   6.968   2.159
10706SOL    HW133017   5.452   7.022   2.076
10706SOL    HW233018   5.507   0.001   2.229
10707SOL     OW33019   6.952   0.101   4.447
10707SOL    HW133020   0.009   0.119   4.392
10707SOL    HW233021   6.923   0.006   4.436
10708SOL     OW33022   3.943   0.546   2.135
10708SOL    HW133023   4.024   0.533   2.077
10708SOL    HW233024   3.867   0.579   2.078
10709SOL     OW33025   5.817   5.515   5.391
10709SOL    HW133026   5.838   5.494   5.296
10709SOL    HW233027   5.795   5.612   5.399
10710SOL     OW33028   0.110   0.032   4.661
10710SOL    HW133029   0.203   0.070   4.662
10710SOL    HW233030   0.056   0.078   4.591
10711SOL     OW33031   1.731   6.655   4.254
10711SOL    HW133032   1.801   6.639   4.185
10711SOL    HW233033   1.643   6.619   4.221
10712SOL     OW33034   3.541   0.855   1.827
10712SOL    HW133035   3.464   0.817   1.777
10712SOL    HW233036   3.617   0.873   1.765
10713SOL     OW33037   0.467   3.433   1.601
10713SOL    HW133038   0.539   3.449   1.533
10713SOL    HW233039   0.501   3.373   1.673
10714SOL     OW33040   6.300   3.963   5.023
10714SOL    HW133041   6.367   3.982   4.952
10714SOL    HW233042   6.209   3.986   4.990
10715SOL     OW33043   4.807   0.717   2.407
10715SOL    HW133044   4.823   0.641   2.470
10715SOL    HW233045   4.713   0.751   2.420
10716SOL     OW33046   5.730   2.122   4.185
10716SOL    HW133047   5.761   2.175   4.107
10716SOL    HW233048   5.769   2.160   4.269
10717SOL     OW33049   1.215   2.257   1.119
10717SOL    HW133050   1.184   2.162   1.118
10717SOL    HW233051   1.168   2.309   1.047
10718SOL     OW33052   1.330   2.989   6.374
10718SOL    HW133053   1.337   3.034   6.463
10718SOL    HW233054   1.314   3.057   6.303
10719SOL     OW33055   6.559   5.784   2.081
10719SOL    HW133056   6.509   5.822   2.159
10719SOL    HW233057   6.616   5.855   2.041
10720SOL     OW33058   0.580   4.170   5.081
10720SOL    HW133059   0.526   4.245   5.120
10720SOL    HW233060   0.648   4.208   5.019
10721SOL     OW33061   5.727   4.562   4.773
10721SOL    HW133062   5.650   4.609   4.815
10721SOL    HW233063   5.760   4.490   4.835
10722SOL     OW33064   1.192   5.232   0.469
10722SOL    HW133065   1.214   5.135   0.461
10722SOL    HW233066   1.116   5.254   0.408
10723SOL     OW33067   0.477   3.921   6.198
10723SOL    HW133068   0.555   3.921   6.135
10723SOL    HW233069   0.422   3.839   6.184
10724SOL     OW33070   5.447   1.017   6.876
10724SOL    HW133071   5.456   1.116   6.883
10724SOL    HW233072   5.397   0.982   6.955
10725SOL     OW33073   0.890   5.186   4.576
10725SOL    HW133074   0.927   5.105   4.532
10725SOL    HW233075   0.794   5.172   4.597
10726SOL     OW33076   5.136   0.240   5.803
10726SOL    HW133077   5.137   0.223   5.705
10726SOL    HW233078   5.174   0.331   5.821
10727SOL     OW33079   0.212   4.953   4.606
10727SOL    HW133080   0.179   4.953   4.700
10727SOL    HW233081   0.308   4.982   4.604
10728SOL     OW33082   6.937   6.336   0.424
10728SOL    HW133083   6.885   6.317   0.341
10728SOL    HW233084   6.882   6.394   0.485
10729SOL     OW33085   5.329   1.487   1.763
10729SOL    HW133086   5.341   1.457   1.669
10729SOL    HW233087   5.388   1.565   1.782
10730SOL     OW33088   1.800   0.313   1.650
10730SOL    HW133089   1.776   0.410   1.654
10730SOL    HW233090   1.743   0.261   1.713
10731SOL     OW33091   3.082   6.357   0.512
10731SOL    HW133092   3.104   6.260   0.519
10731SOL    HW233093   3.023   6.383   0.588
10732SOL     OW33094   5.257   4.667   3.265
10732SOL    HW133095   5.244   4.746   3.205
10732SOL    HW233096   5.168   4.633   3.295
10733SOL     OW33097   6.372   2.491   0.405
10733SOL    HW133098   6.341   2.512   0.312
10733SOL    HW233099   6.468   2.516   0.415
10734SOL     OW33100   0.751   0.565   6.569
10734SOL    HW133101   0.828   0.509   6.601
10734SOL    HW233102   0.711   0.523   6.488
10735SOL     OW33103   1.635   3.113   3.139
10735SOL    HW133104   1.601   3.063   3.060
10735SOL    HW233105   1.734   3.126   3.132
10736SOL     OW33106   1.410   0.323   3.315
10736SOL    HW133107   1.444   0.233   3.286
10736SOL    HW233108   1.385   0.319   3.411
10737SOL     OW33109   1.988   1.965   6.916
10737SOL    HW133110   2.000   2.000   6.823
10737SOL    HW233111   2.077   1.934   6.951
10738SOL     OW33112   2.576   0.794   3.871
10738SOL    HW133113   2.633   0.712   3.880
10738SOL    HW233114   2.627   0.865   3.823
10739SOL     OW33115   0.578   1.610   0.915
10739SOL    HW133116   0.635   1.528   0.921
10739SOL    HW233117   0.502   1.602   0.980
10740SOL     OW33118   0.454   4.638   5.358
10740SOL    HW133119   0.443   4.717   5.298
10740SOL    HW233120   0.482   4.669   5.449
10741SOL     OW33121   0.111   6.821   2.128
10741SOL    HW133122   0.032   6.775   2.090
10741SOL    HW233123   0.109   6.918   2.102
10742SOL     OW33124   6.080   0.689   1.919
10742SOL    HW133125   6.030   0.771   1.947
10742SOL    HW233126   6.136   0.710   1.839
10743SOL     OW33127   3.271   2.162   5.594
10743SOL    HW133128   3.358   2.150   5.641
10743SOL    HW233129   3.283   2.146   5.496
10744SOL     OW33130   3.450   0.989   1.584
10744SOL    HW133131   3.401   0.981   1.496
10744SOL    HW233132   3.547   1.003   1.566
10745SOL     OW33133   0.798   5.286   0.199
10745SOL    HW133134   0.742   5.244   0.271
10745SOL    HW233135   0.770   5.250   0.110
10746SOL     OW33136   1.791   4.041   1.103
10746SOL    HW133137   1.840   4.054   1.017
10746SOL    HW233138   1.711   4.101   1.106
10747SOL     OW33139   4.019   0.742   2.851
10747SOL    HW133140   3.952   0.773   2.784
10747SOL    HW233141   4.043   0.646   2.832
10748SOL     OW33142   4.094   0.571   1.738
10748SOL    HW133143   4.060   0.477   1.734
10748SOL    HW233144   4.176   0.579   1.681
10749SOL     OW33145   6.858   5.330   3.232
10749SOL    HW133146   6.912   5.270   3.289
10749SOL    HW233147   6.899   5.336   3.141
10750SOL     OW33148   4.651   6.080   4.593
10750SOL    HW133149   4.751   6.077   4.594
10750SOL    HW233150   4.615   5.997   4.634
10751SOL     OW33151   1.579   4.996   4.024
10751SOL    HW133152   1.655   4.932   4.021
10751SOL    HW233153   1.495   4.948   3.998
10752SOL     OW33154   6.041   4.438   6.465
10752SOL    HW133155   6.009   4.532   6.451
10752SOL    HW233156   6.067   4.398   6.377
10753SOL     OW33157   4.095   6.856   4.367
10753SOL    HW133158   4.192   6.875   4.354
10753SOL    HW233159   4.051   6.935   4.410
10754SOL     OW33160   1.317   1.327   3.654
10754SOL    HW133161   1.276   1.338   3.745
10754SOL    HW233162   1.406   1.372   3.652
10755SOL     OW33163   0.342   1.420   6.641
10755SOL    HW133164   0.390   1.507   6.646
10755SOL    HW233165   0.253   1.428   6.685
10756SOL     OW33166   6.749   4.141   0.752
10756SOL    HW133167   6.724   4.086   0.673
10756SOL    HW233168   6.739   4.086   0.835
10757SOL     OW33169   1.479   2.769   0.129
10757SOL    HW133170   1.463   2.832   0.204
10757SOL    HW233171   1.518   2.684   0.164
10758SOL     OW33172   0.774   6.703   4.508
10758SOL    HW133173   0.759   6.692   4.410
10758SOL    HW233174   0.789   6.614   4.550
10759SOL     OW33175   1.721   2.892   0.369
10759SOL    HW133176   1.625   2.906   0.347
10759SOL    HW233177   1.765   2.980   0.384
10760SOL     OW33178   6.398   1.752   1.391
10760SOL    HW133179   6.382   1.662   1.431
10760SOL    HW233180   6.327   1.772   1.324
10761SOL     OW33181   0.834   1.569   6.313
10761SOL    HW133182   0.909   1.545   6.375
10761SOL    HW233183   0.857   1.652   6.263
10762SOL     OW33184   4.025   2.191   4.743
10762SOL    HW133185   4.063   2.105   4.777
10762SOL    HW233186   4.011   2.254   4.819
10763SOL     OW33187   4.594   6.255   1.768
10763SOL    HW133188   4.579   6.245   1.867
10763SOL    HW233189   4.688   6.228   1.746
10764SOL     OW33190   5.581   2.106   5.996
10764SOL    HW133191   5.541   2.136   5.909
10764SOL    HW233192   5.604   2.185   6.051
10765SOL     OW33193   5.384   2.447   0.611
10765SOL    HW133194   5.288   2.451   0.638
10765SOL    HW233195   5.425   2.538   0.620
10766SOL     OW33196   5.125   3.216   1.538
10766SOL    HW133197   5.110   3.314   1.548
10766SOL    HW233198   5.123   3.172   1.627
10767SOL     OW33199   0.857   0.719   0.224
10767SOL    HW133200   0.781   0.767   0.179
10767SOL    HW233201   0.899   0.779   0.291
10768SOL     OW33202   4.606   4.243   1.122
10768SOL    HW133203   4.578   4.147   1.131
10768SOL    HW233204   4.633   4.278   1.212
10769SOL     OW33205   2.539   4.735   4.720
10769SOL    HW133206   2.638   4.731   4.734
10769SOL    HW233207   2.513   4.672   4.648
10770SOL     OW33208   5.612   0.277   4.922
10770SOL    HW133209   5.514   0.298   4.918
10770SOL    HW233210   5.628   0.208   4.993
10771SOL     OW33211   5.116   1.010   3.189
10771SOL    HW133212   5.199   0.980   3.235
10771SOL    HW233213   5.081   1.092   3.233
10772SOL     OW33214   0.050   6.975   4.924
10772SOL    HW133215   0.060   6.951   4.827
10772SOL    HW233216   0.040   0.050   4.933
10773SOL     OW33217   6.746   5.562   6.967
10773SOL    HW133218   6.772   5.644   6.915
10773SOL    HW233219   6.826   5.505   6.981
10774SOL     OW33220   1.638   1.021   6.532
10774SOL    HW133221   1.557   1.010   6.590
10774SOL    HW233222   1.717   1.045   6.588
10775SOL     OW33223   0.456   3.794   1.039
10775SOL    HW133224   0.409   3.709   1.015
10775SOL    HW233225   0.498   3.784   1.129
10776SOL     OW33226   1.433   6.263   6.483
10776SOL    HW133227   1.475   6.308   6.405
10776SOL    HW233228   1.357   6.206   6.452
10777SOL     OW33229   3.732   6.172   3.053
10777SOL    HW133230   3.662   6.177   2.982
10777SOL    HW233231   3.805   6.238   3.032
10778SOL     OW33232   5.715   6.650   4.532
10778SOL    HW133233   5.716   6.619   4.437
10778SOL    HW233234   5.623   6.685   4.554
10779SOL     OW33235   6.653   5.137   3.270
10779SOL    HW133236   6.669   5.057   3.327
10779SOL    HW233237   6.731   5.199   3.276
10780SOL     OW33238   1.607   0.533   3.643
10780SOL    HW133239   1.563   0.482   3.716
10780SOL    HW233240   1.625   0.472   3.566
10781SOL     OW33241   4.155   0.471   3.505
10781SOL    HW133242   4.210   0.504   3.582
10781SOL    HW233243   4.195   0.387   3.469
10782SOL     OW33244   5.778   1.957   2.521
10782SOL    HW133245   5.682   1.933   2.539
10782SOL    HW233246   5.798   1.942   2.424
10783SOL     OW33247   0.698   3.481   2.878
10783SOL    HW133248   0.791   3.444   2.889
10783SOL    HW233249   0.632   3.414   2.913
10784SOL     OW33250   3.738   0.697   4.165
10784SOL    HW133251   3.813   0.700   4.231
10784SOL    HW233252   3.654   0.728   4.209
10785SOL     OW33253   0.131   5.304   2.020
10785SOL    HW133254   0.035   5.320   1.997
10785SOL    HW233255   0.182   5.389   2.009
10786SOL     OW33256   4.848   4.447   2.895
10786SOL    HW133257   4.811   4.392   2.969
10786SOL    HW233258   4.859   4.541   2.925
10787SOL     OW33259   2.326   1.803   4.845
10787SOL    HW133260   2.356   1.842   4.758
10787SOL    HW233261   2.379   1.721   4.865
10788SOL     OW33262   2.227   4.882   6.289
10788SOL    HW133263   2.289   4.888   6.211
10788SOL    HW233264   2.233   4.965   6.343
10789SOL     OW33265   6.522   2.782   6.522
10789SOL    HW133266   6.500   2.703   6.580
10789SOL    HW233267   6.488   2.765   6.429
10790SOL     OW33268   1.452   1.349   1.685
10790SOL    HW133269   1.353   1.361   1.680
10790SOL    HW233270   1.477   1.260   1.646
10791SOL     OW33271   0.507   6.818   0.158
10791SOL    HW133272   0.461   6.903   0.133
10791SOL    HW233273   0.592   6.838   0.206
10792SOL     OW33274   3.208   3.278   3.722
10792SOL    HW133275   3.177   3.185   3.705
10792SOL    HW233276   3.304   3.286   3.696
10793SOL     OW33277   6.011   3.545   4.324
10793SOL    HW133278   5.938   3.614   4.316
10793SOL    HW233279   6.069   3.547   4.243
10794SOL     OW33280   2.969   3.779   3.695
10794SOL    HW133281   2.968   3.865   3.643
10794SOL    HW233282   3.037   3.717   3.656
10795SOL     OW33283   6.808   4.371   2.732
10795SOL    HW133284   6.892   4.395   2.685
10795SOL    HW233285   6.753   4.454   2.747
10796SOL     OW33286   5.559   6.796   0.353
10796SOL    HW133287   5.521   6.877   0.308
10796SOL    HW233288   5.535   6.714   0.300
10797SOL     OW33289   4.078   2.513   1.423
10797SOL    HW133290   4.091   2.425   1.469
10797SOL    HW233291   4.032   2.498   1.335
10798SOL     OW33292   2.916   6.326   0.276
10798SOL    HW133293   2.976   6.349   0.352
10798SOL    HW233294   2.970   6.281   0.204
10799SOL     OW33295   3.688   0.761   2.258
10799SOL    HW133296   3.618   0.764   2.329
10799SOL    HW233297   3.774   0.797   2.294
10800SOL     OW33298   0.416   6.758   6.418
10800SOL    HW133299   0.468   6.674   6.430
10800SOL    HW233300   0.430   6.817   6.497
10801SOL     OW33301   0.439   5.889   6.166
10801SOL    HW133302   0.394   5.800   6.158
10801SOL    HW233303   0.537   5.875   6.178
10802SOL     OW33304   0.558   2.052   3.109
10802SOL    HW133305   0.530   2.073   3.202
10802SOL    HW233306   0.594   2.135   3.066
10803SOL     OW33307   3.080   3.869   5.664
10803SOL    HW133308   3.042   3.901   5.577
10803SOL    HW233309   3.052   3.932   5.736
10804SOL     OW33310   5.803   3.606   1.956
10804SOL    HW133311   5.736   3.656   1.901
10804SOL    HW233312   5.815   3.514   1.918
10805SOL     OW33313   3.816   0.179   0.188
10805SOL    HW133314   3.800   0.264   0.240
10805SOL    HW233315   3.763   0.105   0.229
10806SOL     OW33316   4.876   3.867   6.082
10806SOL    HW133317   4.945   3.809   6.037
10806SOL    HW233318   4.896   3.873   6.179
10807SOL     OW33319   1.274   0.153   1.961
10807SOL    HW133320   1.265   0.236   1.907
10807SOL    HW233321   1.366   0.114   1.947
10808SOL     OW33322   6.608   3.185   6.520
10808SOL    HW133323   6.667   3.114   6.559
10808SOL    HW233324   6.636   3.204   6.427
10809SOL     OW33325   3.302   5.562   3.363
10809SOL    HW133326   3.343   5.510   3.438
10809SOL    HW233327   3.275   5.500   3.289
10810SOL     OW33328   1.604   0.314   4.380
10810SOL    HW133329   1.667   0.239   4.357
10810SOL    HW233330   1.597   0.377   4.303
10811SOL     OW33331   3.807   4.180   5.778
10811SOL    HW133332   3.783   4.256   5.717
10811SOL    HW233333   3.724   4.133   5.807
10812SOL     OW33334   0.734   4.105   1.214
10812SOL    HW133335   0.661   4.124   1.149
10812SOL    HW233336   0.775   4.016   1.193
10813SOL     OW33337   1.919   4.916   6.405
10813SOL    HW133338   1.949   4.970   6.484
10813SOL    HW233339   1.999   4.886   6.353
10814SOL     OW33340   1.880   6.401   6.241
10814SOL    HW133341   1.974   6.372   6.228
10814SOL    HW233342   1.827   6.381   6.158
10815SOL     OW33343   4.236   4.667   3.460
10815SOL    HW133344   4.239   4.764   3.433
10815SOL    HW233345   4.259   4.610   3.381
10816SOL     OW33346   2.983   3.350   1.513
10816SOL    HW133347   2.945   3.437   1.481
10816SOL    HW233348   3.049   3.368   1.586
10817SOL     OW33349   4.854   6.657   3.033
10817SOL    HW133350   4.807   6.708   2.960
10817SOL    HW233351   4.903   6.580   2.993
10818SOL     OW33352   4.318   4.537   5.516
10818SOL    HW133353   4.314   4.451   5.566
10818SOL    HW233354   4.280   4.610   5.573
10819SOL     OW33355   6.448   4.658   6.901
10819SOL    HW133356   6.445   4.561   6.874
10819SOL    HW233357   6.357   4.686   6.933
10820SOL     OW33358   6.231   5.949   4.296
10820SOL    HW133359   6.317   5.920   4.255
10820SOL    HW233360   6.197   6.030   4.249
10821SOL     OW33361   5.984   0.448   2.351
10821SOL    HW133362   5.954   0.471   2.444
10821SOL    HW233363   6.072   0.400   2.356
10822SOL     OW33364   0.083   3.356   3.009
10822SOL    HW133365   0.115   3.449   2.992
10822SOL    HW233366   7.008   3.355   3.018
10823SOL     OW33367   1.418   6.456   1.281
10823SOL    HW133368   1.469   6.491   1.202
10823SOL    HW233369   1.322   6.481   1.272
10824SOL     OW33370   6.999   0.544   3.436
10824SOL    HW133371   0.009   0.461   3.480
10824SOL    HW233372   6.945   0.518   3.355
10825SOL     OW33373   2.370   1.110   6.653
10825SOL    HW133374   2.299   1.139   6.589
10825SOL    HW233375   2.402   1.188   6.706
10826SOL     OW33376   1.445   2.599   3.764
10826SOL    HW133377   1.411   2.524   3.706
10826SOL    HW233378   1.382   2.676   3.759
10827SOL     OW33379   6.468   3.633   4.648
10827SOL    HW133380   6.379   3.591   4.661
10827SOL    HW233381   6.538   3.562   4.644
10828SOL     OW33382   1.049   5.213   1.010
10828SOL    HW133383   0.987   5.266   1.069
10828SOL    HW233384   1.022   5.224   0.915
10829SOL     OW33385   3.828   2.185   0.993
10829SOL    HW133386   3.912   2.183   0.938
10829SOL    HW233387   3.828   2.106   1.055
10830SOL     OW33388   5.671   2.201   2.950
10830SOL    HW133389   5.717   2.288   2.933
10830SOL    HW233390   5.729   2.144   3.008
10831SOL     OW33391   2.803   5.843   2.292
10831SOL    HW133392   2.796   5.823   2.195
10831SOL    HW233393   2.817   5.941   2.306
10832SOL     OW33394   0.797   2.668   6.381
10832SOL    HW133395   0.887   2.633   6.356
10832SOL    HW233396   0.791   2.765   6.356
10833SOL     OW33397   1.469   1.095   2.113
10833SOL    HW133398   1.392   1.123   2.056
10833SOL    HW233399   1.542   1.058   2.056
10834SOL     OW33400   0.924   2.322   0.406
10834SOL    HW133401   0.841   2.267   0.396
10834SOL    HW233402   0.913   2.409   0.360
10835SOL     OW33403   5.796   1.938   6.971
10835SOL    HW133404   5.870   1.872   6.958
10835SOL    HW233405   5.829   2.015   0.001
10836SOL     OW33406   6.613   1.867   4.979
10836SOL    HW133407   6.697   1.896   4.932
10836SOL    HW233408   6.604   1.768   4.972
10837SOL     OW33409   6.967   5.504   1.600
10837SOL    HW133410   6.972   5.404   1.594
10837SOL    HW233411   7.007   5.534   1.687
10838SOL     OW33412   5.466   5.944   4.757
10838SOL    HW133413   5.453   5.912   4.851
10838SOL    HW233414   5.564   5.947   4.736
10839SOL     OW33415   4.335   3.208   1.745
10839SOL    HW133416   4.314   3.304   1.761
10839SOL    HW233417   4.424   3.186   1.785
10840SOL     OW33418   3.024   5.590   2.202
10840SOL    HW133419   2.988   5.528   2.272
10840SOL    HW233420   2.972   5.676   2.203
10841SOL     OW33421   5.355   5.348   6.854
10841SOL    HW133422   5.341   5.406   6.773
10841SOL    HW233423   5.280   5.363   6.919
10842SOL     OW33424   4.955   2.566   1.719
10842SOL    HW133425   4.997   2.651   1.686
10842SOL    HW233426   4.872   2.588   1.770
10843SOL     OW33427   1.246   2.846   1.381
10843SOL    HW133428   1.294   2.763   1.355
10843SOL    HW233429   1.286   2.884   1.464
10844SOL     OW33430   0.332   6.852   3.464
10844SOL    HW133431   0.287   6.789   3.527
10844SOL    HW233432   0.380   6.800   3.394
10845SOL     OW33433   3.345   0.264   5.356
10845SOL    HW133434   3.376   0.349   5.314
10845SOL    HW233435   3.316   0.282   5.450
10846SOL     OW33436   4.665   1.625   0.614
10846SOL    HW133437   4.696   1.632   0.709
10846SOL    HW233438   4.738   1.585   0.558
10847SOL     OW33439   3.694   3.024   6.774
10847SOL    HW133440   3.622   3.069   6.826
10847SOL    HW233441   3.663   3.008   6.680
10848SOL     OW33442   3.311   3.476   6.699
10848SOL    HW133443   3.312   3.469   6.798
10848SOL    HW233444   3.377   3.545   6.669
10849SOL     OW33445   1.813   6.184   2.749
10849SOL    HW133446   1.760   6.198   2.666
10849SOL    HW233447   1.837   6.088   2.759
10850SOL     OW33448   2.741   4.970   6.399
10850SOL    HW133449   2.837   4.993   6.411
10850SOL    HW233450   2.719   4.888   6.452
10851SOL     OW33451   1.761   3.116   6.800
10851SOL    HW133452   1.696   3.119   6.876
10851SOL    HW233453   1.821   3.036   6.812
10852SOL     OW33454   1.244   0.512   6.475
10852SOL    HW133455   1.317   0.449   6.450
10852SOL    HW233456   1.274   0.571   6.550
10853SOL     OW33457   2.089   1.821   5.798
10853SOL    HW133458   2.056   1.872   5.878
10853SOL    HW233459   2.181   1.788   5.814
10854SOL     OW33460   4.206   5.628   4.986
10854SOL    HW133461   4.150   5.575   5.050
10854SOL    HW233462   4.153   5.647   4.904
10855SOL     OW33463   2.740   7.019   0.639
10855SOL    HW133464   2.677   7.021   0.717
10855SOL    HW233465   2.751   0.088   0.604
10856SOL     OW33466   5.413   1.543   0.622
10856SOL    HW133467   5.429   1.618   0.686
10856SOL    HW233468   5.466   1.557   0.539
10857SOL     OW33469   6.806   2.859   2.335
10857SOL    HW133470   6.775   2.777   2.383
10857SOL    HW233471   6.754   2.938   2.368
10858SOL     OW33472   0.433   1.813   5.951
10858SOL    HW133473   0.435   1.893   5.891
10858SOL    HW233474   0.343   1.805   5.993
10859SOL     OW33475   2.154   3.469   4.184
10859SOL    HW133476   2.164   3.460   4.085
10859SOL    HW233477   2.135   3.564   4.207
10860SOL     OW33478   6.927   1.608   5.620
10860SOL    HW133479   6.934   1.689   5.678
10860SOL    HW233480   6.856   1.547   5.655
10861SOL     OW33481   3.451   3.423   2.868
10861SOL    HW133482   3.470   3.326   2.881
10861SOL    HW233483   3.538   3.473   2.861
10862SOL     OW33484   2.451   2.113   6.523
10862SOL    HW133485   2.431   2.015   6.528
10862SOL    HW233486   2.382   2.158   6.466
10863SOL     OW33487   3.346   0.674   3.375
10863SOL    HW133488   3.260   0.629   3.398
10863SOL    HW233489   3.398   0.618   3.311
10864SOL     OW33490   2.821   5.144   0.331
10864SOL    HW133491   2.727   5.179   0.336
10864SOL    HW233492   2.822   5.048   0.359
10865SOL     OW33493   6.942   1.467   2.560
10865SOL    HW133494   6.963   1.510   2.472
10865SOL    HW233495   6.919   1.371   2.547
10866SOL     OW33496   5.079   4.926   0.434
10866SOL    HW133497   4.994   4.967   0.400
10866SOL    HW233498   5.072   4.826   0.430
10867SOL     OW33499   3.848   3.524   0.482
10867SOL    HW133500   3.754   3.544   0.511
10867SOL    HW233501   3.902   3.608   0.481
10868SOL     OW33502   3.588   2.024   4.197
10868SOL    HW133503   3.508   1.989   4.246
10868SOL    HW233504   3.561   2.050   4.104
10869NA      NA33505   0.414   2.069   5.284
10870NA      NA33506   4.321   4.588   5.261
10871NA      NA33507   2.049   3.940   2.486
10872NA      NA33508   4.921   3.992   4.050
10873NA      NA33509   4.396   2.533   5.213
10874NA      NA33510   3.152   4.851   1.763
10875NA      NA33511   0.070   4.170   0.514
10876NA      NA33512   3.064   3.555   3.376
10877NA      NA33513   5.237   5.462   0.850
10878NA      NA33514   3.573   6.557   5.488
10879NA      NA33515   5.926   5.488   1.626
10880NA      NA33516   2.240   0.939   4.530
10881NA      NA33517   3.800   5.083   2.021
10882NA      NA33518   4.010   3.607   1.747
   7.02458   7.02458   7.02458
