Generated by trjconv : CNT in water t= 211.00000
33518
    1C        C    1   2.847   2.770   4.747
    1C        C    2   2.902   2.721   4.867
    1C        C    3   2.842   2.772   4.983
    1C        C    4   2.847   2.773   4.261
    1C        C    5   2.905   2.730   4.383
    1C        C    6   2.849   2.778   4.503
    1C        C    7   3.015   2.644   4.624
    1C        C    8   2.898   2.723   4.624
    1C        C    9   3.078   2.602   4.744
    1C        C   10   3.014   2.634   4.865
    1C        C   11   3.181   2.490   4.973
    1C        C   12   3.062   2.564   4.977
    1C        C   13   2.850   2.773   3.773
    1C        C   14   2.900   2.721   3.894
    1C        C   15   2.847   2.771   4.015
    1C        C   16   3.017   2.648   4.139
    1C        C   17   2.899   2.726   4.139
    1C        C   18   3.081   2.612   4.260
    1C        C   19   3.020   2.648   4.382
    1C        C   20   3.212   2.558   4.502
    1C        C   21   3.080   2.609   4.504
    1C        C   22   3.278   2.537   4.626
    1C        C   23   3.205   2.540   4.747
    1C        C   24   3.416   2.482   4.863
    1C        C   25   3.274   2.500   4.865
    1C        C   26   3.492   2.479   4.980
    1C        C   27   2.846   2.767   3.283
    1C        C   28   2.904   2.725   3.405
    1C        C   29   2.854   2.776   3.527
    1C        C   30   3.017   2.645   3.652
    1C        C   31   2.903   2.728   3.650
    1C        C   32   3.078   2.606   3.773
    1C        C   33   3.016   2.640   3.895
    1C        C   34   3.208   2.553   4.016
    1C        C   35   3.078   2.608   4.018
    1C        C   36   3.277   2.528   4.137
    1C        C   37   3.207   2.549   4.258
    1C        C   38   3.416   2.507   4.380
    1C        C   39   3.277   2.533   4.380
    1C        C   40   3.487   2.499   4.502
    1C        C   41   3.415   2.503   4.623
    1C        C   42   3.632   2.476   4.742
    1C        C   43   3.490   2.485   4.741
    1C        C   44   3.708   2.484   4.861
    1C        C   45   3.631   2.474   4.978
    1C        C   46   2.842   2.757   2.793
    1C        C   47   2.896   2.716   2.916
    1C        C   48   2.845   2.764   3.039
    1C        C   49   3.017   2.638   3.162
    1C        C   50   2.901   2.719   3.161
    1C        C   51   3.078   2.604   3.285
    1C        C   52   3.019   2.643   3.407
    1C        C   53   3.211   2.557   3.526
    1C        C   54   3.081   2.614   3.530
    1C        C   55   3.276   2.531   3.649
    1C        C   56   3.210   2.554   3.771
    1C        C   57   3.414   2.506   3.894
    1C        C   58   3.275   2.532   3.894
    1C        C   59   3.486   2.498   4.016
    1C        C   60   3.415   2.501   4.138
    1C        C   61   3.629   2.497   4.260
    1C        C   62   3.488   2.499   4.259
    1C        C   63   3.701   2.505   4.381
    1C        C   64   3.628   2.497   4.502
    1C        C   65   3.839   2.532   4.622
    1C        C   66   3.703   2.493   4.621
    1C        C   67   3.908   2.557   4.742
    1C        C   68   3.843   2.524   4.863
    1C        C   69   4.049   2.586   4.981
    1C        C   70   3.923   2.526   4.978
    1C        C   71   2.823   2.735   2.309
    1C        C   72   2.881   2.691   2.430
    1C        C   73   2.828   2.746   2.549
    1C        C   74   3.009   2.630   2.672
    1C        C   75   2.891   2.707   2.670
    1C        C   76   3.072   2.597   2.794
    1C        C   77   3.014   2.639   2.916
    1C        C   78   3.208   2.556   3.037
    1C        C   79   3.076   2.605   3.038
    1C        C   80   3.277   2.532   3.159
    1C        C   81   3.208   2.548   3.281
    1C        C   82   3.414   2.502   3.401
    1C        C   83   3.276   2.530   3.404
    1C        C   84   3.484   2.499   3.524
    1C        C   85   3.415   2.506   3.647
    1C        C   86   3.624   2.499   3.771
    1C        C   87   3.483   2.498   3.771
    1C        C   88   3.696   2.510   3.892
    1C        C   89   3.627   2.503   4.015
    1C        C   90   3.836   2.543   4.135
    1C        C   91   3.698   2.510   4.137
    1C        C   92   3.904   2.566   4.257
    1C        C   93   3.839   2.537   4.379
    1C        C   94   4.030   2.628   4.498
    1C        C   95   3.907   2.559   4.501
    1C        C   96   4.092   2.666   4.619
    1C        C   97   4.034   2.622   4.740
    1C        C   98   4.185   2.767   4.864
    1C        C   99   4.096   2.655   4.864
    1C        C  100   4.217   2.841   4.979
    1C        C  101   2.824   2.730   2.072
    1C        C  102   2.990   2.589   2.189
    1C        C  103   2.878   2.679   2.190
    1C        C  104   3.061   2.570   2.310
    1C        C  105   3.002   2.618   2.429
    1C        C  106   3.201   2.539   2.551
    1C        C  107   3.071   2.594   2.550
    1C        C  108   3.273   2.521   2.671
    1C        C  109   3.203   2.543   2.792
    1C        C  110   3.410   2.496   2.914
    1C        C  111   3.272   2.529   2.914
    1C        C  112   3.484   2.491   3.033
    1C        C  113   3.416   2.510   3.156
    1C        C  114   3.626   2.494   3.279
    1C        C  115   3.485   2.497   3.278
    1C        C  116   3.696   2.502   3.402
    1C        C  117   3.625   2.495   3.524
    1C        C  118   3.831   2.536   3.647
    1C        C  119   3.693   2.505   3.648
    1C        C  120   3.900   2.560   3.768
    1C        C  121   3.834   2.541   3.891
    1C        C  122   4.028   2.630   4.012
    1C        C  123   3.903   2.563   4.013
    1C        C  124   4.091   2.666   4.133
    1C        C  125   4.031   2.629   4.256
    1C        C  126   4.194   2.765   4.376
    1C        C  127   4.091   2.668   4.377
    1C        C  128   4.240   2.818   4.499
    1C        C  129   4.195   2.763   4.621
    1C        C  130   4.320   2.935   4.740
    1C        C  131   4.236   2.820   4.743
    1C        C  132   4.352   3.004   4.860
    1C        C  133   4.288   2.961   4.977
    1C        C  134   3.170   2.466   2.082
    1C        C  135   3.034   2.502   2.084
    1C        C  136   3.259   2.480   2.189
    1C        C  137   3.196   2.523   2.308
    1C        C  138   3.405   2.480   2.427
    1C        C  139   3.266   2.509   2.429
    1C        C  140   3.479   2.479   2.547
    1C        C  141   3.411   2.491   2.670
    1C        C  142   3.622   2.488   2.791
    1C        C  143   3.481   2.489   2.792
    1C        C  144   3.694   2.505   2.911
    1C        C  145   3.625   2.498   3.035
    1C        C  146   3.834   2.532   3.157
    1C        C  147   3.696   2.501   3.157
    1C        C  148   3.901   2.555   3.279
    1C        C  149   3.833   2.536   3.402
    1C        C  150   4.026   2.621   3.524
    1C        C  151   3.898   2.560   3.525
    1C        C  152   4.086   2.661   3.645
    1C        C  153   4.025   2.626   3.767
    1C        C  154   4.189   2.763   3.888
    1C        C  155   4.083   2.669   3.888
    1C        C  156   4.241   2.812   4.010
    1C        C  157   4.198   2.758   4.133
    1C        C  158   4.332   2.925   4.251
    1C        C  159   4.245   2.814   4.254
    1C        C  160   4.366   2.988   4.373
    1C        C  161   4.324   2.932   4.495
    1C        C  162   4.432   3.115   4.613
    1C        C  163   4.361   2.992   4.618
    1C        C  164   4.461   3.184   4.732
    1C        C  165   4.424   3.125   4.855
    1C        C  166   4.502   3.321   4.970
    1C        C  167   4.472   3.185   4.971
    1C        C  168   3.474   2.440   2.069
    1C        C  169   3.398   2.456   2.186
    1C        C  170   3.616   2.461   2.305
    1C        C  171   3.474   2.459   2.305
    1C        C  172   3.691   2.480   2.424
    1C        C  173   3.620   2.480   2.546
    1C        C  174   3.828   2.530   2.666
    1C        C  175   3.691   2.494   2.668
    1C        C  176   3.896   2.552   2.788
    1C        C  177   3.832   2.538   2.913
    1C        C  178   4.028   2.617   3.033
    1C        C  179   3.899   2.560   3.035
    1C        C  180   4.087   2.657   3.155
    1C        C  181   4.027   2.619   3.278
    1C        C  182   4.195   2.744   3.398
    1C        C  183   4.089   2.650   3.401
    1C        C  184   4.240   2.803   3.518
    1C        C  185   4.194   2.752   3.641
    1C        C  186   4.330   2.915   3.762
    1C        C  187   4.240   2.806   3.764
    1C        C  188   4.369   2.976   3.883
    1C        C  189   4.332   2.920   4.008
    1C        C  190   4.438   3.107   4.128
    1C        C  191   4.376   2.979   4.128
    1C        C  192   4.462   3.178   4.247
    1C        C  193   4.431   3.113   4.369
    1C        C  194   4.499   3.315   4.492
    1C        C  195   4.460   3.179   4.491
    1C        C  196   4.520   3.389   4.610
    1C        C  197   4.505   3.319   4.732
    1C        C  198   4.547   3.534   4.851
    1C        C  199   4.527   3.392   4.852
    1C        C  200   4.582   3.616   4.963
    1C        C  201   3.611   2.411   2.075
    1C        C  202   3.825   2.507   2.182
    1C        C  203   3.689   2.462   2.183
    1C        C  204   3.899   2.530   2.301
    1C        C  205   3.828   2.515   2.422
    1C        C  206   4.018   2.615   2.543
    1C        C  207   3.893   2.549   2.543
    1C        C  208   4.079   2.656   2.664
    1C        C  209   4.022   2.617   2.787
    1C        C  210   4.190   2.748   2.906
    1C        C  211   4.081   2.658   2.909
    1C        C  212   4.247   2.791   3.028
    1C        C  213   4.199   2.744   3.152
    1C        C  214   4.329   2.908   3.273
    1C        C  215   4.244   2.795   3.276
    1C        C  216   4.367   2.971   3.393
    1C        C  217   4.323   2.918   3.517
    1C        C  218   4.425   3.103   3.638
    1C        C  219   4.363   2.976   3.639
    1C        C  220   4.452   3.167   3.760
    1C        C  221   4.432   3.103   3.884
    1C        C  222   4.499   3.307   4.000
    1C        C  223   4.464   3.171   4.004
    1C        C  224   4.514   3.378   4.121
    1C        C  225   4.502   3.313   4.246
    1C        C  226   4.518   3.523   4.365
    1C        C  227   4.514   3.382   4.369
    1C        C  228   4.524   3.600   4.484
    1C        C  229   4.533   3.530   4.606
    1C        C  230   4.502   3.741   4.729
    1C        C  231   4.535   3.602   4.727
    1C        C  232   4.497   3.817   4.848
    1C        C  233   4.549   3.752   4.960
    1C        C  234   4.015   2.607   2.063
    1C        C  235   3.890   2.546   2.064
    1C        C  236   4.081   2.647   2.179
    1C        C  237   4.020   2.605   2.299
    1C        C  238   4.194   2.731   2.422
    1C        C  239   4.081   2.645   2.420
    1C        C  240   4.253   2.780   2.541
    1C        C  241   4.192   2.741   2.662
    1C        C  242   4.329   2.905   2.783
    1C        C  243   4.240   2.796   2.783
    1C        C  244   4.369   2.962   2.906
    1C        C  245   4.330   2.906   3.029
    1C        C  246   4.430   3.094   3.147
    1C        C  247   4.365   2.969   3.151
    1C        C  248   4.452   3.162   3.269
    1C        C  249   4.423   3.101   3.393
    1C        C  250   4.488   3.303   3.511
    1C        C  251   4.452   3.166   3.515
    1C        C  252   4.496   3.373   3.634
    1C        C  253   4.488   3.304   3.757
    1C        C  254   4.518   3.517   3.879
    1C        C  255   4.511   3.376   3.877
    1C        C  256   4.514   3.590   4.000
    1C        C  257   4.515   3.520   4.123
    1C        C  258   4.492   3.734   4.241
    1C        C  259   4.513   3.594   4.243
    1C        C  260   4.477   3.805   4.362
    1C        C  261   4.498   3.739   4.485
    1C        C  262   4.426   3.939   4.604
    1C        C  263   4.478   3.808   4.607
    1C        C  264   4.399   4.008   4.725
    1C        C  265   4.436   3.944   4.845
    1C        C  266   4.323   4.133   4.957
    1C        C  267   4.391   4.012   4.960
    1C        C  268   4.261   2.772   2.064
    1C        C  269   4.194   2.732   2.181
    1C        C  270   4.342   2.888   2.298
    1C        C  271   4.248   2.781   2.301
    1C        C  272   4.380   2.951   2.418
    1C        C  273   4.341   2.890   2.540
    1C        C  274   4.437   3.084   2.658
    1C        C  275   4.375   2.957   2.659
    1C        C  276   4.463   3.150   2.779
    1C        C  277   4.433   3.088   2.902
    1C        C  278   4.494   3.292   3.024
    1C        C  279   4.463   3.155   3.023
    1C        C  280   4.508   3.365   3.144
    1C        C  281   4.496   3.296   3.267
    1C        C  282   4.511   3.510   3.390
    1C        C  283   4.501   3.369   3.387
    1C        C  284   4.512   3.582   3.512
    1C        C  285   4.512   3.513   3.635
    1C        C  286   4.496   3.726   3.751
    1C        C  287   4.517   3.586   3.756
    1C        C  288   4.475   3.795   3.873
    1C        C  289   4.491   3.729   3.997
    1C        C  290   4.427   3.934   4.115
    1C        C  291   4.478   3.802   4.118
    1C        C  292   4.396   3.997   4.237
    1C        C  293   4.426   3.936   4.361
    1C        C  294   4.326   4.126   4.481
    1C        C  295   4.393   4.001   4.482
    1C        C  296   4.284   4.189   4.600
    1C        C  297   4.326   4.130   4.720
    1C        C  298   4.204   4.315   4.839
    1C        C  299   4.286   4.198   4.839
    1C        C  300   4.161   4.396   4.949
    1C        C  301   4.349   2.879   2.060
    1C        C  302   4.471   3.062   2.176
    1C        C  303   4.395   2.941   2.177
    1C        C  304   4.485   3.138   2.296
    1C        C  305   4.447   3.075   2.416
    1C        C  306   4.505   3.284   2.536
    1C        C  307   4.470   3.147   2.536
    1C        C  308   4.507   3.357   2.657
    1C        C  309   4.496   3.288   2.780
    1C        C  310   4.520   3.500   2.901
    1C        C  311   4.514   3.358   2.901
    1C        C  312   4.517   3.574   3.021
    1C        C  313   4.519   3.506   3.145
    1C        C  314   4.487   3.718   3.263
    1C        C  315   4.510   3.578   3.266
    1C        C  316   4.475   3.788   3.385
    1C        C  317   4.494   3.722   3.509
    1C        C  318   4.433   3.928   3.627
    1C        C  319   4.479   3.795   3.629
    1C        C  320   4.400   3.992   3.749
    1C        C  321   4.427   3.927   3.872
    1C        C  322   4.319   4.114   3.990
    1C        C  323   4.395   3.995   3.992
    1C        C  324   4.281   4.171   4.113
    1C        C  325   4.326   4.120   4.237
    1C        C  326   4.187   4.284   4.354
    1C        C  327   4.284   4.181   4.357
    1C        C  328   4.139   4.341   4.474
    1C        C  329   4.191   4.296   4.598
    1C        C  330   4.025   4.433   4.712
    1C        C  331   4.145   4.357   4.716
    1C        C  332   3.969   4.492   4.827
    1C        C  333   4.047   4.478   4.942
    1C        C  334   4.553   3.265   2.064
    1C        C  335   4.531   3.127   2.064
    1C        C  336   4.536   3.350   2.174
    1C        C  337   4.509   3.278   2.293
    1C        C  338   4.521   3.493   2.412
    1C        C  339   4.517   3.352   2.413
    1C        C  340   4.519   3.567   2.533
    1C        C  341   4.516   3.498   2.656
    1C        C  342   4.498   3.709   2.774
    1C        C  343   4.517   3.569   2.778
    1C        C  344   4.483   3.781   2.895
    1C        C  345   4.495   3.713   3.019
    1C        C  346   4.433   3.919   3.136
    1C        C  347   4.477   3.785   3.139
    1C        C  348   4.403   3.986   3.257
    1C        C  349   4.434   3.922   3.380
    1C        C  350   4.330   4.108   3.503
    1C        C  351   4.405   3.988   3.502
    1C        C  352   4.281   4.166   3.622
    1C        C  353   4.324   4.111   3.744
    1C        C  354   4.177   4.265   3.866
    1C        C  355   4.279   4.168   3.865
    1C        C  356   4.124   4.313   3.988
    1C        C  357   4.174   4.264   4.110
    1C        C  358   4.014   4.403   4.229
    1C        C  359   4.128   4.320   4.231
    1C        C  360   3.955   4.447   4.350
    1C        C  361   4.024   4.422   4.470
    1C        C  362   3.829   4.515   4.589
    1C        C  363   3.959   4.460   4.590
    1C        C  364   3.763   4.545   4.710
    1C        C  365   3.836   4.539   4.831
    1C        C  366   3.625   4.594   4.949
    1C        C  367   3.763   4.582   4.943
    1C        C  368   4.513   3.562   2.052
    1C        C  369   4.531   3.491   2.171
    1C        C  370   4.503   3.705   2.285
    1C        C  371   4.519   3.565   2.291
    1C        C  372   4.482   3.774   2.407
    1C        C  373   4.499   3.707   2.530
    1C        C  374   4.431   3.908   2.650
    1C        C  375   4.482   3.777   2.651
    1C        C  376   4.402   3.977   2.770
    1C        C  377   4.436   3.914   2.892
    1C        C  378   4.323   4.097   3.013
    1C        C  379   4.400   3.978   3.012
    1C        C  380   4.282   4.156   3.134
    1C        C  381   4.324   4.103   3.258
    1C        C  382   4.181   4.256   3.377
    1C        C  383   4.286   4.162   3.380
    1C        C  384   4.122   4.302   3.497
    1C        C  385   4.179   4.264   3.621
    1C        C  386   4.008   4.391   3.741
    1C        C  387   4.127   4.315   3.743
    1C        C  388   3.945   4.423   3.863
    1C        C  389   4.009   4.396   3.986
    1C        C  390   3.820   4.491   4.106
    1C        C  391   3.951   4.439   4.108
    1C        C  392   3.754   4.515   4.228
    1C        C  393   3.823   4.497   4.350
    1C        C  394   3.615   4.553   4.473
    1C        C  395   3.754   4.528   4.470
    1C        C  396   3.545   4.561   4.595
    1C        C  397   3.623   4.562   4.713
    1C        C  398   3.410   4.553   4.837
    1C        C  399   3.549   4.575   4.833
    1C        C  400   3.341   4.517   4.953
    1C        C  401   4.498   3.700   2.051
    1C        C  402   4.458   3.916   2.169
    1C        C  403   4.496   3.780   2.166
    1C        C  404   4.416   3.978   2.288
    1C        C  405   4.441   3.909   2.409
    1C        C  406   4.330   4.095   2.526
    1C        C  407   4.406   3.976   2.528
    1C        C  408   4.285   4.151   2.647
    1C        C  409   4.324   4.095   2.770
    1C        C  410   4.181   4.254   2.888
    1C        C  411   4.282   4.155   2.891
    1C        C  412   4.131   4.302   3.011
    1C        C  413   4.184   4.258   3.135
    1C        C  414   4.004   4.374   3.251
    1C        C  415   4.126   4.303   3.255
    1C        C  416   3.941   4.406   3.373
    1C        C  417   4.005   4.380   3.497
    1C        C  418   3.814   4.472   3.619
    1C        C  419   3.945   4.419   3.618
    1C        C  420   3.746   4.496   3.740
    1C        C  421   3.814   4.476   3.862
    1C        C  422   3.610   4.533   3.986
    1C        C  423   3.749   4.503   3.984
    1C        C  424   3.541   4.539   4.109
    1C        C  425   3.614   4.536   4.229
    1C        C  426   3.403   4.550   4.354
    1C        C  427   3.544   4.553   4.351
    1C        C  428   3.332   4.542   4.476
    1C        C  429   3.404   4.552   4.596
    1C        C  430   3.193   4.524   4.720
    1C        C  431   3.333   4.546   4.718
    1C        C  432   3.123   4.497   4.840
    1C        C  433   3.205   4.491   4.954
    1C        C  434   4.384   4.121   2.051
    1C        C  435   4.446   3.996   2.054
    1C        C  436   4.302   4.159   2.162
    1C        C  437   4.341   4.099   2.286
    1C        C  438   4.182   4.249   2.402
    1C        C  439   4.283   4.150   2.404
    1C        C  440   4.126   4.293   2.523
    1C        C  441   4.182   4.249   2.645
    1C        C  442   4.006   4.372   2.763
    1C        C  443   4.125   4.296   2.765
    1C        C  444   3.945   4.404   2.886
    1C        C  445   4.007   4.371   3.008
    1C        C  446   3.813   4.463   3.126
    1C        C  447   3.944   4.410   3.128
    1C        C  448   3.747   4.482   3.249
    1C        C  449   3.810   4.460   3.374
    1C        C  450   3.611   4.529   3.496
    1C        C  451   3.747   4.493   3.496
    1C        C  452   3.539   4.535   3.617
    1C        C  453   3.608   4.529   3.740
    1C        C  454   3.399   4.542   3.865
    1C        C  455   3.540   4.539   3.864
    1C        C  456   3.327   4.538   3.987
    1C        C  457   3.400   4.537   4.108
    1C        C  458   3.195   4.506   4.236
    1C        C  459   3.333   4.535   4.232
    1C        C  460   3.123   4.488   4.357
    1C        C  461   3.194   4.512   4.477
    1C        C  462   2.998   4.435   4.602
    1C        C  463   3.124   4.499   4.599
    1C        C  464   2.931   4.401   4.721
    1C        C  465   2.988   4.448   4.843
    1C        C  466   2.797   4.337   4.955
    1C        C  467   2.903   4.429   4.956
    1C        C  468   4.122   4.282   2.041
    1C        C  469   4.184   4.239   2.159
    1C        C  470   4.003   4.361   2.277
    1C        C  471   4.124   4.286   2.279
    1C        C  472   3.940   4.397   2.398
    1C        C  473   4.007   4.369   2.520
    1C        C  474   3.814   4.461   2.639
    1C        C  475   3.942   4.402   2.641
    1C        C  476   3.748   4.485   2.762
    1C        C  477   3.816   4.463   2.884
    1C        C  478   3.607   4.515   3.008
    1C        C  479   3.746   4.489   3.004
    1C        C  480   3.537   4.525   3.131
    1C        C  481   3.609   4.513   3.252
    1C        C  482   3.398   4.525   3.376
    1C        C  483   3.539   4.530   3.374
    1C        C  484   3.326   4.521   3.497
    1C        C  485   3.398   4.534   3.618
    1C        C  486   3.191   4.501   3.744
    1C        C  487   3.330   4.531   3.742
    1C        C  488   3.126   4.477   3.867
    1C        C  489   3.191   4.499   3.990
    1C        C  490   3.001   4.416   4.114
    1C        C  491   3.129   4.476   4.115
    1C        C  492   2.938   4.388   4.237
    1C        C  493   2.994   4.430   4.360
    1C        C  494   2.822   4.308   4.481
    1C        C  495   2.934   4.395   4.483
    1C        C  496   2.776   4.253   4.603
    1C        C  497   2.822   4.309   4.724
    1C        C  498   2.660   4.164   4.843
    1C        C  499   2.753   4.270   4.840
    1C        C  500   2.595   4.115   4.957
    1C        C  501   4.000   4.350   2.039
    1C        C  502   3.812   4.458   2.154
    1C        C  503   3.938   4.394   2.157
    1C        C  504   3.743   4.475   2.276
    1C        C  505   3.807   4.444   2.398
    1C        C  506   3.603   4.504   2.521
    1C        C  507   3.741   4.476   2.519
    1C        C  508   3.533   4.504   2.644
    1C        C  509   3.608   4.505   2.763
    1C        C  510   3.397   4.518   2.887
    1C        C  511   3.538   4.516   2.885
    1C        C  512   3.326   4.517   3.009
    1C        C  513   3.396   4.524   3.131
    1C        C  514   3.189   4.490   3.252
    1C        C  515   3.327   4.520   3.254
    1C        C  516   3.122   4.466   3.375
    1C        C  517   3.189   4.487   3.497
    1C        C  518   2.998   4.411   3.625
    1C        C  519   3.124   4.474   3.622
    1C        C  520   2.937   4.375   3.748
    1C        C  521   3.002   4.411   3.868
    1C        C  522   2.834   4.285   3.996
    1C        C  523   2.947   4.369   3.992
    1C        C  524   2.785   4.237   4.120
    1C        C  525   2.832   4.295   4.240
    1C        C  526   2.691   4.136   4.364
    1C        C  527   2.776   4.249   4.361
    1C        C  528   2.652   4.076   4.486
    1C        C  529   2.689   4.141   4.605
    1C        C  530   2.581   3.958   4.732
    1C        C  531   2.639   4.088   4.726
    1C        C  532   2.538   3.900   4.855
    1C        C  533   2.528   3.992   4.964
    1C        C  534   3.616   4.553   2.041
    1C        C  535   3.750   4.512   2.040
    1C        C  536   3.533   4.532   2.156
    1C        C  537   3.604   4.501   2.275
    1C        C  538   3.393   4.514   2.399
    1C        C  539   3.534   4.513   2.398
    1C        C  540   3.321   4.508   2.521
    1C        C  541   3.392   4.509   2.643
    1C        C  542   3.185   4.482   2.766
    1C        C  543   3.323   4.510   2.766
    1C        C  544   3.118   4.464   2.889
    1C        C  545   3.187   4.487   3.010
    1C        C  546   2.993   4.403   3.136
    1C        C  547   3.120   4.464   3.132
    1C        C  548   2.934   4.365   3.259
    1C        C  549   2.994   4.407   3.380
    1C        C  550   2.828   4.282   3.505
    1C        C  551   2.934   4.375   3.504
    1C        C  552   2.777   4.234   3.627
    1C        C  553   2.830   4.284   3.748
    1C        C  554   2.702   4.121   3.876
    1C        C  555   2.783   4.237   3.873
    1C        C  556   2.664   4.062   3.998
    1C        C  557   2.699   4.125   4.119
    1C        C  558   2.598   3.944   4.245
    1C        C  559   2.657   4.072   4.243
    1C        C  560   2.571   3.877   4.366
    1C        C  561   2.589   3.949   4.486
    1C        C  562   2.532   3.751   4.616
    1C        C  563   2.561   3.889   4.611
    1C        C  564   2.517   3.681   4.738
    1C        C  565   2.518   3.758   4.857
    1C        C  566   2.536   3.547   4.978
    1C        C  567   2.519   3.685   4.977
    1C        C  568   3.324   4.474   2.044
    1C        C  569   3.393   4.508   2.161
    1C        C  570   3.178   4.476   2.279
    1C        C  571   3.316   4.507   2.281
    1C        C  572   3.111   4.455   2.402
    1C        C  573   3.183   4.480   2.521
    1C        C  574   2.989   4.398   2.649
    1C        C  575   3.116   4.460   2.644
    1C        C  576   2.929   4.361   2.772
    1C        C  577   2.992   4.400   2.892
    1C        C  578   2.822   4.275   3.015
    1C        C  579   2.932   4.364   3.014
    1C        C  580   2.775   4.225   3.139
    1C        C  581   2.825   4.275   3.262
    1C        C  582   2.689   4.116   3.385
    1C        C  583   2.776   4.228   3.385
    1C        C  584   2.661   4.055   3.509
    1C        C  585   2.697   4.117   3.630
    1C        C  586   2.598   3.934   3.755
    1C        C  587   2.659   4.061   3.755
    1C        C  588   2.576   3.868   3.878
    1C        C  589   2.601   3.935   3.999
    1C        C  590   2.533   3.741   4.130
    1C        C  591   2.569   3.877   4.124
    1C        C  592   2.528   3.669   4.251
    1C        C  593   2.534   3.741   4.373
    1C        C  594   2.508   3.535   4.498
    1C        C  595   2.518   3.676   4.497
    1C        C  596   2.513   3.464   4.620
    1C        C  597   2.518   3.539   4.740
    1C        C  598   2.533   3.328   4.865
    1C        C  599   2.524   3.469   4.863
    1C        C  600   2.532   3.248   4.980
    1C        C  601   3.190   4.444   2.043
    1C        C  602   2.979   4.385   2.160
    1C        C  603   3.111   4.439   2.159
    1C        C  604   2.918   4.358   2.286
    1C        C  605   2.985   4.392   2.406
    1C        C  606   2.813   4.272   2.528
    1C        C  607   2.924   4.360   2.530
    1C        C  608   2.764   4.222   2.651
    1C        C  609   2.819   4.273   2.771
    1C        C  610   2.683   4.113   2.896
    1C        C  611   2.769   4.225   2.894
    1C        C  612   2.647   4.054   3.019
    1C        C  613   2.688   4.114   3.140
    1C        C  614   2.592   3.928   3.266
    1C        C  615   2.646   4.059   3.263
    1C        C  616   2.566   3.864   3.389
    1C        C  617   2.597   3.929   3.511
    1C        C  618   2.530   3.730   3.638
    1C        C  619   2.570   3.866   3.635
    1C        C  620   2.517   3.663   3.761
    1C        C  621   2.536   3.732   3.883
    1C        C  622   2.513   3.528   4.007
    1C        C  623   2.523   3.669   4.009
    1C        C  624   2.512   3.457   4.130
    1C        C  625   2.513   3.528   4.252
    1C        C  626   2.543   3.324   4.379
    1C        C  627   2.514   3.463   4.377
    1C        C  628   2.561   3.255   4.501
    1C        C  629   2.536   3.325   4.621
    1C        C  630   2.594   3.122   4.742
    1C        C  631   2.548   3.257   4.744
    1C        C  632   2.619   3.052   4.863
    1C        C  633   2.559   3.110   4.979
    1C        C  634   2.779   4.300   2.049
    1C        C  635   2.886   4.390   2.051
    1C        C  636   2.738   4.235   2.166
    1C        C  637   2.801   4.278   2.285
    1C        C  638   2.671   4.111   2.409
    1C        C  639   2.757   4.224   2.408
    1C        C  640   2.636   4.050   2.532
    1C        C  641   2.679   4.110   2.652
    1C        C  642   2.585   3.922   2.776
    1C        C  643   2.645   4.050   2.775
    1C        C  644   2.561   3.858   2.899
    1C        C  645   2.584   3.927   3.020
    1C        C  646   2.529   3.725   3.148
    1C        C  647   2.568   3.861   3.144
    1C        C  648   2.517   3.655   3.270
    1C        C  649   2.531   3.727   3.391
    1C        C  650   2.503   3.521   3.517
    1C        C  651   2.516   3.662   3.515
    1C        C  652   2.510   3.451   3.640
    1C        C  653   2.508   3.522   3.762
    1C        C  654   2.528   3.314   3.887
    1C        C  655   2.510   3.455   3.886
    1C        C  656   2.546   3.248   4.011
    1C        C  657   2.533   3.318   4.133
    1C        C  658   2.608   3.122   4.255
    1C        C  659   2.556   3.254   4.257
    1C        C  660   2.638   3.059   4.378
    1C        C  661   2.606   3.121   4.501
    1C        C  662   2.713   2.940   4.627
    1C        C  663   2.634   3.057   4.623
    1C        C  664   2.757   2.880   4.748
    1C        C  665   2.701   2.934   4.867
    1C        C  666   2.743   2.869   4.983
    1C        C  667   2.682   4.021   2.060
    1C        C  668   2.677   4.108   2.170
    1C        C  669   2.584   3.913   2.292
    1C        C  670   2.636   4.046   2.289
    1C        C  671   2.560   3.847   2.414
    1C        C  672   2.580   3.920   2.533
    1C        C  673   2.521   3.716   2.659
    1C        C  674   2.558   3.853   2.655
    1C        C  675   2.514   3.647   2.782
    1C        C  676   2.529   3.721   2.902
    1C        C  677   2.498   3.515   3.029
    1C        C  678   2.511   3.656   3.027
    1C        C  679   2.504   3.442   3.150
    1C        C  680   2.511   3.514   3.271
    1C        C  681   2.530   3.308   3.398
    1C        C  682   2.508   3.448   3.396
    1C        C  683   2.552   3.242   3.521
    1C        C  684   2.534   3.312   3.642
    1C        C  685   2.602   3.114   3.771
    1C        C  686   2.550   3.245   3.766
    1C        C  687   2.631   3.051   3.894
    1C        C  688   2.598   3.117   4.015
    1C        C  689   2.710   2.934   4.137
    1C        C  690   2.631   3.051   4.136
    1C        C  691   2.754   2.879   4.260
    1C        C  692   2.714   2.940   4.382
    1C        C  693   2.755   2.884   4.505
    1C        C  694   2.631   3.891   2.059
    1C        C  695   2.523   3.704   2.173
    1C        C  696   2.571   3.837   2.174
    1C        C  697   2.506   3.639   2.298
    1C        C  698   2.518   3.712   2.418
    1C        C  699   2.487   3.503   2.543
    1C        C  700   2.498   3.644   2.540
    1C        C  701   2.501   3.434   2.665
    1C        C  702   2.502   3.507   2.786
    1C        C  703   2.522   3.299   2.911
    1C        C  704   2.502   3.439   2.910
    1C        C  705   2.543   3.232   3.033
    1C        C  706   2.528   3.302   3.155
    1C        C  707   2.594   3.103   3.280
    1C        C  708   2.543   3.235   3.278
    1C        C  709   2.626   3.041   3.403
    1C        C  710   2.599   3.109   3.524
    1C        C  711   2.708   2.932   3.650
    1C        C  712   2.631   3.050   3.648
    1C        C  713   2.757   2.880   3.772
    1C        C  714   2.712   2.936   3.893
    1C        C  715   2.755   2.879   4.015
    1C        C  716   2.448   3.497   2.062
    1C        C  717   2.489   3.630   2.059
    1C        C  718   2.463   3.422   2.183
    1C        C  719   2.483   3.499   2.301
    1C        C  720   2.508   3.289   2.425
    1C        C  721   2.486   3.428   2.423
    1C        C  722   2.530   3.220   2.546
    1C        C  723   2.517   3.293   2.667
    1C        C  724   2.593   3.098   2.789
    1C        C  725   2.540   3.229   2.790
    1C        C  726   2.619   3.034   2.913
    1C        C  727   2.591   3.099   3.035
    1C        C  728   2.701   2.919   3.158
    1C        C  729   2.623   3.037   3.158
    1C        C  730   2.748   2.869   3.281
    1C        C  731   2.705   2.924   3.404
    1C        C  732   2.753   2.876   3.528
    1C        C  733   2.484   3.193   2.075
    1C        C  734   2.486   3.280   2.185
    1C        C  735   2.576   3.083   2.307
    1C        C  736   2.519   3.213   2.306
    1C        C  737   2.602   3.015   2.428
    1C        C  738   2.577   3.087   2.547
    1C        C  739   2.696   2.909   2.672
    1C        C  740   2.625   3.032   2.668
    1C        C  741   2.737   2.853   2.795
    1C        C  742   2.698   2.917   2.914
    1C        C  743   2.747   2.866   3.036
    1C        C  744   2.545   3.068   2.070
    1C        C  745   2.682   2.898   2.185
    1C        C  746   2.605   3.017   2.186
    1C        C  747   2.729   2.841   2.305
    1C        C  748   2.685   2.900   2.426
    1C        C  749   2.733   2.851   2.549
    1C        C  750   2.738   2.839   2.072
    1C        C  751   3.651   2.282   2.014
    1C        O  752   3.698   2.184   2.077
    1C        O  753   3.640   2.257   1.877
    1C        C  754   4.623   3.059   1.969
    1C        O  755   4.599   3.048   1.846
    1C        O  756   4.733   2.992   2.025
    1C        C  757   4.447   4.232   1.976
    1C        O  758   4.563   4.280   1.991
    1C        O  759   4.389   4.260   1.852
    1C        C  760   3.586   4.655   1.939
    1C        O  761   3.541   4.771   1.963
    1C        O  762   3.549   4.609   1.812
    1C        C  763   2.866   4.517   1.977
    1C        O  764   2.797   4.522   1.871
    1C        O  765   2.854   4.640   2.042
    1C        C  766   2.331   3.466   1.976
    1C        O  767   2.327   3.487   1.852
    1C        O  768   2.201   3.469   2.028
    1C        C  769   4.710   3.593   5.034
    1C        O  770   4.712   3.517   5.134
    1C        O  771   4.839   3.600   4.980
    1C        C  772   4.251   4.432   5.061
    1C        O  773   4.231   4.393   5.179
    1C        O  774   4.359   4.520   5.051
    1C        C  775   4.141   2.558   5.094
    1C        O  776   4.222   2.461   5.101
    1C        O  777   4.121   2.605   5.224
    1C        C  778   2.884   4.546   5.046
    1C        O  779   2.825   4.646   4.998
    1C        O  780   2.877   4.519   5.183
    1C        C  781   2.467   3.033   5.065
    1C        O  782   2.390   2.950   5.010
    1C        O  783   2.480   3.027   5.203
    1C        C  784   2.446   3.963   5.083
    1C        O  785   2.339   4.030   5.092
    1C        O  786   2.521   3.935   5.198
    1C        C  787   2.945   2.418   2.001
    1C        O  788   2.948   2.417   1.875
    1C        O  789   2.870   2.308   2.041
    1C        C  790   3.167   2.369   5.057
    1C        O  791   3.150   2.255   5.006
    1C        O  792   3.208   2.381   5.190
    1C        H  793   4.298   3.013   5.070
    1C        H  794   4.175   2.811   5.072
    1C        H  795   4.530   3.124   5.038
    1C        H  796   4.500   3.367   5.067
    1C        H  797   4.595   3.812   5.036
    1C        H  798   4.411   3.971   5.057
    1C        H  799   4.326   4.193   5.046
    1C        H  800   4.025   4.540   5.027
    1C        H  801   3.819   4.620   5.027
    1C        H  802   3.589   4.664   5.021
    1C        H  803   3.397   4.468   5.031
    1C        H  804   3.167   4.459   5.049
    1C        H  805   3.894   2.464   5.060
    1C        H  806   3.672   2.419   5.060
    1C        H  807   3.022   2.588   5.073
    1C        H  808   3.442   2.454   5.071
    1C        H  809   2.890   2.747   5.076
    1C        H  810   2.688   2.884   5.074
    1C        H  811   2.494   3.288   5.071
    1C        H  812   2.576   3.506   5.069
    1C        H  813   2.564   3.730   5.063
    1C        H  814   2.606   4.173   5.046
    1C        H  815   2.776   4.294   5.051
    1C        H  816   2.740   2.899   1.983
    1C        H  817   2.820   2.669   1.983
    1C        H  818   3.207   2.403   2.004
    1C        H  819   3.436   2.485   1.980
    1C        H  820   3.833   2.544   1.973
    1C        H  821   4.068   2.600   1.970
    1C        H  822   4.279   2.694   1.994
    1C        H  823   4.399   2.892   1.966
    1C        H  824   4.569   3.311   1.968
    1C        H  825   4.553   3.521   1.962
    1C        H  826   4.446   3.733   1.963
    1C        H  827   3.814   4.547   1.962
    1C        H  828   3.938   4.322   1.956
    1C        H  829   4.182   4.298   1.954
    1C        H  830   4.526   3.988   1.983
    1C        H  831   2.614   3.854   1.960
    1C        H  832   2.747   4.051   1.980
    1C        H  833   2.708   4.308   1.969
    1C        H  834   3.375   4.460   1.950
    1C        H  835   3.145   4.430   1.947
    1C        H  836   2.530   3.005   1.985
    1C        H  837   2.418   3.217   1.994
    1C        H  838   2.478   3.679   1.964
    2V3OU   H29  839   2.805   3.550   1.992
    2V3OU   C27  840   2.782   3.502   2.091
    2V3OU   H27  841   2.734   3.566   2.169
    2V3OU   H28  842   2.730   3.403   2.082
    2V3OU   O11  843   2.909   3.478   2.150
    2V3OU   C15  844   2.922   3.397   2.261
    2V3OU   C13  845   3.050   3.374   2.316
    2V3OU   C14  846   3.079   3.269   2.405
    2V3OU   C16  847   2.977   3.188   2.453
    2V3OU    H6  848   2.989   3.104   2.523
    2V3OU   C12  849   3.211   3.231   2.459
    2V3OU    O2  850   3.235   3.123   2.516
    2V3OU   C10  851   3.326   3.309   2.410
    2V3OU    C8  852   3.457   3.268   2.431
    2V3OU   O10  853   3.490   3.151   2.491
    2V3OU   H26  854   3.404   3.116   2.518
    2V3OU    C6  855   3.563   3.347   2.377
    2V3OU    C5  856   3.536   3.466   2.311
    2V3OU    C4  857   3.704   3.296   2.380
    2V3OU    H4  858   3.723   3.233   2.471
    2V3OU    H5  859   3.711   3.228   2.290
    2V3OU    C2  860   3.818   3.398   2.379
    2V3OU    O6  861   3.808   3.476   2.499
    2V3OU   H21  862   3.763   3.557   2.469
    2V3OU    C3  863   3.781   3.496   2.268
    2V3OU    H2  864   3.865   3.570   2.263
    2V3OU    H3  865   3.781   3.442   2.169
    2V3OU   C25  866   3.953   3.328   2.367
    2V3OU    O7  867   4.000   3.304   2.256
    2V3OU   C26  868   4.026   3.288   2.495
    2V3OU   H22  869   4.066   3.376   2.552
    2V3OU   H23  870   4.112   3.221   2.470
    2V3OU    O8  871   3.953   3.208   2.586
    2V3OU   H24  872   3.924   3.267   2.657
    2V3OU    C1  873   3.647   3.564   2.285
    2V3OU    H1  874   3.624   3.621   2.190
    2V3OU    O3  875   3.661   3.656   2.394
    2V3OU   C19  876   3.620   3.791   2.374
    2V3OU    H9  877   3.520   3.796   2.322
    2V3OU    O4  878   3.710   3.851   2.283
    2V3OU   C20  879   3.841   3.874   2.336
    2V3OU   H10  880   3.892   3.774   2.346
    2V3OU   C24  881   3.607   3.853   2.514
    2V3OU   H16  882   3.539   3.785   2.572
    2V3OU   H17  883   3.564   3.956   2.518
    2V3OU   C23  884   3.749   3.873   2.567
    2V3OU   H15  885   3.791   3.770   2.593
    2V3OU    N1  886   3.732   3.954   2.685
    2V3OU   H19  887   3.806   3.932   2.748
    2V3OU   H20  888   3.644   3.932   2.727
    2V3OU   C21  889   3.851   3.942   2.472
    2V3OU   H11  890   3.958   3.929   2.506
    2V3OU    O5  891   3.835   4.083   2.476
    2V3OU   H18  892   3.785   4.107   2.556
    2V3OU   C22  893   3.913   3.946   2.223
    2V3OU   H12  894   3.864   4.046   2.211
    2V3OU   H13  895   3.905   3.885   2.129
    2V3OU   H14  896   4.020   3.963   2.249
    2V3OU   C11  897   3.156   3.476   2.317
    2V3OU    O1  898   3.127   3.593   2.283
    2V3OU    C9  899   3.294   3.426   2.336
    2V3OU    C7  900   3.400   3.503   2.288
    2V3OU    O9  901   3.382   3.612   2.206
    2V3OU   H25  902   3.287   3.629   2.192
    2V3OU   C17  903   2.821   3.317   2.319
    2V3OU    H7  904   2.718   3.351   2.308
    2V3OU   C18  905   2.847   3.216   2.411
    2V3OU    H8  906   2.774   3.158   2.469
    3SOL     OW  907   2.879   4.844   0.816
    3SOL    HW1  908   2.864   4.774   0.746
    3SOL    HW2  909   2.792   4.866   0.860
    4SOL     OW  910   6.453   5.960   1.465
    4SOL    HW1  911   6.483   6.043   1.513
    4SOL    HW2  912   6.354   5.951   1.474
    5SOL     OW  913   4.817   1.588   2.721
    5SOL    HW1  914   4.745   1.520   2.733
    5SOL    HW2  915   4.904   1.541   2.702
    6SOL     OW  916   3.996   0.997   0.786
    6SOL    HW1  917   3.968   1.039   0.872
    6SOL    HW2  918   4.025   0.903   0.803
    7SOL     OW  919   6.892   4.092   2.334
    7SOL    HW1  920   6.921   4.132   2.421
    7SOL    HW2  921   6.802   4.050   2.346
    8SOL     OW  922   2.799   0.571   6.901
    8SOL    HW1  923   2.857   0.650   6.916
    8SOL    HW2  924   2.855   0.488   6.904
    9SOL     OW  925   6.697   6.778   6.618
    9SOL    HW1  926   6.688   6.877   6.609
    9SOL    HW2  927   6.791   6.754   6.639
   10SOL     OW  928   1.452   4.761   6.528
   10SOL    HW1  929   1.435   4.683   6.468
   10SOL    HW2  930   1.538   4.747   6.577
   11SOL     OW  931   2.495   0.356   6.550
   11SOL    HW1  932   2.416   0.396   6.597
   11SOL    HW2  933   2.470   0.333   6.456
   12SOL     OW  934   3.971   6.833   3.652
   12SOL    HW1  935   3.965   6.736   3.631
   12SOL    HW2  936   4.063   6.855   3.683
   13SOL     OW  937   4.055   5.908   3.569
   13SOL    HW1  938   3.997   5.942   3.495
   13SOL    HW2  939   4.007   5.837   3.619
   14SOL     OW  940   4.186   5.305   5.891
   14SOL    HW1  941   4.161   5.370   5.820
   14SOL    HW2  942   4.118   5.230   5.894
   15SOL     OW  943   1.258   6.237   1.237
   15SOL    HW1  944   1.282   6.249   1.333
   15SOL    HW2  945   1.339   6.254   1.180
   16SOL     OW  946   5.212   3.034   5.421
   16SOL    HW1  947   5.294   3.087   5.443
   16SOL    HW2  948   5.135   3.096   5.408
   17SOL     OW  949   4.956   6.303   5.388
   17SOL    HW1  950   4.877   6.341   5.436
   17SOL    HW2  951   4.968   6.207   5.414
   18SOL     OW  952   3.283   0.822   5.988
   18SOL    HW1  953   3.292   0.746   5.924
   18SOL    HW2  954   3.368   0.832   6.039
   19SOL     OW  955   0.071   0.133   3.377
   19SOL    HW1  956   7.014   0.173   3.424
   19SOL    HW2  957   0.142   0.112   3.444
   20SOL     OW  958   5.657   2.625   4.580
   20SOL    HW1  959   5.671   2.619   4.679
   20SOL    HW2  960   5.610   2.711   4.559
   21SOL     OW  961   3.344   2.122   2.685
   21SOL    HW1  962   3.393   2.177   2.617
   21SOL    HW2  963   3.405   2.105   2.763
   22SOL     OW  964   2.244   6.480   0.172
   22SOL    HW1  965   2.260   6.385   0.199
   22SOL    HW2  966   2.222   6.534   0.253
   23SOL     OW  967   5.182   6.266   2.961
   23SOL    HW1  968   5.088   6.240   2.937
   23SOL    HW2  969   5.245   6.194   2.930
   24SOL     OW  970   5.006   1.670   3.068
   24SOL    HW1  971   5.035   1.658   2.973
   24SOL    HW2  972   4.918   1.717   3.071
   25SOL     OW  973   3.122   0.059   5.274
   25SOL    HW1  974   3.130   0.087   5.178
   25SOL    HW2  975   3.111   6.982   5.278
   26SOL     OW  976   6.706   0.878   0.582
   26SOL    HW1  977   6.800   0.911   0.587
   26SOL    HW2  978   6.678   0.872   0.486
   27SOL     OW  979   1.413   2.000   2.281
   27SOL    HW1  980   1.412   1.928   2.212
   27SOL    HW2  981   1.323   2.042   2.287
   28SOL     OW  982   3.597   1.728   6.141
   28SOL    HW1  983   3.635   1.637   6.158
   28SOL    HW2  984   3.552   1.728   6.051
   29SOL     OW  985   4.507   2.446   2.283
   29SOL    HW1  986   4.459   2.367   2.320
   29SOL    HW2  987   4.460   2.477   2.200
   30SOL     OW  988   3.510   1.314   4.067
   30SOL    HW1  989   3.521   1.215   4.071
   30SOL    HW2  990   3.600   1.358   4.071
   31SOL     OW  991   1.350   2.990   6.450
   31SOL    HW1  992   1.398   2.910   6.487
   31SOL    HW2  993   1.291   3.029   6.520
   32SOL     OW  994   0.231   1.369   2.786
   32SOL    HW1  995   0.214   1.404   2.694
   32SOL    HW2  996   0.145   1.361   2.835
   33SOL     OW  997   1.927   4.152   6.672
   33SOL    HW1  998   2.014   4.161   6.625
   33SOL    HW2  999   1.856   4.202   6.622
   34SOL     OW 1000   2.241   1.315   4.295
   34SOL    HW1 1001   2.324   1.289   4.245
   34SOL    HW2 1002   2.249   1.286   4.390
   35SOL     OW 1003   3.258   3.589   6.575
   35SOL    HW1 1004   3.332   3.574   6.641
   35SOL    HW2 1005   3.271   3.677   6.530
   36SOL     OW 1006   6.338   0.948   5.457
   36SOL    HW1 1007   6.282   0.965   5.375
   36SOL    HW2 1008   6.349   1.033   5.508
   37SOL     OW 1009   0.942   0.961   0.527
   37SOL    HW1 1010   0.901   0.871   0.509
   37SOL    HW2 1011   1.031   0.966   0.484
   38SOL     OW 1012   6.931   4.917   3.028
   38SOL    HW1 1013   6.837   4.896   3.004
   38SOL    HW2 1014   6.986   4.925   2.945
   39SOL     OW 1015   6.751   5.077   6.646
   39SOL    HW1 1016   6.780   5.148   6.583
   39SOL    HW2 1017   6.830   5.020   6.670
   40SOL     OW 1018   5.219   1.933   1.221
   40SOL    HW1 1019   5.171   2.008   1.267
   40SOL    HW2 1020   5.208   1.944   1.122
   41SOL     OW 1021   6.772   5.928   4.143
   41SOL    HW1 1022   6.844   5.967   4.086
   41SOL    HW2 1023   6.810   5.854   4.198
   42SOL     OW 1024   2.711   5.382   5.189
   42SOL    HW1 1025   2.635   5.445   5.176
   42SOL    HW2 1026   2.742   5.349   5.100
   43SOL     OW 1027   5.871   6.152   5.596
   43SOL    HW1 1028   5.928   6.108   5.526
   43SOL    HW2 1029   5.848   6.087   5.667
   44SOL     OW 1030   5.364   1.478   0.046
   44SOL    HW1 1031   5.333   1.558   7.016
   44SOL    HW2 1032   5.334   1.395   7.021
   45SOL     OW 1033   4.322   6.673   2.846
   45SOL    HW1 1034   4.416   6.667   2.881
   45SOL    HW2 1035   4.286   6.581   2.834
   46SOL     OW 1036   0.428   3.027   3.077
   46SOL    HW1 1037   0.486   2.981   3.010
   46SOL    HW2 1038   0.456   3.123   3.085
   47SOL     OW 1039   4.715   4.437   1.164
   47SOL    HW1 1040   4.756   4.453   1.253
   47SOL    HW2 1041   4.683   4.342   1.158
   48SOL     OW 1042   0.017   2.379   5.746
   48SOL    HW1 1043   7.008   2.355   5.839
   48SOL    HW2 1044   0.093   2.443   5.752
   49SOL     OW 1045   5.246   3.674   1.661
   49SOL    HW1 1046   5.321   3.740   1.666
   49SOL    HW2 1047   5.263   3.600   1.726
   50SOL     OW 1048   6.193   1.129   4.946
   50SOL    HW1 1049   6.097   1.110   4.925
   50SOL    HW2 1050   6.224   1.207   4.891
   51SOL     OW 1051   3.013   6.506   3.399
   51SOL    HW1 1052   3.038   6.602   3.415
   51SOL    HW2 1053   2.920   6.501   3.364
   52SOL     OW 1054   5.316   2.385   3.100
   52SOL    HW1 1055   5.313   2.429   3.190
   52SOL    HW2 1056   5.332   2.287   3.112
   53SOL     OW 1057   3.596   6.925   4.657
   53SOL    HW1 1058   3.531   6.973   4.598
   53SOL    HW2 1059   3.585   6.827   4.644
   54SOL     OW 1060   3.484   5.080   0.899
   54SOL    HW1 1061   3.437   4.995   0.874
   54SOL    HW2 1062   3.441   5.119   0.980
   55SOL     OW 1063   2.888   1.969   6.851
   55SOL    HW1 1064   2.964   1.983   6.788
   55SOL    HW2 1065   2.801   1.975   6.801
   56SOL     OW 1066   6.841   0.528   1.558
   56SOL    HW1 1067   6.784   0.451   1.532
   56SOL    HW2 1068   6.898   0.555   1.480
   57SOL     OW 1069   5.387   1.206   1.112
   57SOL    HW1 1070   5.317   1.165   1.169
   57SOL    HW2 1071   5.430   1.282   1.160
   58SOL     OW 1072   6.334   6.678   5.615
   58SOL    HW1 1073   6.250   6.730   5.602
   58SOL    HW2 1074   6.325   6.588   5.572
   59SOL     OW 1075   0.993   1.596   5.223
   59SOL    HW1 1076   1.082   1.553   5.211
   59SOL    HW2 1077   1.005   1.692   5.247
   60SOL     OW 1078   5.464   1.765   5.344
   60SOL    HW1 1079   5.382   1.762   5.401
   60SOL    HW2 1080   5.530   1.699   5.378
   61SOL     OW 1081   5.179   2.680   5.046
   61SOL    HW1 1082   5.229   2.609   5.095
   61SOL    HW2 1083   5.141   2.746   5.111
   62SOL     OW 1084   0.579   0.937   2.189
   62SOL    HW1 1085   0.532   1.025   2.184
   62SOL    HW2 1086   0.552   0.880   2.111
   63SOL     OW 1087   5.175   1.180   3.737
   63SOL    HW1 1088   5.162   1.093   3.784
   63SOL    HW2 1089   5.111   1.248   3.772
   64SOL     OW 1090   7.017   3.621   5.756
   64SOL    HW1 1091   0.019   3.563   5.834
   64SOL    HW2 1092   0.029   3.714   5.772
   65SOL     OW 1093   0.193   5.247   6.312
   65SOL    HW1 1094   0.284   5.220   6.345
   65SOL    HW2 1095   0.125   5.182   6.345
   66SOL     OW 1096   3.862   0.727   5.614
   66SOL    HW1 1097   3.961   0.724   5.599
   66SOL    HW2 1098   3.841   0.688   5.704
   67SOL     OW 1099   5.241   4.490   6.138
   67SOL    HW1 1100   5.149   4.522   6.115
   67SOL    HW2 1101   5.242   4.390   6.141
   68SOL     OW 1102   5.809   0.954   6.734
   68SOL    HW1 1103   5.854   1.035   6.772
   68SOL    HW2 1104   5.712   0.974   6.718
   69SOL     OW 1105   0.442   3.169   5.603
   69SOL    HW1 1106   0.541   3.180   5.611
   69SOL    HW2 1107   0.407   3.118   5.681
   70SOL     OW 1108   5.317   3.620   4.521
   70SOL    HW1 1109   5.378   3.651   4.594
   70SOL    HW2 1110   5.336   3.671   4.437
   71SOL     OW 1111   4.040   1.818   2.914
   71SOL    HW1 1112   3.972   1.864   2.857
   71SOL    HW2 1113   4.110   1.884   2.942
   72SOL     OW 1114   1.889   6.028   4.670
   72SOL    HW1 1115   1.969   6.054   4.617
   72SOL    HW2 1116   1.918   5.980   4.753
   73SOL     OW 1117   3.172   0.963   0.797
   73SOL    HW1 1118   3.139   1.052   0.829
   73SOL    HW2 1119   3.226   0.976   0.714
   74SOL     OW 1120   4.874   6.813   0.025
   74SOL    HW1 1121   4.791   6.818   6.992
   74SOL    HW2 1122   4.947   6.770   6.993
   75SOL     OW 1123   3.904   0.411   1.130
   75SOL    HW1 1124   3.895   0.461   1.216
   75SOL    HW2 1125   3.822   0.424   1.075
   76SOL     OW 1126   2.928   3.284   0.663
   76SOL    HW1 1127   2.840   3.308   0.704
   76SOL    HW2 1128   2.984   3.366   0.655
   77SOL     OW 1129   6.827   6.603   3.661
   77SOL    HW1 1130   6.792   6.509   3.660
   77SOL    HW2 1131   6.890   6.614   3.738
   78SOL     OW 1132   5.544   1.121   0.276
   78SOL    HW1 1133   5.462   1.178   0.285
   78SOL    HW2 1134   5.565   1.108   0.179
   79SOL     OW 1135   3.272   6.212   0.511
   79SOL    HW1 1136   3.227   6.140   0.564
   79SOL    HW2 1137   3.370   6.194   0.508
   80SOL     OW 1138   5.792   1.396   4.156
   80SOL    HW1 1139   5.750   1.479   4.192
   80SOL    HW2 1140   5.719   1.333   4.126
   81SOL     OW 1141   1.879   6.673   2.781
   81SOL    HW1 1142   1.859   6.623   2.865
   81SOL    HW2 1143   1.802   6.665   2.718
   82SOL     OW 1144   6.401   4.713   1.179
   82SOL    HW1 1145   6.420   4.639   1.244
   82SOL    HW2 1146   6.327   4.685   1.117
   83SOL     OW 1147   0.270   0.977   6.778
   83SOL    HW1 1148   0.352   0.963   6.833
   83SOL    HW2 1149   0.256   0.897   6.719
   84SOL     OW 1150   5.670   2.605   3.338
   84SOL    HW1 1151   5.634   2.656   3.259
   84SOL    HW2 1152   5.602   2.606   3.411
   85SOL     OW 1153   1.689   1.791   4.174
   85SOL    HW1 1154   1.739   1.877   4.190
   85SOL    HW2 1155   1.621   1.806   4.102
   86SOL     OW 1156   6.715   0.453   5.063
   86SOL    HW1 1157   6.781   0.469   5.136
   86SOL    HW2 1158   6.652   0.531   5.056
   87SOL     OW 1159   4.528   3.249   0.534
   87SOL    HW1 1160   4.539   3.233   0.436
   87SOL    HW2 1161   4.441   3.211   0.565
   88SOL     OW 1162   3.642   1.848   5.544
   88SOL    HW1 1163   3.641   1.890   5.453
   88SOL    HW2 1164   3.632   1.918   5.614
   89SOL     OW 1165   1.425   2.615   5.963
   89SOL    HW1 1166   1.462   2.600   6.055
   89SOL    HW2 1167   1.346   2.554   5.949
   90SOL     OW 1168   3.694   5.520   2.165
   90SOL    HW1 1169   3.661   5.438   2.118
   90SOL    HW2 1170   3.784   5.502   2.204
   91SOL     OW 1171   5.063   4.289   4.801
   91SOL    HW1 1172   5.004   4.366   4.820
   91SOL    HW2 1173   5.019   4.229   4.733
   92SOL     OW 1174   4.432   4.971   0.396
   92SOL    HW1 1175   4.527   4.944   0.413
   92SOL    HW2 1176   4.375   4.943   0.473
   93SOL     OW 1177   3.186   4.092   6.362
   93SOL    HW1 1178   3.111   4.026   6.360
   93SOL    HW2 1179   3.191   4.134   6.453
   94SOL     OW 1180   1.844   5.778   6.587
   94SOL    HW1 1181   1.795   5.865   6.596
   94SOL    HW2 1182   1.790   5.705   6.630
   95SOL     OW 1183   1.616   0.453   3.491
   95SOL    HW1 1184   1.547   0.453   3.563
   95SOL    HW2 1185   1.665   0.541   3.492
   96SOL     OW 1186   3.492   0.169   5.067
   96SOL    HW1 1187   3.584   0.157   5.030
   96SOL    HW2 1188   3.462   0.263   5.053
   97SOL     OW 1189   2.343   2.904   5.646
   97SOL    HW1 1190   2.302   2.964   5.714
   97SOL    HW2 1191   2.311   2.930   5.555
   98SOL     OW 1192   0.084   3.775   1.121
   98SOL    HW1 1193   0.029   3.827   1.186
   98SOL    HW2 1194   0.072   3.677   1.137
   99SOL     OW 1195   3.401   3.178   0.864
   99SOL    HW1 1196   3.444   3.098   0.905
   99SOL    HW2 1197   3.309   3.154   0.832
  100SOL     OW 1198   0.195   6.794   5.105
  100SOL    HW1 1199   0.196   6.837   5.196
  100SOL    HW2 1200   0.288   6.792   5.069
  101SOL     OW 1201   1.450   5.016   2.451
  101SOL    HW1 1202   1.357   5.053   2.455
  101SOL    HW2 1203   1.501   5.061   2.378
  102SOL     OW 1204   4.102   5.590   2.551
  102SOL    HW1 1205   4.148   5.624   2.469
  102SOL    HW2 1206   4.003   5.589   2.535
  103SOL     OW 1207   2.137   1.064   1.712
  103SOL    HW1 1208   2.180   1.088   1.799
  103SOL    HW2 1209   2.092   1.145   1.674
  104SOL     OW 1210   1.099   5.814   2.431
  104SOL    HW1 1211   1.164   5.838   2.359
  104SOL    HW2 1212   1.147   5.805   2.518
  105SOL     OW 1213   6.417   2.412   6.670
  105SOL    HW1 1214   6.516   2.400   6.683
  105SOL    HW2 1215   6.398   2.428   6.573
  106SOL     OW 1216   3.460   6.432   4.747
  106SOL    HW1 1217   3.387   6.453   4.813
  106SOL    HW2 1218   3.542   6.404   4.797
  107SOL     OW 1219   2.046   1.315   1.430
  107SOL    HW1 1220   2.110   1.317   1.507
  107SOL    HW2 1221   2.087   1.364   1.352
  108SOL     OW 1222   2.760   5.394   5.453
  108SOL    HW1 1223   2.806   5.331   5.516
  108SOL    HW2 1224   2.764   5.357   5.360
  109SOL     OW 1225   0.057   0.228   1.401
  109SOL    HW1 1226   0.061   0.138   1.359
  109SOL    HW2 1227   0.046   0.298   1.330
  110SOL     OW 1228   3.431   6.004   4.861
  110SOL    HW1 1229   3.349   6.007   4.803
  110SOL    HW2 1230   3.494   5.935   4.825
  111SOL     OW 1231   2.199   1.234   4.571
  111SOL    HW1 1232   2.192   1.140   4.604
  111SOL    HW2 1233   2.282   1.276   4.607
  112SOL     OW 1234   3.872   6.602   6.338
  112SOL    HW1 1235   3.864   6.661   6.418
  112SOL    HW2 1236   3.782   6.594   6.293
  113SOL     OW 1237   6.942   5.715   2.971
  113SOL    HW1 1238   6.897   5.797   3.006
  113SOL    HW2 1239   6.961   5.727   2.874
  114SOL     OW 1240   0.372   0.153   1.582
  114SOL    HW1 1241   0.303   0.130   1.513
  114SOL    HW2 1242   0.411   0.243   1.561
  115SOL     OW 1243   4.442   1.604   3.173
  115SOL    HW1 1244   4.541   1.610   3.160
  115SOL    HW2 1245   4.402   1.551   3.099
  116SOL     OW 1246   5.950   5.198   1.277
  116SOL    HW1 1247   6.025   5.207   1.342
  116SOL    HW2 1248   5.916   5.289   1.253
  117SOL     OW 1249   1.573   2.296   0.538
  117SOL    HW1 1250   1.575   2.382   0.486
  117SOL    HW2 1251   1.578   2.316   0.636
  118SOL     OW 1252   1.422   0.976   3.427
  118SOL    HW1 1253   1.332   1.009   3.399
  118SOL    HW2 1254   1.412   0.902   3.494
  119SOL     OW 1255   0.523   0.403   6.431
  119SOL    HW1 1256   0.524   0.337   6.506
  119SOL    HW2 1257   0.589   0.476   6.450
  120SOL     OW 1258   6.031   6.798   6.631
  120SOL    HW1 1259   6.054   6.800   6.728
  120SOL    HW2 1260   6.070   6.715   6.590
  121SOL     OW 1261   1.160   3.976   6.094
  121SOL    HW1 1262   1.152   3.885   6.133
  121SOL    HW2 1263   1.227   3.975   6.020
  122SOL     OW 1264   1.885   3.286   5.924
  122SOL    HW1 1265   1.953   3.342   5.877
  122SOL    HW2 1266   1.900   3.290   6.023
  123SOL     OW 1267   0.705   1.234   2.827
  123SOL    HW1 1268   0.756   1.249   2.742
  123SOL    HW2 1269   0.612   1.206   2.805
  124SOL     OW 1270   4.193   2.565   0.514
  124SOL    HW1 1271   4.095   2.581   0.510
  124SOL    HW2 1272   4.222   2.512   0.434
  125SOL     OW 1273   2.460   1.795   1.210
  125SOL    HW1 1274   2.497   1.884   1.183
  125SOL    HW2 1275   2.373   1.780   1.163
  126SOL     OW 1276   2.152   4.473   1.103
  126SOL    HW1 1277   2.076   4.430   1.152
  126SOL    HW2 1278   2.234   4.471   1.161
  127SOL     OW 1279   0.985   5.567   0.156
  127SOL    HW1 1280   1.029   5.589   0.243
  127SOL    HW2 1281   0.963   5.470   0.153
  128SOL     OW 1282   5.258   2.655   1.361
  128SOL    HW1 1283   5.242   2.562   1.329
  128SOL    HW2 1284   5.178   2.712   1.339
  129SOL     OW 1285   1.834   3.657   6.519
  129SOL    HW1 1286   1.841   3.752   6.491
  129SOL    HW2 1287   1.924   3.622   6.543
  130SOL     OW 1288   0.963   1.934   4.037
  130SOL    HW1 1289   1.035   2.002   4.031
  130SOL    HW2 1290   0.959   1.898   4.131
  131SOL     OW 1291   5.403   1.834   3.801
  131SOL    HW1 1292   5.391   1.933   3.797
  131SOL    HW2 1293   5.476   1.807   3.739
  132SOL     OW 1294   2.527   2.871   1.105
  132SOL    HW1 1295   2.551   2.964   1.078
  132SOL    HW2 1296   2.492   2.821   1.025
  133SOL     OW 1297   4.806   6.911   4.027
  133SOL    HW1 1298   4.820   6.824   4.074
  133SOL    HW2 1299   4.871   6.920   3.952
  134SOL     OW 1300   6.122   0.717   2.774
  134SOL    HW1 1301   6.176   0.680   2.850
  134SOL    HW2 1302   6.033   0.747   2.807
  135SOL     OW 1303   5.495   3.967   3.328
  135SOL    HW1 1304   5.584   3.983   3.371
  135SOL    HW2 1305   5.425   3.960   3.399
  136SOL     OW 1306   2.823   4.434   5.627
  136SOL    HW1 1307   2.875   4.400   5.548
  136SOL    HW2 1308   2.767   4.512   5.598
  137SOL     OW 1309   5.746   2.173   3.982
  137SOL    HW1 1310   5.806   2.114   3.929
  137SOL    HW2 1311   5.794   2.206   4.063
  138SOL     OW 1312   1.110   4.610   2.524
  138SOL    HW1 1313   1.023   4.640   2.562
  138SOL    HW2 1314   1.105   4.613   2.424
  139SOL     OW 1315   1.743   7.020   5.071
  139SOL    HW1 1316   1.825   7.014   5.128
  139SOL    HW2 1317   1.688   6.937   5.082
  140SOL     OW 1318   0.961   5.994   2.771
  140SOL    HW1 1319   0.966   6.006   2.870
  140SOL    HW2 1320   0.926   6.078   2.729
  141SOL     OW 1321   0.029   2.300   5.294
  141SOL    HW1 1322   6.966   2.353   5.298
  141SOL    HW2 1323   0.060   2.293   5.199
  142SOL     OW 1324   0.730   3.747   1.377
  142SOL    HW1 1325   0.782   3.833   1.376
  142SOL    HW2 1326   0.747   3.698   1.291
  143SOL     OW 1327   6.002   4.557   1.227
  143SOL    HW1 1328   6.089   4.507   1.230
  143SOL    HW2 1329   5.965   4.554   1.135
  144SOL     OW 1330   1.278   5.595   5.485
  144SOL    HW1 1331   1.346   5.544   5.538
  144SOL    HW2 1332   1.286   5.692   5.505
  145SOL     OW 1333   6.869   5.378   0.366
  145SOL    HW1 1334   6.925   5.401   0.445
  145SOL    HW2 1335   6.774   5.369   0.394
  146SOL     OW 1336   4.623   0.302   6.167
  146SOL    HW1 1337   4.653   0.225   6.111
  146SOL    HW2 1338   4.635   0.280   6.263
  147SOL     OW 1339   6.033   3.651   6.364
  147SOL    HW1 1340   5.998   3.617   6.451
  147SOL    HW2 1341   5.986   3.605   6.289
  148SOL     OW 1342   6.403   5.389   6.757
  148SOL    HW1 1343   6.458   5.333   6.695
  148SOL    HW2 1344   6.425   5.365   6.851
  149SOL     OW 1345   3.437   2.098   3.726
  149SOL    HW1 1346   3.370   2.125   3.657
  149SOL    HW2 1347   3.413   2.141   3.813
  150SOL     OW 1348   5.787   6.256   0.378
  150SOL    HW1 1349   5.872   6.289   0.336
  150SOL    HW2 1350   5.744   6.331   0.428
  151SOL     OW 1351   2.814   2.749   0.994
  151SOL    HW1 1352   2.843   2.777   0.903
  151SOL    HW2 1353   2.728   2.793   1.017
  152SOL     OW 1354   0.821   0.761   1.900
  152SOL    HW1 1355   0.741   0.736   1.954
  152SOL    HW2 1356   0.895   0.790   1.960
  153SOL     OW 1357   2.950   0.498   2.016
  153SOL    HW1 1358   2.975   0.571   2.080
  153SOL    HW2 1359   2.940   0.537   1.924
  154SOL     OW 1360   0.260   2.189   1.878
  154SOL    HW1 1361   0.202   2.209   1.800
  154SOL    HW2 1362   0.210   2.208   1.963
  155SOL     OW 1363   0.167   1.552   3.594
  155SOL    HW1 1364   0.188   1.529   3.499
  155SOL    HW2 1365   0.252   1.555   3.647
  156SOL     OW 1366   6.991   2.225   0.598
  156SOL    HW1 1367   6.979   2.178   0.686
  156SOL    HW2 1368   6.930   2.305   0.595
  157SOL     OW 1369   5.227   3.445   1.827
  157SOL    HW1 1370   5.162   3.374   1.856
  157SOL    HW2 1371   5.291   3.407   1.761
  158SOL     OW 1372   2.407   4.888   2.224
  158SOL    HW1 1373   2.436   4.867   2.131
  158SOL    HW2 1374   2.469   4.843   2.289
  159SOL     OW 1375   4.880   4.684   2.126
  159SOL    HW1 1376   4.818   4.622   2.079
  159SOL    HW2 1377   4.972   4.646   2.127
  160SOL     OW 1378   5.113   5.386   0.879
  160SOL    HW1 1379   5.198   5.343   0.909
  160SOL    HW2 1380   5.113   5.482   0.907
  161SOL     OW 1381   2.044   5.772   4.430
  161SOL    HW1 1382   1.969   5.756   4.494
  161SOL    HW2 1383   2.111   5.698   4.438
  162SOL     OW 1384   3.745   5.752   0.327
  162SOL    HW1 1385   3.728   5.786   0.234
  162SOL    HW2 1386   3.816   5.681   0.324
  163SOL     OW 1387   6.067   5.538   0.853
  163SOL    HW1 1388   6.041   5.474   0.781
  163SOL    HW2 1389   6.094   5.487   0.935
  164SOL     OW 1390   6.999   4.847   1.030
  164SOL    HW1 1391   0.074   4.845   1.004
  164SOL    HW2 1392   6.956   4.929   0.990
  165SOL     OW 1393   5.017   3.215   1.129
  165SOL    HW1 1394   5.078   3.288   1.161
  165SOL    HW2 1395   4.940   3.256   1.079
  166SOL     OW 1396   0.212   3.704   2.803
  166SOL    HW1 1397   0.234   3.631   2.868
  166SOL    HW2 1398   0.161   3.776   2.849
  167SOL     OW 1399   4.985   2.348   0.019
  167SOL    HW1 1400   4.955   2.398   6.959
  167SOL    HW2 1401   4.924   2.270   0.034
  168SOL     OW 1402   2.703   3.382   1.193
  168SOL    HW1 1403   2.658   3.470   1.207
  168SOL    HW2 1404   2.714   3.336   1.281
  169SOL     OW 1405   5.206   1.887   2.294
  169SOL    HW1 1406   5.172   1.876   2.387
  169SOL    HW2 1407   5.169   1.971   2.254
  170SOL     OW 1408   0.990   0.948   3.191
  170SOL    HW1 1409   1.052   0.886   3.239
  170SOL    HW2 1410   0.925   0.895   3.136
  171SOL     OW 1411   3.309   4.792   5.943
  171SOL    HW1 1412   3.223   4.750   5.975
  171SOL    HW2 1413   3.290   4.884   5.909
  172SOL     OW 1414   6.307   1.656   3.113
  172SOL    HW1 1415   6.326   1.698   3.024
  172SOL    HW2 1416   6.338   1.561   3.111
  173SOL     OW 1417   5.974   1.880   4.261
  173SOL    HW1 1418   5.953   1.796   4.312
  173SOL    HW2 1419   5.910   1.952   4.288
  174SOL     OW 1420   4.324   5.162   3.170
  174SOL    HW1 1421   4.278   5.251   3.165
  174SOL    HW2 1422   4.354   5.135   3.078
  175SOL     OW 1423   2.775   0.229   1.787
  175SOL    HW1 1424   2.752   0.133   1.799
  175SOL    HW2 1425   2.875   0.240   1.794
  176SOL     OW 1426   0.973   4.754   0.175
  176SOL    HW1 1427   1.070   4.735   0.189
  176SOL    HW2 1428   0.958   4.781   0.080
  177SOL     OW 1429   5.772   3.004   2.809
  177SOL    HW1 1430   5.836   3.049   2.747
  177SOL    HW2 1431   5.682   2.999   2.767
  178SOL     OW 1432   2.337   3.192   6.521
  178SOL    HW1 1433   2.333   3.256   6.598
  178SOL    HW2 1434   2.342   3.244   6.436
  179SOL     OW 1435   3.656   1.044   5.217
  179SOL    HW1 1436   3.675   0.975   5.287
  179SOL    HW2 1437   3.666   1.004   5.126
  180SOL     OW 1438   2.489   6.531   0.027
  180SOL    HW1 1439   2.515   6.450   6.996
  180SOL    HW2 1440   2.405   6.512   0.078
  181SOL     OW 1441   3.344   3.067   6.292
  181SOL    HW1 1442   3.437   3.079   6.257
  181SOL    HW2 1443   3.323   2.969   6.297
  182SOL     OW 1444   3.858   1.766   5.220
  182SOL    HW1 1445   3.762   1.738   5.208
  182SOL    HW2 1446   3.895   1.796   5.132
  183SOL     OW 1447   4.040   2.139   3.251
  183SOL    HW1 1448   4.105   2.214   3.240
  183SOL    HW2 1449   4.002   2.140   3.343
  184SOL     OW 1450   1.045   6.357   4.387
  184SOL    HW1 1451   1.032   6.369   4.288
  184SOL    HW2 1452   1.005   6.435   4.435
  185SOL     OW 1453   0.769   1.222   6.073
  185SOL    HW1 1454   0.801   1.317   6.072
  185SOL    HW2 1455   0.727   1.202   6.161
  186SOL     OW 1456   5.803   0.488   4.573
  186SOL    HW1 1457   5.900   0.486   4.547
  186SOL    HW2 1458   5.795   0.486   4.672
  187SOL     OW 1459   4.323   0.046   2.295
  187SOL    HW1 1460   4.393   7.002   2.322
  187SOL    HW2 1461   4.279   0.084   2.377
  188SOL     OW 1462   0.537   2.004   3.625
  188SOL    HW1 1463   0.624   2.052   3.614
  188SOL    HW2 1464   0.496   1.987   3.535
  189SOL     OW 1465   2.298   5.482   1.315
  189SOL    HW1 1466   2.317   5.550   1.385
  189SOL    HW2 1467   2.284   5.393   1.358
  190SOL     OW 1468   5.270   2.626   4.804
  190SOL    HW1 1469   5.203   2.590   4.739
  190SOL    HW2 1470   5.227   2.636   4.894
  191SOL     OW 1471   5.847   0.191   6.731
  191SOL    HW1 1472   5.883   0.198   6.638
  191SOL    HW2 1473   5.790   0.270   6.751
  192SOL     OW 1474   1.252   5.787   2.187
  192SOL    HW1 1475   1.321   5.719   2.166
  192SOL    HW2 1476   1.172   5.773   2.128
  193SOL     OW 1477   4.130   3.122   5.773
  193SOL    HW1 1478   4.085   3.044   5.730
  193SOL    HW2 1479   4.220   3.135   5.733
  194SOL     OW 1480   4.158   0.742   2.934
  194SOL    HW1 1481   4.195   0.708   3.021
  194SOL    HW2 1482   4.163   0.841   2.932
  195SOL     OW 1483   2.046   0.137   5.044
  195SOL    HW1 1484   2.104   0.145   5.125
  195SOL    HW2 1485   1.986   0.217   5.039
  196SOL     OW 1486   2.892   0.255   0.731
  196SOL    HW1 1487   2.896   0.255   0.830
  196SOL    HW2 1488   2.865   0.346   0.698
  197SOL     OW 1489   2.744   0.321   1.529
  197SOL    HW1 1490   2.691   0.248   1.485
  197SOL    HW2 1491   2.757   0.299   1.625
  198SOL     OW 1492   4.878   0.619   2.043
  198SOL    HW1 1493   4.964   0.570   2.058
  198SOL    HW2 1494   4.846   0.603   1.950
  199SOL     OW 1495   6.975   1.653   3.733
  199SOL    HW1 1496   6.995   1.647   3.830
  199SOL    HW2 1497   0.034   1.627   3.680
  200SOL     OW 1498   1.181   4.709   1.276
  200SOL    HW1 1499   1.243   4.633   1.294
  200SOL    HW2 1500   1.093   4.673   1.246
  201SOL     OW 1501   6.966   0.279   5.532
  201SOL    HW1 1502   6.921   0.358   5.573
  201SOL    HW2 1503   0.010   0.310   5.463
  202SOL     OW 1504   4.688   1.213   0.046
  202SOL    HW1 1505   4.616   1.251   7.009
  202SOL    HW2 1506   4.770   1.196   7.013
  203SOL     OW 1507   5.455   2.267   5.125
  203SOL    HW1 1508   5.462   2.230   5.032
  203SOL    HW2 1509   5.493   2.202   5.190
  204SOL     OW 1510   1.190   0.174   5.375
  204SOL    HW1 1511   1.096   0.200   5.349
  204SOL    HW2 1512   1.217   0.226   5.456
  205SOL     OW 1513   0.427   1.567   2.893
  205SOL    HW1 1514   0.368   1.585   2.972
  205SOL    HW2 1515   0.378   1.511   2.826
  206SOL     OW 1516   0.505   4.672   0.404
  206SOL    HW1 1517   0.412   4.682   0.439
  206SOL    HW2 1518   0.505   4.608   0.327
  207SOL     OW 1519   6.321   1.289   3.941
  207SOL    HW1 1520   6.328   1.313   4.038
  207SOL    HW2 1521   6.311   1.372   3.887
  208SOL     OW 1522   6.366   3.600   4.704
  208SOL    HW1 1523   6.379   3.690   4.746
  208SOL    HW2 1524   6.450   3.546   4.712
  209SOL     OW 1525   0.479   5.284   4.324
  209SOL    HW1 1526   0.553   5.270   4.258
  209SOL    HW2 1527   0.494   5.225   4.404
  210SOL     OW 1528   4.244   2.219   0.441
  210SOL    HW1 1529   4.265   2.267   0.526
  210SOL    HW2 1530   4.305   2.141   0.431
  211SOL     OW 1531   2.208   6.303   2.395
  211SOL    HW1 1532   2.127   6.253   2.364
  211SOL    HW2 1533   2.212   6.300   2.495
  212SOL     OW 1534   1.186   4.116   2.071
  212SOL    HW1 1535   1.256   4.049   2.091
  212SOL    HW2 1536   1.132   4.085   1.992
  213SOL     OW 1537   3.153   0.580   0.645
  213SOL    HW1 1538   3.116   0.580   0.552
  213SOL    HW2 1539   3.223   0.651   0.653
  214SOL     OW 1540   4.503   4.847   1.895
  214SOL    HW1 1541   4.568   4.826   1.823
  214SOL    HW2 1542   4.416   4.876   1.855
  215SOL     OW 1543   2.089   4.184   0.721
  215SOL    HW1 1544   2.144   4.266   0.708
  215SOL    HW2 1545   2.094   4.155   0.816
  216SOL     OW 1546   2.293   6.340   4.237
  216SOL    HW1 1547   2.244   6.387   4.311
  216SOL    HW2 1548   2.244   6.257   4.213
  217SOL     OW 1549   1.711   2.169   3.783
  217SOL    HW1 1550   1.722   2.253   3.729
  217SOL    HW2 1551   1.701   2.091   3.722
  218SOL     OW 1552   0.141   3.543   4.326
  218SOL    HW1 1553   0.125   3.593   4.411
  218SOL    HW2 1554   0.165   3.448   4.346
  219SOL     OW 1555   4.523   0.441   6.753
  219SOL    HW1 1556   4.433   0.435   6.711
  219SOL    HW2 1557   4.571   0.521   6.716
  220SOL     OW 1558   3.123   6.745   1.659
  220SOL    HW1 1559   3.179   6.752   1.577
  220SOL    HW2 1560   3.055   6.819   1.660
  221SOL     OW 1561   6.767   3.720   0.935
  221SOL    HW1 1562   6.786   3.693   1.029
  221SOL    HW2 1563   6.789   3.644   0.873
  222SOL     OW 1564   1.824   4.760   5.947
  222SOL    HW1 1565   1.923   4.773   5.953
  222SOL    HW2 1566   1.778   4.848   5.956
  223SOL     OW 1567   6.216   3.271   6.578
  223SOL    HW1 1568   6.244   3.365   6.561
  223SOL    HW2 1569   6.255   3.211   6.508
  224SOL     OW 1570   2.227   1.826   4.577
  224SOL    HW1 1571   2.268   1.822   4.668
  224SOL    HW2 1572   2.296   1.803   4.508
  225SOL     OW 1573   4.279   3.753   6.520
  225SOL    HW1 1574   4.250   3.696   6.597
  225SOL    HW2 1575   4.273   3.700   6.435
  226SOL     OW 1576   1.704   1.435   5.452
  226SOL    HW1 1577   1.652   1.432   5.367
  226SOL    HW2 1578   1.689   1.523   5.497
  227SOL     OW 1579   1.615   3.736   2.154
  227SOL    HW1 1580   1.548   3.787   2.209
  227SOL    HW2 1581   1.584   3.642   2.143
  228SOL     OW 1582   3.325   6.624   3.803
  228SOL    HW1 1583   3.244   6.590   3.756
  228SOL    HW2 1584   3.302   6.645   3.898
  229SOL     OW 1585   5.985   6.028   6.939
  229SOL    HW1 1586   6.063   6.090   6.950
  229SOL    HW2 1587   6.004   5.964   6.865
  230SOL     OW 1588   3.349   5.050   3.640
  230SOL    HW1 1589   3.271   5.085   3.588
  230SOL    HW2 1590   3.317   5.011   3.726
  231SOL     OW 1591   6.520   1.996   6.828
  231SOL    HW1 1592   6.587   1.990   6.754
  231SOL    HW2 1593   6.428   2.007   6.789
  232SOL     OW 1594   0.735   3.143   6.804
  232SOL    HW1 1595   0.785   3.147   6.890
  232SOL    HW2 1596   0.648   3.191   6.814
  233SOL     OW 1597   3.129   1.426   2.495
  233SOL    HW1 1598   3.216   1.392   2.529
  233SOL    HW2 1599   3.059   1.414   2.565
  234SOL     OW 1600   5.438   0.612   5.671
  234SOL    HW1 1601   5.352   0.658   5.692
  234SOL    HW2 1602   5.429   0.514   5.690
  235SOL     OW 1603   3.749   2.487   1.477
  235SOL    HW1 1604   3.829   2.427   1.466
  235SOL    HW2 1605   3.706   2.468   1.565
  236SOL     OW 1606   5.213   2.804   6.223
  236SOL    HW1 1607   5.312   2.796   6.211
  236SOL    HW2 1608   5.189   2.788   6.318
  237SOL     OW 1609   6.270   4.615   1.860
  237SOL    HW1 1610   6.370   4.625   1.855
  237SOL    HW2 1611   6.228   4.662   1.782
  238SOL     OW 1612   5.431   2.106   0.535
  238SOL    HW1 1613   5.364   2.098   0.461
  238SOL    HW2 1614   5.445   2.202   0.558
  239SOL     OW 1615   0.684   5.046   0.093
  239SOL    HW1 1616   0.727   4.957   0.078
  239SOL    HW2 1617   0.587   5.034   0.111
  240SOL     OW 1618   6.729   2.864   3.574
  240SOL    HW1 1619   6.797   2.917   3.523
  240SOL    HW2 1620   6.760   2.853   3.669
  241SOL     OW 1621   2.630   2.231   5.193
  241SOL    HW1 1622   2.654   2.170   5.118
  241SOL    HW2 1623   2.531   2.230   5.207
  242SOL     OW 1624   3.251   3.695   4.206
  242SOL    HW1 1625   3.163   3.738   4.186
  242SOL    HW2 1626   3.248   3.656   4.298
  243SOL     OW 1627   4.259   0.597   5.965
  243SOL    HW1 1628   4.265   0.497   5.975
  243SOL    HW2 1629   4.348   0.638   5.984
  244SOL     OW 1630   6.146   2.484   4.948
  244SOL    HW1 1631   6.133   2.543   5.028
  244SOL    HW2 1632   6.182   2.539   4.872
  245SOL     OW 1633   5.444   3.528   3.895
  245SOL    HW1 1634   5.448   3.445   3.839
  245SOL    HW2 1635   5.439   3.502   3.992
  246SOL     OW 1636   4.588   2.533   3.604
  246SOL    HW1 1637   4.576   2.553   3.506
  246SOL    HW2 1638   4.507   2.485   3.638
  247SOL     OW 1639   2.932   1.904   1.394
  247SOL    HW1 1640   2.986   1.861   1.323
  247SOL    HW2 1641   2.991   1.959   1.453
  248SOL     OW 1642   3.543   1.131   2.316
  248SOL    HW1 1643   3.580   1.142   2.223
  248SOL    HW2 1644   3.592   1.192   2.378
  249SOL     OW 1645   3.856   0.121   4.588
  249SOL    HW1 1646   3.800   0.047   4.549
  249SOL    HW2 1647   3.815   0.209   4.565
  250SOL     OW 1648   4.931   2.704   0.356
  250SOL    HW1 1649   4.905   2.659   0.270
  250SOL    HW2 1650   4.849   2.717   0.412
  251SOL     OW 1651   4.822   4.092   5.758
  251SOL    HW1 1652   4.877   4.060   5.680
  251SOL    HW2 1653   4.728   4.107   5.727
  252SOL     OW 1654   6.533   6.081   0.178
  252SOL    HW1 1655   6.552   6.046   0.087
  252SOL    HW2 1656   6.488   6.170   0.171
  253SOL     OW 1657   2.211   5.875   6.260
  253SOL    HW1 1658   2.121   5.879   6.304
  253SOL    HW2 1659   2.280   5.845   6.326
  254SOL     OW 1660   5.540   2.599   3.578
  254SOL    HW1 1661   5.580   2.603   3.669
  254SOL    HW2 1662   5.444   2.573   3.584
  255SOL     OW 1663   1.716   4.599   5.318
  255SOL    HW1 1664   1.739   4.689   5.281
  255SOL    HW2 1665   1.801   4.550   5.339
  256SOL     OW 1666   6.164   3.482   6.081
  256SOL    HW1 1667   6.232   3.554   6.097
  256SOL    HW2 1668   6.201   3.394   6.110
  257SOL     OW 1669   4.773   0.445   3.524
  257SOL    HW1 1670   4.692   0.424   3.580
  257SOL    HW2 1671   4.766   0.395   3.437
  258SOL     OW 1672   2.026   5.043   4.850
  258SOL    HW1 1673   2.106   4.993   4.884
  258SOL    HW2 1674   1.961   5.056   4.924
  259SOL     OW 1675   0.739   1.946   2.402
  259SOL    HW1 1676   0.695   1.981   2.485
  259SOL    HW2 1677   0.688   1.979   2.322
  260SOL     OW 1678   4.761   0.550   1.194
  260SOL    HW1 1679   4.824   0.522   1.267
  260SOL    HW2 1680   4.734   0.470   1.141
  261SOL     OW 1681   6.787   3.479   0.791
  261SOL    HW1 1682   6.749   3.479   0.698
  261SOL    HW2 1683   6.885   3.493   0.787
  262SOL     OW 1684   0.345   3.959   0.335
  262SOL    HW1 1685   0.262   4.002   0.371
  262SOL    HW2 1686   0.405   3.935   0.411
  263SOL     OW 1687   1.870   0.683   3.807
  263SOL    HW1 1688   1.950   0.727   3.848
  263SOL    HW2 1689   1.859   0.591   3.845
  264SOL     OW 1690   6.295   3.063   6.388
  264SOL    HW1 1691   6.389   3.029   6.384
  264SOL    HW2 1692   6.232   2.986   6.396
  265SOL     OW 1693   5.255   6.550   2.271
  265SOL    HW1 1694   5.334   6.504   2.311
  265SOL    HW2 1695   5.181   6.553   2.339
  266SOL     OW 1696   3.282   2.680   5.798
  266SOL    HW1 1697   3.317   2.743   5.867
  266SOL    HW2 1698   3.183   2.687   5.793
  267SOL     OW 1699   0.528   1.306   6.737
  267SOL    HW1 1700   0.589   1.257   6.676
  267SOL    HW2 1701   0.553   1.288   6.832
  268SOL     OW 1702   3.209   0.617   5.782
  268SOL    HW1 1703   3.213   0.517   5.791
  268SOL    HW2 1704   3.174   0.641   5.692
  269SOL     OW 1705   0.836   3.362   2.013
  269SOL    HW1 1706   0.810   3.453   1.980
  269SOL    HW2 1707   0.935   3.359   2.027
  270SOL     OW 1708   1.148   0.067   0.667
  270SOL    HW1 1709   1.178   0.139   0.730
  270SOL    HW2 1710   1.056   0.089   0.633
  271SOL     OW 1711   0.154   1.715   6.599
  271SOL    HW1 1712   0.135   1.645   6.669
  271SOL    HW2 1713   0.109   1.800   6.625
  272SOL     OW 1714   3.302   5.441   4.418
  272SOL    HW1 1715   3.273   5.517   4.359
  272SOL    HW2 1716   3.384   5.399   4.380
  273SOL     OW 1717   1.805   4.469   4.814
  273SOL    HW1 1718   1.867   4.426   4.748
  273SOL    HW2 1719   1.819   4.429   4.904
  274SOL     OW 1720   4.299   1.943   3.138
  274SOL    HW1 1721   4.278   2.015   3.072
  274SOL    HW2 1722   4.215   1.909   3.178
  275SOL     OW 1723   5.684   4.420   5.301
  275SOL    HW1 1724   5.768   4.409   5.247
  275SOL    HW2 1725   5.702   4.481   5.378
  276SOL     OW 1726   0.323   6.577   2.736
  276SOL    HW1 1727   0.307   6.509   2.665
  276SOL    HW2 1728   0.335   6.667   2.694
  277SOL     OW 1729   1.116   4.113   0.468
  277SOL    HW1 1730   1.134   4.021   0.504
  277SOL    HW2 1731   1.036   4.108   0.407
  278SOL     OW 1732   6.121   5.140   2.124
  278SOL    HW1 1733   6.101   5.172   2.031
  278SOL    HW2 1734   6.220   5.137   2.137
  279SOL     OW 1735   6.509   2.856   4.232
  279SOL    HW1 1736   6.584   2.822   4.287
  279SOL    HW2 1737   6.478   2.784   4.169
  280SOL     OW 1738   3.018   6.911   2.768
  280SOL    HW1 1739   2.966   6.977   2.822
  280SOL    HW2 1740   2.963   6.882   2.690
  281SOL     OW 1741   2.547   4.617   2.064
  281SOL    HW1 1742   2.481   4.668   2.010
  281SOL    HW2 1743   2.640   4.641   2.035
  282SOL     OW 1744   3.186   1.647   5.560
  282SOL    HW1 1745   3.126   1.633   5.481
  282SOL    HW2 1746   3.280   1.659   5.528
  283SOL     OW 1747   6.144   1.286   6.833
  283SOL    HW1 1748   6.218   1.258   6.772
  283SOL    HW2 1749   6.183   1.319   6.919
  284SOL     OW 1750   1.425   3.976   3.460
  284SOL    HW1 1751   1.337   4.001   3.420
  284SOL    HW2 1752   1.414   3.898   3.521
  285SOL     OW 1753   6.158   4.663   5.174
  285SOL    HW1 1754   6.149   4.763   5.176
  285SOL    HW2 1755   6.206   4.632   5.255
  286SOL     OW 1756   3.609   5.511   5.380
  286SOL    HW1 1757   3.648   5.560   5.303
  286SOL    HW2 1758   3.647   5.547   5.465
  287SOL     OW 1759   0.241   4.433   0.281
  287SOL    HW1 1760   0.154   4.385   0.287
  287SOL    HW2 1761   0.316   4.366   0.278
  288SOL     OW 1762   4.044   1.127   5.890
  288SOL    HW1 1763   4.039   1.177   5.977
  288SOL    HW2 1764   4.127   1.154   5.841
  289SOL     OW 1765   0.041   4.373   4.993
  289SOL    HW1 1766   7.002   4.434   4.942
  289SOL    HW2 1767   0.058   4.412   5.083
  290SOL     OW 1768   5.904   1.864   4.736
  290SOL    HW1 1769   5.917   1.771   4.771
  290SOL    HW2 1770   5.993   1.904   4.716
  291SOL     OW 1771   1.570   2.424   4.659
  291SOL    HW1 1772   1.479   2.394   4.629
  291SOL    HW2 1773   1.634   2.420   4.583
  292SOL     OW 1774   1.363   2.165   3.319
  292SOL    HW1 1775   1.323   2.091   3.373
  292SOL    HW2 1776   1.380   2.132   3.226
  293SOL     OW 1777   4.433   5.113   1.758
  293SOL    HW1 1778   4.470   5.105   1.666
  293SOL    HW2 1779   4.352   5.055   1.767
  294SOL     OW 1780   0.219   5.464   6.140
  294SOL    HW1 1781   0.262   5.538   6.193
  294SOL    HW2 1782   0.204   5.385   6.200
  295SOL     OW 1783   3.550   2.034   4.269
  295SOL    HW1 1784   3.496   2.043   4.353
  295SOL    HW2 1785   3.643   2.067   4.286
  296SOL     OW 1786   4.267   1.653   2.587
  296SOL    HW1 1787   4.356   1.691   2.610
  296SOL    HW2 1788   4.202   1.728   2.570
  297SOL     OW 1789   2.177   4.689   2.830
  297SOL    HW1 1790   2.105   4.714   2.895
  297SOL    HW2 1791   2.173   4.750   2.751
  298SOL     OW 1792   4.318   6.438   0.849
  298SOL    HW1 1793   4.327   6.351   0.897
  298SOL    HW2 1794   4.409   6.476   0.831
  299SOL     OW 1795   5.058   3.448   5.880
  299SOL    HW1 1796   5.142   3.406   5.914
  299SOL    HW2 1797   4.986   3.378   5.874
  300SOL     OW 1798   6.393   0.871   1.605
  300SOL    HW1 1799   6.401   0.773   1.624
  300SOL    HW2 1800   6.328   0.886   1.531
  301SOL     OW 1801   4.946   3.367   1.522
  301SOL    HW1 1802   4.990   3.280   1.545
  301SOL    HW2 1803   4.901   3.359   1.433
  302SOL     OW 1804   1.208   0.683   3.424
  302SOL    HW1 1805   1.240   0.705   3.332
  302SOL    HW2 1806   1.166   0.593   3.425
  303SOL     OW 1807   6.036   0.998   1.756
  303SOL    HW1 1808   5.949   0.957   1.728
  303SOL    HW2 1809   6.025   1.041   1.846
  304SOL     OW 1810   2.699   0.091   3.991
  304SOL    HW1 1811   2.607   0.131   3.990
  304SOL    HW2 1812   2.704   0.017   3.925
  305SOL     OW 1813   0.189   3.519   0.304
  305SOL    HW1 1814   0.192   3.614   0.273
  305SOL    HW2 1815   0.282   3.487   0.322
  306SOL     OW 1816   2.419   1.281   3.426
  306SOL    HW1 1817   2.324   1.271   3.399
  306SOL    HW2 1818   2.425   1.291   3.525
  307SOL     OW 1819   4.807   0.368   0.647
  307SOL    HW1 1820   4.766   0.352   0.558
  307SOL    HW2 1821   4.808   0.283   0.699
  308SOL     OW 1822   6.085   2.916   4.816
  308SOL    HW1 1823   6.140   2.995   4.788
  308SOL    HW2 1824   6.046   2.933   4.906
  309SOL     OW 1825   3.052   5.097   6.697
  309SOL    HW1 1826   2.994   5.176   6.679
  309SOL    HW2 1827   3.025   5.056   6.784
  310SOL     OW 1828   6.000   6.909   4.956
  310SOL    HW1 1829   5.962   6.873   4.871
  310SOL    HW2 1830   5.980   6.844   5.030
  311SOL     OW 1831   5.863   4.672   1.679
  311SOL    HW1 1832   5.857   4.717   1.768
  311SOL    HW2 1833   5.879   4.741   1.608
  312SOL     OW 1834   4.325   1.513   5.679
  312SOL    HW1 1835   4.399   1.523   5.613
  312SOL    HW2 1836   4.286   1.603   5.699
  313SOL     OW 1837   3.351   4.253   1.685
  313SOL    HW1 1838   3.421   4.232   1.753
  313SOL    HW2 1839   3.354   4.350   1.662
  314SOL     OW 1840   3.386   4.820   6.838
  314SOL    HW1 1841   3.463   4.883   6.823
  314SOL    HW2 1842   3.311   4.845   6.777
  315SOL     OW 1843   1.035   2.912   3.752
  315SOL    HW1 1844   1.104   2.985   3.753
  315SOL    HW2 1845   1.025   2.874   3.844
  316SOL     OW 1846   2.984   1.700   4.077
  316SOL    HW1 1847   2.990   1.758   3.996
  316SOL    HW2 1848   2.983   1.604   4.048
  317SOL     OW 1849   0.578   0.561   0.862
  317SOL    HW1 1850   0.581   0.628   0.937
  317SOL    HW2 1851   0.646   0.586   0.793
  318SOL     OW 1852   1.344   6.553   0.082
  318SOL    HW1 1853   1.291   6.473   0.055
  318SOL    HW2 1854   1.415   6.525   0.146
  319SOL     OW 1855   6.977   0.350   4.067
  319SOL    HW1 1856   7.008   0.362   3.972
  319SOL    HW2 1857   7.001   0.431   4.120
  320SOL     OW 1858   6.143   1.943   0.498
  320SOL    HW1 1859   6.068   1.914   0.558
  320SOL    HW2 1860   6.157   1.874   0.428
  321SOL     OW 1861   3.765   1.486   1.056
  321SOL    HW1 1862   3.810   1.406   1.016
  321SOL    HW2 1863   3.834   1.548   1.092
  322SOL     OW 1864   3.754   4.133   4.689
  322SOL    HW1 1865   3.658   4.136   4.715
  322SOL    HW2 1866   3.763   4.151   4.591
  323SOL     OW 1867   0.590   3.754   6.134
  323SOL    HW1 1868   0.506   3.793   6.170
  323SOL    HW2 1869   0.653   3.827   6.111
  324SOL     OW 1870   2.493   2.268   3.745
  324SOL    HW1 1871   2.586   2.299   3.727
  324SOL    HW2 1872   2.434   2.292   3.668
  325SOL     OW 1873   1.177   2.916   1.604
  325SOL    HW1 1874   1.265   2.886   1.643
  325SOL    HW2 1875   1.192   2.994   1.545
  326SOL     OW 1876   0.986   4.679   6.804
  326SOL    HW1 1877   1.001   4.767   6.850
  326SOL    HW2 1878   1.061   4.662   6.740
  327SOL     OW 1879   1.808   5.101   3.708
  327SOL    HW1 1880   1.827   5.017   3.758
  327SOL    HW2 1881   1.832   5.089   3.611
  328SOL     OW 1882   1.598   6.315   1.821
  328SOL    HW1 1883   1.688   6.298   1.861
  328SOL    HW2 1884   1.537   6.238   1.840
  329SOL     OW 1885   3.884   4.078   4.425
  329SOL    HW1 1886   3.963   4.018   4.422
  329SOL    HW2 1887   3.806   4.033   4.381
  330SOL     OW 1888   3.030   6.989   0.947
  330SOL    HW1 1889   2.986   0.052   0.976
  330SOL    HW2 1890   3.107   6.969   1.008
  331SOL     OW 1891   3.880   5.507   0.314
  331SOL    HW1 1892   3.845   5.426   0.362
  331SOL    HW2 1893   3.972   5.528   0.347
  332SOL     OW 1894   2.900   1.417   4.647
  332SOL    HW1 1895   2.984   1.375   4.612
  332SOL    HW2 1896   2.835   1.346   4.673
  333SOL     OW 1897   3.603   6.657   6.249
  333SOL    HW1 1898   3.522   6.613   6.286
  333SOL    HW2 1899   3.628   6.735   6.306
  334SOL     OW 1900   2.589   0.594   1.447
  334SOL    HW1 1901   2.656   0.522   1.464
  334SOL    HW2 1902   2.591   0.620   1.351
  335SOL     OW 1903   3.481   0.081   4.080
  335SOL    HW1 1904   3.539   0.082   3.998
  335SOL    HW2 1905   3.511   0.007   4.140
  336SOL     OW 1906   2.600   1.210   3.853
  336SOL    HW1 1907   2.676   1.267   3.822
  336SOL    HW2 1908   2.590   1.217   3.952
  337SOL     OW 1909   0.057   3.308   0.565
  337SOL    HW1 1910   0.117   3.227   0.566
  337SOL    HW2 1911   0.001   3.306   0.483
  338SOL     OW 1912   3.296   3.024   1.619
  338SOL    HW1 1913   3.258   2.931   1.616
  338SOL    HW2 1914   3.381   3.026   1.566
  339SOL     OW 1915   3.390   6.270   4.532
  339SOL    HW1 1916   3.397   6.328   4.613
  339SOL    HW2 1917   3.478   6.226   4.515
  340SOL     OW 1918   4.983   4.425   5.672
  340SOL    HW1 1919   4.944   4.396   5.759
  340SOL    HW2 1920   4.956   4.520   5.652
  341SOL     OW 1921   6.672   0.690   4.548
  341SOL    HW1 1922   6.662   0.592   4.533
  341SOL    HW2 1923   6.649   0.712   4.643
  342SOL     OW 1924   5.835   3.810   6.649
  342SOL    HW1 1925   5.776   3.847   6.721
  342SOL    HW2 1926   5.912   3.873   6.633
  343SOL     OW 1927   1.915   5.688   0.609
  343SOL    HW1 1928   1.856   5.620   0.651
  343SOL    HW2 1929   2.010   5.672   0.636
  344SOL     OW 1930   1.361   4.734   2.443
  344SOL    HW1 1931   1.372   4.833   2.452
  344SOL    HW2 1932   1.286   4.703   2.502
  345SOL     OW 1933   6.342   1.315   4.844
  345SOL    HW1 1934   6.439   1.292   4.838
  345SOL    HW2 1935   6.332   1.415   4.851
  346SOL     OW 1936   1.602   0.141   2.635
  346SOL    HW1 1937   1.605   0.158   2.734
  346SOL    HW2 1938   1.695   0.139   2.598
  347SOL     OW 1939   3.173   5.764   6.258
  347SOL    HW1 1940   3.174   5.668   6.232
  347SOL    HW2 1941   3.256   5.786   6.308
  348SOL     OW 1942   5.370   5.209   1.177
  348SOL    HW1 1943   5.281   5.236   1.215
  348SOL    HW2 1944   5.437   5.202   1.252
  349SOL     OW 1945   6.449   4.429   1.028
  349SOL    HW1 1946   6.545   4.429   1.001
  349SOL    HW2 1947   6.403   4.509   0.989
  350SOL     OW 1948   3.621   2.928   0.907
  350SOL    HW1 1949   3.707   2.962   0.946
  350SOL    HW2 1950   3.547   2.941   0.973
  351SOL     OW 1951   2.306   2.984   0.497
  351SOL    HW1 1952   2.217   2.957   0.533
  351SOL    HW2 1953   2.321   2.940   0.408
  352SOL     OW 1954   3.584   0.423   4.747
  352SOL    HW1 1955   3.637   0.496   4.790
  352SOL    HW2 1956   3.505   0.401   4.804
  353SOL     OW 1957   2.665   6.938   0.661
  353SOL    HW1 1958   2.622   6.955   0.572
  353SOL    HW2 1959   2.621   6.996   0.731
  354SOL     OW 1960   3.358   2.424   0.053
  354SOL    HW1 1961   3.367   2.495   0.123
  354SOL    HW2 1962   3.379   2.335   0.093
  355SOL     OW 1963   0.074   3.000   2.710
  355SOL    HW1 1964   7.012   3.004   2.765
  355SOL    HW2 1965   0.060   3.052   2.625
  356SOL     OW 1966   3.955   5.655   5.325
  356SOL    HW1 1967   4.000   5.567   5.313
  356SOL    HW2 1968   4.024   5.726   5.338
  357SOL     OW 1969   6.275   6.620   5.294
  357SOL    HW1 1970   6.272   6.527   5.330
  357SOL    HW2 1971   6.245   6.685   5.364
  358SOL     OW 1972   5.586   0.142   1.930
  358SOL    HW1 1973   5.684   0.159   1.937
  358SOL    HW2 1974   5.552   0.108   2.018
  359SOL     OW 1975   1.615   2.150   2.217
  359SOL    HW1 1976   1.536   2.093   2.238
  359SOL    HW2 1977   1.640   2.138   2.120
  360SOL     OW 1978   1.389   5.701   6.705
  360SOL    HW1 1979   1.292   5.709   6.683
  360SOL    HW2 1980   1.399   5.662   6.797
  361SOL     OW 1981   5.476   5.843   3.114
  361SOL    HW1 1982   5.570   5.825   3.142
  361SOL    HW2 1983   5.457   5.797   3.028
  362SOL     OW 1984   3.864   4.092   1.281
  362SOL    HW1 1985   3.960   4.081   1.258
  362SOL    HW2 1986   3.808   4.072   1.200
  363SOL     OW 1987   4.632   4.485   3.413
  363SOL    HW1 1988   4.638   4.402   3.358
  363SOL    HW2 1989   4.587   4.463   3.500
  364SOL     OW 1990   6.798   5.479   6.131
  364SOL    HW1 1991   6.717   5.538   6.133
  364SOL    HW2 1992   6.777   5.395   6.082
  365SOL     OW 1993   5.104   5.050   2.168
  365SOL    HW1 1994   5.015   5.023   2.132
  365SOL    HW2 1995   5.147   4.972   2.213
  366SOL     OW 1996   6.384   0.631   0.155
  366SOL    HW1 1997   6.454   0.669   0.095
  366SOL    HW2 1998   6.421   0.556   0.208
  367SOL     OW 1999   4.937   2.975   1.196
  367SOL    HW1 2000   4.975   3.067   1.186
  367SOL    HW2 2001   4.924   2.934   1.106
  368SOL     OW 2002   0.446   3.320   4.718
  368SOL    HW1 2003   0.469   3.256   4.790
  368SOL    HW2 2004   0.481   3.411   4.742
  369SOL     OW 2005   0.077   5.001   1.421
  369SOL    HW1 2006   0.109   5.094   1.438
  369SOL    HW2 2007   0.041   4.962   1.506
  370SOL     OW 2008   2.898   1.329   5.224
  370SOL    HW1 2009   2.870   1.413   5.271
  370SOL    HW2 2010   2.996   1.313   5.237
  371SOL     OW 2011   2.493   3.473   6.556
  371SOL    HW1 2012   2.540   3.499   6.471
  371SOL    HW2 2013   2.395   3.491   6.546
  372SOL     OW 2014   0.174   0.301   5.321
  372SOL    HW1 2015   0.172   0.205   5.292
  372SOL    HW2 2016   0.200   0.359   5.245
  373SOL     OW 2017   6.219   5.975   5.292
  373SOL    HW1 2018   6.254   5.980   5.199
  373SOL    HW2 2019   6.125   6.011   5.295
  374SOL     OW 2020   3.387   0.497   2.210
  374SOL    HW1 2021   3.362   0.544   2.125
  374SOL    HW2 2022   3.310   0.501   2.274
  375SOL     OW 2023   0.881   4.719   3.685
  375SOL    HW1 2024   0.788   4.741   3.656
  375SOL    HW2 2025   0.914   4.638   3.635
  376SOL     OW 2026   1.955   2.821   4.379
  376SOL    HW1 2027   1.894   2.815   4.458
  376SOL    HW2 2028   1.984   2.917   4.366
  377SOL     OW 2029   7.017   2.758   2.271
  377SOL    HW1 2030   6.983   2.684   2.329
  377SOL    HW2 2031   0.095   2.763   2.278
  378SOL     OW 2032   3.471   3.052   5.525
  378SOL    HW1 2033   3.493   3.111   5.447
  378SOL    HW2 2034   3.497   2.958   5.504
  379SOL     OW 2035   6.514   4.363   2.112
  379SOL    HW1 2036   6.590   4.304   2.086
  379SOL    HW2 2037   6.523   4.451   2.065
  380SOL     OW 2038   2.609   1.119   2.045
  380SOL    HW1 2039   2.689   1.062   2.063
  380SOL    HW2 2040   2.635   1.215   2.050
  381SOL     OW 2041   1.903   4.413   1.940
  381SOL    HW1 2042   1.909   4.513   1.937
  381SOL    HW2 2043   1.924   4.381   2.032
  382SOL     OW 2044   5.336   6.240   6.302
  382SOL    HW1 2045   5.414   6.293   6.334
  382SOL    HW2 2046   5.251   6.281   6.335
  383SOL     OW 2047   5.754   3.061   6.052
  383SOL    HW1 2048   5.821   3.020   6.114
  383SOL    HW2 2049   5.683   3.107   6.106
  384SOL     OW 2050   6.707   4.228   4.438
  384SOL    HW1 2051   6.626   4.225   4.497
  384SOL    HW2 2052   6.762   4.308   4.461
  385SOL     OW 2053   4.081   6.238   6.409
  385SOL    HW1 2054   4.010   6.301   6.442
  385SOL    HW2 2055   4.058   6.207   6.317
  386SOL     OW 2056   3.256   6.837   5.078
  386SOL    HW1 2057   3.308   6.914   5.041
  386SOL    HW2 2058   3.176   6.821   5.021
  387SOL     OW 2059   6.870   6.359   3.393
  387SOL    HW1 2060   6.818   6.373   3.477
  387SOL    HW2 2061   6.944   6.426   3.388
  388SOL     OW 2062   0.530   2.907   3.658
  388SOL    HW1 2063   0.495   2.823   3.698
  388SOL    HW2 2064   0.622   2.891   3.621
  389SOL     OW 2065   4.192   4.130   1.700
  389SOL    HW1 2066   4.120   4.088   1.755
  389SOL    HW2 2067   4.257   4.178   1.759
  390SOL     OW 2068   3.572   1.379   0.261
  390SOL    HW1 2069   3.638   1.417   0.196
  390SOL    HW2 2070   3.495   1.339   0.211
  391SOL     OW 2071   2.432   4.080   5.386
  391SOL    HW1 2072   2.394   4.170   5.363
  391SOL    HW2 2073   2.456   4.031   5.303
  392SOL     OW 2074   1.783   3.437   2.131
  392SOL    HW1 2075   1.708   3.426   2.196
  392SOL    HW2 2076   1.870   3.441   2.181
  393SOL     OW 2077   1.269   5.481   0.349
  393SOL    HW1 2078   1.226   5.572   0.351
  393SOL    HW2 2079   1.348   5.483   0.289
  394SOL     OW 2080   1.319   3.071   0.156
  394SOL    HW1 2081   1.330   3.025   0.068
  394SOL    HW2 2082   1.260   3.151   0.145
  395SOL     OW 2083   5.215   4.174   2.661
  395SOL    HW1 2084   5.258   4.186   2.571
  395SOL    HW2 2085   5.204   4.077   2.680
  396SOL     OW 2086   2.501   2.364   2.124
  396SOL    HW1 2087   2.422   2.338   2.179
  396SOL    HW2 2088   2.583   2.319   2.158
  397SOL     OW 2089   5.577   1.748   6.913
  397SOL    HW1 2090   5.491   1.700   6.904
  397SOL    HW2 2091   5.653   1.687   6.889
  398SOL     OW 2092   1.799   6.058   3.752
  398SOL    HW1 2093   1.722   6.066   3.690
  398SOL    HW2 2094   1.833   6.149   3.775
  399SOL     OW 2095   5.751   6.090   4.398
  399SOL    HW1 2096   5.826   6.153   4.377
  399SOL    HW2 2097   5.730   6.094   4.495
  400SOL     OW 2098   6.260   6.288   5.337
  400SOL    HW1 2099   6.307   6.201   5.348
  400SOL    HW2 2100   6.191   6.280   5.266
  401SOL     OW 2101   5.830   0.280   6.133
  401SOL    HW1 2102   5.789   0.204   6.083
  401SOL    HW2 2103   5.758   0.329   6.183
  402SOL     OW 2104   6.175   7.013   3.081
  402SOL    HW1 2105   6.088   0.033   3.107
  402SOL    HW2 2106   6.241   0.063   3.058
  403SOL     OW 2107   3.649   0.328   6.052
  403SOL    HW1 2108   3.724   0.313   6.116
  403SOL    HW2 2109   3.570   0.273   6.079
  404SOL     OW 2110   1.850   5.506   5.811
  404SOL    HW1 2111   1.846   5.524   5.713
  404SOL    HW2 2112   1.942   5.474   5.836
  405SOL     OW 2113   1.647   4.079   3.346
  405SOL    HW1 2114   1.633   4.131   3.261
  405SOL    HW2 2115   1.565   4.027   3.368
  406SOL     OW 2116   0.582   4.739   4.876
  406SOL    HW1 2117   0.613   4.827   4.839
  406SOL    HW2 2118   0.497   4.712   4.831
  407SOL     OW 2119   1.951   2.633   4.157
  407SOL    HW1 2120   1.967   2.696   4.234
  407SOL    HW2 2121   2.038   2.592   4.130
  408SOL     OW 2122   3.167   1.936   2.927
  408SOL    HW1 2123   3.121   2.016   2.889
  408SOL    HW2 2124   3.266   1.944   2.912
  409SOL     OW 2125   6.980   3.729   1.935
  409SOL    HW1 2126   6.912   3.656   1.929
  409SOL    HW2 2127   6.952   3.795   2.004
  410SOL     OW 2128   1.441   1.862   1.035
  410SOL    HW1 2129   1.492   1.825   1.112
  410SOL    HW2 2130   1.366   1.919   1.068
  411SOL     OW 2131   6.306   1.239   1.886
  411SOL    HW1 2132   6.250   1.315   1.921
  411SOL    HW2 2133   6.402   1.266   1.885
  412SOL     OW 2134   3.409   4.863   2.546
  412SOL    HW1 2135   3.314   4.843   2.570
  412SOL    HW2 2136   3.420   4.862   2.447
  413SOL     OW 2137   4.331   4.439   1.476
  413SOL    HW1 2138   4.321   4.499   1.397
  413SOL    HW2 2139   4.240   4.418   1.513
  414SOL     OW 2140   3.550   0.425   4.080
  414SOL    HW1 2141   3.615   0.377   4.140
  414SOL    HW2 2142   3.565   0.397   3.985
  415SOL     OW 2143   0.324   1.474   6.803
  415SOL    HW1 2144   0.389   1.403   6.775
  415SOL    HW2 2145   0.232   1.449   6.774
  416SOL     OW 2146   4.860   4.955   4.561
  416SOL    HW1 2147   4.938   5.017   4.561
  416SOL    HW2 2148   4.833   4.935   4.467
  417SOL     OW 2149   2.077   1.378   6.490
  417SOL    HW1 2150   2.117   1.451   6.433
  417SOL    HW2 2151   1.990   1.411   6.529
  418SOL     OW 2152   2.601   6.862   5.589
  418SOL    HW1 2153   2.676   6.920   5.560
  418SOL    HW2 2154   2.618   6.768   5.560
  419SOL     OW 2155   0.117   6.813   3.634
  419SOL    HW1 2156   0.023   6.829   3.604
  419SOL    HW2 2157   0.167   6.899   3.636
  420SOL     OW 2158   5.701   1.249   6.562
  420SOL    HW1 2159   5.765   1.296   6.622
  420SOL    HW2 2160   5.753   1.201   6.490
  421SOL     OW 2161   5.760   3.621   4.898
  421SOL    HW1 2162   5.832   3.555   4.919
  421SOL    HW2 2163   5.786   3.711   4.933
  422SOL     OW 2164   5.564   2.658   0.527
  422SOL    HW1 2165   5.655   2.695   0.510
  422SOL    HW2 2166   5.571   2.578   0.586
  423SOL     OW 2167   2.556   1.321   6.884
  423SOL    HW1 2168   2.586   1.317   6.979
  423SOL    HW2 2169   2.605   1.394   6.836
  424SOL     OW 2170   2.219   5.040   2.871
  424SOL    HW1 2171   2.212   5.104   2.947
  424SOL    HW2 2172   2.306   4.992   2.875
  425SOL     OW 2173   4.945   0.857   4.495
  425SOL    HW1 2174   4.909   0.837   4.587
  425SOL    HW2 2175   4.984   0.774   4.456
  426SOL     OW 2176   2.139   2.943   5.044
  426SOL    HW1 2177   2.238   2.954   5.054
  426SOL    HW2 2178   2.120   2.882   4.967
  427SOL     OW 2179   5.503   0.758   4.036
  427SOL    HW1 2180   5.483   0.818   4.113
  427SOL    HW2 2181   5.454   0.791   3.955
  428SOL     OW 2182   2.889   0.540   3.471
  428SOL    HW1 2183   2.843   0.453   3.488
  428SOL    HW2 2184   2.904   0.588   3.557
  429SOL     OW 2185   0.529   5.050   4.528
  429SOL    HW1 2186   0.626   5.023   4.532
  429SOL    HW2 2187   0.489   5.015   4.443
  430SOL     OW 2188   1.325   6.721   3.749
  430SOL    HW1 2189   1.338   6.795   3.816
  430SOL    HW2 2190   1.229   6.716   3.724
  431SOL     OW 2191   2.099   2.377   0.768
  431SOL    HW1 2192   2.134   2.346   0.857
  431SOL    HW2 2193   2.119   2.475   0.757
  432SOL     OW 2194   6.050   1.874   0.841
  432SOL    HW1 2195   6.065   1.914   0.931
  432SOL    HW2 2196   5.993   1.936   0.786
  433SOL     OW 2197   2.976   6.122   5.854
  433SOL    HW1 2198   3.016   6.135   5.763
  433SOL    HW2 2199   2.916   6.199   5.876
  434SOL     OW 2200   4.166   5.243   4.444
  434SOL    HW1 2201   4.195   5.151   4.470
  434SOL    HW2 2202   4.127   5.289   4.524
  435SOL     OW 2203   4.139   1.350   5.579
  435SOL    HW1 2204   4.101   1.384   5.493
  435SOL    HW2 2205   4.206   1.416   5.613
  436SOL     OW 2206   3.466   5.890   2.623
  436SOL    HW1 2207   3.565   5.889   2.610
  436SOL    HW2 2208   3.423   5.933   2.544
  437SOL     OW 2209   0.186   1.400   5.168
  437SOL    HW1 2210   0.219   1.454   5.245
  437SOL    HW2 2211   0.243   1.318   5.158
  438SOL     OW 2212   1.572   4.292   3.148
  438SOL    HW1 2213   1.492   4.250   3.191
  438SOL    HW2 2214   1.567   4.392   3.158
  439SOL     OW 2215   6.009   0.403   2.438
  439SOL    HW1 2216   6.005   0.316   2.487
  439SOL    HW2 2217   6.097   0.447   2.456
  440SOL     OW 2218   3.487   1.113   6.537
  440SOL    HW1 2219   3.510   1.029   6.487
  440SOL    HW2 2220   3.471   1.187   6.471
  441SOL     OW 2221   5.753   4.350   3.256
  441SOL    HW1 2222   5.724   4.264   3.214
  441SOL    HW2 2223   5.735   4.425   3.193
  442SOL     OW 2224   4.844   4.326   5.896
  442SOL    HW1 2225   4.903   4.330   5.977
  442SOL    HW2 2226   4.846   4.233   5.859
  443SOL     OW 2227   5.324   4.868   3.843
  443SOL    HW1 2228   5.364   4.778   3.825
  443SOL    HW2 2229   5.394   4.939   3.829
  444SOL     OW 2230   4.069   1.411   6.199
  444SOL    HW1 2231   3.991   1.442   6.252
  444SOL    HW2 2232   4.144   1.477   6.207
  445SOL     OW 2233   2.600   6.063   3.126
  445SOL    HW1 2234   2.640   6.103   3.043
  445SOL    HW2 2235   2.504   6.088   3.132
  446SOL     OW 2236   4.020   5.667   3.181
  446SOL    HW1 2237   4.110   5.625   3.192
  446SOL    HW2 2238   4.028   5.748   3.122
  447SOL     OW 2239   6.345   3.020   5.357
  447SOL    HW1 2240   6.358   3.119   5.363
  447SOL    HW2 2241   6.250   3.000   5.333
  448SOL     OW 2242   1.967   1.377   2.888
  448SOL    HW1 2243   1.888   1.319   2.868
  448SOL    HW2 2244   2.019   1.393   2.804
  449SOL     OW 2245   2.557   2.545   3.368
  449SOL    HW1 2246   2.490   2.477   3.397
  449SOL    HW2 2247   2.647   2.502   3.363
  450SOL     OW 2248   1.481   4.574   3.423
  450SOL    HW1 2249   1.483   4.517   3.506
  450SOL    HW2 2250   1.401   4.633   3.425
  451SOL     OW 2251   0.413   3.151   3.748
  451SOL    HW1 2252   0.416   3.185   3.654
  451SOL    HW2 2253   0.460   3.063   3.753
  452SOL     OW 2254   3.524   0.472   1.541
  452SOL    HW1 2255   3.581   0.521   1.607
  452SOL    HW2 2256   3.447   0.529   1.514
  453SOL     OW 2257   4.024   0.500   6.647
  453SOL    HW1 2258   3.987   0.550   6.725
  453SOL    HW2 2259   4.049   0.565   6.575
  454SOL     OW 2260   6.863   3.902   6.377
  454SOL    HW1 2261   6.865   3.997   6.345
  454SOL    HW2 2262   6.768   3.871   6.382
  455SOL     OW 2263   6.038   3.220   5.244
  455SOL    HW1 2264   6.107   3.279   5.203
  455SOL    HW2 2265   5.962   3.209   5.180
  456SOL     OW 2266   1.319   0.665   4.072
  456SOL    HW1 2267   1.384   0.590   4.062
  456SOL    HW2 2268   1.228   0.634   4.046
  457SOL     OW 2269   0.733   5.170   5.332
  457SOL    HW1 2270   0.746   5.153   5.234
  457SOL    HW2 2271   0.815   5.145   5.382
  458SOL     OW 2272   3.052   1.083   2.870
  458SOL    HW1 2273   3.013   1.136   2.946
  458SOL    HW2 2274   3.082   0.994   2.903
  459SOL     OW 2275   1.973   0.783   5.660
  459SOL    HW1 2276   2.065   0.782   5.699
  459SOL    HW2 2277   1.937   0.876   5.661
  460SOL     OW 2278   1.354   1.687   5.378
  460SOL    HW1 2279   1.377   1.688   5.280
  460SOL    HW2 2280   1.328   1.779   5.407
  461SOL     OW 2281   6.503   4.807   5.601
  461SOL    HW1 2282   6.575   4.860   5.645
  461SOL    HW2 2283   6.523   4.709   5.609
  462SOL     OW 2284   4.068   3.859   4.404
  462SOL    HW1 2285   3.992   3.796   4.389
  462SOL    HW2 2286   4.120   3.831   4.485
  463SOL     OW 2287   6.533   6.701   3.055
  463SOL    HW1 2288   6.620   6.738   3.020
  463SOL    HW2 2289   6.552   6.640   3.132
  464SOL     OW 2290   3.066   0.214   6.269
  464SOL    HW1 2291   3.110   0.228   6.180
  464SOL    HW2 2292   3.016   0.128   6.268
  465SOL     OW 2293   1.187   2.550   0.180
  465SOL    HW1 2294   1.276   2.506   0.193
  465SOL    HW2 2295   1.159   2.540   0.085
  466SOL     OW 2296   3.014   6.399   4.336
  466SOL    HW1 2297   2.932   6.421   4.283
  466SOL    HW2 2298   3.094   6.436   4.290
  467SOL     OW 2299   0.760   1.677   2.417
  467SOL    HW1 2300   0.709   1.647   2.498
  467SOL    HW2 2301   0.759   1.777   2.413
  468SOL     OW 2302   4.734   6.788   6.184
  468SOL    HW1 2303   4.661   6.845   6.222
  468SOL    HW2 2304   4.762   6.825   6.095
  469SOL     OW 2305   3.010   4.121   5.843
  469SOL    HW1 2306   3.092   4.167   5.809
  469SOL    HW2 2307   3.020   4.106   5.941
  470SOL     OW 2308   3.640   6.237   2.823
  470SOL    HW1 2309   3.555   6.204   2.781
  470SOL    HW2 2310   3.651   6.195   2.913
  471SOL     OW 2311   2.620   2.492   3.903
  471SOL    HW1 2312   2.611   2.543   3.817
  471SOL    HW2 2313   2.552   2.525   3.968
  472SOL     OW 2314   6.246   4.729   6.962
  472SOL    HW1 2315   6.311   4.800   6.987
  472SOL    HW2 2316   6.266   4.695   6.870
  473SOL     OW 2317   0.087   2.490   2.657
  473SOL    HW1 2318   0.171   2.542   2.669
  473SOL    HW2 2319   0.037   2.485   2.743
  474SOL     OW 2320   6.212   5.103   5.440
  474SOL    HW1 2321   6.235   5.040   5.515
  474SOL    HW2 2322   6.216   5.054   5.353
  475SOL     OW 2323   5.955   3.227   0.002
  475SOL    HW1 2324   5.966   3.220   6.925
  475SOL    HW2 2325   5.893   3.156   0.034
  476SOL     OW 2326   0.323   4.117   2.115
  476SOL    HW1 2327   0.362   4.030   2.088
  476SOL    HW2 2328   0.306   4.173   2.034
  477SOL     OW 2329   2.165   5.858   3.467
  477SOL    HW1 2330   2.085   5.850   3.528
  477SOL    HW2 2331   2.244   5.817   3.511
  478SOL     OW 2332   4.229   5.770   2.829
  478SOL    HW1 2333   4.187   5.738   2.744
  478SOL    HW2 2334   4.237   5.693   2.893
  479SOL     OW 2335   3.679   3.181   4.502
  479SOL    HW1 2336   3.727   3.162   4.416
  479SOL    HW2 2337   3.590   3.135   4.501
  480SOL     OW 2338   1.646   0.258   2.143
  480SOL    HW1 2339   1.581   0.233   2.071
  480SOL    HW2 2340   1.631   0.200   2.223
  481SOL     OW 2341   0.767   6.420   1.368
  481SOL    HW1 2342   0.676   6.393   1.400
  481SOL    HW2 2343   0.825   6.441   1.447
  482SOL     OW 2344   4.887   4.951   2.870
  482SOL    HW1 2345   4.875   5.049   2.881
  482SOL    HW2 2346   4.867   4.904   2.956
  483SOL     OW 2347   6.361   2.711   2.812
  483SOL    HW1 2348   6.277   2.748   2.853
  483SOL    HW2 2349   6.359   2.611   2.817
  484SOL     OW 2350   1.530   4.336   4.880
  484SOL    HW1 2351   1.474   4.415   4.858
  484SOL    HW2 2352   1.611   4.335   4.821
  485SOL     OW 2353   5.425   3.594   2.322
  485SOL    HW1 2354   5.415   3.544   2.236
  485SOL    HW2 2355   5.354   3.564   2.386
  486SOL     OW 2356   5.479   0.332   6.634
  486SOL    HW1 2357   5.493   0.362   6.540
  486SOL    HW2 2358   5.560   0.355   6.689
  487SOL     OW 2359   0.205   0.525   3.310
  487SOL    HW1 2360   0.166   0.443   3.268
  487SOL    HW2 2361   0.189   0.604   3.252
  488SOL     OW 2362   1.775   6.632   3.115
  488SOL    HW1 2363   1.774   6.665   3.209
  488SOL    HW2 2364   1.752   6.708   3.053
  489SOL     OW 2365   6.099   5.463   4.848
  489SOL    HW1 2366   6.108   5.561   4.861
  489SOL    HW2 2367   6.087   5.419   4.937
  490SOL     OW 2368   1.166   5.746   5.033
  490SOL    HW1 2369   1.116   5.659   5.037
  490SOL    HW2 2370   1.239   5.746   5.101
  491SOL     OW 2371   0.472   3.769   0.833
  491SOL    HW1 2372   0.478   3.862   0.870
  491SOL    HW2 2373   0.499   3.703   0.903
  492SOL     OW 2374   1.570   1.212   5.578
  492SOL    HW1 2375   1.648   1.268   5.552
  492SOL    HW2 2376   1.537   1.240   5.668
  493SOL     OW 2377   2.460   6.993   5.790
  493SOL    HW1 2378   2.522   6.963   5.717
  493SOL    HW2 2379   2.441   6.917   5.851
  494SOL     OW 2380   2.350   1.273   5.751
  494SOL    HW1 2381   2.299   1.309   5.673
  494SOL    HW2 2382   2.398   1.189   5.724
  495SOL     OW 2383   4.485   6.244   5.452
  495SOL    HW1 2384   4.550   6.201   5.389
  495SOL    HW2 2385   4.523   6.330   5.486
  496SOL     OW 2386   6.417   1.277   2.912
  496SOL    HW1 2387   6.367   1.251   2.830
  496SOL    HW2 2388   6.501   1.325   2.885
  497SOL     OW 2389   3.946   1.420   5.305
  497SOL    HW1 2390   3.892   1.425   5.389
  497SOL    HW2 2391   3.986   1.509   5.286
  498SOL     OW 2392   0.355   4.947   1.623
  498SOL    HW1 2393   0.437   4.934   1.679
  498SOL    HW2 2394   0.350   5.042   1.593
  499SOL     OW 2395   2.499   5.362   5.556
  499SOL    HW1 2396   2.584   5.383   5.507
  499SOL    HW2 2397   2.518   5.301   5.633
  500SOL     OW 2398   5.095   2.980   6.007
  500SOL    HW1 2399   5.140   2.930   6.081
  500SOL    HW2 2400   5.152   3.058   5.979
  501SOL     OW 2401   2.114   6.868   2.810
  501SOL    HW1 2402   2.046   6.825   2.870
  501SOL    HW2 2403   2.126   6.963   2.836
  502SOL     OW 2404   1.339   4.635   6.246
  502SOL    HW1 2405   1.251   4.599   6.275
  502SOL    HW2 2406   1.412   4.579   6.285
  503SOL     OW 2407   2.481   5.407   6.260
  503SOL    HW1 2408   2.548   5.451   6.320
  503SOL    HW2 2409   2.422   5.347   6.314
  504SOL     OW 2410   0.045   5.422   2.794
  504SOL    HW1 2411   0.021   5.495   2.858
  504SOL    HW2 2412   0.081   5.461   2.709
  505SOL     OW 2413   4.075   6.947   5.101
  505SOL    HW1 2414   4.086   6.889   5.020
  505SOL    HW2 2415   4.055   0.019   5.072
  506SOL     OW 2416   2.823   5.026   2.646
  506SOL    HW1 2417   2.843   4.932   2.616
  506SOL    HW2 2418   2.878   5.090   2.592
  507SOL     OW 2419   4.019   1.491   2.180
  507SOL    HW1 2420   4.076   1.553   2.126
  507SOL    HW2 2421   4.073   1.454   2.255
  508SOL     OW 2422   6.811   2.588   3.498
  508SOL    HW1 2423   6.778   2.682   3.493
  508SOL    HW2 2424   6.748   2.533   3.553
  509SOL     OW 2425   4.422   0.849   0.181
  509SOL    HW1 2426   4.491   0.922   0.182
  509SOL    HW2 2427   4.442   0.786   0.106
  510SOL     OW 2428   0.124   4.747   5.717
  510SOL    HW1 2429   0.217   4.713   5.707
  510SOL    HW2 2430   0.125   4.828   5.775
  511SOL     OW 2431   1.641   2.037   6.108
  511SOL    HW1 2432   1.740   2.032   6.103
  511SOL    HW2 2433   1.608   1.987   6.188
  512SOL     OW 2434   5.846   2.000   6.990
  512SOL    HW1 2435   5.810   1.928   0.027
  512SOL    HW2 2436   5.772   2.036   6.933
  513SOL     OW 2437   5.980   6.542   2.596
  513SOL    HW1 2438   6.064   6.542   2.543
  513SOL    HW2 2439   5.920   6.615   2.564
  514SOL     OW 2440   0.533   6.525   3.749
  514SOL    HW1 2441   0.607   6.463   3.724
  514SOL    HW2 2442   0.475   6.542   3.669
  515SOL     OW 2443   2.562   0.585   6.193
  515SOL    HW1 2444   2.510   0.670   6.179
  515SOL    HW2 2445   2.635   0.602   6.259
  516SOL     OW 2446   2.479   4.095   1.666
  516SOL    HW1 2447   2.560   4.132   1.620
  516SOL    HW2 2448   2.446   4.160   1.734
  517SOL     OW 2449   3.728   4.953   2.339
  517SOL    HW1 2450   3.708   5.021   2.409
  517SOL    HW2 2451   3.650   4.944   2.278
  518SOL     OW 2452   2.329   2.911   3.863
  518SOL    HW1 2453   2.428   2.925   3.865
  518SOL    HW2 2454   2.309   2.821   3.825
  519SOL     OW 2455   6.858   6.713   4.054
  519SOL    HW1 2456   6.933   6.648   4.041
  519SOL    HW2 2457   6.859   6.746   4.148
  520SOL     OW 2458   0.631   3.849   0.052
  520SOL    HW1 2459   0.556   3.914   0.061
  520SOL    HW2 2460   0.606   3.777   7.008
  521SOL     OW 2461   4.563   5.984   4.290
  521SOL    HW1 2462   4.657   6.009   4.313
  521SOL    HW2 2463   4.499   6.038   4.345
  522SOL     OW 2464   4.059   3.837   1.591
  522SOL    HW1 2465   4.123   3.903   1.551
  522SOL    HW2 2466   3.996   3.885   1.652
  523SOL     OW 2467   0.227   6.472   1.658
  523SOL    HW1 2468   0.326   6.486   1.649
  523SOL    HW2 2469   0.180   6.558   1.637
  524SOL     OW 2470   0.876   3.257   2.345
  524SOL    HW1 2471   0.960   3.247   2.398
  524SOL    HW2 2472   0.899   3.257   2.247
  525SOL     OW 2473   1.563   3.459   6.853
  525SOL    HW1 2474   1.564   3.504   6.943
  525SOL    HW2 2475   1.605   3.369   6.861
  526SOL     OW 2476   2.878   6.942   4.253
  526SOL    HW1 2477   2.820   6.878   4.204
  526SOL    HW2 2478   2.858   0.013   4.223
  527SOL     OW 2479   0.885   2.335   6.921
  527SOL    HW1 2480   0.834   2.390   6.988
  527SOL    HW2 2481   0.824   2.308   6.847
  528SOL     OW 2482   0.846   3.149   3.902
  528SOL    HW1 2483   0.878   3.178   3.811
  528SOL    HW2 2484   0.923   3.145   3.965
  529SOL     OW 2485   2.228   0.505   5.672
  529SOL    HW1 2486   2.323   0.533   5.687
  529SOL    HW2 2487   2.196   0.542   5.585
  530SOL     OW 2488   3.895   3.010   2.315
  530SOL    HW1 2489   3.831   3.007   2.392
  530SOL    HW2 2490   3.989   3.014   2.350
  531SOL     OW 2491   1.921   0.747   2.709
  531SOL    HW1 2492   2.016   0.776   2.725
  531SOL    HW2 2493   1.860   0.796   2.771
  532SOL     OW 2494   1.130   3.729   0.518
  532SOL    HW1 2495   1.226   3.757   0.519
  532SOL    HW2 2496   1.074   3.802   0.556
  533SOL     OW 2497   5.434   7.009   3.703
  533SOL    HW1 2498   5.359   0.040   3.663
  533SOL    HW2 2499   5.467   0.032   3.785
  534SOL     OW 2500   6.975   5.834   1.822
  534SOL    HW1 2501   6.990   5.845   1.921
  534SOL    HW2 2502   0.027   5.879   1.772
  535SOL     OW 2503   6.609   4.419   3.177
  535SOL    HW1 2504   6.581   4.478   3.253
  535SOL    HW2 2505   6.676   4.353   3.209
  536SOL     OW 2506   5.955   5.630   3.104
  536SOL    HW1 2507   5.938   5.704   3.039
  536SOL    HW2 2508   5.992   5.668   3.189
  537SOL     OW 2509   3.490   6.874   4.273
  537SOL    HW1 2510   3.405   6.869   4.326
  537SOL    HW2 2511   3.526   6.782   4.258
  538SOL     OW 2512   1.025   5.211   5.059
  538SOL    HW1 2513   1.053   5.283   5.122
  538SOL    HW2 2514   0.925   5.202   5.060
  539SOL     OW 2515   1.634   5.908   2.163
  539SOL    HW1 2516   1.709   5.843   2.175
  539SOL    HW2 2517   1.564   5.891   2.234
  540SOL     OW 2518   2.004   1.179   4.183
  540SOL    HW1 2519   2.037   1.250   4.245
  540SOL    HW2 2520   1.954   1.221   4.107
  541SOL     OW 2521   4.536   5.840   3.572
  541SOL    HW1 2522   4.563   5.786   3.652
  541SOL    HW2 2523   4.444   5.813   3.543
  542SOL     OW 2524   3.364   6.577   6.516
  542SOL    HW1 2525   3.407   6.503   6.465
  542SOL    HW2 2526   3.267   6.584   6.491
  543SOL     OW 2527   5.469   3.473   3.591
  543SOL    HW1 2528   5.377   3.465   3.630
  543SOL    HW2 2529   5.529   3.407   3.636
  544SOL     OW 2530   0.166   5.056   0.409
  544SOL    HW1 2531   0.122   5.110   0.480
  544SOL    HW2 2532   0.263   5.079   0.404
  545SOL     OW 2533   4.321   1.289   1.031
  545SOL    HW1 2534   4.291   1.302   0.937
  545SOL    HW2 2535   4.356   1.375   1.068
  546SOL     OW 2536   1.030   3.997   1.848
  546SOL    HW1 2537   1.021   4.083   1.798
  546SOL    HW2 2538   0.956   3.935   1.820
  547SOL     OW 2539   3.013   2.771   0.762
  547SOL    HW1 2540   2.931   2.752   0.709
  547SOL    HW2 2541   3.086   2.708   0.735
  548SOL     OW 2542   3.388   3.453   1.036
  548SOL    HW1 2543   3.480   3.464   1.073
  548SOL    HW2 2544   3.391   3.389   0.959
  549SOL     OW 2545   5.521   2.599   1.748
  549SOL    HW1 2546   5.600   2.658   1.764
  549SOL    HW2 2547   5.497   2.553   1.834
  550SOL     OW 2548   0.470   5.268   3.425
  550SOL    HW1 2549   0.542   5.289   3.358
  550SOL    HW2 2550   0.445   5.351   3.475
  551SOL     OW 2551   0.006   0.410   1.203
  551SOL    HW1 2552   0.044   0.442   1.116
  551SOL    HW2 2553   6.996   0.489   1.256
  552SOL     OW 2554   5.104   4.858   4.762
  552SOL    HW1 2555   5.095   4.810   4.674
  552SOL    HW2 2556   5.087   4.956   4.748
  553SOL     OW 2557   3.326   6.922   3.727
  553SOL    HW1 2558   3.375   6.850   3.776
  553SOL    HW2 2559   3.390   6.995   3.702
  554SOL     OW 2560   5.936   5.899   0.139
  554SOL    HW1 2561   6.020   5.896   0.194
  554SOL    HW2 2562   5.953   5.948   0.054
  555SOL     OW 2563   2.842   5.122   5.175
  555SOL    HW1 2564   2.763   5.173   5.139
  555SOL    HW2 2565   2.893   5.082   5.099
  556SOL     OW 2566   5.395   1.220   4.346
  556SOL    HW1 2567   5.428   1.258   4.432
  556SOL    HW2 2568   5.471   1.180   4.295
  557SOL     OW 2569   0.375   5.055   6.033
  557SOL    HW1 2570   0.430   4.992   5.978
  557SOL    HW2 2571   0.396   5.042   6.130
  558SOL     OW 2572   3.828   2.925   4.345
  558SOL    HW1 2573   3.796   2.881   4.429
  558SOL    HW2 2574   3.928   2.936   4.349
  559SOL     OW 2575   6.658   5.709   5.813
  559SOL    HW1 2576   6.737   5.734   5.868
  559SOL    HW2 2577   6.574   5.723   5.866
  560SOL     OW 2578   6.489   3.831   3.172
  560SOL    HW1 2579   6.423   3.770   3.215
  560SOL    HW2 2580   6.489   3.919   3.220
  561SOL     OW 2581   0.116   2.478   6.946
  561SOL    HW1 2582   0.043   2.427   6.991
  561SOL    HW2 2583   0.202   2.427   6.954
  562SOL     OW 2584   4.586   0.796   5.817
  562SOL    HW1 2585   4.538   0.822   5.901
  562SOL    HW2 2586   4.684   0.793   5.834
  563SOL     OW 2587   2.558   1.487   3.316
  563SOL    HW1 2588   2.502   1.416   3.357
  563SOL    HW2 2589   2.501   1.567   3.296
  564SOL     OW 2590   0.549   2.187   6.733
  564SOL    HW1 2591   0.451   2.187   6.752
  564SOL    HW2 2592   0.588   2.276   6.760
  565SOL     OW 2593   2.875   3.700   3.162
  565SOL    HW1 2594   2.849   3.607   3.133
  565SOL    HW2 2595   2.865   3.707   3.261
  566SOL     OW 2596   1.880   3.514   3.618
  566SOL    HW1 2597   1.955   3.553   3.565
  566SOL    HW2 2598   1.895   3.531   3.715
  567SOL     OW 2599   3.161   2.968   0.893
  567SOL    HW1 2600   3.096   2.893   0.887
  567SOL    HW2 2601   3.145   3.032   0.817
  568SOL     OW 2602   5.652   6.859   0.247
  568SOL    HW1 2603   5.605   6.903   0.171
  568SOL    HW2 2604   5.738   6.819   0.215
  569SOL     OW 2605   0.942   2.806   0.906
  569SOL    HW1 2606   1.034   2.820   0.869
  569SOL    HW2 2607   0.876   2.813   0.832
  570SOL     OW 2608   3.532   0.548   6.558
  570SOL    HW1 2609   3.457   0.529   6.622
  570SOL    HW2 2610   3.494   0.575   6.469
  571SOL     OW 2611   2.853   4.815   3.906
  571SOL    HW1 2612   2.808   4.889   3.957
  571SOL    HW2 2613   2.804   4.729   3.921
  572SOL     OW 2614   1.897   5.082   5.368
  572SOL    HW1 2615   1.978   5.140   5.362
  572SOL    HW2 2616   1.816   5.137   5.351
  573SOL     OW 2617   6.314   1.099   5.953
  573SOL    HW1 2618   6.218   1.071   5.953
  573SOL    HW2 2619   6.325   1.184   6.004
  574SOL     OW 2620   3.770   0.208   5.317
  574SOL    HW1 2621   3.709   0.272   5.364
  574SOL    HW2 2622   3.835   0.170   5.383
  575SOL     OW 2623   4.161   2.698   1.394
  575SOL    HW1 2624   4.067   2.720   1.420
  575SOL    HW2 2625   4.197   2.627   1.454
  576SOL     OW 2626   1.217   3.198   2.786
  576SOL    HW1 2627   1.216   3.113   2.839
  576SOL    HW2 2628   1.312   3.230   2.776
  577SOL     OW 2629   1.512   0.808   2.011
  577SOL    HW1 2630   1.462   0.738   1.961
  577SOL    HW2 2631   1.572   0.858   1.948
  578SOL     OW 2632   1.047   5.139   5.391
  578SOL    HW1 2633   1.091   5.064   5.341
  578SOL    HW2 2634   1.056   5.123   5.489
  579SOL     OW 2635   1.536   4.573   3.152
  579SOL    HW1 2636   1.460   4.596   3.092
  579SOL    HW2 2637   1.515   4.602   3.245
  580SOL     OW 2638   3.761   4.829   5.506
  580SOL    HW1 2639   3.694   4.759   5.533
  580SOL    HW2 2640   3.737   4.865   5.416
  581SOL     OW 2641   1.618   2.967   3.497
  581SOL    HW1 2642   1.540   3.024   3.472
  581SOL    HW2 2643   1.645   2.989   3.591
  582SOL     OW 2644   4.391   5.792   3.132
  582SOL    HW1 2645   4.345   5.714   3.174
  582SOL    HW2 2646   4.323   5.851   3.088
  583SOL     OW 2647   2.812   5.860   5.811
  583SOL    HW1 2648   2.873   5.937   5.832
  583SOL    HW2 2649   2.863   5.790   5.761
  584SOL     OW 2650   3.292   0.122   6.903
  584SOL    HW1 2651   3.225   0.124   6.829
  584SOL    HW2 2652   3.256   0.173   6.982
  585SOL     OW 2653   4.697   1.500   0.656
  585SOL    HW1 2654   4.765   1.465   0.721
  585SOL    HW2 2655   4.696   1.443   0.574
  586SOL     OW 2656   3.713   0.448   0.931
  586SOL    HW1 2657   3.667   0.439   0.843
  586SOL    HW2 2658   3.656   0.408   1.003
  587SOL     OW 2659   5.070   2.571   2.701
  587SOL    HW1 2660   5.152   2.588   2.646
  587SOL    HW2 2661   5.084   2.489   2.756
  588SOL     OW 2662   2.048   5.220   0.978
  588SOL    HW1 2663   2.127   5.188   1.030
  588SOL    HW2 2664   1.965   5.184   1.019
  589SOL     OW 2665   3.770   5.764   1.248
  589SOL    HW1 2666   3.839   5.829   1.216
  589SOL    HW2 2667   3.786   5.745   1.345
  590SOL     OW 2668   5.483   1.417   1.281
  590SOL    HW1 2669   5.562   1.460   1.237
  590SOL    HW2 2670   5.461   1.466   1.365
  591SOL     OW 2671   3.841   6.654   4.095
  591SOL    HW1 2672   3.870   6.559   4.108
  591SOL    HW2 2673   3.918   6.715   4.112
  592SOL     OW 2674   4.568   0.634   2.571
  592SOL    HW1 2675   4.620   0.550   2.561
  592SOL    HW2 2676   4.480   0.625   2.523
  593SOL     OW 2677   4.780   1.518   4.345
  593SOL    HW1 2678   4.807   1.472   4.429
  593SOL    HW2 2679   4.809   1.462   4.266
  594SOL     OW 2680   6.437   0.767   0.945
  594SOL    HW1 2681   6.430   0.748   0.847
  594SOL    HW2 2682   6.475   0.688   0.992
  595SOL     OW 2683   6.040   6.796   3.651
  595SOL    HW1 2684   6.019   6.738   3.572
  595SOL    HW2 2685   6.053   6.890   3.621
  596SOL     OW 2686   0.581   5.218   3.032
  596SOL    HW1 2687   0.640   5.137   3.027
  596SOL    HW2 2688   0.492   5.197   2.993
  597SOL     OW 2689   2.929   6.311   6.399
  597SOL    HW1 2690   2.839   6.285   6.435
  597SOL    HW2 2691   2.970   6.379   6.460
  598SOL     OW 2692   3.602   4.176   4.430
  598SOL    HW1 2693   3.626   4.194   4.335
  598SOL    HW2 2694   3.584   4.263   4.477
  599SOL     OW 2695   2.427   5.614   3.183
  599SOL    HW1 2696   2.416   5.537   3.245
  599SOL    HW2 2697   2.404   5.699   3.231
  600SOL     OW 2698   6.429   3.043   6.108
  600SOL    HW1 2699   6.432   3.128   6.056
  600SOL    HW2 2700   6.490   3.050   6.187
  601SOL     OW 2701   1.435   1.650   4.382
  601SOL    HW1 2702   1.486   1.566   4.400
  601SOL    HW2 2703   1.355   1.629   4.326
  602SOL     OW 2704   2.378   0.781   6.135
  602SOL    HW1 2705   2.282   0.753   6.148
  602SOL    HW2 2706   2.391   0.873   6.172
  603SOL     OW 2707   2.787   2.466   5.214
  603SOL    HW1 2708   2.762   2.529   5.288
  603SOL    HW2 2709   2.712   2.403   5.196
  604SOL     OW 2710   1.320   2.066   1.514
  604SOL    HW1 2711   1.278   1.976   1.501
  604SOL    HW2 2712   1.249   2.137   1.512
  605SOL     OW 2713   6.762   5.040   1.809
  605SOL    HW1 2714   6.802   5.060   1.899
  605SOL    HW2 2715   6.663   5.047   1.814
  606SOL     OW 2716   4.509   6.501   4.925
  606SOL    HW1 2717   4.600   6.544   4.929
  606SOL    HW2 2718   4.503   6.430   4.995
  607SOL     OW 2719   6.767   4.997   5.412
  607SOL    HW1 2720   6.763   5.081   5.466
  607SOL    HW2 2721   6.856   4.954   5.425
  608SOL     OW 2722   3.623   6.404   6.668
  608SOL    HW1 2723   3.628   6.500   6.697
  608SOL    HW2 2724   3.668   6.347   6.737
  609SOL     OW 2725   3.922   3.342   1.877
  609SOL    HW1 2726   3.987   3.353   1.952
  609SOL    HW2 2727   3.837   3.303   1.912
  610SOL     OW 2728   5.562   2.673   6.931
  610SOL    HW1 2729   5.476   2.700   6.889
  610SOL    HW2 2730   5.552   2.582   6.972
  611SOL     OW 2731   4.156   0.397   1.664
  611SOL    HW1 2732   4.079   0.354   1.712
  611SOL    HW2 2733   4.124   0.479   1.617
  612SOL     OW 2734   3.182   5.917   4.717
  612SOL    HW1 2735   3.223   5.856   4.785
  612SOL    HW2 2736   3.082   5.905   4.718
  613SOL     OW 2737   5.080   3.976   4.976
  613SOL    HW1 2738   5.071   4.075   4.988
  613SOL    HW2 2739   5.119   3.958   4.885
  614SOL     OW 2740   5.052   5.241   5.163
  614SOL    HW1 2741   4.960   5.240   5.124
  614SOL    HW2 2742   5.052   5.193   5.251
  615SOL     OW 2743   0.017   2.478   1.365
  615SOL    HW1 2744   6.982   2.553   1.398
  615SOL    HW2 2745   0.113   2.506   1.368
  616SOL     OW 2746   6.203   2.031   2.884
  616SOL    HW1 2747   6.236   1.938   2.900
  616SOL    HW2 2748   6.153   2.064   2.964
  617SOL     OW 2749   0.872   4.489   5.577
  617SOL    HW1 2750   0.851   4.559   5.646
  617SOL    HW2 2751   0.798   4.422   5.575
  618SOL     OW 2752   1.346   2.563   0.846
  618SOL    HW1 2753   1.368   2.582   0.941
  618SOL    HW2 2754   1.373   2.469   0.823
  619SOL     OW 2755   2.748   1.920   1.008
  619SOL    HW1 2756   2.775   1.842   1.064
  619SOL    HW2 2757   2.681   1.975   1.058
  620SOL     OW 2758   4.774   2.176   0.038
  620SOL    HW1 2759   4.699   2.238   0.058
  620SOL    HW2 2760   4.752   2.119   6.981
  621SOL     OW 2761   3.553   5.022   6.735
  621SOL    HW1 2762   3.555   5.071   6.822
  621SOL    HW2 2763   3.583   5.083   6.662
  622SOL     OW 2764   0.944   0.821   6.407
  622SOL    HW1 2765   0.899   0.883   6.341
  622SOL    HW2 2766   0.896   0.733   6.406
  623SOL     OW 2767   0.769   6.113   5.940
  623SOL    HW1 2768   0.678   6.113   5.981
  623SOL    HW2 2769   0.777   6.191   5.877
  624SOL     OW 2770   0.793   2.602   1.408
  624SOL    HW1 2771   0.811   2.663   1.331
  624SOL    HW2 2772   0.794   2.507   1.376
  625SOL     OW 2773   2.380   2.589   1.151
  625SOL    HW1 2774   2.297   2.644   1.162
  625SOL    HW2 2775   2.412   2.596   1.056
  626SOL     OW 2776   2.723   5.794   3.814
  626SOL    HW1 2777   2.699   5.794   3.717
  626SOL    HW2 2778   2.704   5.884   3.854
  627SOL     OW 2779   5.430   0.597   0.903
  627SOL    HW1 2780   5.371   0.673   0.875
  627SOL    HW2 2781   5.465   0.614   0.995
  628SOL     OW 2782   5.249   4.854   5.378
  628SOL    HW1 2783   5.304   4.771   5.378
  628SOL    HW2 2784   5.292   4.923   5.436
  629SOL     OW 2785   6.998   6.525   1.112
  629SOL    HW1 2786   6.905   6.537   1.077
  629SOL    HW2 2787   6.997   6.463   1.190
  630SOL     OW 2788   5.762   2.056   2.805
  630SOL    HW1 2789   5.806   2.145   2.794
  630SOL    HW2 2790   5.824   1.993   2.852
  631SOL     OW 2791   3.476   6.691   5.321
  631SOL    HW1 2792   3.492   6.618   5.255
  631SOL    HW2 2793   3.506   6.779   5.283
  632SOL     OW 2794   2.750   1.960   0.579
  632SOL    HW1 2795   2.749   1.919   0.488
  632SOL    HW2 2796   2.674   1.923   0.633
  633SOL     OW 2797   3.793   5.066   0.152
  633SOL    HW1 2798   3.850   5.057   0.070
  633SOL    HW2 2799   3.816   5.151   0.199
  634SOL     OW 2800   4.699   4.538   1.934
  634SOL    HW1 2801   4.761   4.486   1.875
  634SOL    HW2 2802   4.612   4.489   1.942
  635SOL     OW 2803   4.458   6.291   2.746
  635SOL    HW1 2804   4.539   6.325   2.699
  635SOL    HW2 2805   4.465   6.311   2.844
  636SOL     OW 2806   5.130   6.377   6.409
  636SOL    HW1 2807   5.079   6.459   6.434
  636SOL    HW2 2808   5.066   6.307   6.378
  637SOL     OW 2809   5.705   4.140   1.714
  637SOL    HW1 2810   5.741   4.228   1.681
  637SOL    HW2 2811   5.770   4.100   1.779
  638SOL     OW 2812   5.098   1.341   1.998
  638SOL    HW1 2813   5.192   1.348   2.031
  638SOL    HW2 2814   5.089   1.393   1.913
  639SOL     OW 2815   4.978   4.057   2.405
  639SOL    HW1 2816   4.947   4.151   2.404
  639SOL    HW2 2817   5.074   4.053   2.377
  640SOL     OW 2818   1.780   4.860   5.291
  640SOL    HW1 2819   1.844   4.935   5.310
  640SOL    HW2 2820   1.699   4.870   5.348
  641SOL     OW 2821   0.076   5.359   4.745
  641SOL    HW1 2822   0.161   5.317   4.714
  641SOL    HW2 2823   0.057   5.441   4.691
  642SOL     OW 2824   6.860   3.934   4.026
  642SOL    HW1 2825   6.937   3.996   4.008
  642SOL    HW2 2826   6.848   3.872   3.948
  643SOL     OW 2827   5.939   4.508   5.191
  643SOL    HW1 2828   5.986   4.585   5.147
  643SOL    HW2 2829   6.007   4.440   5.220
  644SOL     OW 2830   1.341   5.875   3.099
  644SOL    HW1 2831   1.426   5.926   3.110
  644SOL    HW2 2832   1.360   5.777   3.109
  645SOL     OW 2833   5.160   2.359   4.426
  645SOL    HW1 2834   5.143   2.263   4.408
  645SOL    HW2 2835   5.162   2.410   4.339
  646SOL     OW 2836   2.874   1.960   3.385
  646SOL    HW1 2837   2.886   1.873   3.433
  646SOL    HW2 2838   2.896   1.948   3.288
  647SOL     OW 2839   5.767   2.590   5.885
  647SOL    HW1 2840   5.712   2.615   5.806
  647SOL    HW2 2841   5.751   2.657   5.958
  648SOL     OW 2842   0.017   3.839   2.952
  648SOL    HW1 2843   7.012   3.882   2.866
  648SOL    HW2 2844   6.984   3.878   3.027
  649SOL     OW 2845   4.325   3.979   0.184
  649SOL    HW1 2846   4.352   3.898   0.236
  649SOL    HW2 2847   4.307   4.054   0.248
  650SOL     OW 2848   5.419   3.984   0.847
  650SOL    HW1 2849   5.383   4.008   0.756
  650SOL    HW2 2850   5.497   4.042   0.868
  651SOL     OW 2851   0.349   6.753   7.010
  651SOL    HW1 2852   0.334   6.850   0.011
  651SOL    HW2 2853   0.441   6.726   0.016
  652SOL     OW 2854   5.029   6.096   3.846
  652SOL    HW1 2855   5.078   6.017   3.810
  652SOL    HW2 2856   5.095   6.162   3.883
  653SOL     OW 2857   3.365   5.377   5.441
  653SOL    HW1 2858   3.459   5.409   5.450
  653SOL    HW2 2859   3.329   5.354   5.532
  654SOL     OW 2860   0.566   4.524   5.758
  654SOL    HW1 2861   0.653   4.538   5.806
  654SOL    HW2 2862   0.556   4.427   5.736
  655SOL     OW 2863   0.483   6.808   2.232
  655SOL    HW1 2864   0.576   6.840   2.253
  655SOL    HW2 2865   0.487   6.734   2.166
  656SOL     OW 2866   1.734   5.945   1.377
  656SOL    HW1 2867   1.823   5.991   1.376
  656SOL    HW2 2868   1.746   5.850   1.406
  657SOL     OW 2869   2.274   1.942   1.445
  657SOL    HW1 2870   2.262   1.946   1.346
  657SOL    HW2 2871   2.203   1.996   1.490
  658SOL     OW 2872   3.196   3.330   6.079
  658SOL    HW1 2873   3.099   3.304   6.083
  658SOL    HW2 2874   3.230   3.344   6.172
  659SOL     OW 2875   3.104   6.556   6.425
  659SOL    HW1 2876   3.043   6.633   6.442
  659SOL    HW2 2877   3.075   6.508   6.342
  660SOL     OW 2878   4.821   4.360   1.765
  660SOL    HW1 2879   4.893   4.291   1.757
  660SOL    HW2 2880   4.734   4.321   1.734
  661SOL     OW 2881   4.625   6.098   3.584
  661SOL    HW1 2882   4.596   6.002   3.580
  661SOL    HW2 2883   4.553   6.154   3.624
  662SOL     OW 2884   3.857   0.556   5.294
  662SOL    HW1 2885   3.818   0.467   5.317
  662SOL    HW2 2886   3.793   0.628   5.321
  663SOL     OW 2887   2.350   3.439   6.034
  663SOL    HW1 2888   2.326   3.529   5.998
  663SOL    HW2 2889   2.326   3.368   5.967
  664SOL     OW 2890   0.286   6.407   6.582
  664SOL    HW1 2891   0.381   6.430   6.561
  664SOL    HW2 2892   0.225   6.466   6.529
  665SOL     OW 2893   4.405   5.500   1.852
  665SOL    HW1 2894   4.503   5.509   1.871
  665SOL    HW2 2895   4.366   5.430   1.912
  666SOL     OW 2896   5.105   1.039   2.077
  666SOL    HW1 2897   5.146   0.977   2.011
  666SOL    HW2 2898   5.102   1.131   2.040
  667SOL     OW 2899   1.126   5.168   2.854
  667SOL    HW1 2900   1.032   5.135   2.863
  667SOL    HW2 2901   1.178   5.146   2.936
  668SOL     OW 2902   4.739   6.519   6.238
  668SOL    HW1 2903   4.775   6.477   6.155
  668SOL    HW2 2904   4.747   6.618   6.231
  669SOL     OW 2905   5.243   0.505   3.221
  669SOL    HW1 2906   5.261   0.603   3.221
  669SOL    HW2 2907   5.146   0.489   3.200
  670SOL     OW 2908   3.031   2.085   2.038
  670SOL    HW1 2909   3.011   2.179   2.011
  670SOL    HW2 2910   2.946   2.038   2.059
  671SOL     OW 2911   3.084   6.366   1.162
  671SOL    HW1 2912   3.144   6.285   1.162
  671SOL    HW2 2913   3.082   6.405   1.070
  672SOL     OW 2914   6.282   5.475   2.304
  672SOL    HW1 2915   6.223   5.554   2.289
  672SOL    HW2 2916   6.348   5.469   2.229
  673SOL     OW 2917   6.586   6.875   0.936
  673SOL    HW1 2918   6.537   6.938   0.996
  673SOL    HW2 2919   6.616   6.924   0.854
  674SOL     OW 2920   0.486   1.447   4.538
  674SOL    HW1 2921   0.388   1.467   4.533
  674SOL    HW2 2922   0.526   1.454   4.447
  675SOL     OW 2923   5.918   2.244   2.642
  675SOL    HW1 2924   5.993   2.289   2.690
  675SOL    HW2 2925   5.882   2.304   2.571
  676SOL     OW 2926   2.778   5.567   3.656
  676SOL    HW1 2927   2.774   5.469   3.678
  676SOL    HW2 2928   2.749   5.620   3.736
  677SOL     OW 2929   5.097   1.382   0.671
  677SOL    HW1 2930   5.071   1.336   0.587
  677SOL    HW2 2931   5.030   1.362   0.742
  678SOL     OW 2932   2.843   5.993   5.100
  678SOL    HW1 2933   2.802   6.052   5.030
  678SOL    HW2 2934   2.782   5.916   5.119
  679SOL     OW 2935   5.005   1.874   3.911
  679SOL    HW1 2936   5.089   1.895   3.961
  679SOL    HW2 2937   4.934   1.939   3.937
  680SOL     OW 2938   4.896   6.103   4.843
  680SOL    HW1 2939   4.995   6.091   4.838
  680SOL    HW2 2940   4.865   6.086   4.936
  681SOL     OW 2941   4.815   5.602   1.719
  681SOL    HW1 2942   4.779   5.542   1.648
  681SOL    HW2 2943   4.768   5.690   1.716
  682SOL     OW 2944   6.063   1.234   1.585
  682SOL    HW1 2945   6.109   1.208   1.500
  682SOL    HW2 2946   6.070   1.159   1.650
  683SOL     OW 2947   4.285   2.432   0.289
  683SOL    HW1 2948   4.283   2.339   0.324
  683SOL    HW2 2949   4.222   2.440   0.212
  684SOL     OW 2950   6.320   0.931   0.689
  684SOL    HW1 2951   6.413   0.955   0.717
  684SOL    HW2 2952   6.277   1.008   0.643
  685SOL     OW 2953   3.458   2.125   4.011
  685SOL    HW1 2954   3.525   2.186   4.054
  685SOL    HW2 2955   3.481   2.030   4.032
  686SOL     OW 2956   4.828   2.027   4.530
  686SOL    HW1 2957   4.820   2.113   4.480
  686SOL    HW2 2958   4.853   1.954   4.467
  687SOL     OW 2959   0.729   2.253   3.863
  687SOL    HW1 2960   0.814   2.256   3.811
  687SOL    HW2 2961   0.733   2.321   3.937
  688SOL     OW 2962   0.470   1.462   6.289
  688SOL    HW1 2963   0.509   1.450   6.381
  688SOL    HW2 2964   0.373   1.483   6.296
  689SOL     OW 2965   1.201   4.418   5.936
  689SOL    HW1 2966   1.126   4.473   5.971
  689SOL    HW2 2967   1.177   4.382   5.846
  690SOL     OW 2968   6.637   3.419   2.955
  690SOL    HW1 2969   6.725   3.379   2.929
  690SOL    HW2 2970   6.653   3.511   2.993
  691SOL     OW 2971   3.436   1.738   6.960
  691SOL    HW1 2972   3.435   1.644   6.924
  691SOL    HW2 2973   3.465   1.800   6.888
  692SOL     OW 2974   4.353   2.235   4.184
  692SOL    HW1 2975   4.386   2.245   4.278
  692SOL    HW2 2976   4.350   2.325   4.140
  693SOL     OW 2977   4.772   6.559   3.965
  693SOL    HW1 2978   4.794   6.601   4.053
  693SOL    HW2 2979   4.696   6.496   3.975
  694SOL     OW 2980   4.173   6.788   4.868
  694SOL    HW1 2981   4.182   6.689   4.882
  694SOL    HW2 2982   4.260   6.825   4.833
  695SOL     OW 2983   3.772   6.708   3.776
  695SOL    HW1 2984   3.811   6.796   3.751
  695SOL    HW2 2985   3.798   6.685   3.870
  696SOL     OW 2986   5.129   4.707   3.516
  696SOL    HW1 2987   5.226   4.725   3.498
  696SOL    HW2 2988   5.091   4.781   3.571
  697SOL     OW 2989   1.840   3.762   2.482
  697SOL    HW1 2990   1.893   3.766   2.398
  697SOL    HW2 2991   1.869   3.836   2.544
  698SOL     OW 2992   5.547   6.344   1.189
  698SOL    HW1 2993   5.551   6.412   1.115
  698SOL    HW2 2994   5.468   6.364   1.248
  699SOL     OW 2995   1.692   3.875   0.161
  699SOL    HW1 2996   1.787   3.848   0.144
  699SOL    HW2 2997   1.685   3.975   0.162
  700SOL     OW 2998   3.703   0.215   2.310
  700SOL    HW1 2999   3.802   0.212   2.298
  700SOL    HW2 3000   3.680   0.185   2.402
  701SOL     OW 3001   6.823   3.849   0.012
  701SOL    HW1 3002   6.748   3.911   7.012
  701SOL    HW2 3003   6.793   3.784   0.082
  702SOL     OW 3004   1.560   6.136   4.932
  702SOL    HW1 3005   1.461   6.119   4.938
  702SOL    HW2 3006   1.589   6.128   4.837
  703SOL     OW 3007   3.645   3.463   5.644
  703SOL    HW1 3008   3.625   3.384   5.702
  703SOL    HW2 3009   3.728   3.445   5.591
  704SOL     OW 3010   1.693   2.693   6.434
  704SOL    HW1 3011   1.749   2.763   6.392
  704SOL    HW2 3012   1.750   2.615   6.460
  705SOL     OW 3013   5.606   5.770   2.891
  705SOL    HW1 3014   5.683   5.807   2.943
  705SOL    HW2 3015   5.623   5.780   2.793
  706SOL     OW 3016   4.104   1.703   5.511
  706SOL    HW1 3017   4.166   1.670   5.440
  706SOL    HW2 3018   4.040   1.770   5.471
  707SOL     OW 3019   4.177   4.846   3.041
  707SOL    HW1 3020   4.230   4.774   3.085
  707SOL    HW2 3021   4.145   4.814   2.952
  708SOL     OW 3022   2.808   1.020   2.626
  708SOL    HW1 3023   2.857   1.106   2.611
  708SOL    HW2 3024   2.872   0.943   2.620
  709SOL     OW 3025   1.435   5.925   0.640
  709SOL    HW1 3026   1.383   5.971   0.568
  709SOL    HW2 3027   1.406   5.959   0.729
  710SOL     OW 3028   4.146   1.826   1.010
  710SOL    HW1 3029   4.126   1.883   0.931
  710SOL    HW2 3030   4.119   1.874   1.094
  711SOL     OW 3031   7.016   2.758   5.814
  711SOL    HW1 3032   7.000   2.730   5.909
  711SOL    HW2 3033   0.076   2.712   5.779
  712SOL     OW 3034   4.678   2.582   0.478
  712SOL    HW1 3035   4.686   2.513   0.406
  712SOL    HW2 3036   4.707   2.543   0.565
  713SOL     OW 3037   4.041   3.560   5.890
  713SOL    HW1 3038   4.062   3.464   5.906
  713SOL    HW2 3039   4.116   3.617   5.924
  714SOL     OW 3040   7.011   5.216   4.067
  714SOL    HW1 3041   0.017   5.229   3.971
  714SOL    HW2 3042   0.046   5.274   4.125
  715SOL     OW 3043   5.493   6.055   6.536
  715SOL    HW1 3044   5.399   6.088   6.528
  715SOL    HW2 3045   5.505   5.975   6.477
  716SOL     OW 3046   0.840   1.162   2.602
  716SOL    HW1 3047   0.889   1.208   2.528
  716SOL    HW2 3048   0.895   1.168   2.686
  717SOL     OW 3049   6.706   4.779   4.164
  717SOL    HW1 3050   6.738   4.777   4.069
  717SOL    HW2 3051   6.711   4.873   4.198
  718SOL     OW 3052   4.677   3.071   5.670
  718SOL    HW1 3053   4.719   3.162   5.665
  718SOL    HW2 3054   4.581   3.080   5.697
  719SOL     OW 3055   5.849   6.952   2.610
  719SOL    HW1 3056   5.909   6.920   2.684
  719SOL    HW2 3057   5.827   6.876   2.550
  720SOL     OW 3058   2.155   0.391   6.335
  720SOL    HW1 3059   2.246   0.364   6.302
  720SOL    HW2 3060   2.153   0.491   6.347
  721SOL     OW 3061   2.334   1.139   2.181
  721SOL    HW1 3062   2.427   1.138   2.145
  721SOL    HW2 3063   2.333   1.099   2.273
  722SOL     OW 3064   3.284   0.985   5.487
  722SOL    HW1 3065   3.194   1.029   5.480
  722SOL    HW2 3066   3.330   1.015   5.571
  723SOL     OW 3067   2.222   5.151   3.635
  723SOL    HW1 3068   2.314   5.113   3.624
  723SOL    HW2 3069   2.197   5.149   3.731
  724SOL     OW 3070   0.689   1.380   3.403
  724SOL    HW1 3071   0.761   1.314   3.383
  724SOL    HW2 3072   0.645   1.356   3.489
  725SOL     OW 3073   1.429   4.849   2.739
  725SOL    HW1 3074   1.332   4.840   2.716
  725SOL    HW2 3075   1.481   4.775   2.694
  726SOL     OW 3076   2.829   5.023   1.403
  726SOL    HW1 3077   2.828   4.972   1.489
  726SOL    HW2 3078   2.760   5.096   1.406
  727SOL     OW 3079   5.225   4.683   6.338
  727SOL    HW1 3080   5.259   4.600   6.293
  727SOL    HW2 3081   5.162   4.657   6.412
  728SOL     OW 3082   6.457   3.541   4.188
  728SOL    HW1 3083   6.463   3.640   4.179
  728SOL    HW2 3084   6.548   3.502   4.196
  729SOL     OW 3085   0.301   2.835   1.213
  729SOL    HW1 3086   0.396   2.866   1.213
  729SOL    HW2 3087   0.249   2.889   1.146
  730SOL     OW 3088   7.013   0.218   4.408
  730SOL    HW1 3089   6.916   0.220   4.383
  730SOL    HW2 3090   0.042   0.164   4.341
  731SOL     OW 3091   4.766   5.353   6.626
  731SOL    HW1 3092   4.820   5.369   6.544
  731SOL    HW2 3093   4.696   5.285   6.608
  732SOL     OW 3094   6.037   2.667   2.747
  732SOL    HW1 3095   5.944   2.698   2.766
  732SOL    HW2 3096   6.035   2.569   2.729
  733SOL     OW 3097   5.447   0.417   5.327
  733SOL    HW1 3098   5.481   0.385   5.415
  733SOL    HW2 3099   5.512   0.480   5.287
  734SOL     OW 3100   5.874   5.148   2.621
  734SOL    HW1 3101   5.944   5.198   2.672
  734SOL    HW2 3102   5.823   5.089   2.683
  735SOL     OW 3103   4.138   1.614   0.504
  735SOL    HW1 3104   4.212   1.602   0.437
  735SOL    HW2 3105   4.134   1.709   0.532
  736SOL     OW 3106   0.958   1.400   3.692
  736SOL    HW1 3107   0.956   1.304   3.720
  736SOL    HW2 3108   0.991   1.456   3.768
  737SOL     OW 3109   5.525   1.537   6.112
  737SOL    HW1 3110   5.620   1.507   6.109
  737SOL    HW2 3111   5.481   1.516   6.025
  738SOL     OW 3112   2.835   3.899   1.528
  738SOL    HW1 3113   2.844   3.816   1.472
  738SOL    HW2 3114   2.753   3.891   1.586
  739SOL     OW 3115   4.040   0.438   4.487
  739SOL    HW1 3116   4.093   0.354   4.497
  739SOL    HW2 3117   4.069   0.504   4.557
  740SOL     OW 3118   5.422   1.741   3.133
  740SOL    HW1 3119   5.504   1.747   3.075
  740SOL    HW2 3120   5.450   1.723   3.227
  741SOL     OW 3121   1.949   0.222   3.937
  741SOL    HW1 3122   1.898   0.141   3.908
  741SOL    HW2 3123   1.965   0.282   3.859
  742SOL     OW 3124   1.904   6.327   1.462
  742SOL    HW1 3125   1.808   6.329   1.434
  742SOL    HW2 3126   1.954   6.262   1.404
  743SOL     OW 3127   0.092   5.392   3.328
  743SOL    HW1 3128   0.128   5.348   3.246
  743SOL    HW2 3129   0.004   5.435   3.307
  744SOL     OW 3130   5.913   0.612   0.534
  744SOL    HW1 3131   5.914   0.526   0.585
  744SOL    HW2 3132   5.994   0.666   0.559
  745SOL     OW 3133   2.077   5.670   5.361
  745SOL    HW1 3134   2.124   5.665   5.273
  745SOL    HW2 3135   2.105   5.753   5.409
  746SOL     OW 3136   5.973   3.815   6.017
  746SOL    HW1 3137   6.068   3.833   6.040
  746SOL    HW2 3138   5.952   3.854   5.928
  747SOL     OW 3139   4.174   5.971   4.812
  747SOL    HW1 3140   4.132   5.880   4.817
  747SOL    HW2 3141   4.263   5.964   4.768
  748SOL     OW 3142   4.661   5.471   2.283
  748SOL    HW1 3143   4.573   5.487   2.326
  748SOL    HW2 3144   4.720   5.421   2.346
  749SOL     OW 3145   5.763   3.840   4.578
  749SOL    HW1 3146   5.839   3.823   4.641
  749SOL    HW2 3147   5.795   3.828   4.484
  750SOL     OW 3148   2.390   1.405   1.352
  750SOL    HW1 3149   2.458   1.460   1.304
  750SOL    HW2 3150   2.429   1.369   1.436
  751SOL     OW 3151   4.377   1.177   0.103
  751SOL    HW1 3152   4.473   1.164   0.130
  751SOL    HW2 3153   4.364   1.270   0.070
  752SOL     OW 3154   3.036   3.188   0.324
  752SOL    HW1 3155   3.061   3.105   0.373
  752SOL    HW2 3156   2.959   3.168   0.263
  753SOL     OW 3157   1.590   3.579   5.987
  753SOL    HW1 3158   1.599   3.482   5.964
  753SOL    HW2 3159   1.588   3.633   5.903
  754SOL     OW 3160   4.841   1.731   6.468
  754SOL    HW1 3161   4.762   1.769   6.517
  754SOL    HW2 3162   4.918   1.722   6.531
  755SOL     OW 3163   2.612   4.630   5.519
  755SOL    HW1 3164   2.603   4.725   5.491
  755SOL    HW2 3165   2.612   4.571   5.438
  756SOL     OW 3166   2.503   5.308   6.868
  756SOL    HW1 3167   2.442   5.313   6.947
  756SOL    HW2 3168   2.598   5.301   6.899
  757SOL     OW 3169   1.975   5.867   3.660
  757SOL    HW1 3170   1.943   5.958   3.684
  757SOL    HW2 3171   2.018   5.825   3.740
  758SOL     OW 3172   4.206   0.757   3.494
  758SOL    HW1 3173   4.155   0.841   3.514
  758SOL    HW2 3174   4.222   0.707   3.579
  759SOL     OW 3175   0.209   2.802   2.589
  759SOL    HW1 3176   0.203   2.798   2.489
  759SOL    HW2 3177   0.139   2.864   2.624
  760SOL     OW 3178   6.450   6.848   4.195
  760SOL    HW1 3179   6.355   6.828   4.171
  760SOL    HW2 3180   6.507   6.768   4.175
  761SOL     OW 3181   5.548   4.235   6.678
  761SOL    HW1 3182   5.585   4.164   6.739
  761SOL    HW2 3183   5.596   4.233   6.591
  762SOL     OW 3184   3.130   0.345   5.382
  762SOL    HW1 3185   3.092   0.368   5.293
  762SOL    HW2 3186   3.098   0.255   5.411
  763SOL     OW 3187   4.278   6.476   6.452
  763SOL    HW1 3188   4.231   6.397   6.412
  763SOL    HW2 3189   4.272   6.472   6.551
  764SOL     OW 3190   5.209   0.675   5.838
  764SOL    HW1 3191   5.183   0.770   5.826
  764SOL    HW2 3192   5.135   0.616   5.806
  765SOL     OW 3193   1.655   6.222   0.500
  765SOL    HW1 3194   1.585   6.293   0.493
  765SOL    HW2 3195   1.663   6.192   0.595
  766SOL     OW 3196   2.920   2.049   5.292
  766SOL    HW1 3197   2.948   2.003   5.377
  766SOL    HW2 3198   2.934   2.147   5.302
  767SOL     OW 3199   6.434   6.498   3.960
  767SOL    HW1 3200   6.487   6.525   4.039
  767SOL    HW2 3201   6.410   6.579   3.906
  768SOL     OW 3202   1.932   5.499   3.771
  768SOL    HW1 3203   1.899   5.584   3.813
  768SOL    HW2 3204   1.889   5.421   3.816
  769SOL     OW 3205   3.013   1.077   5.439
  769SOL    HW1 3206   2.978   1.032   5.356
  769SOL    HW2 3207   2.944   1.071   5.511
  770SOL     OW 3208   1.622   5.364   4.045
  770SOL    HW1 3209   1.701   5.338   3.989
  770SOL    HW2 3210   1.598   5.460   4.025
  771SOL     OW 3211   1.303   4.673   3.037
  771SOL    HW1 3212   1.280   4.614   2.960
  771SOL    HW2 3213   1.289   4.769   3.011
  772SOL     OW 3214   6.309   4.930   6.457
  772SOL    HW1 3215   6.239   4.871   6.498
  772SOL    HW2 3216   6.318   5.013   6.511
  773SOL     OW 3217   0.570   3.785   3.234
  773SOL    HW1 3218   0.510   3.739   3.168
  773SOL    HW2 3219   0.658   3.803   3.191
  774SOL     OW 3220   1.461   1.739   2.853
  774SOL    HW1 3221   1.493   1.657   2.806
  774SOL    HW2 3222   1.468   1.725   2.952
  775SOL     OW 3223   2.110   1.821   4.182
  775SOL    HW1 3224   2.170   1.745   4.206
  775SOL    HW2 3225   2.158   1.884   4.122
  776SOL     OW 3226   6.841   0.885   6.248
  776SOL    HW1 3227   6.842   0.840   6.159
  776SOL    HW2 3228   6.906   0.961   6.247
  777SOL     OW 3229   1.984   4.316   1.273
  777SOL    HW1 3230   1.996   4.339   1.369
  777SOL    HW2 3231   1.984   4.216   1.262
  778SOL     OW 3232   2.118   0.121   1.561
  778SOL    HW1 3233   2.117   0.025   1.533
  778SOL    HW2 3234   2.212   0.151   1.576
  779SOL     OW 3235   6.731   2.038   2.391
  779SOL    HW1 3236   6.819   2.052   2.438
  779SOL    HW2 3237   6.723   1.942   2.364
  780SOL     OW 3238   0.727   2.472   4.050
  780SOL    HW1 3239   0.683   2.461   4.139
  780SOL    HW2 3240   0.693   2.556   4.006
  781SOL     OW 3241   5.674   5.311   0.741
  781SOL    HW1 3242   5.605   5.242   0.718
  781SOL    HW2 3243   5.654   5.396   0.692
  782SOL     OW 3244   1.836   3.997   5.500
  782SOL    HW1 3245   1.740   4.007   5.528
  782SOL    HW2 3246   1.890   4.071   5.540
  783SOL     OW 3247   5.557   4.666   1.276
  783SOL    HW1 3248   5.504   4.607   1.216
  783SOL    HW2 3249   5.613   4.609   1.337
  784SOL     OW 3250   4.273   5.317   1.594
  784SOL    HW1 3251   4.334   5.359   1.661
  784SOL    HW2 3252   4.185   5.297   1.636
  785SOL     OW 3253   0.457   1.297   3.662
  785SOL    HW1 3254   0.370   1.248   3.662
  785SOL    HW2 3255   0.441   1.395   3.650
  786SOL     OW 3256   6.986   0.678   2.628
  786SOL    HW1 3257   6.890   0.705   2.620
  786SOL    HW2 3258   0.011   0.738   2.693
  787SOL     OW 3259   1.544   6.780   6.572
  787SOL    HW1 3260   1.478   6.734   6.631
  787SOL    HW2 3261   1.527   6.754   6.477
  788SOL     OW 3262   4.262   2.374   1.062
  788SOL    HW1 3263   4.211   2.310   1.119
  788SOL    HW2 3264   4.199   2.427   1.005
  789SOL     OW 3265   4.643   5.282   2.081
  789SOL    HW1 3266   4.634   5.354   2.151
  789SOL    HW2 3267   4.558   5.230   2.075
  790SOL     OW 3268   2.362   0.971   2.411
  790SOL    HW1 3269   2.295   1.011   2.473
  790SOL    HW2 3270   2.440   0.937   2.464
  791SOL     OW 3271   2.412   6.088   5.605
  791SOL    HW1 3272   2.485   6.024   5.627
  791SOL    HW2 3273   2.413   6.108   5.507
  792SOL     OW 3274   0.758   0.423   1.997
  792SOL    HW1 3275   0.717   0.503   1.953
  792SOL    HW2 3276   0.709   0.403   2.083
  793SOL     OW 3277   5.179   5.736   5.108
  793SOL    HW1 3278   5.166   5.646   5.148
  793SOL    HW2 3279   5.090   5.778   5.089
  794SOL     OW 3280   3.091   3.528   5.557
  794SOL    HW1 3281   3.161   3.464   5.525
  794SOL    HW2 3282   3.129   3.620   5.563
  795SOL     OW 3283   4.078   0.188   5.625
  795SOL    HW1 3284   4.002   0.147   5.574
  795SOL    HW2 3285   4.092   0.283   5.594
  796SOL     OW 3286   1.565   2.717   0.387
  796SOL    HW1 3287   1.503   2.703   0.464
  796SOL    HW2 3288   1.513   2.750   0.308
  797SOL     OW 3289   4.391   0.707   0.761
  797SOL    HW1 3290   4.415   0.803   0.775
  797SOL    HW2 3291   4.475   0.653   0.754
  798SOL     OW 3292   3.798   6.120   1.457
  798SOL    HW1 3293   3.746   6.190   1.507
  798SOL    HW2 3294   3.767   6.116   1.363
  799SOL     OW 3295   0.841   0.387   6.352
  799SOL    HW1 3296   0.935   0.411   6.328
  799SOL    HW2 3297   0.810   0.312   6.293
  800SOL     OW 3298   6.840   0.943   2.304
  800SOL    HW1 3299   6.750   0.899   2.316
  800SOL    HW2 3300   6.912   0.878   2.330
  801SOL     OW 3301   2.356   4.272   5.194
  801SOL    HW1 3302   2.371   4.340   5.123
  801SOL    HW2 3303   2.371   4.180   5.156
  802SOL     OW 3304   3.337   2.174   0.149
  802SOL    HW1 3305   3.238   2.183   0.159
  802SOL    HW2 3306   3.378   2.151   0.237
  803SOL     OW 3307   1.620   6.942   5.613
  803SOL    HW1 3308   1.690   6.929   5.543
  803SOL    HW2 3309   1.533   6.963   5.570
  804SOL     OW 3310   6.698   0.135   1.676
  804SOL    HW1 3311   6.794   0.162   1.670
  804SOL    HW2 3312   6.685   0.076   1.756
  805SOL     OW 3313   1.734   0.450   3.825
  805SOL    HW1 3314   1.708   0.368   3.774
  805SOL    HW2 3315   1.662   0.519   3.816
  806SOL     OW 3316   6.023   0.347   6.576
  806SOL    HW1 3317   6.114   0.318   6.548
  806SOL    HW2 3318   5.955   0.308   6.514
  807SOL     OW 3319   0.664   6.836   3.789
  807SOL    HW1 3320   0.575   6.879   3.809
  807SOL    HW2 3321   0.733   6.875   3.850
  808SOL     OW 3322   5.032   3.153   6.676
  808SOL    HW1 3323   5.087   3.117   6.752
  808SOL    HW2 3324   5.057   3.106   6.591
  809SOL     OW 3325   1.082   4.852   0.628
  809SOL    HW1 3326   1.174   4.813   0.636
  809SOL    HW2 3327   1.089   4.950   0.608
  810SOL     OW 3328   3.403   3.958   0.059
  810SOL    HW1 3329   3.326   3.959   7.017
  810SOL    HW2 3330   3.451   3.870   0.053
  811SOL     OW 3331   5.093   5.255   4.243
  811SOL    HW1 3332   5.190   5.249   4.216
  811SOL    HW2 3333   5.052   5.164   4.236
  812SOL     OW 3334   0.331   1.693   2.229
  812SOL    HW1 3335   0.272   1.772   2.213
  812SOL    HW2 3336   0.419   1.706   2.183
  813SOL     OW 3337   2.678   0.565   4.557
  813SOL    HW1 3338   2.642   0.574   4.650
  813SOL    HW2 3339   2.682   0.468   4.532
  814SOL     OW 3340   6.609   6.094   2.903
  814SOL    HW1 3341   6.653   6.053   2.823
  814SOL    HW2 3342   6.640   6.188   2.914
  815SOL     OW 3343   5.754   3.186   3.299
  815SOL    HW1 3344   5.772   3.144   3.211
  815SOL    HW2 3345   5.808   3.140   3.370
  816SOL     OW 3346   5.250   5.100   0.022
  816SOL    HW1 3347   5.153   5.081   0.034
  816SOL    HW2 3348   5.267   5.198   0.037
  817SOL     OW 3349   0.697   5.207   1.807
  817SOL    HW1 3350   0.722   5.171   1.896
  817SOL    HW2 3351   0.777   5.249   1.764
  818SOL     OW 3352   5.834   3.052   3.508
  818SOL    HW1 3353   5.763   2.982   3.499
  818SOL    HW2 3354   5.820   3.102   3.594
  819SOL     OW 3355   6.309   2.620   1.931
  819SOL    HW1 3356   6.406   2.617   1.904
  819SOL    HW2 3357   6.273   2.527   1.936
  820SOL     OW 3358   3.150   2.198   4.588
  820SOL    HW1 3359   3.230   2.202   4.528
  820SOL    HW2 3360   3.178   2.160   4.677
  821SOL     OW 3361   6.002   4.975   6.052
  821SOL    HW1 3362   5.921   5.033   6.049
  821SOL    HW2 3363   5.985   4.896   6.111
  822SOL     OW 3364   0.032   3.451   3.290
  822SOL    HW1 3365   0.129   3.452   3.316
  822SOL    HW2 3366   7.007   3.378   3.339
  823SOL     OW 3367   6.398   4.160   6.651
  823SOL    HW1 3368   6.377   4.081   6.594
  823SOL    HW2 3369   6.497   4.163   6.668
  824SOL     OW 3370   4.884   1.080   5.855
  824SOL    HW1 3371   4.971   1.041   5.884
  824SOL    HW2 3372   4.859   1.042   5.766
  825SOL     OW 3373   6.479   5.843   1.053
  825SOL    HW1 3374   6.439   5.923   1.099
  825SOL    HW2 3375   6.570   5.866   1.019
  826SOL     OW 3376   3.421   2.451   5.775
  826SOL    HW1 3377   3.516   2.439   5.746
  826SOL    HW2 3378   3.395   2.547   5.765
  827SOL     OW 3379   2.949   4.127   5.256
  827SOL    HW1 3380   3.010   4.088   5.325
  827SOL    HW2 3381   3.004   4.173   5.186
  828SOL     OW 3382   5.755   6.240   6.243
  828SOL    HW1 3383   5.748   6.335   6.215
  828SOL    HW2 3384   5.715   6.228   6.334
  829SOL     OW 3385   3.667   3.208   1.939
  829SOL    HW1 3386   3.690   3.130   1.998
  829SOL    HW2 3387   3.570   3.202   1.913
  830SOL     OW 3388   5.878   5.216   6.749
  830SOL    HW1 3389   5.814   5.262   6.688
  830SOL    HW2 3390   5.915   5.282   6.815
  831SOL     OW 3391   6.039   0.130   1.051
  831SOL    HW1 3392   6.016   0.227   1.058
  831SOL    HW2 3393   5.993   0.079   1.124
  832SOL     OW 3394   4.595   1.808   4.050
  832SOL    HW1 3395   4.669   1.749   4.019
  832SOL    HW2 3396   4.608   1.832   4.146
  833SOL     OW 3397   2.217   3.636   5.832
  833SOL    HW1 3398   2.151   3.711   5.828
  833SOL    HW2 3399   2.281   3.643   5.756
  834SOL     OW 3400   5.348   3.375   0.845
  834SOL    HW1 3401   5.262   3.326   0.855
  834SOL    HW2 3402   5.373   3.416   0.933
  835SOL     OW 3403   2.009   0.460   4.776
  835SOL    HW1 3404   2.100   0.433   4.745
  835SOL    HW2 3405   1.985   0.411   4.859
  836SOL     OW 3406   3.186   1.101   4.993
  836SOL    HW1 3407   3.150   1.021   4.945
  836SOL    HW2 3408   3.273   1.077   5.036
  837SOL     OW 3409   0.496   0.351   0.574
  837SOL    HW1 3410   0.549   0.371   0.656
  837SOL    HW2 3411   0.553   0.365   0.493
  838SOL     OW 3412   2.441   6.211   4.729
  838SOL    HW1 3413   2.450   6.240   4.634
  838SOL    HW2 3414   2.467   6.115   4.738
  839SOL     OW 3415   2.136   1.394   1.709
  839SOL    HW1 3416   2.104   1.411   1.803
  839SOL    HW2 3417   2.222   1.443   1.694
  840SOL     OW 3418   6.063   5.255   0.475
  840SOL    HW1 3419   6.143   5.197   0.492
  840SOL    HW2 3420   6.028   5.290   0.561
  841SOL     OW 3421   3.172   5.498   6.129
  841SOL    HW1 3422   3.237   5.482   6.204
  841SOL    HW2 3423   3.113   5.418   6.118
  842SOL     OW 3424   3.593   6.913   6.392
  842SOL    HW1 3425   3.524   6.905   6.463
  842SOL    HW2 3426   3.681   6.939   6.433
  843SOL     OW 3427   1.719   1.884   1.821
  843SOL    HW1 3428   1.710   1.879   1.721
  843SOL    HW2 3429   1.671   1.807   1.863
  844SOL     OW 3430   0.064   6.823   1.108
  844SOL    HW1 3431   0.051   6.725   1.119
  844SOL    HW2 3432   6.996   6.869   1.109
  845SOL     OW 3433   5.148   3.809   3.197
  845SOL    HW1 3434   5.162   3.868   3.118
  845SOL    HW2 3435   5.053   3.777   3.199
  846SOL     OW 3436   2.747   0.802   5.920
  846SOL    HW1 3437   2.759   0.794   6.019
  846SOL    HW2 3438   2.818   0.861   5.882
  847SOL     OW 3439   2.107   2.914   1.908
  847SOL    HW1 3440   2.109   2.966   1.823
  847SOL    HW2 3441   2.124   2.976   1.985
  848SOL     OW 3442   6.668   6.999   5.706
  848SOL    HW1 3443   6.603   0.036   5.754
  848SOL    HW2 3444   6.761   0.003   5.733
  849SOL     OW 3445   6.076   4.467   5.927
  849SOL    HW1 3446   6.170   4.491   5.906
  849SOL    HW2 3447   6.015   4.506   5.857
  850SOL     OW 3448   6.553   0.220   5.237
  850SOL    HW1 3449   6.461   0.223   5.198
  850SOL    HW2 3450   6.562   0.140   5.296
  851SOL     OW 3451   0.114   2.892   6.940
  851SOL    HW1 3452   0.111   2.925   0.013
  851SOL    HW2 3453   0.175   2.952   6.887
  852SOL     OW 3454   0.851   4.744   0.741
  852SOL    HW1 3455   0.771   4.788   0.701
  852SOL    HW2 3456   0.934   4.782   0.699
  853SOL     OW 3457   0.977   4.451   7.012
  853SOL    HW1 3458   0.882   4.444   6.981
  853SOL    HW2 3459   1.013   4.541   6.988
  854SOL     OW 3460   4.762   6.030   0.014
  854SOL    HW1 3461   4.719   5.940   0.006
  854SOL    HW2 3462   4.860   6.022   7.018
  855SOL     OW 3463   6.703   0.035   0.470
  855SOL    HW1 3464   6.636   0.108   0.469
  855SOL    HW2 3465   6.697   7.004   0.385
  856SOL     OW 3466   1.331   1.286   6.851
  856SOL    HW1 3467   1.244   1.284   6.901
  856SOL    HW2 3468   1.397   1.341   6.901
  857SOL     OW 3469   6.331   5.503   2.582
  857SOL    HW1 3470   6.246   5.536   2.624
  857SOL    HW2 3471   6.322   5.505   2.483
  858SOL     OW 3472   3.399   4.757   0.905
  858SOL    HW1 3473   3.344   4.673   0.894
  858SOL    HW2 3474   3.488   4.745   0.861
  859SOL     OW 3475   5.937   6.012   5.324
  859SOL    HW1 3476   5.906   5.942   5.259
  859SOL    HW2 3477   5.880   6.093   5.314
  860SOL     OW 3478   6.156   2.831   6.565
  860SOL    HW1 3479   6.125   2.744   6.602
  860SOL    HW2 3480   6.080   2.897   6.566
  861SOL     OW 3481   2.488   5.270   2.977
  861SOL    HW1 3482   2.526   5.212   2.904
  861SOL    HW2 3483   2.563   5.309   3.031
  862SOL     OW 3484   2.240   4.148   3.109
  862SOL    HW1 3485   2.234   4.066   3.052
  862SOL    HW2 3486   2.150   4.193   3.112
  863SOL     OW 3487   6.129   1.263   6.228
  863SOL    HW1 3488   6.135   1.259   6.128
  863SOL    HW2 3489   6.168   1.180   6.267
  864SOL     OW 3490   3.860   6.091   4.999
  864SOL    HW1 3491   3.764   6.100   5.029
  864SOL    HW2 3492   3.888   5.996   5.007
  865SOL     OW 3493   1.972   0.109   5.596
  865SOL    HW1 3494   1.908   0.172   5.641
  865SOL    HW2 3495   1.932   0.075   5.512
  866SOL     OW 3496   3.270   7.003   0.772
  866SOL    HW1 3497   3.234   6.976   0.683
  866SOL    HW2 3498   3.194   0.005   0.833
  867SOL     OW 3499   4.981   3.601   1.208
  867SOL    HW1 3500   5.017   3.600   1.301
  867SOL    HW2 3501   4.901   3.540   1.203
  868SOL     OW 3502   6.888   1.543   1.599
  868SOL    HW1 3503   6.851   1.492   1.677
  868SOL    HW2 3504   6.988   1.545   1.606
  869SOL     OW 3505   6.926   4.494   3.212
  869SOL    HW1 3506   6.918   4.592   3.197
  869SOL    HW2 3507   7.019   4.471   3.240
  870SOL     OW 3508   4.398   4.251   0.988
  870SOL    HW1 3509   4.332   4.184   0.956
  870SOL    HW2 3510   4.394   4.257   1.088
  871SOL     OW 3511   5.671   2.463   4.034
  871SOL    HW1 3512   5.668   2.369   4.068
  871SOL    HW2 3513   5.600   2.517   4.079
  872SOL     OW 3514   6.281   2.460   4.115
  872SOL    HW1 3515   6.228   2.423   4.191
  872SOL    HW2 3516   6.262   2.407   4.032
  873SOL     OW 3517   4.861   5.707   5.366
  873SOL    HW1 3518   4.907   5.708   5.455
  873SOL    HW2 3519   4.834   5.613   5.344
  874SOL     OW 3520   6.492   3.661   0.366
  874SOL    HW1 3521   6.418   3.666   0.298
  874SOL    HW2 3522   6.463   3.601   0.441
  875SOL     OW 3523   4.441   4.691   0.847
  875SOL    HW1 3524   4.517   4.665   0.787
  875SOL    HW2 3525   4.461   4.661   0.941
  876SOL     OW 3526   0.477   5.582   2.147
  876SOL    HW1 3527   0.515   5.616   2.233
  876SOL    HW2 3528   0.548   5.533   2.096
  877SOL     OW 3529   3.138   4.567   5.961
  877SOL    HW1 3530   3.201   4.493   5.985
  877SOL    HW2 3531   3.105   4.554   5.868
  878SOL     OW 3532   4.477   6.449   4.202
  878SOL    HW1 3533   4.388   6.444   4.248
  878SOL    HW2 3534   4.545   6.401   4.256
  879SOL     OW 3535   3.963   0.289   1.811
  879SOL    HW1 3536   3.879   0.337   1.835
  879SOL    HW2 3537   3.946   0.190   1.811
  880SOL     OW 3538   3.506   3.530   3.761
  880SOL    HW1 3539   3.584   3.467   3.762
  880SOL    HW2 3540   3.449   3.512   3.841
  881SOL     OW 3541   5.263   3.589   5.290
  881SOL    HW1 3542   5.363   3.593   5.293
  881SOL    HW2 3543   5.230   3.652   5.219
  882SOL     OW 3544   0.989   2.555   4.030
  882SOL    HW1 3545   1.037   2.517   3.951
  882SOL    HW2 3546   0.901   2.508   4.041
  883SOL     OW 3547   3.227   0.804   1.034
  883SOL    HW1 3548   3.235   0.810   0.935
  883SOL    HW2 3549   3.228   0.896   1.074
  884SOL     OW 3550   5.895   4.290   5.721
  884SOL    HW1 3551   5.855   4.382   5.721
  884SOL    HW2 3552   5.866   4.241   5.804
  885SOL     OW 3553   3.599   1.138   4.736
  885SOL    HW1 3554   3.675   1.202   4.744
  885SOL    HW2 3555   3.577   1.123   4.639
  886SOL     OW 3556   3.406   0.493   0.150
  886SOL    HW1 3557   3.495   0.453   0.171
  886SOL    HW2 3558   3.401   0.585   0.188
  887SOL     OW 3559   3.652   6.516   3.613
  887SOL    HW1 3560   3.684   6.587   3.675
  887SOL    HW2 3561   3.566   6.545   3.570
  888SOL     OW 3562   0.124   5.999   3.148
  888SOL    HW1 3563   0.052   5.943   3.189
  888SOL    HW2 3564   0.158   5.954   3.066
  889SOL     OW 3565   6.805   2.112   0.443
  889SOL    HW1 3566   6.899   2.135   0.465
  889SOL    HW2 3567   6.756   2.194   0.415
  890SOL     OW 3568   1.979   4.853   2.957
  890SOL    HW1 3569   1.903   4.817   3.011
  890SOL    HW2 3570   2.062   4.856   3.013
  891SOL     OW 3571   6.173   3.829   1.370
  891SOL    HW1 3572   6.138   3.881   1.449
  891SOL    HW2 3573   6.097   3.793   1.317
  892SOL     OW 3574   2.916   3.775   4.815
  892SOL    HW1 3575   2.917   3.684   4.857
  892SOL    HW2 3576   2.880   3.841   4.881
  893SOL     OW 3577   2.153   6.381   3.215
  893SOL    HW1 3578   2.065   6.399   3.172
  893SOL    HW2 3579   2.162   6.436   3.298
  894SOL     OW 3580   0.985   2.971   1.910
  894SOL    HW1 3581   1.036   2.993   1.993
  894SOL    HW2 3582   0.892   3.006   1.917
  895SOL     OW 3583   1.288   4.503   3.649
  895SOL    HW1 3584   1.250   4.581   3.698
  895SOL    HW2 3585   1.319   4.434   3.714
  896SOL     OW 3586   5.356   4.551   1.133
  896SOL    HW1 3587   5.328   4.613   1.059
  896SOL    HW2 3588   5.333   4.457   1.107
  897SOL     OW 3589   3.975   1.742   6.666
  897SOL    HW1 3590   3.893   1.686   6.660
  897SOL    HW2 3591   4.046   1.705   6.606
  898SOL     OW 3592   3.551   6.505   2.743
  898SOL    HW1 3593   3.469   6.520   2.797
  898SOL    HW2 3594   3.598   6.423   2.775
  899SOL     OW 3595   0.167   6.477   0.287
  899SOL    HW1 3596   0.183   6.500   0.191
  899SOL    HW2 3597   0.222   6.537   0.345
  900SOL     OW 3598   5.547   0.166   0.158
  900SOL    HW1 3599   5.513   0.093   0.099
  900SOL    HW2 3600   5.612   0.223   0.108
  901SOL     OW 3601   1.755   0.703   3.538
  901SOL    HW1 3602   1.744   0.802   3.525
  901SOL    HW2 3603   1.793   0.686   3.629
  902SOL     OW 3604   1.478   2.059   1.293
  902SOL    HW1 3605   1.443   2.065   1.387
  902SOL    HW2 3606   1.417   2.110   1.232
  903SOL     OW 3607   1.183   3.006   6.687
  903SOL    HW1 3608   1.249   3.036   6.756
  903SOL    HW2 3609   1.121   3.082   6.666
  904SOL     OW 3610   1.751   1.402   2.354
  904SOL    HW1 3611   1.844   1.435   2.371
  904SOL    HW2 3612   1.686   1.477   2.366
  905SOL     OW 3613   5.419   2.964   5.971
  905SOL    HW1 3614   5.457   2.890   6.028
  905SOL    HW2 3615   5.385   3.037   6.031
  906SOL     OW 3616   0.367   2.062   6.444
  906SOL    HW1 3617   0.309   2.141   6.463
  906SOL    HW2 3618   0.462   2.085   6.462
  907SOL     OW 3619   5.563   3.494   0.625
  907SOL    HW1 3620   5.632   3.434   0.666
  907SOL    HW2 3621   5.522   3.551   0.696
  908SOL     OW 3622   2.834   4.771   3.103
  908SOL    HW1 3623   2.758   4.732   3.153
  908SOL    HW2 3624   2.908   4.794   3.167
  909SOL     OW 3625   4.064   6.577   1.549
  909SOL    HW1 3626   3.974   6.573   1.507
  909SOL    HW2 3627   4.128   6.520   1.497
  910SOL     OW 3628   3.481   1.666   1.335
  910SOL    HW1 3629   3.492   1.567   1.333
  910SOL    HW2 3630   3.389   1.689   1.368
  911SOL     OW 3631   1.271   6.609   6.495
  911SOL    HW1 3632   1.318   6.521   6.494
  911SOL    HW2 3633   1.254   6.639   6.401
  912SOL     OW 3634   6.010   1.534   2.954
  912SOL    HW1 3635   6.054   1.588   2.882
  912SOL    HW2 3636   6.008   1.586   3.039
  913SOL     OW 3637   3.637   0.620   3.271
  913SOL    HW1 3638   3.584   0.627   3.187
  913SOL    HW2 3639   3.644   0.710   3.314
  914SOL     OW 3640   2.201   0.209   5.970
  914SOL    HW1 3641   2.169   0.118   5.944
  914SOL    HW2 3642   2.301   0.208   5.978
  915SOL     OW 3643   6.088   3.673   6.762
  915SOL    HW1 3644   6.025   3.601   6.736
  915SOL    HW2 3645   6.045   3.762   6.747
  916SOL     OW 3646   1.533   3.135   2.536
  916SOL    HW1 3647   1.515   3.104   2.443
  916SOL    HW2 3648   1.619   3.096   2.569
  917SOL     OW 3649   0.696   6.779   1.468
  917SOL    HW1 3650   0.771   6.738   1.521
  917SOL    HW2 3651   0.667   6.864   1.512
  918SOL     OW 3652   3.889   0.832   1.287
  918SOL    HW1 3653   3.946   0.900   1.332
  918SOL    HW2 3654   3.922   0.818   1.194
  919SOL     OW 3655   6.586   0.225   2.679
  919SOL    HW1 3656   6.613   0.321   2.672
  919SOL    HW2 3657   6.613   0.177   2.596
  920SOL     OW 3658   2.150   4.059   2.303
  920SOL    HW1 3659   2.163   3.960   2.311
  920SOL    HW2 3660   2.062   4.084   2.342
  921SOL     OW 3661   3.759   5.333   4.224
  921SOL    HW1 3662   3.743   5.234   4.219
  921SOL    HW2 3663   3.855   5.350   4.247
  922SOL     OW 3664   3.015   3.136   4.283
  922SOL    HW1 3665   3.024   3.074   4.206
  922SOL    HW2 3666   3.050   3.226   4.258
  923SOL     OW 3667   2.144   3.646   6.160
  923SOL    HW1 3668   2.065   3.605   6.114
  923SOL    HW2 3669   2.121   3.740   6.187
  924SOL     OW 3670   6.711   3.900   1.999
  924SOL    HW1 3671   6.649   3.830   1.964
  924SOL    HW2 3672   6.711   3.897   2.099
  925SOL     OW 3673   0.273   2.023   0.203
  925SOL    HW1 3674   0.240   1.929   0.202
  925SOL    HW2 3675   0.205   2.082   0.248
  926SOL     OW 3676   6.835   1.177   1.378
  926SOL    HW1 3677   6.760   1.182   1.444
  926SOL    HW2 3678   6.798   1.175   1.286
  927SOL     OW 3679   5.612   3.593   3.130
  927SOL    HW1 3680   5.553   3.673   3.144
  927SOL    HW2 3681   5.556   3.514   3.105
  928SOL     OW 3682   2.232   5.995   0.299
  928SOL    HW1 3683   2.279   5.907   0.297
  928SOL    HW2 3684   2.281   6.057   0.361
  929SOL     OW 3685   0.291   0.357   6.896
  929SOL    HW1 3686   0.331   0.277   6.851
  929SOL    HW2 3687   0.233   0.406   6.831
  930SOL     OW 3688   5.521   6.866   6.105
  930SOL    HW1 3689   5.478   6.811   6.177
  930SOL    HW2 3690   5.550   6.807   6.030
  931SOL     OW 3691   7.013   0.888   5.018
  931SOL    HW1 3692   6.947   0.840   4.958
  931SOL    HW2 3693   6.998   0.986   5.011
  932SOL     OW 3694   2.792   1.049   3.357
  932SOL    HW1 3695   2.694   1.033   3.357
  932SOL    HW2 3696   2.839   0.972   3.315
  933SOL     OW 3697   1.532   5.202   3.567
  933SOL    HW1 3698   1.531   5.209   3.467
  933SOL    HW2 3699   1.626   5.186   3.598
  934SOL     OW 3700   2.676   5.827   0.175
  934SOL    HW1 3701   2.749   5.784   0.121
  934SOL    HW2 3702   2.610   5.871   0.113
  935SOL     OW 3703   5.200   4.123   4.351
  935SOL    HW1 3704   5.249   4.121   4.437
  935SOL    HW2 3705   5.152   4.036   4.337
  936SOL     OW 3706   0.295   0.220   5.646
  936SOL    HW1 3707   0.323   0.131   5.681
  936SOL    HW2 3708   0.206   0.211   5.600
  937SOL     OW 3709   5.928   1.492   6.434
  937SOL    HW1 3710   5.997   1.564   6.442
  937SOL    HW2 3711   5.918   1.446   6.522
  938SOL     OW 3712   5.771   4.708   5.892
  938SOL    HW1 3713   5.729   4.791   5.856
  938SOL    HW2 3714   5.750   4.699   5.989
  939SOL     OW 3715   0.363   6.714   3.562
  939SOL    HW1 3716   0.265   6.735   3.561
  939SOL    HW2 3717   0.415   6.800   3.568
  940SOL     OW 3718   0.450   4.017   0.908
  940SOL    HW1 3719   0.466   4.058   0.818
  940SOL    HW2 3720   0.377   4.067   0.955
  941SOL     OW 3721   5.740   1.580   0.189
  941SOL    HW1 3722   5.705   1.514   0.123
  941SOL    HW2 3723   5.715   1.673   0.161
  942SOL     OW 3724   5.818   0.027   2.258
  942SOL    HW1 3725   5.890   6.980   2.259
  942SOL    HW2 3726   5.848   0.107   2.207
  943SOL     OW 3727   1.182   4.533   2.785
  943SOL    HW1 3728   1.142   4.514   2.696
  943SOL    HW2 3729   1.113   4.520   2.856
  944SOL     OW 3730   0.236   5.688   5.527
  944SOL    HW1 3731   0.316   5.655   5.577
  944SOL    HW2 3732   0.173   5.612   5.512
  945SOL     OW 3733   0.680   4.638   6.179
  945SOL    HW1 3734   0.618   4.673   6.108
  945SOL    HW2 3735   0.696   4.541   6.163
  946SOL     OW 3736   5.030   4.036   5.550
  946SOL    HW1 3737   5.105   4.102   5.550
  946SOL    HW2 3738   4.987   4.034   5.460
  947SOL     OW 3739   3.487   2.984   3.107
  947SOL    HW1 3740   3.584   2.968   3.123
  947SOL    HW2 3741   3.464   3.079   3.130
  948SOL     OW 3742   5.159   1.255   2.998
  948SOL    HW1 3743   5.116   1.254   2.908
  948SOL    HW2 3744   5.123   1.330   3.052
  949SOL     OW 3745   2.863   5.724   0.013
  949SOL    HW1 3746   2.951   5.769   0.027
  949SOL    HW2 3747   2.868   5.629   0.044
  950SOL     OW 3748   6.066   5.663   2.285
  950SOL    HW1 3749   6.062   5.763   2.286
  950SOL    HW2 3750   5.991   5.626   2.339
  951SOL     OW 3751   1.644   0.027   4.017
  951SOL    HW1 3752   1.648   6.949   4.018
  951SOL    HW2 3753   1.721   0.064   4.070
  952SOL     OW 3754   4.530   2.505   3.311
  952SOL    HW1 3755   4.522   2.422   3.256
  952SOL    HW2 3756   4.592   2.570   3.267
  953SOL     OW 3757   5.718   5.784   4.608
  953SOL    HW1 3758   5.799   5.729   4.586
  953SOL    HW2 3759   5.662   5.793   4.526
  954SOL     OW 3760   3.735   5.845   2.545
  954SOL    HW1 3761   3.792   5.862   2.465
  954SOL    HW2 3762   3.747   5.751   2.576
  955SOL     OW 3763   1.269   4.494   0.975
  955SOL    HW1 3764   1.357   4.518   0.932
  955SOL    HW2 3765   1.199   4.487   0.904
  956SOL     OW 3766   6.302   0.557   1.311
  956SOL    HW1 3767   6.328   0.536   1.405
  956SOL    HW2 3768   6.222   0.616   1.311
  957SOL     OW 3769   5.525   2.631   2.281
  957SOL    HW1 3770   5.444   2.688   2.271
  957SOL    HW2 3771   5.504   2.538   2.251
  958SOL     OW 3772   4.109   0.606   1.489
  958SOL    HW1 3773   4.018   0.584   1.454
  958SOL    HW2 3774   4.176   0.598   1.415
  959SOL     OW 3775   3.577   6.657   4.624
  959SOL    HW1 3776   3.640   6.608   4.564
  959SOL    HW2 3777   3.507   6.595   4.658
  960SOL     OW 3778   1.095   0.277   1.327
  960SOL    HW1 3779   1.031   0.242   1.396
  960SOL    HW2 3780   1.162   0.206   1.305
  961SOL     OW 3781   4.129   6.510   3.103
  961SOL    HW1 3782   4.214   6.480   3.059
  961SOL    HW2 3783   4.137   6.605   3.131
  962SOL     OW 3784   6.973   0.575   5.113
  962SOL    HW1 3785   6.932   0.624   5.037
  962SOL    HW2 3786   0.051   0.583   5.109
  963SOL     OW 3787   5.050   0.847   6.813
  963SOL    HW1 3788   5.003   0.775   6.763
  963SOL    HW2 3789   5.095   0.808   6.893
  964SOL     OW 3790   4.981   4.819   6.058
  964SOL    HW1 3791   5.055   4.873   6.097
  964SOL    HW2 3792   4.932   4.771   6.131
  965SOL     OW 3793   6.277   1.292   2.337
  965SOL    HW1 3794   6.222   1.210   2.327
  965SOL    HW2 3795   6.348   1.293   2.266
  966SOL     OW 3796   5.649   2.467   2.679
  966SOL    HW1 3797   5.747   2.461   2.656
  966SOL    HW2 3798   5.627   2.396   2.747
  967SOL     OW 3799   3.034   4.488   0.526
  967SOL    HW1 3800   3.039   4.414   0.594
  967SOL    HW2 3801   3.117   4.487   0.470
  968SOL     OW 3802   4.437   0.422   1.707
  968SOL    HW1 3803   4.449   0.517   1.737
  968SOL    HW2 3804   4.341   0.405   1.686
  969SOL     OW 3805   2.612   4.476   5.911
  969SOL    HW1 3806   2.658   4.397   5.872
  969SOL    HW2 3807   2.544   4.511   5.845
  970SOL     OW 3808   5.117   0.687   6.448
  970SOL    HW1 3809   5.203   0.731   6.473
  970SOL    HW2 3810   5.124   0.589   6.465
  971SOL     OW 3811   6.913   3.287   2.814
  971SOL    HW1 3812   6.923   3.339   2.729
  971SOL    HW2 3813   6.993   3.303   2.872
  972SOL     OW 3814   6.161   1.925   1.587
  972SOL    HW1 3815   6.168   1.999   1.520
  972SOL    HW2 3816   6.133   1.963   1.675
  973SOL     OW 3817   0.805   5.325   6.647
  973SOL    HW1 3818   0.767   5.314   6.738
  973SOL    HW2 3819   0.815   5.235   6.604
  974SOL     OW 3820   6.458   5.994   1.857
  974SOL    HW1 3821   6.467   6.021   1.953
  974SOL    HW2 3822   6.536   6.030   1.805
  975SOL     OW 3823   2.241   0.400   0.247
  975SOL    HW1 3824   2.235   0.490   0.206
  975SOL    HW2 3825   2.335   0.384   0.279
  976SOL     OW 3826   6.970   3.304   1.485
  976SOL    HW1 3827   6.903   3.256   1.541
  976SOL    HW2 3828   0.009   3.357   1.544
  977SOL     OW 3829   0.588   0.380   2.231
  977SOL    HW1 3830   0.620   0.432   2.311
  977SOL    HW2 3831   0.495   0.407   2.209
  978SOL     OW 3832   5.478   1.740   0.948
  978SOL    HW1 3833   5.487   1.641   0.955
  978SOL    HW2 3834   5.530   1.783   1.022
  979SOL     OW 3835   0.910   3.752   0.081
  979SOL    HW1 3836   0.944   3.704   7.021
  979SOL    HW2 3837   0.820   3.791   0.062
  980SOL     OW 3838   5.115   2.303   3.976
  980SOL    HW1 3839   5.045   2.284   3.907
  980SOL    HW2 3840   5.174   2.222   3.987
  981SOL     OW 3841   0.421   0.702   4.818
  981SOL    HW1 3842   0.453   0.688   4.725
  981SOL    HW2 3843   0.321   0.700   4.819
  982SOL     OW 3844   0.827   1.252   5.003
  982SOL    HW1 3845   0.926   1.262   5.018
  982SOL    HW2 3846   0.793   1.330   4.952
  983SOL     OW 3847   6.593   3.133   3.039
  983SOL    HW1 3848   6.606   3.107   3.135
  983SOL    HW2 3849   6.561   3.228   3.034
  984SOL     OW 3850   2.261   2.664   3.753
  984SOL    HW1 3851   2.254   2.613   3.839
  984SOL    HW2 3852   2.183   2.641   3.694
  985SOL     OW 3853   6.587   3.776   4.787
  985SOL    HW1 3854   6.602   3.750   4.692
  985SOL    HW2 3855   6.637   3.713   4.847
  986SOL     OW 3856   4.760   4.469   1.429
  986SOL    HW1 3857   4.664   4.439   1.438
  986SOL    HW2 3858   4.820   4.389   1.436
  987SOL     OW 3859   4.421   6.603   2.526
  987SOL    HW1 3860   4.342   6.555   2.563
  987SOL    HW2 3861   4.412   6.701   2.545
  988SOL     OW 3862   3.191   4.263   1.046
  988SOL    HW1 3863   3.224   4.287   1.137
  988SOL    HW2 3864   3.091   4.255   1.048
  989SOL     OW 3865   6.492   1.662   6.956
  989SOL    HW1 3866   6.518   1.758   6.955
  989SOL    HW2 3867   6.492   1.628   0.029
  990SOL     OW 3868   3.120   0.506   2.435
  990SOL    HW1 3869   3.135   0.603   2.420
  990SOL    HW2 3870   3.023   0.489   2.454
  991SOL     OW 3871   0.298   3.715   3.601
  991SOL    HW1 3872   0.356   3.796   3.588
  991SOL    HW2 3873   0.256   3.718   3.691
  992SOL     OW 3874   0.226   3.257   1.739
  992SOL    HW1 3875   0.149   3.321   1.733
  992SOL    HW2 3876   0.196   3.174   1.786
  993SOL     OW 3877   0.009   4.288   0.574
  993SOL    HW1 3878   7.015   4.307   0.477
  993SOL    HW2 3879   6.942   4.280   0.620
  994SOL     OW 3880   4.309   5.328   2.072
  994SOL    HW1 3881   4.335   5.232   2.068
  994SOL    HW2 3882   4.215   5.336   2.105
  995SOL     OW 3883   4.058   2.882   6.199
  995SOL    HW1 3884   4.027   2.940   6.274
  995SOL    HW2 3885   4.115   2.935   6.136
  996SOL     OW 3886   3.546   5.227   4.546
  996SOL    HW1 3887   3.585   5.212   4.637
  996SOL    HW2 3888   3.574   5.317   4.513
  997SOL     OW 3889   0.917   6.555   3.296
  997SOL    HW1 3890   0.853   6.540   3.220
  997SOL    HW2 3891   0.885   6.505   3.377
  998SOL     OW 3892   6.290   0.336   6.098
  998SOL    HW1 3893   6.224   0.268   6.066
  998SOL    HW2 3894   6.352   0.294   6.165
  999SOL     OW 3895   4.870   3.665   2.100
  999SOL    HW1 3896   4.895   3.590   2.161
  999SOL    HW2 3897   4.849   3.746   2.154
 1000SOL     OW 3898   4.349   1.644   1.588
 1000SOL    HW1 3899   4.340   1.580   1.511
 1000SOL    HW2 3900   4.405   1.722   1.559
 1001SOL     OW 3901   4.195   6.140   2.074
 1001SOL    HW1 3902   4.295   6.136   2.062
 1001SOL    HW2 3903   4.166   6.236   2.076
 1002SOL     OW 3904   5.101   2.118   1.370
 1002SOL    HW1 3905   5.071   2.082   1.459
 1002SOL    HW2 3906   5.038   2.190   1.341
 1003SOL     OW 3907   2.204   5.479   3.594
 1003SOL    HW1 3908   2.127   5.467   3.657
 1003SOL    HW2 3909   2.245   5.391   3.574
 1004SOL     OW 3910   0.459   0.819   2.490
 1004SOL    HW1 3911   0.425   0.788   2.401
 1004SOL    HW2 3912   0.506   0.743   2.535
 1005SOL     OW 3913   1.417   2.935   3.794
 1005SOL    HW1 3914   1.364   2.989   3.859
 1005SOL    HW2 3915   1.510   2.971   3.790
 1006SOL     OW 3916   1.350   4.235   0.389
 1006SOL    HW1 3917   1.420   4.194   0.447
 1006SOL    HW2 3918   1.260   4.199   0.415
 1007SOL     OW 3919   4.819   0.587   5.421
 1007SOL    HW1 3920   4.763   0.522   5.474
 1007SOL    HW2 3921   4.795   0.578   5.324
 1008SOL     OW 3922   0.583   2.240   5.136
 1008SOL    HW1 3923   0.563   2.338   5.145
 1008SOL    HW2 3924   0.572   2.213   5.040
 1009SOL     OW 3925   6.473   5.095   6.018
 1009SOL    HW1 3926   6.508   5.002   6.007
 1009SOL    HW2 3927   6.386   5.093   6.066
 1010SOL     OW 3928   2.934   3.227   1.508
 1010SOL    HW1 3929   2.939   3.142   1.560
 1010SOL    HW2 3930   2.838   3.249   1.489
 1011SOL     OW 3931   1.083   5.176   3.792
 1011SOL    HW1 3932   1.048   5.090   3.755
 1011SOL    HW2 3933   1.142   5.220   3.724
 1012SOL     OW 3934   0.147   6.496   2.042
 1012SOL    HW1 3935   0.177   6.565   1.977
 1012SOL    HW2 3936   0.050   6.474   2.025
 1013SOL     OW 3937   0.378   0.613   6.186
 1013SOL    HW1 3938   0.312   0.658   6.126
 1013SOL    HW2 3939   0.349   0.519   6.203
 1014SOL     OW 3940   0.522   4.100   4.932
 1014SOL    HW1 3941   0.450   4.141   4.877
 1014SOL    HW2 3942   0.598   4.166   4.941
 1015SOL     OW 3943   2.455   0.333   6.287
 1015SOL    HW1 3944   2.512   0.414   6.277
 1015SOL    HW2 3945   2.442   0.289   6.198
 1016SOL     OW 3946   4.119   4.411   0.564
 1016SOL    HW1 3947   4.197   4.473   0.569
 1016SOL    HW2 3948   4.034   4.465   0.565
 1017SOL     OW 3949   3.824   2.107   0.889
 1017SOL    HW1 3950   3.747   2.153   0.932
 1017SOL    HW2 3951   3.812   2.110   0.789
 1018SOL     OW 3952   0.990   4.556   4.228
 1018SOL    HW1 3953   1.000   4.462   4.260
 1018SOL    HW2 3954   0.960   4.556   4.133
 1019SOL     OW 3955   0.044   5.991   1.229
 1019SOL    HW1 3956   0.027   5.946   1.316
 1019SOL    HW2 3957   0.130   6.042   1.234
 1020SOL     OW 3958   6.388   1.322   1.633
 1020SOL    HW1 3959   6.369   1.389   1.705
 1020SOL    HW2 3960   6.303   1.298   1.587
 1021SOL     OW 3961   5.708   6.889   2.036
 1021SOL    HW1 3962   5.736   6.964   2.096
 1021SOL    HW2 3963   5.777   6.877   1.964
 1022SOL     OW 3964   2.773   5.042   5.457
 1022SOL    HW1 3965   2.821   4.956   5.477
 1022SOL    HW2 3966   2.760   5.051   5.358
 1023SOL     OW 3967   0.216   0.665   2.961
 1023SOL    HW1 3968   0.283   0.592   2.946
 1023SOL    HW2 3969   0.229   0.703   3.053
 1024SOL     OW 3970   0.305   2.065   3.816
 1024SOL    HW1 3971   0.369   2.036   3.745
 1024SOL    HW2 3972   0.213   2.035   3.792
 1025SOL     OW 3973   3.455   3.710   0.487
 1025SOL    HW1 3974   3.547   3.732   0.454
 1025SOL    HW2 3975   3.417   3.789   0.535
 1026SOL     OW 3976   2.417   3.283   1.727
 1026SOL    HW1 3977   2.512   3.314   1.717
 1026SOL    HW2 3978   2.366   3.351   1.780
 1027SOL     OW 3979   2.281   6.984   2.508
 1027SOL    HW1 3980   2.198   6.929   2.508
 1027SOL    HW2 3981   2.263   0.049   2.556
 1028SOL     OW 3982   1.624   0.132   2.983
 1028SOL    HW1 3983   1.552   0.199   3.003
 1028SOL    HW2 3984   1.583   0.042   2.969
 1029SOL     OW 3985   1.239   1.990   5.884
 1029SOL    HW1 3986   1.211   1.908   5.834
 1029SOL    HW2 3987   1.158   2.039   5.916
 1030SOL     OW 3988   3.341   3.452   1.703
 1030SOL    HW1 3989   3.288   3.373   1.672
 1030SOL    HW2 3990   3.421   3.464   1.644
 1031SOL     OW 3991   5.011   3.259   1.835
 1031SOL    HW1 3992   5.030   3.234   1.740
 1031SOL    HW2 3993   4.913   3.279   1.845
 1032SOL     OW 3994   1.666   1.034   5.113
 1032SOL    HW1 3995   1.596   1.098   5.145
 1032SOL    HW2 3996   1.632   0.984   5.034
 1033SOL     OW 3997   1.680   5.473   2.117
 1033SOL    HW1 3998   1.673   5.374   2.114
 1033SOL    HW2 3999   1.776   5.500   2.128
 1034SOL     OW 4000   1.556   5.285   4.638
 1034SOL    HW1 4001   1.515   5.359   4.691
 1034SOL    HW2 4002   1.499   5.203   4.646
 1035SOL     OW 4003   0.260   2.207   6.998
 1035SOL    HW1 4004   0.233   2.156   6.916
 1035SOL    HW2 4005   0.264   2.144   0.054
 1036SOL     OW 4006   4.164   1.235   1.794
 1036SOL    HW1 4007   4.250   1.253   1.844
 1036SOL    HW2 4008   4.180   1.165   1.725
 1037SOL     OW 4009   1.706   1.525   2.780
 1037SOL    HW1 4010   1.698   1.531   2.880
 1037SOL    HW2 4011   1.682   1.432   2.751
 1038SOL     OW 4012   1.868   1.487   4.952
 1038SOL    HW1 4013   1.868   1.392   4.980
 1038SOL    HW2 4014   1.962   1.515   4.930
 1039SOL     OW 4015   3.504   3.924   4.534
 1039SOL    HW1 4016   3.525   3.944   4.630
 1039SOL    HW2 4017   3.545   3.995   4.476
 1040SOL     OW 4018   4.892   0.887   2.124
 1040SOL    HW1 4019   4.986   0.919   2.121
 1040SOL    HW2 4020   4.889   0.790   2.097
 1041SOL     OW 4021   6.679   6.045   3.449
 1041SOL    HW1 4022   6.615   6.043   3.372
 1041SOL    HW2 4023   6.773   6.033   3.416
 1042SOL     OW 4024   4.209   5.425   2.735
 1042SOL    HW1 4025   4.154   5.491   2.683
 1042SOL    HW2 4026   4.278   5.385   2.676
 1043SOL     OW 4027   3.835   1.987   3.425
 1043SOL    HW1 4028   3.912   2.001   3.486
 1043SOL    HW2 4029   3.752   1.973   3.479
 1044SOL     OW 4030   5.882   5.078   2.254
 1044SOL    HW1 4031   5.940   5.116   2.182
 1044SOL    HW2 4032   5.859   5.150   2.319
 1045SOL     OW 4033   4.214   0.535   2.761
 1045SOL    HW1 4034   4.198   0.615   2.819
 1045SOL    HW2 4035   4.154   0.539   2.681
 1046SOL     OW 4036   1.866   1.413   0.092
 1046SOL    HW1 4037   1.855   1.472   0.172
 1046SOL    HW2 4038   1.947   1.441   0.041
 1047SOL     OW 4039   2.580   0.562   4.176
 1047SOL    HW1 4040   2.549   0.480   4.223
 1047SOL    HW2 4041   2.508   0.592   4.112
 1048SOL     OW 4042   3.347   5.993   1.604
 1048SOL    HW1 4043   3.423   5.946   1.560
 1048SOL    HW2 4044   3.362   5.996   1.703
 1049SOL     OW 4045   6.237   6.965   3.833
 1049SOL    HW1 4046   6.159   6.997   3.780
 1049SOL    HW2 4047   6.242   6.866   3.828
 1050SOL     OW 4048   3.834   5.101   2.126
 1050SOL    HW1 4049   3.802   5.062   2.213
 1050SOL    HW2 4050   3.774   5.177   2.100
 1051SOL     OW 4051   0.407   5.496   0.553
 1051SOL    HW1 4052   0.363   5.495   0.643
 1051SOL    HW2 4053   0.473   5.571   0.549
 1052SOL     OW 4054   4.666   0.690   5.182
 1052SOL    HW1 4055   4.729   0.621   5.146
 1052SOL    HW2 4056   4.582   0.690   5.128
 1053SOL     OW 4057   5.479   3.947   2.478
 1053SOL    HW1 4058   5.572   3.982   2.468
 1053SOL    HW2 4059   5.481   3.857   2.522
 1054SOL     OW 4060   2.866   3.399   0.983
 1054SOL    HW1 4061   2.810   3.409   1.066
 1054SOL    HW2 4062   2.916   3.313   0.987
 1055SOL     OW 4063   4.323   6.078   5.606
 1055SOL    HW1 4064   4.385   6.150   5.574
 1055SOL    HW2 4065   4.229   6.102   5.583
 1056SOL     OW 4066   1.387   3.787   0.498
 1056SOL    HW1 4067   1.455   3.749   0.560
 1056SOL    HW2 4068   1.396   3.886   0.494
 1057SOL     OW 4069   3.731   2.915   1.320
 1057SOL    HW1 4070   3.694   2.962   1.399
 1057SOL    HW2 4071   3.780   2.980   1.261
 1058SOL     OW 4072   5.216   2.461   4.181
 1058SOL    HW1 4073   5.168   2.404   4.114
 1058SOL    HW2 4074   5.208   2.557   4.155
 1059SOL     OW 4075   2.223   6.876   1.824
 1059SOL    HW1 4076   2.153   6.917   1.883
 1059SOL    HW2 4077   2.295   6.837   1.881
 1060SOL     OW 4078   0.080   4.656   4.220
 1060SOL    HW1 4079   0.073   4.707   4.133
 1060SOL    HW2 4080   0.142   4.705   4.282
 1061SOL     OW 4081   6.628   3.467   5.898
 1061SOL    HW1 4082   6.570   3.395   5.860
 1061SOL    HW2 4083   6.678   3.513   5.824
 1062SOL     OW 4084   4.802   5.346   6.105
 1062SOL    HW1 4085   4.715   5.372   6.062
 1062SOL    HW2 4086   4.872   5.412   6.081
 1063SOL     OW 4087   0.204   6.196   0.490
 1063SOL    HW1 4088   0.268   6.227   0.421
 1063SOL    HW2 4089   0.247   6.126   0.547
 1064SOL     OW 4090   1.859   4.533   2.251
 1064SOL    HW1 4091   1.795   4.493   2.317
 1064SOL    HW2 4092   1.810   4.600   2.195
 1065SOL     OW 4093   4.491   0.987   2.978
 1065SOL    HW1 4094   4.417   0.933   2.938
 1065SOL    HW2 4095   4.574   0.931   2.982
 1066SOL     OW 4096   4.202   6.431   2.750
 1066SOL    HW1 4097   4.249   6.346   2.725
 1066SOL    HW2 4098   4.106   6.426   2.721
 1067SOL     OW 4099   1.936   2.241   0.144
 1067SOL    HW1 4100   1.853   2.295   0.155
 1067SOL    HW2 4101   1.987   2.240   0.231
 1068SOL     OW 4102   6.593   4.463   1.351
 1068SOL    HW1 4103   6.511   4.414   1.382
 1068SOL    HW2 4104   6.674   4.407   1.368
 1069SOL     OW 4105   5.197   6.091   0.532
 1069SOL    HW1 4106   5.189   6.107   0.630
 1069SOL    HW2 4107   5.166   6.172   0.482
 1070SOL     OW 4108   1.541   0.285   1.844
 1070SOL    HW1 4109   1.450   0.286   1.803
 1070SOL    HW2 4110   1.601   0.225   1.791
 1071SOL     OW 4111   2.431   1.996   3.758
 1071SOL    HW1 4112   2.472   1.955   3.839
 1071SOL    HW2 4113   2.452   2.094   3.755
 1072SOL     OW 4114   2.403   0.884   1.194
 1072SOL    HW1 4115   2.392   0.983   1.188
 1072SOL    HW2 4116   2.437   0.860   1.285
 1073SOL     OW 4117   4.859   0.866   3.167
 1073SOL    HW1 4118   4.769   0.835   3.197
 1073SOL    HW2 4119   4.929   0.830   3.229
 1074SOL     OW 4120   2.542   5.350   1.871
 1074SOL    HW1 4121   2.640   5.358   1.850
 1074SOL    HW2 4122   2.499   5.439   1.862
 1075SOL     OW 4123   6.036   0.804   3.458
 1075SOL    HW1 4124   5.999   0.716   3.430
 1075SOL    HW2 4125   5.978   0.844   3.530
 1076SOL     OW 4126   0.806   2.049   6.141
 1076SOL    HW1 4127   0.822   1.989   6.219
 1076SOL    HW2 4128   0.718   2.097   6.152
 1077SOL     OW 4129   6.565   6.599   0.991
 1077SOL    HW1 4130   6.546   6.694   0.969
 1077SOL    HW2 4131   6.649   6.570   0.944
 1078SOL     OW 4132   6.809   0.685   3.191
 1078SOL    HW1 4133   6.829   0.653   3.098
 1078SOL    HW2 4134   6.710   0.691   3.204
 1079SOL     OW 4135   1.383   5.325   2.183
 1079SOL    HW1 4136   1.371   5.416   2.144
 1079SOL    HW2 4137   1.447   5.273   2.126
 1080SOL     OW 4138   2.199   5.313   3.916
 1080SOL    HW1 4139   2.215   5.412   3.920
 1080SOL    HW2 4140   2.287   5.265   3.921
 1081SOL     OW 4141   6.673   5.285   5.976
 1081SOL    HW1 4142   6.583   5.241   5.970
 1081SOL    HW2 4143   6.740   5.219   6.010
 1082SOL     OW 4144   6.205   2.094   5.891
 1082SOL    HW1 4145   6.221   2.179   5.941
 1082SOL    HW2 4146   6.113   2.060   5.911
 1083SOL     OW 4147   4.740   3.435   0.562
 1083SOL    HW1 4148   4.835   3.405   0.560
 1083SOL    HW2 4149   4.680   3.355   0.569
 1084SOL     OW 4150   6.602   6.524   6.209
 1084SOL    HW1 4151   6.637   6.431   6.220
 1084SOL    HW2 4152   6.546   6.548   6.289
 1085SOL     OW 4153   1.762   4.083   4.538
 1085SOL    HW1 4154   1.704   4.028   4.598
 1085SOL    HW2 4155   1.719   4.091   4.448
 1086SOL     OW 4156   6.758   4.541   0.493
 1086SOL    HW1 4157   6.816   4.618   0.518
 1086SOL    HW2 4158   6.804   4.455   0.515
 1087SOL     OW 4159   6.991   1.733   4.710
 1087SOL    HW1 4160   7.018   1.826   4.687
 1087SOL    HW2 4161   6.904   1.735   4.760
 1088SOL     OW 4162   0.399   4.339   2.721
 1088SOL    HW1 4163   0.363   4.405   2.786
 1088SOL    HW2 4164   0.327   4.274   2.695
 1089SOL     OW 4165   6.532   5.432   4.756
 1089SOL    HW1 4166   6.555   5.467   4.665
 1089SOL    HW2 4167   6.492   5.341   4.748
 1090SOL     OW 4168   3.768   2.113   2.730
 1090SOL    HW1 4169   3.789   2.016   2.731
 1090SOL    HW2 4170   3.723   2.139   2.815
 1091SOL     OW 4171   2.155   3.057   4.041
 1091SOL    HW1 4172   2.221   3.027   3.972
 1091SOL    HW2 4173   2.163   3.156   4.053
 1092SOL     OW 4174   1.292   5.063   0.578
 1092SOL    HW1 4175   1.363   5.016   0.524
 1092SOL    HW2 4176   1.278   5.014   0.664
 1093SOL     OW 4177   3.130   6.784   1.939
 1093SOL    HW1 4178   3.156   6.749   1.849
 1093SOL    HW2 4179   3.133   6.884   1.938
 1094SOL     OW 4180   0.556   6.364   2.270
 1094SOL    HW1 4181   0.520   6.428   2.338
 1094SOL    HW2 4182   0.485   6.344   2.202
 1095SOL     OW 4183   0.068   2.960   6.149
 1095SOL    HW1 4184   0.059   2.972   6.050
 1095SOL    HW2 4185   0.158   2.919   6.169
 1096SOL     OW 4186   3.444   4.535   1.384
 1096SOL    HW1 4187   3.396   4.569   1.303
 1096SOL    HW2 4188   3.386   4.548   1.465
 1097SOL     OW 4189   2.091   4.246   3.814
 1097SOL    HW1 4190   2.022   4.315   3.837
 1097SOL    HW2 4191   2.149   4.229   3.894
 1098SOL     OW 4192   5.802   3.247   6.444
 1098SOL    HW1 4193   5.842   3.279   6.359
 1098SOL    HW2 4194   5.829   3.152   6.461
 1099SOL     OW 4195   4.473   0.864   6.074
 1099SOL    HW1 4196   4.442   0.958   6.086
 1099SOL    HW2 4197   4.525   0.836   6.154
 1100SOL     OW 4198   4.444   1.255   4.402
 1100SOL    HW1 4199   4.463   1.173   4.349
 1100SOL    HW2 4200   4.409   1.230   4.493
 1101SOL     OW 4201   5.446   3.818   5.689
 1101SOL    HW1 4202   5.403   3.880   5.754
 1101SOL    HW2 4203   5.415   3.841   5.596
 1102SOL     OW 4204   1.900   0.705   4.754
 1102SOL    HW1 4205   1.948   0.619   4.733
 1102SOL    HW2 4206   1.818   0.685   4.807
 1103SOL     OW 4207   3.033   1.709   0.548
 1103SOL    HW1 4208   2.991   1.783   0.601
 1103SOL    HW2 4209   3.129   1.700   0.576
 1104SOL     OW 4210   1.858   3.850   4.251
 1104SOL    HW1 4211   1.866   3.848   4.351
 1104SOL    HW2 4212   1.835   3.943   4.222
 1105SOL     OW 4213   5.695   3.068   4.726
 1105SOL    HW1 4214   5.647   3.016   4.656
 1105SOL    HW2 4215   5.717   3.159   4.691
 1106SOL     OW 4216   0.943   2.146   1.486
 1106SOL    HW1 4217   0.970   2.100   1.570
 1106SOL    HW2 4218   0.932   2.079   1.413
 1107SOL     OW 4219   1.151   0.252   0.024
 1107SOL    HW1 4220   1.153   0.152   0.020
 1107SOL    HW2 4221   1.086   0.282   0.094
 1108SOL     OW 4222   3.210   6.693   5.310
 1108SOL    HW1 4223   3.303   6.690   5.347
 1108SOL    HW2 4224   3.206   6.762   5.237
 1109SOL     OW 4225   5.735   0.779   4.581
 1109SOL    HW1 4226   5.737   0.687   4.542
 1109SOL    HW2 4227   5.751   0.847   4.510
 1110SOL     OW 4228   4.539   2.078   2.826
 1110SOL    HW1 4229   4.637   2.071   2.844
 1110SOL    HW2 4230   4.523   2.141   2.751
 1111SOL     OW 4231   5.757   5.750   6.650
 1111SOL    HW1 4232   5.806   5.819   6.596
 1111SOL    HW2 4233   5.753   5.779   6.745
 1112SOL     OW 4234   5.850   1.048   2.909
 1112SOL    HW1 4235   5.846   1.053   2.809
 1112SOL    HW2 4236   5.901   1.127   2.945
 1113SOL     OW 4237   5.724   4.219   1.407
 1113SOL    HW1 4238   5.732   4.157   1.329
 1113SOL    HW2 4239   5.647   4.192   1.464
 1114SOL     OW 4240   2.544   1.654   6.200
 1114SOL    HW1 4241   2.561   1.611   6.112
 1114SOL    HW2 4242   2.630   1.660   6.251
 1115SOL     OW 4243   3.766   3.557   5.367
 1115SOL    HW1 4244   3.785   3.464   5.337
 1115SOL    HW2 4245   3.667   3.573   5.365
 1116SOL     OW 4246   5.236   6.889   6.543
 1116SOL    HW1 4247   5.304   6.955   6.575
 1116SOL    HW2 4248   5.274   6.797   6.549
 1117SOL     OW 4249   1.150   1.988   2.052
 1117SOL    HW1 4250   1.097   1.904   2.038
 1117SOL    HW2 4251   1.236   1.982   2.001
 1118SOL     OW 4252   2.418   5.175   0.102
 1118SOL    HW1 4253   2.360   5.256   0.094
 1118SOL    HW2 4254   2.361   5.093   0.096
 1119SOL     OW 4255   4.080   4.369   1.568
 1119SOL    HW1 4256   4.106   4.298   1.633
 1119SOL    HW2 4257   3.997   4.340   1.520
 1120SOL     OW 4258   6.124   5.838   1.089
 1120SOL    HW1 4259   6.037   5.833   1.139
 1120SOL    HW2 4260   6.106   5.829   0.991
 1121SOL     OW 4261   0.290   4.369   4.454
 1121SOL    HW1 4262   0.222   4.308   4.493
 1121SOL    HW2 4263   0.272   4.381   4.356
 1122SOL     OW 4264   5.705   3.005   2.355
 1122SOL    HW1 4265   5.691   3.104   2.353
 1122SOL    HW2 4266   5.629   2.961   2.402
 1123SOL     OW 4267   5.142   2.306   3.615
 1123SOL    HW1 4268   5.201   2.227   3.597
 1123SOL    HW2 4269   5.095   2.333   3.532
 1124SOL     OW 4270   0.112   4.031   5.447
 1124SOL    HW1 4271   0.026   4.080   5.437
 1124SOL    HW2 4272   0.093   3.935   5.468
 1125SOL     OW 4273   1.357   2.537   3.639
 1125SOL    HW1 4274   1.399   2.481   3.568
 1125SOL    HW2 4275   1.283   2.590   3.599
 1126SOL     OW 4276   6.237   5.884   6.102
 1126SOL    HW1 4277   6.301   5.920   6.171
 1126SOL    HW2 4278   6.279   5.892   6.012
 1127SOL     OW 4279   5.842   6.404   4.614
 1127SOL    HW1 4280   5.928   6.358   4.594
 1127SOL    HW2 4281   5.853   6.467   4.691
 1128SOL     OW 4282   5.987   1.122   4.709
 1128SOL    HW1 4283   5.917   1.140   4.640
 1128SOL    HW2 4284   6.019   1.027   4.701
 1129SOL     OW 4285   2.165   6.469   0.709
 1129SOL    HW1 4286   2.162   6.566   0.733
 1129SOL    HW2 4287   2.092   6.449   0.643
 1130SOL     OW 4288   2.160   4.924   1.165
 1130SOL    HW1 4289   2.199   5.013   1.186
 1130SOL    HW2 4290   2.190   4.896   1.073
 1131SOL     OW 4291   1.929   6.827   5.174
 1131SOL    HW1 4292   2.019   6.788   5.193
 1131SOL    HW2 4293   1.918   6.839   5.075
 1132SOL     OW 4294   4.273   0.110   2.847
 1132SOL    HW1 4295   4.337   0.186   2.836
 1132SOL    HW2 4296   4.304   0.033   2.791
 1133SOL     OW 4297   1.338   1.171   0.252
 1133SOL    HW1 4298   1.413   1.201   0.310
 1133SOL    HW2 4299   1.364   1.088   0.203
 1134SOL     OW 4300   4.742   0.167   2.960
 1134SOL    HW1 4301   4.828   0.128   2.926
 1134SOL    HW2 4302   4.753   0.193   3.056
 1135SOL     OW 4303   2.037   6.521   3.716
 1135SOL    HW1 4304   2.028   6.422   3.710
 1135SOL    HW2 4305   2.082   6.546   3.802
 1136SOL     OW 4306   4.214   4.668   2.305
 1136SOL    HW1 4307   4.222   4.655   2.206
 1136SOL    HW2 4308   4.133   4.723   2.326
 1137SOL     OW 4309   1.459   6.785   0.409
 1137SOL    HW1 4310   1.400   6.865   0.421
 1137SOL    HW2 4311   1.541   6.812   0.359
 1138SOL     OW 4312   0.525   1.622   5.441
 1138SOL    HW1 4313   0.442   1.568   5.451
 1138SOL    HW2 4314   0.603   1.569   5.475
 1139SOL     OW 4315   2.533   5.129   3.354
 1139SOL    HW1 4316   2.505   5.073   3.276
 1139SOL    HW2 4317   2.535   5.225   3.327
 1140SOL     OW 4318   2.679   0.408   1.978
 1140SOL    HW1 4319   2.684   0.346   1.900
 1140SOL    HW2 4320   2.772   0.429   2.010
 1141SOL     OW 4321   0.019   6.256   0.281
 1141SOL    HW1 4322   0.078   6.333   0.258
 1141SOL    HW2 4323   0.044   6.220   0.371
 1142SOL     OW 4324   3.378   0.583   4.262
 1142SOL    HW1 4325   3.449   0.547   4.202
 1142SOL    HW2 4326   3.389   0.544   4.354
 1143SOL     OW 4327   1.910   3.059   2.891
 1143SOL    HW1 4328   1.990   3.107   2.855
 1143SOL    HW2 4329   1.908   3.069   2.991
 1144SOL     OW 4330   5.663   4.659   3.499
 1144SOL    HW1 4331   5.641   4.565   3.524
 1144SOL    HW2 4332   5.675   4.714   3.583
 1145SOL     OW 4333   0.634   3.070   0.587
 1145SOL    HW1 4334   0.591   3.032   0.669
 1145SOL    HW2 4335   0.629   3.004   0.513
 1146SOL     OW 4336   0.795   1.633   2.075
 1146SOL    HW1 4337   0.759   1.722   2.048
 1146SOL    HW2 4338   0.808   1.631   2.175
 1147SOL     OW 4339   3.469   5.718   1.367
 1147SOL    HW1 4340   3.494   5.731   1.271
 1147SOL    HW2 4341   3.516   5.787   1.423
 1148SOL     OW 4342   4.554   5.956   1.034
 1148SOL    HW1 4343   4.606   6.005   0.964
 1148SOL    HW2 4344   4.615   5.895   1.084
 1149SOL     OW 4345   5.493   2.362   2.229
 1149SOL    HW1 4346   5.500   2.264   2.249
 1149SOL    HW2 4347   5.414   2.400   2.276
 1150SOL     OW 4348   0.744   4.249   0.359
 1150SOL    HW1 4349   0.726   4.154   0.336
 1150SOL    HW2 4350   0.842   4.261   0.374
 1151SOL     OW 4351   5.674   4.611   4.826
 1151SOL    HW1 4352   5.619   4.609   4.910
 1151SOL    HW2 4353   5.767   4.580   4.847
 1152SOL     OW 4354   4.955   6.164   6.402
 1152SOL    HW1 4355   4.988   6.085   6.454
 1152SOL    HW2 4356   4.855   6.162   6.401
 1153SOL     OW 4357   6.886   0.107   1.908
 1153SOL    HW1 4358   6.906   0.203   1.928
 1153SOL    HW2 4359   6.904   0.088   1.812
 1154SOL     OW 4360   0.076   4.819   0.306
 1154SOL    HW1 4361   0.151   4.778   0.254
 1154SOL    HW2 4362   0.102   4.910   0.338
 1155SOL     OW 4363   3.066   4.965   5.306
 1155SOL    HW1 4364   3.124   5.046   5.309
 1155SOL    HW2 4365   2.980   4.988   5.259
 1156SOL     OW 4366   4.377   2.003   5.178
 1156SOL    HW1 4367   4.464   2.053   5.177
 1156SOL    HW2 4368   4.386   1.921   5.122
 1157SOL     OW 4369   5.329   1.282   6.134
 1157SOL    HW1 4370   5.283   1.240   6.212
 1157SOL    HW2 4371   5.427   1.286   6.151
 1158SOL     OW 4372   6.522   5.150   5.048
 1158SOL    HW1 4373   6.604   5.131   5.102
 1158SOL    HW2 4374   6.441   5.114   5.096
 1159SOL     OW 4375   6.429   6.848   3.430
 1159SOL    HW1 4376   6.451   6.861   3.526
 1159SOL    HW2 4377   6.492   6.902   3.374
 1160SOL     OW 4378   4.348   4.927   1.483
 1160SOL    HW1 4379   4.266   4.919   1.540
 1160SOL    HW2 4380   4.328   4.888   1.392
 1161SOL     OW 4381   0.147   5.920   6.133
 1161SOL    HW1 4382   0.126   5.950   6.040
 1161SOL    HW2 4383   0.103   5.832   6.150
 1162SOL     OW 4384   2.249   2.498   6.094
 1162SOL    HW1 4385   2.226   2.407   6.129
 1162SOL    HW2 4386   2.319   2.491   6.024
 1163SOL     OW 4387   6.329   4.167   1.765
 1163SOL    HW1 4388   6.366   4.169   1.858
 1163SOL    HW2 4389   6.254   4.232   1.758
 1164SOL     OW 4390   4.677   1.998   4.751
 1164SOL    HW1 4391   4.713   1.904   4.750
 1164SOL    HW2 4392   4.723   2.052   4.681
 1165SOL     OW 4393   4.279   5.815   3.447
 1165SOL    HW1 4394   4.318   5.894   3.400
 1165SOL    HW2 4395   4.207   5.845   3.510
 1166SOL     OW 4396   2.652   6.147   0.091
 1166SOL    HW1 4397   2.610   6.167   0.180
 1166SOL    HW2 4398   2.594   6.182   0.018
 1167SOL     OW 4399   4.595   5.706   0.433
 1167SOL    HW1 4400   4.689   5.675   0.448
 1167SOL    HW2 4401   4.594   5.806   0.431
 1168SOL     OW 4402   5.982   2.626   1.768
 1168SOL    HW1 4403   6.068   2.584   1.740
 1168SOL    HW2 4404   5.992   2.726   1.767
 1169SOL     OW 4405   4.438   1.810   5.976
 1169SOL    HW1 4406   4.482   1.866   5.906
 1169SOL    HW2 4407   4.439   1.714   5.948
 1170SOL     OW 4408   5.437   0.371   3.342
 1170SOL    HW1 4409   5.398   0.375   3.434
 1170SOL    HW2 4410   5.375   0.418   3.278
 1171SOL     OW 4411   3.047   6.372   6.927
 1171SOL    HW1 4412   3.050   6.272   6.923
 1171SOL    HW2 4413   3.040   6.401   0.000
 1172SOL     OW 4414   5.318   4.306   0.946
 1172SOL    HW1 4415   5.395   4.246   0.925
 1172SOL    HW2 4416   5.278   4.341   0.862
 1173SOL     OW 4417   3.013   1.430   0.985
 1173SOL    HW1 4418   3.095   1.486   0.999
 1173SOL    HW2 4419   3.038   1.334   0.978
 1174SOL     OW 4420   3.496   3.653   1.975
 1174SOL    HW1 4421   3.458   3.743   1.951
 1174SOL    HW2 4422   3.460   3.624   2.064
 1175SOL     OW 4423   4.537   3.585   6.430
 1175SOL    HW1 4424   4.543   3.511   6.497
 1175SOL    HW2 4425   4.444   3.587   6.392
 1176SOL     OW 4426   5.298   3.479   0.546
 1176SOL    HW1 4427   5.364   3.447   0.614
 1176SOL    HW2 4428   5.319   3.573   0.521
 1177SOL     OW 4429   6.205   3.645   5.076
 1177SOL    HW1 4430   6.115   3.651   5.119
 1177SOL    HW2 4431   6.214   3.717   5.007
 1178SOL     OW 4432   2.828   4.171   0.148
 1178SOL    HW1 4433   2.817   4.094   0.211
 1178SOL    HW2 4434   2.867   4.249   0.196
 1179SOL     OW 4435   2.342   5.667   0.890
 1179SOL    HW1 4436   2.299   5.590   0.936
 1179SOL    HW2 4437   2.309   5.673   0.796
 1180SOL     OW 4438   2.672   6.644   3.864
 1180SOL    HW1 4439   2.756   6.638   3.809
 1180SOL    HW2 4440   2.598   6.597   3.816
 1181SOL     OW 4441   0.256   5.466   5.040
 1181SOL    HW1 4442   0.174   5.522   5.033
 1181SOL    HW2 4443   0.238   5.375   5.002
 1182SOL     OW 4444   4.668   5.279   3.517
 1182SOL    HW1 4445   4.680   5.269   3.418
 1182SOL    HW2 4446   4.693   5.194   3.563
 1183SOL     OW 4447   2.312   4.220   0.004
 1183SOL    HW1 4448   2.312   4.137   6.969
 1183SOL    HW2 4449   2.407   4.246   0.025
 1184SOL     OW 4450   0.096   0.887   4.477
 1184SOL    HW1 4451   0.117   0.981   4.503
 1184SOL    HW2 4452   0.179   0.832   4.478
 1185SOL     OW 4453   0.604   0.732   1.083
 1185SOL    HW1 4454   0.703   0.724   1.098
 1185SOL    HW2 4455   0.557   0.732   1.171
 1186SOL     OW 4456   5.329   6.332   6.056
 1186SOL    HW1 4457   5.340   6.300   6.150
 1186SOL    HW2 4458   5.259   6.403   6.052
 1187SOL     OW 4459   5.101   0.115   6.138
 1187SOL    HW1 4460   5.026   0.143   6.198
 1187SOL    HW2 4461   5.092   0.018   6.115
 1188SOL     OW 4462   3.415   6.296   5.702
 1188SOL    HW1 4463   3.409   6.232   5.778
 1188SOL    HW2 4464   3.506   6.338   5.701
 1189SOL     OW 4465   6.419   2.343   1.294
 1189SOL    HW1 4466   6.510   2.335   1.254
 1189SOL    HW2 4467   6.402   2.266   1.355
 1190SOL     OW 4468   3.199   5.639   3.547
 1190SOL    HW1 4469   3.263   5.568   3.516
 1190SOL    HW2 4470   3.247   5.701   3.610
 1191SOL     OW 4471   4.420   5.816   4.035
 1191SOL    HW1 4472   4.410   5.718   4.053
 1191SOL    HW2 4473   4.514   5.836   4.008
 1192SOL     OW 4474   5.266   4.662   2.009
 1192SOL    HW1 4475   5.366   4.666   1.998
 1192SOL    HW2 4476   5.236   4.567   2.000
 1193SOL     OW 4477   6.416   2.222   4.821
 1193SOL    HW1 4478   6.355   2.156   4.864
 1193SOL    HW2 4479   6.501   2.176   4.794
 1194SOL     OW 4480   5.910   6.813   1.849
 1194SOL    HW1 4481   6.004   6.798   1.880
 1194SOL    HW2 4482   5.909   6.880   1.776
 1195SOL     OW 4483   0.427   4.407   0.563
 1195SOL    HW1 4484   0.342   4.448   0.595
 1195SOL    HW2 4485   0.470   4.468   0.496
 1196SOL     OW 4486   7.001   5.207   3.487
 1196SOL    HW1 4487   0.029   5.291   3.466
 1196SOL    HW2 4488   6.944   5.181   3.409
 1197SOL     OW 4489   4.717   0.068   4.842
 1197SOL    HW1 4490   4.623   0.073   4.876
 1197SOL    HW2 4491   4.775   0.128   4.897
 1198SOL     OW 4492   1.186   2.795   3.093
 1198SOL    HW1 4493   1.281   2.783   3.121
 1198SOL    HW2 4494   1.126   2.784   3.173
 1199SOL     OW 4495   3.489   3.961   1.050
 1199SOL    HW1 4496   3.414   3.974   0.984
 1199SOL    HW2 4497   3.520   4.050   1.082
 1200SOL     OW 4498   3.116   4.003   4.053
 1200SOL    HW1 4499   3.123   4.055   4.138
 1200SOL    HW2 4500   3.077   3.913   4.073
 1201SOL     OW 4501   1.070   0.965   4.220
 1201SOL    HW1 4502   0.993   0.993   4.277
 1201SOL    HW2 4503   1.152   1.015   4.250
 1202SOL     OW 4504   0.517   5.850   5.908
 1202SOL    HW1 4505   0.433   5.800   5.927
 1202SOL    HW2 4506   0.576   5.847   5.988
 1203SOL     OW 4507   6.685   6.509   6.539
 1203SOL    HW1 4508   6.610   6.491   6.476
 1203SOL    HW2 4509   6.691   6.607   6.558
 1204SOL     OW 4510   4.247   1.076   1.551
 1204SOL    HW1 4511   4.332   1.035   1.520
 1204SOL    HW2 4512   4.190   1.097   1.471
 1205SOL     OW 4513   4.256   3.031   0.898
 1205SOL    HW1 4514   4.275   3.084   0.981
 1205SOL    HW2 4515   4.276   3.086   0.817
 1206SOL     OW 4516   2.710   2.665   5.386
 1206SOL    HW1 4517   2.735   2.656   5.483
 1206SOL    HW2 4518   2.681   2.759   5.368
 1207SOL     OW 4519   2.094   6.331   0.933
 1207SOL    HW1 4520   2.114   6.371   0.843
 1207SOL    HW2 4521   2.003   6.290   0.932
 1208SOL     OW 4522   2.979   3.151   1.067
 1208SOL    HW1 4523   3.028   3.093   1.002
 1208SOL    HW2 4524   3.017   3.136   1.159
 1209SOL     OW 4525   4.096   0.901   4.024
 1209SOL    HW1 4526   4.153   0.936   4.099
 1209SOL    HW2 4527   4.086   0.972   3.954
 1210SOL     OW 4528   3.174   0.284   3.697
 1210SOL    HW1 4529   3.244   0.271   3.767
 1210SOL    HW2 4530   3.083   0.278   3.738
 1211SOL     OW 4531   0.702   3.463   2.505
 1211SOL    HW1 4532   0.624   3.491   2.562
 1211SOL    HW2 4533   0.673   3.460   2.409
 1212SOL     OW 4534   6.232   0.337   0.395
 1212SOL    HW1 4535   6.301   0.341   0.323
 1212SOL    HW2 4536   6.154   0.396   0.370
 1213SOL     OW 4537   6.568   2.894   1.382
 1213SOL    HW1 4538   6.510   2.835   1.326
 1213SOL    HW2 4539   6.561   2.988   1.350
 1214SOL     OW 4540   1.341   2.990   6.927
 1214SOL    HW1 4541   1.347   2.897   6.890
 1214SOL    HW2 4542   1.403   3.050   6.878
 1215SOL     OW 4543   1.049   5.083   3.152
 1215SOL    HW1 4544   1.081   5.014   3.087
 1215SOL    HW2 4545   1.120   5.101   3.220
 1216SOL     OW 4546   5.365   0.392   1.236
 1216SOL    HW1 4547   5.398   0.380   1.143
 1216SOL    HW2 4548   5.284   0.450   1.236
 1217SOL     OW 4549   2.233   4.701   0.730
 1217SOL    HW1 4550   2.284   4.748   0.802
 1217SOL    HW2 4551   2.153   4.657   0.769
 1218SOL     OW 4552   1.390   4.554   4.809
 1218SOL    HW1 4553   1.328   4.607   4.750
 1218SOL    HW2 4554   1.348   4.543   4.899
 1219SOL     OW 4555   5.163   6.506   1.833
 1219SOL    HW1 4556   5.112   6.420   1.827
 1219SOL    HW2 4557   5.185   6.538   1.740
 1220SOL     OW 4558   0.708   4.359   3.062
 1220SOL    HW1 4559   0.714   4.389   2.966
 1220SOL    HW2 4560   0.632   4.295   3.072
 1221SOL     OW 4561   5.121   4.282   6.615
 1221SOL    HW1 4562   5.204   4.227   6.607
 1221SOL    HW2 4563   5.139   4.361   6.673
 1222SOL     OW 4564   6.806   0.541   6.769
 1222SOL    HW1 4565   6.768   0.633   6.778
 1222SOL    HW2 4566   6.778   0.485   6.847
 1223SOL     OW 4567   4.255   1.442   0.004
 1223SOL    HW1 4568   4.195   1.520   0.020
 1223SOL    HW2 4569   4.205   1.371   6.977
 1224SOL     OW 4570   3.676   5.381   0.554
 1224SOL    HW1 4571   3.631   5.350   0.638
 1224SOL    HW2 4572   3.618   5.450   0.510
 1225SOL     OW 4573   3.088   3.504   6.371
 1225SOL    HW1 4574   3.126   3.547   6.453
 1225SOL    HW2 4575   3.157   3.444   6.330
 1226SOL     OW 4576   2.903   5.478   1.550
 1226SOL    HW1 4577   2.901   5.570   1.509
 1226SOL    HW2 4578   2.985   5.430   1.520
 1227SOL     OW 4579   6.742   3.816   6.034
 1227SOL    HW1 4580   6.681   3.826   5.955
 1227SOL    HW2 4581   6.709   3.741   6.092
 1228SOL     OW 4582   3.184   2.061   6.559
 1228SOL    HW1 4583   3.259   2.115   6.520
 1228SOL    HW2 4584   3.207   1.964   6.557
 1229SOL     OW 4585   3.241   5.171   5.327
 1229SOL    HW1 4586   3.307   5.097   5.308
 1229SOL    HW2 4587   3.288   5.245   5.374
 1230SOL     OW 4588   4.474   6.913   2.462
 1230SOL    HW1 4589   4.397   6.923   2.524
 1230SOL    HW2 4590   4.559   6.936   2.509
 1231SOL     OW 4591   1.818   3.373   4.749
 1231SOL    HW1 4592   1.817   3.422   4.662
 1231SOL    HW2 4593   1.739   3.400   4.804
 1232SOL     OW 4594   0.827   1.520   4.852
 1232SOL    HW1 4595   0.777   1.587   4.907
 1232SOL    HW2 4596   0.765   1.480   4.784
 1233SOL     OW 4597   0.757   3.905   4.507
 1233SOL    HW1 4598   0.825   3.941   4.443
 1233SOL    HW2 4599   0.665   3.923   4.472
 1234SOL     OW 4600   6.451   3.666   5.212
 1234SOL    HW1 4601   6.445   3.662   5.312
 1234SOL    HW2 4602   6.359   3.665   5.173
 1235SOL     OW 4603   0.032   5.776   2.712
 1235SOL    HW1 4604   0.052   5.706   2.642
 1235SOL    HW2 4605   0.047   5.867   2.673
 1236SOL     OW 4606   5.013   1.610   0.041
 1236SOL    HW1 4607   5.046   1.705   0.041
 1236SOL    HW2 4608   5.053   1.561   6.986
 1237SOL     OW 4609   1.563   5.518   5.629
 1237SOL    HW1 4610   1.584   5.541   5.724
 1237SOL    HW2 4611   1.620   5.573   5.568
 1238SOL     OW 4612   2.777   1.102   0.156
 1238SOL    HW1 4613   2.838   1.178   0.181
 1238SOL    HW2 4614   2.682   1.134   0.161
 1239SOL     OW 4615   7.021   6.802   5.802
 1239SOL    HW1 4616   7.003   6.896   5.832
 1239SOL    HW2 4617   6.936   6.749   5.809
 1240SOL     OW 4618   5.454   6.377   1.998
 1240SOL    HW1 4619   5.547   6.404   2.020
 1240SOL    HW2 4620   5.397   6.458   1.988
 1241SOL     OW 4621   6.289   4.231   3.710
 1241SOL    HW1 4622   6.291   4.268   3.617
 1241SOL    HW2 4623   6.210   4.170   3.720
 1242SOL     OW 4624   0.014   3.462   1.738
 1242SOL    HW1 4625   6.966   3.511   1.686
 1242SOL    HW2 4626   0.087   3.525   1.764
 1243SOL     OW 4627   6.947   6.693   4.999
 1243SOL    HW1 4628   6.902   6.629   5.061
 1243SOL    HW2 4629   0.018   6.711   5.030
 1244SOL     OW 4630   6.448   0.136   4.488
 1244SOL    HW1 4631   6.467   0.130   4.586
 1244SOL    HW2 4632   6.524   0.096   4.437
 1245SOL     OW 4633   4.774   4.901   0.054
 1245SOL    HW1 4634   4.681   4.938   0.044
 1245SOL    HW2 4635   4.779   4.849   0.139
 1246SOL     OW 4636   2.361   6.110   1.515
 1246SOL    HW1 4637   2.336   6.042   1.584
 1246SOL    HW2 4638   2.320   6.198   1.539
 1247SOL     OW 4639   2.182   0.451   6.921
 1247SOL    HW1 4640   2.092   0.418   6.948
 1247SOL    HW2 4641   2.226   0.497   6.998
 1248SOL     OW 4642   2.242   6.791   4.593
 1248SOL    HW1 4643   2.167   6.856   4.599
 1248SOL    HW2 4644   2.310   6.811   4.663
 1249SOL     OW 4645   5.874   2.505   2.501
 1249SOL    HW1 4646   5.849   2.601   2.504
 1249SOL    HW2 4647   5.910   2.482   2.411
 1250SOL     OW 4648   6.148   5.034   4.397
 1250SOL    HW1 4649   6.071   5.035   4.460
 1250SOL    HW2 4650   6.231   5.007   4.445
 1251SOL     OW 4651   3.370   0.046   4.517
 1251SOL    HW1 4652   3.338   6.999   4.452
 1251SOL    HW2 4653   3.338   0.136   4.488
 1252SOL     OW 4654   4.035   3.348   5.160
 1252SOL    HW1 4655   4.017   3.309   5.250
 1252SOL    HW2 4656   3.961   3.323   5.098
 1253SOL     OW 4657   3.523   5.503   1.800
 1253SOL    HW1 4658   3.480   5.422   1.760
 1253SOL    HW2 4659   3.454   5.575   1.811
 1254SOL     OW 4660   0.638   2.678   2.675
 1254SOL    HW1 4661   0.549   2.636   2.659
 1254SOL    HW2 4662   0.674   2.647   2.763
 1255SOL     OW 4663   6.415   1.772   4.670
 1255SOL    HW1 4664   6.440   1.706   4.600
 1255SOL    HW2 4665   6.445   1.864   4.642
 1256SOL     OW 4666   6.752   6.311   3.641
 1256SOL    HW1 4667   6.828   6.269   3.690
 1256SOL    HW2 4668   6.667   6.265   3.664
 1257SOL     OW 4669   0.225   6.815   4.219
 1257SOL    HW1 4670   0.315   6.806   4.262
 1257SOL    HW2 4671   0.174   6.730   4.228
 1258SOL     OW 4672   1.743   5.948   3.974
 1258SOL    HW1 4673   1.800   5.872   4.004
 1258SOL    HW2 4674   1.792   6.000   3.904
 1259SOL     OW 4675   3.810   1.247   4.056
 1259SOL    HW1 4676   3.804   1.151   4.083
 1259SOL    HW2 4677   3.854   1.300   4.128
 1260SOL     OW 4678   1.459   1.515   6.524
 1260SOL    HW1 4679   1.382   1.453   6.527
 1260SOL    HW2 4680   1.458   1.574   6.605
 1261SOL     OW 4681   0.497   5.617   6.715
 1261SOL    HW1 4682   0.476   5.691   6.779
 1261SOL    HW2 4683   0.459   5.638   6.625
 1262SOL     OW 4684   4.692   3.974   1.023
 1262SOL    HW1 4685   4.686   4.049   1.088
 1262SOL    HW2 4686   4.628   3.902   1.048
 1263SOL     OW 4687   0.529   1.371   2.472
 1263SOL    HW1 4688   0.547   1.275   2.493
 1263SOL    HW2 4689   0.552   1.428   2.551
 1264SOL     OW 4690   6.962   4.309   6.663
 1264SOL    HW1 4691   6.925   4.308   6.756
 1264SOL    HW2 4692   6.993   4.217   6.638
 1265SOL     OW 4693   5.831   5.211   4.859
 1265SOL    HW1 4694   5.908   5.187   4.800
 1265SOL    HW2 4695   5.825   5.146   4.934
 1266SOL     OW 4696   0.734   0.826   4.373
 1266SOL    HW1 4697   0.785   0.911   4.361
 1266SOL    HW2 4698   0.670   0.836   4.449
 1267SOL     OW 4699   5.712   1.548   1.183
 1267SOL    HW1 4700   5.766   1.549   1.099
 1267SOL    HW2 4701   5.773   1.561   1.261
 1268SOL     OW 4702   2.916   3.050   6.820
 1268SOL    HW1 4703   2.998   2.994   6.819
 1268SOL    HW2 4704   2.846   3.007   6.763
 1269SOL     OW 4705   5.823   3.151   3.804
 1269SOL    HW1 4706   5.829   3.056   3.834
 1269SOL    HW2 4707   5.908   3.199   3.825
 1270SOL     OW 4708   2.478   4.556   2.663
 1270SOL    HW1 4709   2.533   4.490   2.713
 1270SOL    HW2 4710   2.421   4.508   2.597
 1271SOL     OW 4711   3.288   1.853   2.599
 1271SOL    HW1 4712   3.319   1.823   2.509
 1271SOL    HW2 4713   3.330   1.942   2.621
 1272SOL     OW 4714   5.795   4.942   6.927
 1272SOL    HW1 4715   5.892   4.947   6.950
 1272SOL    HW2 4716   5.784   4.952   6.828
 1273SOL     OW 4717   1.000   4.047   5.630
 1273SOL    HW1 4718   1.096   4.054   5.654
 1273SOL    HW2 4719   0.944   4.053   5.713
 1274SOL     OW 4720   6.951   4.648   0.733
 1274SOL    HW1 4721   6.949   4.710   0.654
 1274SOL    HW2 4722   6.885   4.679   0.801
 1275SOL     OW 4723   3.727   1.573   3.351
 1275SOL    HW1 4724   3.726   1.494   3.290
 1275SOL    HW2 4725   3.822   1.602   3.367
 1276SOL     OW 4726   5.605   5.070   4.634
 1276SOL    HW1 4727   5.595   5.170   4.633
 1276SOL    HW2 4728   5.613   5.039   4.729
 1277SOL     OW 4729   1.813   5.222   6.572
 1277SOL    HW1 4730   1.852   5.138   6.535
 1277SOL    HW2 4731   1.824   5.296   6.506
 1278SOL     OW 4732   1.659   0.258   5.042
 1278SOL    HW1 4733   1.559   0.264   5.047
 1278SOL    HW2 4734   1.687   0.163   5.031
 1279SOL     OW 4735   1.933   4.514   6.665
 1279SOL    HW1 4736   1.991   4.582   6.621
 1279SOL    HW2 4737   1.908   4.444   6.598
 1280SOL     OW 4738   4.174   6.334   3.575
 1280SOL    HW1 4739   4.177   6.260   3.642
 1280SOL    HW2 4740   4.160   6.296   3.484
 1281SOL     OW 4741   2.565   6.373   3.175
 1281SOL    HW1 4742   2.657   6.332   3.170
 1281SOL    HW2 4743   2.498   6.308   3.140
 1282SOL     OW 4744   6.734   1.997   0.038
 1282SOL    HW1 4745   6.649   2.031   0.079
 1282SOL    HW2 4746   6.785   1.944   0.105
 1283SOL     OW 4747   6.520   2.759   5.380
 1283SOL    HW1 4748   6.499   2.728   5.287
 1283SOL    HW2 4749   6.484   2.852   5.393
 1284SOL     OW 4750   4.217   1.398   1.440
 1284SOL    HW1 4751   4.142   1.416   1.504
 1284SOL    HW2 4752   4.183   1.350   1.360
 1285SOL     OW 4753   4.769   1.250   5.101
 1285SOL    HW1 4754   4.818   1.336   5.084
 1285SOL    HW2 4755   4.700   1.265   5.172
 1286SOL     OW 4756   4.505   2.620   0.769
 1286SOL    HW1 4757   4.406   2.612   0.784
 1286SOL    HW2 4758   4.529   2.716   0.754
 1287SOL     OW 4759   5.280   4.138   5.362
 1287SOL    HW1 4760   5.245   4.194   5.438
 1287SOL    HW2 4761   5.310   4.050   5.397
 1288SOL     OW 4762   4.204   4.750   6.347
 1288SOL    HW1 4763   4.268   4.675   6.359
 1288SOL    HW2 4764   4.113   4.721   6.375
 1289SOL     OW 4765   0.661   0.393   1.427
 1289SOL    HW1 4766   0.579   0.422   1.475
 1289SOL    HW2 4767   0.735   0.458   1.443
 1290SOL     OW 4768   1.475   0.094   0.300
 1290SOL    HW1 4769   1.404   0.039   0.343
 1290SOL    HW2 4770   1.538   0.034   0.250
 1291SOL     OW 4771   0.625   4.028   3.849
 1291SOL    HW1 4772   0.709   3.979   3.823
 1291SOL    HW2 4773   0.600   4.003   3.942
 1292SOL     OW 4774   0.018   5.902   2.344
 1292SOL    HW1 4775   7.021   5.981   2.403
 1292SOL    HW2 4776   0.114   5.905   2.314
 1293SOL     OW 4777   2.350   2.262   6.545
 1293SOL    HW1 4778   2.442   2.225   6.529
 1293SOL    HW2 4779   2.322   2.240   6.639
 1294SOL     OW 4780   0.334   3.657   5.524
 1294SOL    HW1 4781   0.241   3.692   5.534
 1294SOL    HW2 4782   0.388   3.682   5.605
 1295SOL     OW 4783   0.174   3.032   1.080
 1295SOL    HW1 4784   0.176   3.128   1.049
 1295SOL    HW2 4785   0.122   2.977   1.015
 1296SOL     OW 4786   4.517   6.859   5.074
 1296SOL    HW1 4787   4.556   6.919   5.004
 1296SOL    HW2 4788   4.511   6.766   5.038
 1297SOL     OW 4789   0.973   6.420   1.545
 1297SOL    HW1 4790   1.037   6.434   1.620
 1297SOL    HW2 4791   1.017   6.444   1.458
 1298SOL     OW 4792   5.359   6.569   3.737
 1298SOL    HW1 4793   5.415   6.493   3.769
 1298SOL    HW2 4794   5.328   6.552   3.644
 1299SOL     OW 4795   2.528   2.592   3.656
 1299SOL    HW1 4796   2.524   2.608   3.558
 1299SOL    HW2 4797   2.436   2.597   3.695
 1300SOL     OW 4798   2.001   3.294   1.075
 1300SOL    HW1 4799   1.924   3.349   1.108
 1300SOL    HW2 4800   1.986   3.268   0.980
 1301SOL     OW 4801   0.348   6.931   1.882
 1301SOL    HW1 4802   0.409   6.882   1.820
 1301SOL    HW2 4803   0.354   6.889   1.973
 1302SOL     OW 4804   4.950   0.147   5.025
 1302SOL    HW1 4805   4.994   0.237   5.036
 1302SOL    HW2 4806   4.998   0.095   4.954
 1303SOL     OW 4807   4.116   1.065   1.308
 1303SOL    HW1 4808   4.172   1.025   1.236
 1303SOL    HW2 4809   4.106   1.163   1.292
 1304SOL     OW 4810   1.648   7.020   1.024
 1304SOL    HW1 4811   1.593   0.081   1.017
 1304SOL    HW2 4812   1.591   6.939   1.007
 1305SOL     OW 4813   5.629   4.274   0.212
 1305SOL    HW1 4814   5.542   4.281   0.162
 1305SOL    HW2 4815   5.703   4.304   0.153
 1306SOL     OW 4816   1.296   5.832   4.259
 1306SOL    HW1 4817   1.287   5.926   4.290
 1306SOL    HW2 4818   1.235   5.816   4.181
 1307SOL     OW 4819   2.043   4.290   4.182
 1307SOL    HW1 4820   2.132   4.246   4.174
 1307SOL    HW2 4821   2.003   4.302   4.092
 1308SOL     OW 4822   0.355   6.979   5.704
 1308SOL    HW1 4823   0.308   6.895   5.675
 1308SOL    HW2 4824   0.453   6.961   5.709
 1309SOL     OW 4825   5.760   4.661   5.455
 1309SOL    HW1 4826   5.789   4.622   5.542
 1309SOL    HW2 4827   5.703   4.741   5.470
 1310SOL     OW 4828   0.222   3.478   2.992
 1310SOL    HW1 4829   0.128   3.463   3.023
 1310SOL    HW2 4830   0.251   3.401   2.934
 1311SOL     OW 4831   7.019   6.294   6.245
 1311SOL    HW1 4832   0.008   6.390   6.272
 1311SOL    HW2 4833   6.998   6.239   6.326
 1312SOL     OW 4834   1.561   6.718   7.017
 1312SOL    HW1 4835   1.617   6.676   0.067
 1312SOL    HW2 4836   1.472   6.673   7.014
 1313SOL     OW 4837   6.814   5.213   2.464
 1313SOL    HW1 4838   6.892   5.195   2.404
 1313SOL    HW2 4839   6.834   5.180   2.556
 1314SOL     OW 4840   3.600   1.687   4.804
 1314SOL    HW1 4841   3.535   1.700   4.879
 1314SOL    HW2 4842   3.557   1.715   4.718
 1315SOL     OW 4843   6.849   1.369   3.133
 1315SOL    HW1 4844   6.887   1.363   3.226
 1315SOL    HW2 4845   6.781   1.443   3.130
 1316SOL     OW 4846   3.357   0.083   5.453
 1316SOL    HW1 4847   3.309   0.102   5.539
 1316SOL    HW2 4848   3.291   0.082   5.377
 1317SOL     OW 4849   1.570   3.930   5.537
 1317SOL    HW1 4850   1.549   3.838   5.502
 1317SOL    HW2 4851   1.495   3.992   5.514
 1318SOL     OW 4852   1.307   2.957   0.629
 1318SOL    HW1 4853   1.313   3.057   0.625
 1318SOL    HW2 4854   1.398   2.918   0.618
 1319SOL     OW 4855   6.965   5.450   0.606
 1319SOL    HW1 4856   7.005   5.542   0.610
 1319SOL    HW2 4857   6.916   5.432   0.691
 1320SOL     OW 4858   3.481   3.711   0.007
 1320SOL    HW1 4859   3.461   3.661   6.945
 1320SOL    HW2 4860   3.414   3.689   0.077
 1321SOL     OW 4861   5.504   2.750   6.106
 1321SOL    HW1 4862   5.602   2.761   6.117
 1321SOL    HW2 4863   5.482   2.653   6.094
 1322SOL     OW 4864   3.877   1.665   4.705
 1322SOL    HW1 4865   3.791   1.686   4.752
 1322SOL    HW2 4866   3.897   1.736   4.638
 1323SOL     OW 4867   3.490   0.041   6.705
 1323SOL    HW1 4868   3.421   0.016   6.773
 1323SOL    HW2 4869   3.580   0.013   6.738
 1324SOL     OW 4870   0.338   3.225   0.009
 1324SOL    HW1 4871   0.302   3.293   0.073
 1324SOL    HW2 4872   0.369   3.145   0.060
 1325SOL     OW 4873   3.887   6.118   5.302
 1325SOL    HW1 4874   3.963   6.119   5.237
 1325SOL    HW2 4875   3.918   6.080   5.389
 1326SOL     OW 4876   4.793   3.656   5.331
 1326SOL    HW1 4877   4.866   3.708   5.286
 1326SOL    HW2 4878   4.741   3.606   5.262
 1327SOL     OW 4879   1.180   6.178   0.881
 1327SOL    HW1 4880   1.127   6.202   0.963
 1327SOL    HW2 4881   1.235   6.256   0.853
 1328SOL     OW 4882   2.333   2.972   0.174
 1328SOL    HW1 4883   2.330   3.061   0.128
 1328SOL    HW2 4884   2.391   2.909   0.122
 1329SOL     OW 4885   0.613   2.656   2.292
 1329SOL    HW1 4886   0.712   2.667   2.297
 1329SOL    HW2 4887   0.569   2.744   2.312
 1330SOL     OW 4888   1.572   1.742   1.268
 1330SOL    HW1 4889   1.586   1.662   1.326
 1330SOL    HW2 4890   1.525   1.814   1.319
 1331SOL     OW 4891   4.882   2.716   3.289
 1331SOL    HW1 4892   4.822   2.763   3.224
 1331SOL    HW2 4893   4.972   2.760   3.288
 1332SOL     OW 4894   2.882   6.874   0.531
 1332SOL    HW1 4895   2.795   6.869   0.581
 1332SOL    HW2 4896   2.921   6.965   0.540
 1333SOL     OW 4897   2.907   3.519   2.810
 1333SOL    HW1 4898   2.892   3.618   2.814
 1333SOL    HW2 4899   2.905   3.481   2.903
 1334SOL     OW 4900   6.857   1.255   3.847
 1334SOL    HW1 4901   6.812   1.168   3.830
 1334SOL    HW2 4902   6.793   1.318   3.892
 1335SOL     OW 4903   1.915   1.902   2.227
 1335SOL    HW1 4904   1.907   1.979   2.290
 1335SOL    HW2 4905   1.824   1.867   2.205
 1336SOL     OW 4906   3.299   1.915   4.679
 1336SOL    HW1 4907   3.239   1.846   4.720
 1336SOL    HW2 4908   3.309   1.992   4.743
 1337SOL     OW 4909   1.289   1.459   2.530
 1337SOL    HW1 4910   1.291   1.558   2.518
 1337SOL    HW2 4911   1.263   1.415   2.444
 1338SOL     OW 4912   6.732   2.981   4.485
 1338SOL    HW1 4913   6.671   3.006   4.560
 1338SOL    HW2 4914   6.785   3.061   4.457
 1339SOL     OW 4915   6.174   1.790   0.272
 1339SOL    HW1 4916   6.112   1.712   0.261
 1339SOL    HW2 4917   6.255   1.776   0.216
 1340SOL     OW 4918   5.466   1.515   2.596
 1340SOL    HW1 4919   5.447   1.589   2.661
 1340SOL    HW2 4920   5.515   1.442   2.643
 1341SOL     OW 4921   4.492   6.798   6.615
 1341SOL    HW1 4922   4.506   6.759   6.706
 1341SOL    HW2 4923   4.484   6.724   6.548
 1342SOL     OW 4924   2.648   5.386   6.646
 1342SOL    HW1 4925   2.578   5.349   6.707
 1342SOL    HW2 4926   2.656   5.484   6.662
 1343SOL     OW 4927   5.465   5.778   2.400
 1343SOL    HW1 4928   5.380   5.729   2.420
 1343SOL    HW2 4929   5.510   5.735   2.322
 1344SOL     OW 4930   0.548   6.233   4.272
 1344SOL    HW1 4931   0.619   6.288   4.317
 1344SOL    HW2 4932   0.592   6.157   4.223
 1345SOL     OW 4933   0.319   5.097   2.645
 1345SOL    HW1 4934   0.254   5.123   2.717
 1345SOL    HW2 4935   0.410   5.131   2.669
 1346SOL     OW 4936   1.931   5.778   5.577
 1346SOL    HW1 4937   1.983   5.728   5.645
 1346SOL    HW2 4938   1.873   5.715   5.525
 1347SOL     OW 4939   6.999   6.577   6.118
 1347SOL    HW1 4940   0.065   6.624   6.131
 1347SOL    HW2 4941   6.925   6.635   6.151
 1348SOL     OW 4942   6.825   6.170   4.701
 1348SOL    HW1 4943   6.749   6.137   4.647
 1348SOL    HW2 4944   6.903   6.109   4.690
 1349SOL     OW 4945   5.674   2.969   5.010
 1349SOL    HW1 4946   5.578   2.955   5.032
 1349SOL    HW2 4947   5.686   2.967   4.910
 1350SOL     OW 4948   5.301   5.203   5.029
 1350SOL    HW1 4949   5.295   5.104   5.018
 1350SOL    HW2 4950   5.219   5.237   5.076
 1351SOL     OW 4951   5.448   2.309   3.915
 1351SOL    HW1 4952   5.477   2.365   3.993
 1351SOL    HW2 4953   5.353   2.332   3.892
 1352SOL     OW 4954   6.258   5.755   4.474
 1352SOL    HW1 4955   6.306   5.821   4.533
 1352SOL    HW2 4956   6.179   5.719   4.522
 1353SOL     OW 4957   0.591   2.537   0.454
 1353SOL    HW1 4958   0.542   2.525   0.540
 1353SOL    HW2 4959   0.689   2.522   0.468
 1354SOL     OW 4960   0.279   4.642   1.804
 1354SOL    HW1 4961   0.332   4.564   1.772
 1354SOL    HW2 4962   0.190   4.645   1.758
 1355SOL     OW 4963   6.262   3.871   4.343
 1355SOL    HW1 4964   6.346   3.917   4.374
 1355SOL    HW2 4965   6.237   3.800   4.408
 1356SOL     OW 4966   3.703   3.007   2.117
 1356SOL    HW1 4967   3.615   2.985   2.160
 1356SOL    HW2 4968   3.770   3.031   2.187
 1357SOL     OW 4969   0.047   4.441   6.198
 1357SOL    HW1 4970   0.068   4.453   6.101
 1357SOL    HW2 4971   0.057   4.529   6.245
 1358SOL     OW 4972   5.912   6.507   6.766
 1358SOL    HW1 4973   5.823   6.542   6.739
 1358SOL    HW2 4974   5.972   6.503   6.686
 1359SOL     OW 4975   5.948   4.727   2.556
 1359SOL    HW1 4976   6.003   4.644   2.561
 1359SOL    HW2 4977   5.990   4.792   2.494
 1360SOL     OW 4978   2.372   3.753   0.792
 1360SOL    HW1 4979   2.410   3.671   0.750
 1360SOL    HW2 4980   2.302   3.792   0.732
 1361SOL     OW 4981   6.227   5.000   5.185
 1361SOL    HW1 4982   6.228   4.998   5.085
 1361SOL    HW2 4983   6.293   4.934   5.220
 1362SOL     OW 4984   4.095   3.768   3.514
 1362SOL    HW1 4985   4.100   3.672   3.487
 1362SOL    HW2 4986   4.165   3.820   3.465
 1363SOL     OW 4987   0.227   5.010   4.583
 1363SOL    HW1 4988   0.306   4.949   4.583
 1363SOL    HW2 4989   0.256   5.102   4.612
 1364SOL     OW 4990   5.387   4.036   0.545
 1364SOL    HW1 4991   5.368   4.108   0.478
 1364SOL    HW2 4992   5.480   4.045   0.579
 1365SOL     OW 4993   0.494   4.535   6.356
 1365SOL    HW1 4994   0.549   4.458   6.387
 1365SOL    HW2 4995   0.545   4.585   6.286
 1366SOL     OW 4996   1.537   6.219   6.202
 1366SOL    HW1 4997   1.439   6.208   6.218
 1366SOL    HW2 4998   1.552   6.277   6.122
 1367SOL     OW 4999   2.162   6.661   2.614
 1367SOL    HW1 5000   2.092   6.693   2.550
 1367SOL    HW2 5001   2.150   6.705   2.702
 1368SOL     OW 5002   5.200   0.046   4.049
 1368SOL    HW1 5003   5.287   0.002   4.074
 1368SOL    HW2 5004   5.141   0.051   4.130
 1369SOL     OW 5005   1.569   6.518   2.965
 1369SOL    HW1 5006   1.634   6.559   3.029
 1369SOL    HW2 5007   1.569   6.419   2.976
 1370SOL     OW 5008   3.670   0.903   1.949
 1370SOL    HW1 5009   3.619   0.852   2.018
 1370SOL    HW2 5010   3.620   0.904   1.863
 1371SOL     OW 5011   5.098   1.340   4.475
 1371SOL    HW1 5012   5.007   1.298   4.485
 1371SOL    HW2 5013   5.142   1.304   4.393
 1372SOL     OW 5014   1.729   2.981   0.478
 1372SOL    HW1 5015   1.826   2.959   0.490
 1372SOL    HW2 5016   1.691   2.929   0.402
 1373SOL     OW 5017   6.219   4.247   0.419
 1373SOL    HW1 5018   6.300   4.304   0.431
 1373SOL    HW2 5019   6.165   4.281   0.342
 1374SOL     OW 5020   3.736   2.241   0.644
 1374SOL    HW1 5021   3.656   2.290   0.680
 1374SOL    HW2 5022   3.739   2.251   0.544
 1375SOL     OW 5023   6.866   4.926   5.964
 1375SOL    HW1 5024   6.818   4.838   5.968
 1375SOL    HW2 5025   6.818   4.992   6.022
 1376SOL     OW 5026   5.246   3.326   3.813
 1376SOL    HW1 5027   5.278   3.234   3.832
 1376SOL    HW2 5028   5.164   3.322   3.755
 1377SOL     OW 5029   6.755   3.643   5.351
 1377SOL    HW1 5030   6.666   3.596   5.345
 1377SOL    HW2 5031   6.740   3.740   5.370
 1378SOL     OW 5032   6.222   2.066   4.915
 1378SOL    HW1 5033   6.199   1.997   4.846
 1378SOL    HW2 5034   6.145   2.128   4.928
 1379SOL     OW 5035   3.335   6.410   2.192
 1379SOL    HW1 5036   3.342   6.354   2.110
 1379SOL    HW2 5037   3.371   6.502   2.173
 1380SOL     OW 5038   0.009   6.866   2.506
 1380SOL    HW1 5039   0.086   6.873   2.443
 1380SOL    HW2 5040   0.043   6.865   2.600
 1381SOL     OW 5041   5.381   2.774   0.364
 1381SOL    HW1 5042   5.450   2.737   0.427
 1381SOL    HW2 5043   5.369   2.871   0.381
 1382SOL     OW 5044   6.070   5.077   6.577
 1382SOL    HW1 5045   6.046   4.981   6.564
 1382SOL    HW2 5046   5.999   5.122   6.632
 1383SOL     OW 5047   1.530   1.261   0.407
 1383SOL    HW1 5048   1.516   1.325   0.482
 1383SOL    HW2 5049   1.602   1.196   0.431
 1384SOL     OW 5050   4.005   1.678   3.235
 1384SOL    HW1 5051   4.000   1.629   3.148
 1384SOL    HW2 5052   3.939   1.753   3.234
 1385SOL     OW 5053   0.417   2.985   2.692
 1385SOL    HW1 5054   0.416   3.068   2.638
 1385SOL    HW2 5055   0.341   2.926   2.664
 1386SOL     OW 5056   2.121   2.336   4.354
 1386SOL    HW1 5057   2.069   2.403   4.407
 1386SOL    HW2 5058   2.117   2.247   4.400
 1387SOL     OW 5059   3.682   0.916   3.839
 1387SOL    HW1 5060   3.596   0.875   3.868
 1387SOL    HW2 5061   3.728   0.958   3.918
 1388SOL     OW 5062   6.543   6.290   4.338
 1388SOL    HW1 5063   6.637   6.323   4.347
 1388SOL    HW2 5064   6.529   6.254   4.246
 1389SOL     OW 5065   0.307   1.029   3.613
 1389SOL    HW1 5066   0.377   0.967   3.578
 1389SOL    HW2 5067   0.256   1.068   3.536
 1390SOL     OW 5068   4.572   1.384   6.859
 1390SOL    HW1 5069   4.500   1.386   6.790
 1390SOL    HW2 5070   4.638   1.457   6.840
 1391SOL     OW 5071   6.322   1.851   5.893
 1391SOL    HW1 5072   6.272   1.819   5.813
 1391SOL    HW2 5073   6.294   1.945   5.914
 1392SOL     OW 5074   4.886   5.734   6.056
 1392SOL    HW1 5075   4.810   5.701   6.001
 1392SOL    HW2 5076   4.862   5.730   6.153
 1393SOL     OW 5077   6.269   2.563   6.831
 1393SOL    HW1 5078   6.316   2.497   6.773
 1393SOL    HW2 5079   6.190   2.601   6.782
 1394SOL     OW 5080   4.077   6.799   4.107
 1394SOL    HW1 5081   4.118   6.824   4.195
 1394SOL    HW2 5082   4.149   6.769   4.044
 1395SOL     OW 5083   0.238   4.115   2.579
 1395SOL    HW1 5084   0.260   4.153   2.489
 1395SOL    HW2 5085   0.278   4.024   2.587
 1396SOL     OW 5086   1.738   0.304   4.104
 1396SOL    HW1 5087   1.659   0.359   4.076
 1396SOL    HW2 5088   1.806   0.303   4.030
 1397SOL     OW 5089   0.356   5.823   5.286
 1397SOL    HW1 5090   0.312   5.769   5.357
 1397SOL    HW2 5091   0.437   5.869   5.323
 1398SOL     OW 5092   1.718   1.126   0.534
 1398SOL    HW1 5093   1.694   1.106   0.629
 1398SOL    HW2 5094   1.817   1.127   0.523
 1399SOL     OW 5095   4.104   0.726   0.811
 1399SOL    HW1 5096   4.193   0.714   0.855
 1399SOL    HW2 5097   4.067   0.637   0.787
 1400SOL     OW 5098   6.653   0.890   4.367
 1400SOL    HW1 5099   6.667   0.811   4.425
 1400SOL    HW2 5100   6.671   0.865   4.271
 1401SOL     OW 5101   5.976   0.051   3.948
 1401SOL    HW1 5102   6.021   6.985   3.962
 1401SOL    HW2 5103   5.903   0.062   4.015
 1402SOL     OW 5104   5.918   4.072   0.442
 1402SOL    HW1 5105   5.935   4.027   0.354
 1402SOL    HW2 5106   5.993   4.052   0.505
 1403SOL     OW 5107   3.159   3.410   0.314
 1403SOL    HW1 5108   3.223   3.425   0.388
 1403SOL    HW2 5109   3.109   3.325   0.330
 1404SOL     OW 5110   5.010   0.294   0.997
 1404SOL    HW1 5111   5.056   0.288   0.909
 1404SOL    HW2 5112   5.074   0.271   1.071
 1405SOL     OW 5113   1.359   3.735   1.312
 1405SOL    HW1 5114   1.346   3.717   1.409
 1405SOL    HW2 5115   1.294   3.681   1.259
 1406SOL     OW 5116   2.141   3.905   1.444
 1406SOL    HW1 5117   2.210   3.955   1.392
 1406SOL    HW2 5118   2.159   3.917   1.542
 1407SOL     OW 5119   0.731   3.526   1.770
 1407SOL    HW1 5120   0.645   3.479   1.787
 1407SOL    HW2 5121   0.786   3.472   1.705
 1408SOL     OW 5122   6.277   6.095   6.974
 1408SOL    HW1 5123   6.299   5.998   6.964
 1408SOL    HW2 5124   6.250   6.113   0.047
 1409SOL     OW 5125   6.895   1.628   5.417
 1409SOL    HW1 5126   6.812   1.650   5.467
 1409SOL    HW2 5127   6.891   1.670   5.326
 1410SOL     OW 5128   2.256   3.083   6.165
 1410SOL    HW1 5129   2.174   3.091   6.222
 1410SOL    HW2 5130   2.237   3.119   6.074
 1411SOL     OW 5131   3.337   6.398   6.889
 1411SOL    HW1 5132   3.238   6.395   6.904
 1411SOL    HW2 5133   3.359   6.476   6.832
 1412SOL     OW 5134   0.547   3.382   0.946
 1412SOL    HW1 5135   0.522   3.468   0.989
 1412SOL    HW2 5136   0.549   3.393   0.847
 1413SOL     OW 5137   1.849   2.321   4.712
 1413SOL    HW1 5138   1.832   2.274   4.625
 1413SOL    HW2 5139   1.761   2.340   4.757
 1414SOL     OW 5140   1.075   3.181   1.733
 1414SOL    HW1 5141   1.058   3.094   1.779
 1414SOL    HW2 5142   1.108   3.164   1.640
 1415SOL     OW 5143   2.545   1.985   4.558
 1415SOL    HW1 5144   2.487   2.065   4.545
 1415SOL    HW2 5145   2.630   1.997   4.506
 1416SOL     OW 5146   4.000   0.411   4.932
 1416SOL    HW1 5147   3.914   0.378   4.893
 1416SOL    HW2 5148   3.981   0.480   5.001
 1417SOL     OW 5149   2.900   3.548   6.130
 1417SOL    HW1 5150   2.854   3.635   6.148
 1417SOL    HW2 5151   2.966   3.529   6.203
 1418SOL     OW 5152   3.493   4.169   0.227
 1418SOL    HW1 5153   3.462   4.086   0.181
 1418SOL    HW2 5154   3.489   4.246   0.162
 1419SOL     OW 5155   1.697   4.709   4.298
 1419SOL    HW1 5156   1.788   4.744   4.316
 1419SOL    HW2 5157   1.642   4.780   4.254
 1420SOL     OW 5158   3.963   5.252   2.430
 1420SOL    HW1 5159   4.042   5.193   2.448
 1420SOL    HW2 5160   3.887   5.225   2.488
 1421SOL     OW 5161   0.734   4.535   4.807
 1421SOL    HW1 5162   0.819   4.545   4.860
 1421SOL    HW2 5163   0.666   4.599   4.842
 1422SOL     OW 5164   2.617   4.248   5.620
 1422SOL    HW1 5165   2.702   4.294   5.645
 1422SOL    HW2 5166   2.627   4.206   5.530
 1423SOL     OW 5167   4.360   1.542   4.943
 1423SOL    HW1 5168   4.351   1.474   5.016
 1423SOL    HW2 5169   4.276   1.543   4.888
 1424SOL     OW 5170   6.144   3.189   6.200
 1424SOL    HW1 5171   6.168   3.117   6.134
 1424SOL    HW2 5172   6.200   3.179   6.282
 1425SOL     OW 5173   3.194   6.426   5.147
 1425SOL    HW1 5174   3.111   6.414   5.091
 1425SOL    HW2 5175   3.172   6.482   5.226
 1426SOL     OW 5176   2.099   1.430   6.981
 1426SOL    HW1 5177   2.163   1.426   0.036
 1426SOL    HW2 5178   2.141   1.389   6.900
 1427SOL     OW 5179   1.297   0.336   3.296
 1427SOL    HW1 5180   1.374   0.396   3.274
 1427SOL    HW2 5181   1.247   0.374   3.374
 1428SOL     OW 5182   0.156   2.514   2.018
 1428SOL    HW1 5183   0.119   2.431   1.978
 1428SOL    HW2 5184   0.214   2.491   2.096
 1429SOL     OW 5185   6.389   1.261   6.667
 1429SOL    HW1 5186   6.425   1.353   6.677
 1429SOL    HW2 5187   6.464   1.195   6.668
 1430SOL     OW 5188   2.758   5.014   4.086
 1430SOL    HW1 5189   2.699   4.958   4.144
 1430SOL    HW2 5190   2.839   5.042   4.137
 1431SOL     OW 5191   2.990   1.507   5.939
 1431SOL    HW1 5192   2.924   1.498   5.865
 1431SOL    HW2 5193   3.080   1.478   5.907
 1432SOL     OW 5194   2.441   1.393   0.709
 1432SOL    HW1 5195   2.522   1.387   0.651
 1432SOL    HW2 5196   2.466   1.372   0.803
 1433SOL     OW 5197   3.238   0.675   3.172
 1433SOL    HW1 5198   3.277   0.706   3.259
 1433SOL    HW2 5199   3.148   0.635   3.189
 1434SOL     OW 5200   0.462   2.417   0.012
 1434SOL    HW1 5201   0.392   2.350   7.007
 1434SOL    HW2 5202   0.419   2.490   0.066
 1435SOL     OW 5203   0.966   6.909   3.551
 1435SOL    HW1 5204   0.957   6.886   3.454
 1435SOL    HW2 5205   0.908   6.849   3.605
 1436SOL     OW 5206   5.995   3.513   0.725
 1436SOL    HW1 5207   5.912   3.523   0.780
 1436SOL    HW2 5208   6.019   3.416   0.719
 1437SOL     OW 5209   4.575   1.478   6.140
 1437SOL    HW1 5210   4.556   1.446   6.047
 1437SOL    HW2 5211   4.660   1.530   6.140
 1438SOL     OW 5212   2.799   0.921   1.389
 1438SOL    HW1 5213   2.812   1.000   1.450
 1438SOL    HW2 5214   2.710   0.879   1.409
 1439SOL     OW 5215   0.383   5.828   0.150
 1439SOL    HW1 5216   0.288   5.852   0.167
 1439SOL    HW2 5217   0.441   5.867   0.221
 1440SOL     OW 5218   3.202   3.646   3.787
 1440SOL    HW1 5219   3.221   3.740   3.815
 1440SOL    HW2 5220   3.212   3.638   3.688
 1441SOL     OW 5221   6.725   3.828   3.780
 1441SOL    HW1 5222   6.702   3.770   3.702
 1441SOL    HW2 5223   6.799   3.890   3.755
 1442SOL     OW 5224   5.495   4.646   0.691
 1442SOL    HW1 5225   5.432   4.656   0.768
 1442SOL    HW2 5226   5.566   4.579   0.714
 1443SOL     OW 5227   1.130   0.394   3.504
 1443SOL    HW1 5228   1.120   0.296   3.523
 1443SOL    HW2 5229   1.040   0.436   3.498
 1444SOL     OW 5230   4.627   6.524   3.126
 1444SOL    HW1 5231   4.547   6.562   3.171
 1444SOL    HW2 5232   4.709   6.570   3.159
 1445SOL     OW 5233   0.547   2.629   1.802
 1445SOL    HW1 5234   0.577   2.623   1.897
 1445SOL    HW2 5235   0.468   2.570   1.787
 1446SOL     OW 5236   4.628   2.374   0.315
 1446SOL    HW1 5237   4.529   2.355   0.312
 1446SOL    HW2 5238   4.678   2.288   0.304
 1447SOL     OW 5239   6.579   1.022   5.138
 1447SOL    HW1 5240   6.564   1.090   5.067
 1447SOL    HW2 5241   6.673   1.028   5.172
 1448SOL     OW 5242   6.279   1.752   0.764
 1448SOL    HW1 5243   6.347   1.777   0.833
 1448SOL    HW2 5244   6.193   1.799   0.782
 1449SOL     OW 5245   5.900   6.516   0.663
 1449SOL    HW1 5246   5.911   6.418   0.678
 1449SOL    HW2 5247   5.845   6.555   0.737
 1450SOL     OW 5248   6.133   2.751   2.974
 1450SOL    HW1 5249   6.106   2.695   3.052
 1450SOL    HW2 5250   6.089   2.716   2.891
 1451SOL     OW 5251   2.499   6.542   2.807
 1451SOL    HW1 5252   2.480   6.534   2.710
 1451SOL    HW2 5253   2.591   6.508   2.827
 1452SOL     OW 5254   5.383   0.411   4.780
 1452SOL    HW1 5255   5.291   0.378   4.804
 1452SOL    HW2 5256   5.397   0.402   4.682
 1453SOL     OW 5257   5.533   3.694   4.695
 1453SOL    HW1 5258   5.597   3.765   4.662
 1453SOL    HW2 5259   5.569   3.652   4.778
 1454SOL     OW 5260   5.470   2.518   1.998
 1454SOL    HW1 5261   5.519   2.457   2.060
 1454SOL    HW2 5262   5.387   2.551   2.042
 1455SOL     OW 5263   0.904   0.357   1.777
 1455SOL    HW1 5264   0.875   0.361   1.873
 1455SOL    HW2 5265   0.952   0.441   1.754
 1456SOL     OW 5266   0.302   6.554   5.221
 1456SOL    HW1 5267   0.244   6.634   5.205
 1456SOL    HW2 5268   0.313   6.503   5.136
 1457SOL     OW 5269   1.410   6.893   3.248
 1457SOL    HW1 5270   1.491   6.947   3.225
 1457SOL    HW2 5271   1.344   6.898   3.173
 1458SOL     OW 5272   5.104   6.839   5.131
 1458SOL    HW1 5273   5.135   6.753   5.172
 1458SOL    HW2 5274   5.127   6.915   5.192
 1459SOL     OW 5275   2.833   5.763   6.780
 1459SOL    HW1 5276   2.890   5.842   6.761
 1459SOL    HW2 5277   2.828   5.748   6.879
 1460SOL     OW 5278   0.104   6.361   6.787
 1460SOL    HW1 5279   0.028   6.376   6.725
 1460SOL    HW2 5280   0.189   6.355   6.735
 1461SOL     OW 5281   6.372   4.476   3.370
 1461SOL    HW1 5282   6.423   4.562   3.364
 1461SOL    HW2 5283   6.308   4.480   3.447
 1462SOL     OW 5284   6.695   1.383   0.363
 1462SOL    HW1 5285   6.644   1.468   0.373
 1462SOL    HW2 5286   6.750   1.368   0.445
 1463SOL     OW 5287   0.550   0.237   5.551
 1463SOL    HW1 5288   0.458   0.249   5.588
 1463SOL    HW2 5289   0.616   0.232   5.626
 1464SOL     OW 5290   0.316   6.671   0.400
 1464SOL    HW1 5291   0.348   6.739   0.335
 1464SOL    HW2 5292   0.371   6.676   0.484
 1465SOL     OW 5293   0.897   1.181   3.273
 1465SOL    HW1 5294   0.940   1.092   3.255
 1465SOL    HW2 5295   0.891   1.233   3.188
 1466SOL     OW 5296   7.001   6.157   2.444
 1466SOL    HW1 5297   0.029   6.235   2.407
 1466SOL    HW2 5298   6.960   6.182   2.532
 1467SOL     OW 5299   1.383   0.436   2.834
 1467SOL    HW1 5300   1.400   0.503   2.907
 1467SOL    HW2 5301   1.414   0.473   2.747
 1468SOL     OW 5302   5.669   5.758   3.294
 1468SOL    HW1 5303   5.654   5.659   3.281
 1468SOL    HW2 5304   5.663   5.780   3.391
 1469SOL     OW 5305   0.726   0.555   2.951
 1469SOL    HW1 5306   0.646   0.501   2.925
 1469SOL    HW2 5307   0.700   0.625   3.017
 1470SOL     OW 5308   1.197   0.439   2.434
 1470SOL    HW1 5309   1.266   0.501   2.471
 1470SOL    HW2 5310   1.239   0.375   2.370
 1471SOL     OW 5311   6.540   0.673   6.294
 1471SOL    HW1 5312   6.589   0.755   6.265
 1471SOL    HW2 5313   6.589   0.630   6.370
 1472SOL     OW 5314   4.766   6.180   4.570
 1472SOL    HW1 5315   4.818   6.252   4.615
 1472SOL    HW2 5316   4.711   6.131   4.638
 1473SOL     OW 5317   5.903   5.420   3.326
 1473SOL    HW1 5318   5.944   5.487   3.264
 1473SOL    HW2 5319   5.956   5.335   3.324
 1474SOL     OW 5320   6.029   5.739   3.910
 1474SOL    HW1 5321   5.957   5.681   3.870
 1474SOL    HW2 5322   5.988   5.815   3.960
 1475SOL     OW 5323   0.221   0.179   1.894
 1475SOL    HW1 5324   0.257   0.086   1.902
 1475SOL    HW2 5325   0.167   0.202   1.975
 1476SOL     OW 5326   1.016   0.947   1.746
 1476SOL    HW1 5327   1.045   1.023   1.804
 1476SOL    HW2 5328   1.016   0.863   1.800
 1477SOL     OW 5329   3.075   0.464   6.054
 1477SOL    HW1 5330   3.006   0.483   6.124
 1477SOL    HW2 5331   3.082   0.542   5.992
 1478SOL     OW 5332   5.924   4.587   0.956
 1478SOL    HW1 5333   5.839   4.631   0.984
 1478SOL    HW2 5334   5.939   4.602   0.858
 1479SOL     OW 5335   1.501   4.885   0.468
 1479SOL    HW1 5336   1.525   4.839   0.383
 1479SOL    HW2 5337   1.444   4.824   0.524
 1480SOL     OW 5338   2.408   1.096   7.008
 1480SOL    HW1 5339   2.419   1.194   6.992
 1480SOL    HW2 5340   2.497   1.053   7.018
 1481SOL     OW 5341   5.474   1.746   5.073
 1481SOL    HW1 5342   5.465   1.763   5.171
 1481SOL    HW2 5343   5.516   1.826   5.029
 1482SOL     OW 5344   5.898   1.587   1.399
 1482SOL    HW1 5345   5.979   1.568   1.343
 1482SOL    HW2 5346   5.864   1.502   1.438
 1483SOL     OW 5347   6.863   3.058   0.040
 1483SOL    HW1 5348   6.900   3.099   6.978
 1483SOL    HW2 5349   6.845   2.961   0.025
 1484SOL     OW 5350   6.323   4.297   3.172
 1484SOL    HW1 5351   6.346   4.341   3.085
 1484SOL    HW2 5352   6.327   4.365   3.246
 1485SOL     OW 5353   5.136   2.765   2.440
 1485SOL    HW1 5354   5.078   2.761   2.358
 1485SOL    HW2 5355   5.104   2.839   2.499
 1486SOL     OW 5356   4.475   2.126   3.424
 1486SOL    HW1 5357   4.493   2.158   3.331
 1486SOL    HW2 5358   4.536   2.173   3.488
 1487SOL     OW 5359   6.821   1.588   6.919
 1487SOL    HW1 5360   6.831   1.510   6.857
 1487SOL    HW2 5361   6.729   1.588   6.957
 1488SOL     OW 5362   4.885   1.869   2.682
 1488SOL    HW1 5363   4.867   1.933   2.757
 1488SOL    HW2 5364   4.829   1.788   2.693
 1489SOL     OW 5365   3.800   4.885   4.387
 1489SOL    HW1 5366   3.703   4.894   4.406
 1489SOL    HW2 5367   3.852   4.898   4.471
 1490SOL     OW 5368   1.386   1.931   0.670
 1490SOL    HW1 5369   1.420   1.860   0.732
 1490SOL    HW2 5370   1.326   1.993   0.720
 1491SOL     OW 5371   6.373   3.830   3.444
 1491SOL    HW1 5372   6.416   3.916   3.468
 1491SOL    HW2 5373   6.322   3.794   3.522
 1492SOL     OW 5374   5.124   2.174   1.902
 1492SOL    HW1 5375   5.029   2.203   1.889
 1492SOL    HW2 5376   5.131   2.075   1.888
 1493SOL     OW 5377   4.557   6.995   4.500
 1493SOL    HW1 5378   4.646   6.991   4.546
 1493SOL    HW2 5379   4.552   0.058   4.446
 1494SOL     OW 5380   3.565   2.822   5.410
 1494SOL    HW1 5381   3.631   2.773   5.354
 1494SOL    HW2 5382   3.592   2.817   5.506
 1495SOL     OW 5383   0.295   3.307   3.236
 1495SOL    HW1 5384   0.237   3.250   3.177
 1495SOL    HW2 5385   0.282   3.404   3.213
 1496SOL     OW 5386   0.292   0.615   1.687
 1496SOL    HW1 5387   0.204   0.606   1.734
 1496SOL    HW2 5388   0.292   0.698   1.631
 1497SOL     OW 5389   0.228   5.005   4.148
 1497SOL    HW1 5390   0.145   4.976   4.196
 1497SOL    HW2 5391   0.243   5.103   4.165
 1498SOL     OW 5392   2.332   4.995   6.368
 1498SOL    HW1 5393   2.361   4.926   6.434
 1498SOL    HW2 5394   2.346   4.960   6.275
 1499SOL     OW 5395   1.228   4.300   5.081
 1499SOL    HW1 5396   1.307   4.284   5.141
 1499SOL    HW2 5397   1.180   4.214   5.066
 1500SOL     OW 5398   6.009   6.994   0.841
 1500SOL    HW1 5399   5.932   0.013   0.791
 1500SOL    HW2 5400   6.038   0.035   0.913
 1501SOL     OW 5401   3.925   0.689   6.857
 1501SOL    HW1 5402   3.912   0.715   6.953
 1501SOL    HW2 5403   3.944   0.770   6.802
 1502SOL     OW 5404   6.536   6.812   0.109
 1502SOL    HW1 5405   6.437   6.799   0.118
 1502SOL    HW2 5406   6.566   6.780   0.019
 1503SOL     OW 5407   1.912   2.781   1.076
 1503SOL    HW1 5408   1.910   2.796   0.977
 1503SOL    HW2 5409   1.879   2.688   1.096
 1504SOL     OW 5410   2.519   0.051   4.847
 1504SOL    HW1 5411   2.590   0.115   4.878
 1504SOL    HW2 5412   2.430   0.084   4.878
 1505SOL     OW 5413   5.114   0.303   5.961
 1505SOL    HW1 5414   5.135   0.242   6.036
 1505SOL    HW2 5415   5.019   0.332   5.967
 1506SOL     OW 5416   1.265   4.893   3.502
 1506SOL    HW1 5417   1.344   4.905   3.562
 1506SOL    HW2 5418   1.181   4.910   3.553
 1507SOL     OW 5419   1.646   1.332   4.436
 1507SOL    HW1 5420   1.693   1.327   4.524
 1507SOL    HW2 5421   1.687   1.404   4.381
 1508SOL     OW 5422   4.633   0.037   0.927
 1508SOL    HW1 5423   4.559   7.019   0.872
 1508SOL    HW2 5424   4.593   0.088   1.003
 1509SOL     OW 5425   4.292   2.448   6.691
 1509SOL    HW1 5426   4.223   2.481   6.756
 1509SOL    HW2 5427   4.299   2.512   6.615
 1510SOL     OW 5428   5.902   2.309   4.157
 1510SOL    HW1 5429   5.924   2.350   4.245
 1510SOL    HW2 5430   5.928   2.371   4.083
 1511SOL     OW 5431   2.392   1.579   6.858
 1511SOL    HW1 5432   2.382   1.531   6.945
 1511SOL    HW2 5433   2.431   1.517   6.790
 1512SOL     OW 5434   6.581   6.633   1.878
 1512SOL    HW1 5435   6.482   6.641   1.892
 1512SOL    HW2 5436   6.606   6.537   1.870
 1513SOL     OW 5437   4.155   0.587   3.772
 1513SOL    HW1 5438   4.057   0.583   3.754
 1513SOL    HW2 5439   4.174   0.546   3.862
 1514SOL     OW 5440   5.161   1.825   5.104
 1514SOL    HW1 5441   5.189   1.739   5.147
 1514SOL    HW2 5442   5.239   1.867   5.058
 1515SOL     OW 5443   0.134   3.325   5.284
 1515SOL    HW1 5444   0.203   3.391   5.313
 1515SOL    HW2 5445   0.108   3.343   5.189
 1516SOL     OW 5446   0.792   0.987   1.188
 1516SOL    HW1 5447   0.802   0.993   1.089
 1516SOL    HW2 5448   0.810   0.893   1.218
 1517SOL     OW 5449   4.193   5.263   4.022
 1517SOL    HW1 5450   4.184   5.239   3.925
 1517SOL    HW2 5451   4.120   5.219   4.074
 1518SOL     OW 5452   6.718   3.934   6.738
 1518SOL    HW1 5453   6.660   3.941   6.819
 1518SOL    HW2 5454   6.689   3.856   6.683
 1519SOL     OW 5455   0.277   4.181   1.043
 1519SOL    HW1 5456   0.281   4.277   1.013
 1519SOL    HW2 5457   0.290   4.176   1.141
 1520SOL     OW 5458   1.935   3.166   2.485
 1520SOL    HW1 5459   1.901   3.221   2.562
 1520SOL    HW2 5460   1.986   3.088   2.521
 1521SOL     OW 5461   1.887   2.984   0.038
 1521SOL    HW1 5462   1.837   3.052   0.093
 1521SOL    HW2 5463   1.840   2.970   6.973
 1522SOL     OW 5464   6.893   1.756   6.245
 1522SOL    HW1 5465   6.847   1.754   6.334
 1522SOL    HW2 5466   6.839   1.810   6.180
 1523SOL     OW 5467   5.386   3.494   6.259
 1523SOL    HW1 5468   5.452   3.547   6.312
 1523SOL    HW2 5469   5.295   3.501   6.300
 1524SOL     OW 5470   1.267   1.360   1.634
 1524SOL    HW1 5471   1.212   1.403   1.706
 1524SOL    HW2 5472   1.351   1.323   1.673
 1525SOL     OW 5473   4.620   1.703   5.756
 1525SOL    HW1 5474   4.708   1.671   5.792
 1525SOL    HW2 5475   4.610   1.800   5.775
 1526SOL     OW 5476   0.421   1.027   1.206
 1526SOL    HW1 5477   0.502   1.062   1.158
 1526SOL    HW2 5478   0.447   0.948   1.261
 1527SOL     OW 5479   3.085   1.750   4.714
 1527SOL    HW1 5480   3.120   1.661   4.741
 1527SOL    HW2 5481   3.036   1.792   4.790
 1528SOL     OW 5482   5.194   6.095   2.690
 1528SOL    HW1 5483   5.283   6.064   2.723
 1528SOL    HW2 5484   5.163   6.036   2.616
 1529SOL     OW 5485   4.903   1.353   6.027
 1529SOL    HW1 5486   4.883   1.412   6.105
 1529SOL    HW2 5487   4.872   1.260   6.047
 1530SOL     OW 5488   3.055   6.764   1.179
 1530SOL    HW1 5489   3.134   6.705   1.162
 1530SOL    HW2 5490   3.011   6.738   1.265
 1531SOL     OW 5491   5.714   0.880   5.312
 1531SOL    HW1 5492   5.705   0.973   5.276
 1531SOL    HW2 5493   5.810   0.863   5.334
 1532SOL     OW 5494   2.914   2.325   4.490
 1532SOL    HW1 5495   2.992   2.296   4.546
 1532SOL    HW2 5496   2.926   2.292   4.397
 1533SOL     OW 5497   6.987   3.445   6.607
 1533SOL    HW1 5498   0.006   3.385   6.538
 1533SOL    HW2 5499   6.998   3.404   6.698
 1534SOL     OW 5500   2.038   5.326   0.341
 1534SOL    HW1 5501   2.039   5.359   0.246
 1534SOL    HW2 5502   2.119   5.270   0.358
 1535SOL     OW 5503   5.411   5.317   4.451
 1535SOL    HW1 5504   5.372   5.297   4.541
 1535SOL    HW2 5505   5.508   5.339   4.461
 1536SOL     OW 5506   3.248   5.238   4.086
 1536SOL    HW1 5507   3.288   5.329   4.092
 1536SOL    HW2 5508   3.292   5.178   4.152
 1537SOL     OW 5509   3.160   5.198   3.501
 1537SOL    HW1 5510   3.201   5.263   3.565
 1537SOL    HW2 5511   3.075   5.235   3.465
 1538SOL     OW 5512   3.309   4.876   6.331
 1538SOL    HW1 5513   3.300   4.967   6.292
 1538SOL    HW2 5514   3.261   4.810   6.274
 1539SOL     OW 5515   3.491   4.216   1.462
 1539SOL    HW1 5516   3.405   4.201   1.511
 1539SOL    HW2 5517   3.564   4.161   1.503
 1540SOL     OW 5518   1.256   0.180   4.463
 1540SOL    HW1 5519   1.159   0.163   4.451
 1540SOL    HW2 5520   1.308   0.128   4.395
 1541SOL     OW 5521   4.050   2.730   1.132
 1541SOL    HW1 5522   4.074   2.716   1.228
 1541SOL    HW2 5523   4.074   2.649   1.079
 1542SOL     OW 5524   6.739   5.998   1.857
 1542SOL    HW1 5525   6.794   6.044   1.788
 1542SOL    HW2 5526   6.767   5.902   1.864
 1543SOL     OW 5527   3.339   3.148   3.514
 1543SOL    HW1 5528   3.379   3.104   3.433
 1543SOL    HW2 5529   3.361   3.094   3.595
 1544SOL     OW 5530   3.105   3.779   2.084
 1544SOL    HW1 5531   3.069   3.705   2.139
 1544SOL    HW2 5532   3.106   3.863   2.138
 1545SOL     OW 5533   5.253   0.608   5.292
 1545SOL    HW1 5534   5.192   0.608   5.372
 1545SOL    HW2 5535   5.315   0.530   5.298
 1546SOL     OW 5536   5.557   0.483   6.120
 1546SOL    HW1 5537   5.471   0.529   6.097
 1546SOL    HW2 5538   5.599   0.448   6.036
 1547SOL     OW 5539   2.290   4.188   2.522
 1547SOL    HW1 5540   2.251   4.154   2.437
 1547SOL    HW2 5541   2.327   4.280   2.507
 1548SOL     OW 5542   4.454   4.250   5.865
 1548SOL    HW1 5543   4.384   4.189   5.904
 1548SOL    HW2 5544   4.446   4.340   5.907
 1549SOL     OW 5545   6.753   1.317   2.083
 1549SOL    HW1 5546   6.808   1.274   2.154
 1549SOL    HW2 5547   6.768   1.416   2.084
 1550SOL     OW 5548   2.997   6.808   5.654
 1550SOL    HW1 5549   2.961   6.717   5.631
 1550SOL    HW2 5550   3.096   6.809   5.640
 1551SOL     OW 5551   1.859   2.962   1.502
 1551SOL    HW1 5552   1.946   3.008   1.489
 1551SOL    HW2 5553   1.787   3.012   1.453
 1552SOL     OW 5554   1.140   7.002   1.014
 1552SOL    HW1 5555   1.195   6.970   0.937
 1552SOL    HW2 5556   1.048   6.964   1.009
 1553SOL     OW 5557   6.041   1.578   6.891
 1553SOL    HW1 5558   6.066   1.673   6.870
 1553SOL    HW2 5559   6.099   1.544   6.964
 1554SOL     OW 5560   4.131   2.098   2.855
 1554SOL    HW1 5561   4.178   2.103   2.767
 1554SOL    HW2 5562   4.182   2.149   2.924
 1555SOL     OW 5563   4.731   2.800   5.409
 1555SOL    HW1 5564   4.746   2.899   5.417
 1555SOL    HW2 5565   4.818   2.754   5.394
 1556SOL     OW 5566   3.491   0.064   0.881
 1556SOL    HW1 5567   3.405   0.038   0.838
 1556SOL    HW2 5568   3.474   0.128   0.956
 1557SOL     OW 5569   2.300   2.710   0.897
 1557SOL    HW1 5570   2.229   2.748   0.956
 1557SOL    HW2 5571   2.338   2.782   0.839
 1558SOL     OW 5572   5.789   2.162   5.222
 1558SOL    HW1 5573   5.849   2.235   5.188
 1558SOL    HW2 5574   5.782   2.090   5.153
 1559SOL     OW 5575   0.369   3.627   2.184
 1559SOL    HW1 5576   0.368   3.711   2.130
 1559SOL    HW2 5577   0.364   3.547   2.123
 1560SOL     OW 5578   3.734   1.403   0.020
 1560SOL    HW1 5579   3.788   1.323   0.043
 1560SOL    HW2 5580   3.793   1.484   0.017
 1561SOL     OW 5581   5.419   6.378   2.408
 1561SOL    HW1 5582   5.388   6.394   2.501
 1561SOL    HW2 5583   5.510   6.336   2.410
 1562SOL     OW 5584   2.812   6.287   2.124
 1562SOL    HW1 5585   2.871   6.333   2.190
 1562SOL    HW2 5586   2.863   6.213   2.080
 1563SOL     OW 5587   2.965   2.159   4.856
 1563SOL    HW1 5588   3.037   2.199   4.913
 1563SOL    HW2 5589   2.924   2.230   4.799
 1564SOL     OW 5590   0.982   1.298   2.428
 1564SOL    HW1 5591   1.064   1.341   2.390
 1564SOL    HW2 5592   0.903   1.321   2.372
 1565SOL     OW 5593   4.102   5.371   4.739
 1565SOL    HW1 5594   4.144   5.462   4.729
 1565SOL    HW2 5595   4.003   5.378   4.723
 1566SOL     OW 5596   5.639   4.879   3.688
 1566SOL    HW1 5597   5.633   4.912   3.593
 1566SOL    HW2 5598   5.583   4.937   3.747
 1567SOL     OW 5599   5.916   5.629   6.311
 1567SOL    HW1 5600   5.925   5.530   6.309
 1567SOL    HW2 5601   5.821   5.654   6.332
 1568SOL     OW 5602   2.399   6.155   3.687
 1568SOL    HW1 5603   2.421   6.133   3.591
 1568SOL    HW2 5604   2.420   6.251   3.704
 1569SOL     OW 5605   3.888   0.640   3.001
 1569SOL    HW1 5606   3.903   0.573   3.073
 1569SOL    HW2 5607   3.976   0.673   2.967
 1570SOL     OW 5608   2.980   6.842   6.471
 1570SOL    HW1 5609   2.917   6.864   6.396
 1570SOL    HW2 5610   2.941   6.875   6.557
 1571SOL     OW 5611   0.755   2.629   2.915
 1571SOL    HW1 5612   0.820   2.557   2.890
 1571SOL    HW2 5613   0.803   2.717   2.922
 1572SOL     OW 5614   1.800   5.635   1.870
 1572SOL    HW1 5615   1.888   5.587   1.870
 1572SOL    HW2 5616   1.741   5.598   1.941
 1573SOL     OW 5617   5.317   5.668   1.691
 1573SOL    HW1 5618   5.275   5.588   1.734
 1573SOL    HW2 5619   5.248   5.719   1.641
 1574SOL     OW 5620   6.090   3.232   2.198
 1574SOL    HW1 5621   6.167   3.169   2.190
 1574SOL    HW2 5622   6.066   3.243   2.295
 1575SOL     OW 5623   1.706   0.585   1.511
 1575SOL    HW1 5624   1.607   0.600   1.502
 1575SOL    HW2 5625   1.754   0.663   1.470
 1576SOL     OW 5626   0.821   6.193   2.671
 1576SOL    HW1 5627   0.837   6.279   2.622
 1576SOL    HW2 5628   0.740   6.202   2.729
 1577SOL     OW 5629   3.110   0.728   6.439
 1577SOL    HW1 5630   3.065   0.727   6.350
 1577SOL    HW2 5631   3.086   0.645   6.490
 1578SOL     OW 5632   4.908   1.050   6.651
 1578SOL    HW1 5633   4.938   0.961   6.684
 1578SOL    HW2 5634   4.819   1.041   6.606
 1579SOL     OW 5635   0.731   2.899   1.413
 1579SOL    HW1 5636   0.648   2.867   1.456
 1579SOL    HW2 5637   0.806   2.899   1.479
 1580SOL     OW 5638   3.398   3.839   3.146
 1580SOL    HW1 5639   3.300   3.824   3.137
 1580SOL    HW2 5640   3.423   3.926   3.104
 1581SOL     OW 5641   6.989   4.865   5.514
 1581SOL    HW1 5642   0.006   4.816   5.592
 1581SOL    HW2 5643   0.027   4.855   5.435
 1582SOL     OW 5644   3.989   5.734   4.815
 1582SOL    HW1 5645   3.922   5.783   4.760
 1582SOL    HW2 5646   4.044   5.675   4.755
 1583SOL     OW 5647   0.519   6.176   5.112
 1583SOL    HW1 5648   0.581   6.140   5.042
 1583SOL    HW2 5649   0.531   6.125   5.197
 1584SOL     OW 5650   1.406   4.543   6.762
 1584SOL    HW1 5651   1.457   4.508   6.840
 1584SOL    HW2 5652   1.467   4.597   6.704
 1585SOL     OW 5653   4.581   1.905   3.259
 1585SOL    HW1 5654   4.556   1.935   3.351
 1585SOL    HW2 5655   4.498   1.891   3.205
 1586SOL     OW 5656   3.352   4.886   3.072
 1586SOL    HW1 5657   3.361   4.835   3.158
 1586SOL    HW2 5658   3.394   4.976   3.082
 1587SOL     OW 5659   1.724   5.623   5.445
 1587SOL    HW1 5660   1.741   5.569   5.363
 1587SOL    HW2 5661   1.674   5.706   5.420
 1588SOL     OW 5662   4.564   0.433   2.166
 1588SOL    HW1 5663   4.591   0.528   2.149
 1588SOL    HW2 5664   4.631   0.372   2.125
 1589SOL     OW 5665   6.620   3.479   2.661
 1589SOL    HW1 5666   6.719   3.480   2.643
 1589SOL    HW2 5667   6.604   3.450   2.755
 1590SOL     OW 5668   5.617   1.809   3.631
 1590SOL    HW1 5669   5.618   1.907   3.610
 1590SOL    HW2 5670   5.692   1.788   3.694
 1591SOL     OW 5671   6.608   5.429   1.760
 1591SOL    HW1 5672   6.564   5.344   1.792
 1591SOL    HW2 5673   6.649   5.413   1.670
 1592SOL     OW 5674   1.600   4.507   7.006
 1592SOL    HW1 5675   1.526   4.486   0.049
 1592SOL    HW2 5676   1.650   4.587   0.016
 1593SOL     OW 5677   0.705   6.933   6.173
 1593SOL    HW1 5678   0.614   6.929   6.131
 1593SOL    HW2 5679   0.761   6.858   6.139
 1594SOL     OW 5680   6.553   0.027   1.478
 1594SOL    HW1 5681   6.634   0.060   1.525
 1594SOL    HW2 5682   6.521   6.964   1.521
 1595SOL     OW 5683   1.408   4.500   0.604
 1595SOL    HW1 5684   1.507   4.507   0.621
 1595SOL    HW2 5685   1.390   4.427   0.539
 1596SOL     OW 5686   6.154   3.651   2.831
 1596SOL    HW1 5687   6.123   3.727   2.887
 1596SOL    HW2 5688   6.194   3.580   2.889
 1597SOL     OW 5689   3.234   5.967   1.230
 1597SOL    HW1 5690   3.231   5.888   1.292
 1597SOL    HW2 5691   3.226   5.936   1.136
 1598SOL     OW 5692   1.028   5.447   6.543
 1598SOL    HW1 5693   1.049   5.385   6.467
 1598SOL    HW2 5694   0.951   5.410   6.596
 1599SOL     OW 5695   4.311   4.789   5.028
 1599SOL    HW1 5696   4.253   4.824   5.101
 1599SOL    HW2 5697   4.314   4.689   5.033
 1600SOL     OW 5698   2.977   0.237   2.073
 1600SOL    HW1 5699   2.940   0.329   2.061
 1600SOL    HW2 5700   3.031   0.233   2.157
 1601SOL     OW 5701   0.433   6.664   3.961
 1601SOL    HW1 5702   0.462   6.627   3.873
 1601SOL    HW2 5703   0.509   6.713   4.003
 1602SOL     OW 5704   5.069   5.494   4.109
 1602SOL    HW1 5705   5.046   5.557   4.183
 1602SOL    HW2 5706   5.074   5.401   4.145
 1603SOL     OW 5707   2.920   5.413   4.283
 1603SOL    HW1 5708   2.857   5.486   4.309
 1603SOL    HW2 5709   2.956   5.432   4.191
 1604SOL     OW 5710   4.071   4.915   1.599
 1604SOL    HW1 5711   4.037   4.983   1.534
 1604SOL    HW2 5712   3.995   4.881   1.655
 1605SOL     OW 5713   6.002   5.642   1.412
 1605SOL    HW1 5714   6.086   5.590   1.402
 1605SOL    HW2 5715   5.926   5.580   1.433
 1606SOL     OW 5716   3.996   5.228   5.509
 1606SOL    HW1 5717   3.988   5.290   5.431
 1606SOL    HW2 5718   4.083   5.180   5.505
 1607SOL     OW 5719   4.239   0.084   1.620
 1607SOL    HW1 5720   4.285   0.021   1.683
 1607SOL    HW2 5721   4.255   0.178   1.650
 1608SOL     OW 5722   6.772   0.372   3.304
 1608SOL    HW1 5723   6.831   0.335   3.376
 1608SOL    HW2 5724   6.811   0.456   3.268
 1609SOL     OW 5725   3.121   6.760   0.555
 1609SOL    HW1 5726   3.035   6.812   0.553
 1609SOL    HW2 5727   3.133   6.719   0.646
 1610SOL     OW 5728   4.818   6.671   0.853
 1610SOL    HW1 5729   4.789   6.639   0.944
 1610SOL    HW2 5730   4.830   6.593   0.793
 1611SOL     OW 5731   1.561   3.727   1.089
 1611SOL    HW1 5732   1.642   3.786   1.079
 1611SOL    HW2 5733   1.514   3.750   1.174
 1612SOL     OW 5734   3.026   6.358   1.436
 1612SOL    HW1 5735   3.081   6.288   1.482
 1612SOL    HW2 5736   3.046   6.357   1.338
 1613SOL     OW 5737   0.460   5.845   2.053
 1613SOL    HW1 5738   0.553   5.881   2.052
 1613SOL    HW2 5739   0.462   5.745   2.059
 1614SOL     OW 5740   5.601   1.830   5.977
 1614SOL    HW1 5741   5.620   1.928   5.967
 1614SOL    HW2 5742   5.661   1.792   6.048
 1615SOL     OW 5743   6.994   5.253   5.816
 1615SOL    HW1 5744   0.029   5.238   5.896
 1615SOL    HW2 5745   6.963   5.348   5.813
 1616SOL     OW 5746   3.937   0.957   4.458
 1616SOL    HW1 5747   4.003   1.031   4.446
 1616SOL    HW2 5748   3.945   0.892   4.383
 1617SOL     OW 5749   4.860   0.049   3.206
 1617SOL    HW1 5750   4.905   0.032   3.293
 1617SOL    HW2 5751   4.877   6.994   3.144
 1618SOL     OW 5752   1.489   5.881   2.407
 1618SOL    HW1 5753   1.504   5.939   2.487
 1618SOL    HW2 5754   1.505   5.785   2.432
 1619SOL     OW 5755   0.209   5.078   6.999
 1619SOL    HW1 5756   0.243   5.162   0.019
 1619SOL    HW2 5757   0.109   5.076   7.004
 1620SOL     OW 5758   3.104   5.081   1.462
 1620SOL    HW1 5759   3.005   5.089   1.456
 1620SOL    HW2 5760   3.133   5.093   1.556
 1621SOL     OW 5761   6.234   0.291   1.235
 1621SOL    HW1 5762   6.270   0.383   1.251
 1621SOL    HW2 5763   6.192   0.287   1.145
 1622SOL     OW 5764   0.071   3.883   5.761
 1622SOL    HW1 5765   0.152   3.937   5.785
 1622SOL    HW2 5766   7.011   3.927   5.798
 1623SOL     OW 5767   0.011   1.927   4.431
 1623SOL    HW1 5768   0.085   1.896   4.370
 1623SOL    HW2 5769   0.049   1.951   4.520
 1624SOL     OW 5770   4.368   1.710   6.746
 1624SOL    HW1 5771   4.406   1.725   6.837
 1624SOL    HW2 5772   4.397   1.620   6.712
 1625SOL     OW 5773   1.000   4.943   6.915
 1625SOL    HW1 5774   1.037   5.036   6.913
 1625SOL    HW2 5775   0.900   4.947   6.917
 1626SOL     OW 5776   2.889   1.438   2.031
 1626SOL    HW1 5777   2.806   1.469   2.078
 1626SOL    HW2 5778   2.964   1.501   2.051
 1627SOL     OW 5779   5.625   2.859   3.593
 1627SOL    HW1 5780   5.628   2.778   3.535
 1627SOL    HW2 5781   5.530   2.880   3.615
 1628SOL     OW 5782   4.586   5.847   6.353
 1628SOL    HW1 5783   4.574   5.856   6.452
 1628SOL    HW2 5784   4.514   5.899   6.306
 1629SOL     OW 5785   2.885   1.669   3.132
 1629SOL    HW1 5786   2.863   1.599   3.064
 1629SOL    HW2 5787   2.852   1.640   3.222
 1630SOL     OW 5788   6.647   4.201   5.534
 1630SOL    HW1 5789   6.656   4.180   5.632
 1630SOL    HW2 5790   6.738   4.214   5.494
 1631SOL     OW 5791   0.010   3.131   0.848
 1631SOL    HW1 5792   6.966   3.179   0.790
 1631SOL    HW2 5793   0.103   3.158   0.823
 1632SOL     OW 5794   4.843   4.328   2.481
 1632SOL    HW1 5795   4.784   4.260   2.437
 1632SOL    HW2 5796   4.791   4.411   2.499
 1633SOL     OW 5797   4.912   4.407   4.532
 1633SOL    HW1 5798   4.952   4.496   4.558
 1633SOL    HW2 5799   4.813   4.410   4.547
 1634SOL     OW 5800   4.533   1.075   4.230
 1634SOL    HW1 5801   4.603   1.006   4.250
 1634SOL    HW2 5802   4.571   1.145   4.169
 1635SOL     OW 5803   2.111   5.702   6.633
 1635SOL    HW1 5804   2.015   5.731   6.631
 1635SOL    HW2 5805   2.124   5.637   6.708
 1636SOL     OW 5806   3.643   5.319   1.193
 1636SOL    HW1 5807   3.588   5.371   1.128
 1636SOL    HW2 5808   3.731   5.363   1.206
 1637SOL     OW 5809   6.600   6.599   4.133
 1637SOL    HW1 5810   6.685   6.632   4.091
 1637SOL    HW2 5811   6.619   6.569   4.227
 1638SOL     OW 5812   0.243   2.889   1.493
 1638SOL    HW1 5813   0.236   2.988   1.495
 1638SOL    HW2 5814   0.255   2.858   1.398
 1639SOL     OW 5815   6.834   4.752   2.286
 1639SOL    HW1 5816   6.777   4.754   2.368
 1639SOL    HW2 5817   6.914   4.811   2.299
 1640SOL     OW 5818   6.947   0.196   0.347
 1640SOL    HW1 5819   6.884   0.252   0.294
 1640SOL    HW2 5820   6.900   0.114   0.380
 1641SOL     OW 5821   6.678   2.409   3.967
 1641SOL    HW1 5822   6.604   2.462   4.006
 1641SOL    HW2 5823   6.766   2.455   3.984
 1642SOL     OW 5824   0.256   2.999   6.559
 1642SOL    HW1 5825   0.271   3.005   6.658
 1642SOL    HW2 5826   0.327   3.052   6.511
 1643SOL     OW 5827   3.210   4.938   2.798
 1643SOL    HW1 5828   3.123   4.893   2.821
 1643SOL    HW2 5829   3.269   4.938   2.879
 1644SOL     OW 5830   5.999   2.948   6.779
 1644SOL    HW1 5831   6.087   2.923   6.820
 1644SOL    HW2 5832   5.928   2.885   6.810
 1645SOL     OW 5833   3.130   6.782   6.069
 1645SOL    HW1 5834   3.218   6.822   6.093
 1645SOL    HW2 5835   3.062   6.854   6.058
 1646SOL     OW 5836   1.922   5.987   0.485
 1646SOL    HW1 5837   1.917   5.925   0.406
 1646SOL    HW2 5838   1.865   5.951   0.559
 1647SOL     OW 5839   5.474   2.659   4.105
 1647SOL    HW1 5840   5.376   2.679   4.114
 1647SOL    HW2 5841   5.526   2.745   4.110
 1648SOL     OW 5842   5.434   6.234   0.120
 1648SOL    HW1 5843   5.522   6.188   0.131
 1648SOL    HW2 5844   5.361   6.175   0.153
 1649SOL     OW 5845   3.759   1.216   3.533
 1649SOL    HW1 5846   3.743   1.270   3.616
 1649SOL    HW2 5847   3.817   1.138   3.556
 1650SOL     OW 5848   1.250   5.374   5.680
 1650SOL    HW1 5849   1.260   5.463   5.725
 1650SOL    HW2 5850   1.155   5.343   5.687
 1651SOL     OW 5851   0.365   2.059   2.626
 1651SOL    HW1 5852   0.389   2.153   2.647
 1651SOL    HW2 5853   0.365   2.005   2.711
 1652SOL     OW 5854   0.981   3.574   2.350
 1652SOL    HW1 5855   0.922   3.498   2.377
 1652SOL    HW2 5856   0.968   3.595   2.253
 1653SOL     OW 5857   6.819   5.720   1.625
 1653SOL    HW1 5858   6.871   5.755   1.702
 1653SOL    HW2 5859   6.866   5.640   1.587
 1654SOL     OW 5860   0.011   3.078   1.316
 1654SOL    HW1 5861   0.009   3.158   1.376
 1654SOL    HW2 5862   0.097   3.075   1.265
 1655SOL     OW 5863   6.598   1.314   4.653
 1655SOL    HW1 5864   6.560   1.240   4.598
 1655SOL    HW2 5865   6.697   1.302   4.661
 1656SOL     OW 5866   2.367   5.716   3.564
 1656SOL    HW1 5867   2.350   5.620   3.583
 1656SOL    HW2 5868   2.466   5.732   3.557
 1657SOL     OW 5869   6.616   0.716   5.085
 1657SOL    HW1 5870   6.668   0.671   5.157
 1657SOL    HW2 5871   6.603   0.813   5.107
 1658SOL     OW 5872   0.103   0.705   0.642
 1658SOL    HW1 5873   0.174   0.656   0.692
 1658SOL    HW2 5874   0.099   0.672   0.548
 1659SOL     OW 5875   3.896   0.454   7.001
 1659SOL    HW1 5876   3.803   0.423   6.984
 1659SOL    HW2 5877   3.915   0.535   6.945
 1660SOL     OW 5878   1.515   0.140   2.368
 1660SOL    HW1 5879   1.453   0.069   2.335
 1660SOL    HW2 5880   1.543   0.119   2.461
 1661SOL     OW 5881   3.106   5.656   2.308
 1661SOL    HW1 5882   3.011   5.649   2.278
 1661SOL    HW2 5883   3.119   5.743   2.355
 1662SOL     OW 5884   6.172   0.501   5.439
 1662SOL    HW1 5885   6.179   0.402   5.437
 1662SOL    HW2 5886   6.193   0.538   5.348
 1663SOL     OW 5887   5.185   5.576   2.167
 1663SOL    HW1 5888   5.141   5.494   2.130
 1663SOL    HW2 5889   5.284   5.562   2.172
 1664SOL     OW 5890   2.118   6.919   5.686
 1664SOL    HW1 5891   2.069   6.999   5.652
 1664SOL    HW2 5892   2.154   6.867   5.609
 1665SOL     OW 5893   0.340   3.856   2.007
 1665SOL    HW1 5894   0.412   3.841   1.939
 1665SOL    HW2 5895   0.251   3.858   1.963
 1666SOL     OW 5896   5.922   0.140   0.404
 1666SOL    HW1 5897   5.994   0.154   0.472
 1666SOL    HW2 5898   5.929   0.211   0.334
 1667SOL     OW 5899   6.671   6.247   1.309
 1667SOL    HW1 5900   6.756   6.258   1.360
 1667SOL    HW2 5901   6.656   6.149   1.292
 1668SOL     OW 5902   4.710   4.558   2.925
 1668SOL    HW1 5903   4.783   4.490   2.934
 1668SOL    HW2 5904   4.741   4.645   2.964
 1669SOL     OW 5905   0.045   4.521   5.573
 1669SOL    HW1 5906   0.119   4.490   5.513
 1669SOL    HW2 5907   0.077   4.598   5.628
 1670SOL     OW 5908   0.671   4.477   5.170
 1670SOL    HW1 5909   0.678   4.388   5.125
 1670SOL    HW2 5910   0.754   4.530   5.152
 1671SOL     OW 5911   5.634   1.752   2.973
 1671SOL    HW1 5912   5.712   1.813   2.990
 1671SOL    HW2 5913   5.650   1.700   2.889
 1672SOL     OW 5914   1.693   4.541   6.067
 1672SOL    HW1 5915   1.594   4.544   6.081
 1672SOL    HW2 5916   1.722   4.624   6.019
 1673SOL     OW 5917   1.759   1.301   4.699
 1673SOL    HW1 5918   1.852   1.334   4.684
 1673SOL    HW2 5919   1.736   1.307   4.796
 1674SOL     OW 5920   6.283   2.624   2.364
 1674SOL    HW1 5921   6.329   2.687   2.427
 1674SOL    HW2 5922   6.194   2.661   2.339
 1675SOL     OW 5923   5.204   0.377   0.520
 1675SOL    HW1 5924   5.277   0.419   0.575
 1675SOL    HW2 5925   5.240   0.351   0.431
 1676SOL     OW 5926   2.282   2.267   2.242
 1676SOL    HW1 5927   2.183   2.263   2.226
 1676SOL    HW2 5928   2.299   2.291   2.338
 1677SOL     OW 5929   3.858   3.630   3.576
 1677SOL    HW1 5930   3.911   3.715   3.573
 1677SOL    HW2 5931   3.761   3.651   3.570
 1678SOL     OW 5932   0.125   5.978   1.672
 1678SOL    HW1 5933   0.037   6.023   1.653
 1678SOL    HW2 5934   0.197   6.047   1.677
 1679SOL     OW 5935   1.655   1.117   4.261
 1679SOL    HW1 5936   1.660   1.186   4.333
 1679SOL    HW2 5937   1.699   1.151   4.178
 1680SOL     OW 5938   5.675   3.745   5.423
 1680SOL    HW1 5939   5.696   3.717   5.517
 1680SOL    HW2 5940   5.754   3.728   5.364
 1681SOL     OW 5941   2.102   5.993   5.248
 1681SOL    HW1 5942   2.044   6.044   5.185
 1681SOL    HW2 5943   2.071   6.008   5.341
 1682SOL     OW 5944   2.143   0.952   5.913
 1682SOL    HW1 5945   2.204   0.962   5.992
 1682SOL    HW2 5946   2.192   0.907   5.839
 1683SOL     OW 5947   5.986   6.144   2.871
 1683SOL    HW1 5948   6.036   6.065   2.837
 1683SOL    HW2 5949   6.052   6.215   2.899
 1684SOL     OW 5950   0.417   5.153   2.167
 1684SOL    HW1 5951   0.397   5.057   2.183
 1684SOL    HW2 5952   0.362   5.186   2.090
 1685SOL     OW 5953   2.027   2.061   5.579
 1685SOL    HW1 5954   2.024   2.121   5.659
 1685SOL    HW2 5955   2.114   2.013   5.576
 1686SOL     OW 5956   3.489   5.835   4.043
 1686SOL    HW1 5957   3.417   5.858   4.108
 1686SOL    HW2 5958   3.571   5.889   4.063
 1687SOL     OW 5959   0.639   4.111   1.813
 1687SOL    HW1 5960   0.557   4.098   1.759
 1687SOL    HW2 5961   0.631   4.195   1.868
 1688SOL     OW 5962   1.736   2.342   3.559
 1688SOL    HW1 5963   1.728   2.436   3.592
 1688SOL    HW2 5964   1.817   2.334   3.501
 1689SOL     OW 5965   6.345   0.966   2.746
 1689SOL    HW1 5966   6.429   0.984   2.795
 1689SOL    HW2 5967   6.310   0.875   2.771
 1690SOL     OW 5968   0.399   3.089   4.382
 1690SOL    HW1 5969   0.467   3.162   4.393
 1690SOL    HW2 5970   0.417   3.017   4.449
 1691SOL     OW 5971   5.166   3.167   4.055
 1691SOL    HW1 5972   5.216   3.230   4.115
 1691SOL    HW2 5973   5.085   3.132   4.103
 1692SOL     OW 5974   5.286   5.393   1.528
 1692SOL    HW1 5975   5.259   5.489   1.529
 1692SOL    HW2 5976   5.307   5.363   1.621
 1693SOL     OW 5977   6.755   1.545   4.420
 1693SOL    HW1 5978   6.833   1.543   4.483
 1693SOL    HW2 5979   6.761   1.627   4.362
 1694SOL     OW 5980   6.431   0.678   4.279
 1694SOL    HW1 5981   6.334   0.658   4.266
 1694SOL    HW2 5982   6.466   0.723   4.196
 1695SOL     OW 5983   3.463   0.821   6.925
 1695SOL    HW1 5984   3.528   0.754   6.890
 1695SOL    HW2 5985   3.439   0.885   6.852
 1696SOL     OW 5986   3.687   5.833   0.760
 1696SOL    HW1 5987   3.683   5.883   0.846
 1696SOL    HW2 5988   3.739   5.885   0.693
 1697SOL     OW 5989   6.269   2.556   1.276
 1697SOL    HW1 5990   6.176   2.529   1.254
 1697SOL    HW2 5991   6.326   2.474   1.285
 1698SOL     OW 5992   3.758   1.265   1.525
 1698SOL    HW1 5993   3.757   1.347   1.583
 1698SOL    HW2 5994   3.749   1.184   1.582
 1699SOL     OW 5995   2.417   1.728   5.740
 1699SOL    HW1 5996   2.480   1.804   5.723
 1699SOL    HW2 5997   2.431   1.656   5.673
 1700SOL     OW 5998   6.002   3.635   3.275
 1700SOL    HW1 5999   5.953   3.548   3.278
 1700SOL    HW2 6000   5.949   3.702   3.223
 1701SOL     OW 6001   5.951   5.189   5.353
 1701SOL    HW1 6002   6.046   5.167   5.378
 1701SOL    HW2 6003   5.896   5.196   5.436
 1702SOL     OW 6004   0.954   1.094   6.975
 1702SOL    HW1 6005   0.955   1.026   0.026
 1702SOL    HW2 6006   0.990   1.181   7.009
 1703SOL     OW 6007   4.504   1.492   6.566
 1703SOL    HW1 6008   4.540   1.424   6.503
 1703SOL    HW2 6009   4.404   1.490   6.564
 1704SOL     OW 6010   1.477   1.896   6.745
 1704SOL    HW1 6011   1.510   1.964   6.810
 1704SOL    HW2 6012   1.419   1.830   6.793
 1705SOL     OW 6013   3.583   2.003   1.509
 1705SOL    HW1 6014   3.591   1.915   1.556
 1705SOL    HW2 6015   3.643   2.070   1.553
 1706SOL     OW 6016   4.523   1.804   1.421
 1706SOL    HW1 6017   4.540   1.872   1.350
 1706SOL    HW2 6018   4.554   1.714   1.389
 1707SOL     OW 6019   4.762   2.667   2.698
 1707SOL    HW1 6020   4.708   2.678   2.615
 1707SOL    HW2 6021   4.837   2.603   2.681
 1708SOL     OW 6022   4.364   5.232   1.368
 1708SOL    HW1 6023   4.399   5.140   1.382
 1708SOL    HW2 6024   4.314   5.263   1.449
 1709SOL     OW 6025   3.954   6.729   1.038
 1709SOL    HW1 6026   3.962   6.826   1.015
 1709SOL    HW2 6027   4.043   6.685   1.024
 1710SOL     OW 6028   3.868   4.913   3.384
 1710SOL    HW1 6029   3.937   4.965   3.333
 1710SOL    HW2 6030   3.778   4.932   3.344
 1711SOL     OW 6031   2.130   5.219   5.426
 1711SOL    HW1 6032   2.208   5.236   5.365
 1711SOL    HW2 6033   2.161   5.223   5.521
 1712SOL     OW 6034   6.861   2.133   4.354
 1712SOL    HW1 6035   6.931   2.069   4.386
 1712SOL    HW2 6036   6.796   2.084   4.295
 1713SOL     OW 6037   3.863   1.412   3.116
 1713SOL    HW1 6038   3.763   1.415   3.121
 1713SOL    HW2 6039   3.899   1.387   3.206
 1714SOL     OW 6040   4.031   1.760   6.952
 1714SOL    HW1 6041   3.982   1.720   0.007
 1714SOL    HW2 6042   4.017   1.703   6.871
 1715SOL     OW 6043   2.817   5.910   2.905
 1715SOL    HW1 6044   2.907   5.921   2.948
 1715SOL    HW2 6045   2.783   5.818   2.923
 1716SOL     OW 6046   4.543   0.411   3.667
 1716SOL    HW1 6047   4.449   0.392   3.639
 1716SOL    HW2 6048   4.553   0.394   3.766
 1717SOL     OW 6049   3.802   4.995   5.191
 1717SOL    HW1 6050   3.718   4.949   5.217
 1717SOL    HW2 6051   3.786   5.094   5.185
 1718SOL     OW 6052   2.654   1.848   2.635
 1718SOL    HW1 6053   2.727   1.913   2.612
 1718SOL    HW2 6054   2.682   1.793   2.714
 1719SOL     OW 6055   2.052   4.132   1.006
 1719SOL    HW1 6056   2.028   4.101   1.098
 1719SOL    HW2 6057   2.026   4.228   0.995
 1720SOL     OW 6058   0.279   2.423   5.340
 1720SOL    HW1 6059   0.292   2.373   5.426
 1720SOL    HW2 6060   0.190   2.399   5.301
 1721SOL     OW 6061   1.267   0.250   2.082
 1721SOL    HW1 6062   1.320   0.171   2.054
 1721SOL    HW2 6063   1.218   0.288   2.003
 1722SOL     OW 6064   4.014   1.571   2.797
 1722SOL    HW1 6065   4.015   1.657   2.848
 1722SOL    HW2 6066   4.061   1.584   2.710
 1723SOL     OW 6067   4.207   2.192   6.651
 1723SOL    HW1 6068   4.175   2.194   6.556
 1723SOL    HW2 6069   4.233   2.284   6.680
 1724SOL     OW 6070   6.673   2.108   1.854
 1724SOL    HW1 6071   6.708   2.027   1.901
 1724SOL    HW2 6072   6.654   2.179   1.921
 1725SOL     OW 6073   2.075   5.105   7.006
 1725SOL    HW1 6074   2.117   5.194   0.003
 1725SOL    HW2 6075   1.987   5.100   0.032
 1726SOL     OW 6076   5.391   3.930   4.073
 1726SOL    HW1 6077   5.409   4.026   4.093
 1726SOL    HW2 6078   5.301   3.920   4.031
 1727SOL     OW 6079   3.924   3.618   2.988
 1727SOL    HW1 6080   3.899   3.714   2.980
 1727SOL    HW2 6081   4.007   3.609   3.043
 1728SOL     OW 6082   5.019   4.210   5.107
 1728SOL    HW1 6083   5.052   4.267   5.182
 1728SOL    HW2 6084   5.010   4.264   5.024
 1729SOL     OW 6085   1.223   3.784   3.009
 1729SOL    HW1 6086   1.288   3.708   3.003
 1729SOL    HW2 6087   1.196   3.813   2.917
 1730SOL     OW 6088   2.684   6.425   5.207
 1730SOL    HW1 6089   2.681   6.341   5.261
 1730SOL    HW2 6090   2.623   6.493   5.248
 1731SOL     OW 6091   5.987   4.999   3.675
 1731SOL    HW1 6092   5.955   4.911   3.710
 1731SOL    HW2 6093   5.975   5.069   3.745
 1732SOL     OW 6094   1.735   4.145   6.324
 1732SOL    HW1 6095   1.806   4.201   6.368
 1732SOL    HW2 6096   1.723   4.175   6.229
 1733SOL     OW 6097   2.590   3.844   1.666
 1733SOL    HW1 6098   2.543   3.931   1.679
 1733SOL    HW2 6099   2.535   3.784   1.608
 1734SOL     OW 6100   5.879   2.995   1.146
 1734SOL    HW1 6101   5.932   2.968   1.226
 1734SOL    HW2 6102   5.925   2.963   1.063
 1735SOL     OW 6103   4.470   5.351   5.830
 1735SOL    HW1 6104   4.431   5.438   5.801
 1735SOL    HW2 6105   4.410   5.307   5.896
 1736SOL     OW 6106   3.821   4.052   0.557
 1736SOL    HW1 6107   3.790   4.130   0.502
 1736SOL    HW2 6108   3.767   4.047   0.641
 1737SOL     OW 6109   5.440   0.042   4.504
 1737SOL    HW1 6110   5.417   6.967   4.491
 1737SOL    HW2 6111   5.465   0.058   4.600
 1738SOL     OW 6112   1.639   3.631   4.256
 1738SOL    HW1 6113   1.541   3.647   4.245
 1738SOL    HW2 6114   1.685   3.715   4.284
 1739SOL     OW 6115   6.334   0.291   4.280
 1739SOL    HW1 6116   6.364   0.246   4.364
 1739SOL    HW2 6117   6.316   0.221   4.210
 1740SOL     OW 6118   6.781   1.736   5.128
 1740SOL    HW1 6119   6.800   1.642   5.156
 1740SOL    HW2 6120   6.695   1.767   5.169
 1741SOL     OW 6121   2.566   1.562   3.773
 1741SOL    HW1 6122   2.557   1.568   3.872
 1741SOL    HW2 6123   2.654   1.520   3.750
 1742SOL     OW 6124   5.848   1.177   6.354
 1742SOL    HW1 6125   5.931   1.230   6.334
 1742SOL    HW2 6126   5.871   1.080   6.357
 1743SOL     OW 6127   1.211   1.106   2.466
 1743SOL    HW1 6128   1.148   1.182   2.475
 1743SOL    HW2 6129   1.305   1.139   2.477
 1744SOL     OW 6130   5.123   2.385   2.917
 1744SOL    HW1 6131   5.041   2.399   2.972
 1744SOL    HW2 6132   5.203   2.383   2.977
 1745SOL     OW 6133   6.376   6.257   2.015
 1745SOL    HW1 6134   6.336   6.208   2.093
 1745SOL    HW2 6135   6.324   6.234   1.933
 1746SOL     OW 6136   2.167   3.964   4.250
 1746SOL    HW1 6137   2.217   3.878   4.239
 1746SOL    HW2 6138   2.117   3.963   4.336
 1747SOL     OW 6139   3.726   1.213   2.139
 1747SOL    HW1 6140   3.807   1.226   2.081
 1747SOL    HW2 6141   3.702   1.300   2.181
 1748SOL     OW 6142   6.220   1.525   4.541
 1748SOL    HW1 6143   6.190   1.546   4.634
 1748SOL    HW2 6144   6.319   1.538   4.534
 1749SOL     OW 6145   3.205   6.646   0.111
 1749SOL    HW1 6146   3.200   6.554   0.150
 1749SOL    HW2 6147   3.133   6.656   0.042
 1750SOL     OW 6148   4.310   0.364   4.737
 1750SOL    HW1 6149   4.379   0.392   4.670
 1750SOL    HW2 6150   4.297   0.265   4.732
 1751SOL     OW 6151   5.976   2.295   4.864
 1751SOL    HW1 6152   5.947   2.340   4.780
 1751SOL    HW2 6153   6.047   2.350   4.908
 1752SOL     OW 6154   6.454   0.937   1.156
 1752SOL    HW1 6155   6.453   0.891   1.067
 1752SOL    HW2 6156   6.419   1.030   1.146
 1753SOL     OW 6157   6.825   1.786   1.654
 1753SOL    HW1 6158   6.734   1.806   1.689
 1753SOL    HW2 6159   6.827   1.693   1.617
 1754SOL     OW 6160   1.809   6.096   6.045
 1754SOL    HW1 6161   1.837   6.006   6.011
 1754SOL    HW2 6162   1.760   6.085   6.131
 1755SOL     OW 6163   6.605   6.038   5.801
 1755SOL    HW1 6164   6.615   6.068   5.706
 1755SOL    HW2 6165   6.695   6.031   5.843
 1756SOL     OW 6166   3.925   6.650   5.942
 1756SOL    HW1 6167   3.923   6.722   5.873
 1756SOL    HW2 6168   4.017   6.642   5.980
 1757SOL     OW 6169   3.279   5.074   4.695
 1757SOL    HW1 6170   3.336   5.108   4.621
 1757SOL    HW2 6171   3.198   5.030   4.657
 1758SOL     OW 6172   1.547   6.940   4.824
 1758SOL    HW1 6173   1.472   6.920   4.761
 1758SOL    HW2 6174   1.534   0.009   4.865
 1759SOL     OW 6175   1.358   6.976   5.476
 1759SOL    HW1 6176   1.274   6.940   5.435
 1759SOL    HW2 6177   1.370   0.050   5.448
 1760SOL     OW 6178   6.154   0.816   5.129
 1760SOL    HW1 6179   6.224   0.751   5.159
 1760SOL    HW2 6180   6.196   0.905   5.114
 1761SOL     OW 6181   0.443   0.814   0.893
 1761SOL    HW1 6182   0.500   0.780   0.969
 1761SOL    HW2 6183   0.347   0.799   0.915
 1762SOL     OW 6184   0.554   1.018   4.721
 1762SOL    HW1 6185   0.462   1.058   4.727
 1762SOL    HW2 6186   0.547   0.922   4.696
 1763SOL     OW 6187   1.045   4.399   4.885
 1763SOL    HW1 6188   1.120   4.369   4.945
 1763SOL    HW2 6189   0.989   4.321   4.860
 1764SOL     OW 6190   0.731   3.681   2.093
 1764SOL    HW1 6191   0.825   3.698   2.063
 1764SOL    HW2 6192   0.667   3.715   2.024
 1765SOL     OW 6193   4.126   2.557   1.628
 1765SOL    HW1 6194   4.085   2.646   1.650
 1765SOL    HW2 6195   4.181   2.525   1.706
 1766SOL     OW 6196   5.006   4.772   4.174
 1766SOL    HW1 6197   5.047   4.804   4.088
 1766SOL    HW2 6198   5.079   4.757   4.241
 1767SOL     OW 6199   0.759   4.896   2.666
 1767SOL    HW1 6200   0.812   4.811   2.671
 1767SOL    HW2 6201   0.738   4.916   2.570
 1768SOL     OW 6202   4.614   0.550   0.459
 1768SOL    HW1 6203   4.667   0.559   0.374
 1768SOL    HW2 6204   4.519   0.528   0.436
 1769SOL     OW 6205   5.906   1.153   6.933
 1769SOL    HW1 6206   5.994   1.174   6.890
 1769SOL    HW2 6207   5.897   1.204   7.018
 1770SOL     OW 6208   0.305   4.165   5.565
 1770SOL    HW1 6209   0.318   4.144   5.662
 1770SOL    HW2 6210   0.219   4.123   5.534
 1771SOL     OW 6211   1.307   4.709   6.959
 1771SOL    HW1 6212   1.280   4.803   6.937
 1771SOL    HW2 6213   1.292   4.650   6.880
 1772SOL     OW 6214   4.027   5.151   4.211
 1772SOL    HW1 6215   4.074   5.195   4.287
 1772SOL    HW2 6216   4.002   5.057   4.237
 1773SOL     OW 6217   1.224   1.467   5.179
 1773SOL    HW1 6218   1.302   1.447   5.238
 1773SOL    HW2 6219   1.256   1.503   5.092
 1774SOL     OW 6220   5.553   6.697   2.443
 1774SOL    HW1 6221   5.486   6.674   2.513
 1774SOL    HW2 6222   5.551   6.796   2.426
 1775SOL     OW 6223   1.774   5.544   6.396
 1775SOL    HW1 6224   1.867   5.511   6.407
 1775SOL    HW2 6225   1.773   5.644   6.405
 1776SOL     OW 6226   4.937   0.574   5.777
 1776SOL    HW1 6227   4.886   0.539   5.698
 1776SOL    HW2 6228   4.912   0.522   5.858
 1777SOL     OW 6229   4.101   6.803   6.262
 1777SOL    HW1 6230   4.048   6.880   6.228
 1777SOL    HW2 6231   4.040   6.726   6.282
 1778SOL     OW 6232   5.142   1.021   4.470
 1778SOL    HW1 6233   5.058   0.968   4.469
 1778SOL    HW2 6234   5.164   1.051   4.377
 1779SOL     OW 6235   5.045   0.103   5.589
 1779SOL    HW1 6236   5.123   0.149   5.630
 1779SOL    HW2 6237   4.993   0.168   5.533
 1780SOL     OW 6238   1.535   4.745   4.497
 1780SOL    HW1 6239   1.593   4.718   4.420
 1780SOL    HW2 6240   1.461   4.678   4.507
 1781SOL     OW 6241   5.473   6.792   4.386
 1781SOL    HW1 6242   5.403   6.731   4.424
 1781SOL    HW2 6243   5.548   6.800   4.452
 1782SOL     OW 6244   1.961   1.625   2.708
 1782SOL    HW1 6245   1.868   1.591   2.722
 1782SOL    HW2 6246   2.009   1.627   2.795
 1783SOL     OW 6247   2.117   3.380   6.275
 1783SOL    HW1 6248   2.028   3.374   6.229
 1783SOL    HW2 6249   2.166   3.460   6.242
 1784SOL     OW 6250   2.415   1.113   1.637
 1784SOL    HW1 6251   2.424   1.207   1.603
 1784SOL    HW2 6252   2.319   1.086   1.632
 1785SOL     OW 6253   0.034   6.136   4.254
 1785SOL    HW1 6254   0.019   6.039   4.236
 1785SOL    HW2 6255   0.096   6.174   4.184
 1786SOL     OW 6256   1.794   5.496   0.774
 1786SOL    HW1 6257   1.725   5.466   0.709
 1786SOL    HW2 6258   1.872   5.433   0.772
 1787SOL     OW 6259   1.366   2.669   5.238
 1787SOL    HW1 6260   1.389   2.573   5.253
 1787SOL    HW2 6261   1.451   2.722   5.234
 1788SOL     OW 6262   5.038   3.712   0.371
 1788SOL    HW1 6263   5.123   3.722   0.423
 1788SOL    HW2 6264   5.050   3.644   0.299
 1789SOL     OW 6265   6.552   3.419   2.139
 1789SOL    HW1 6266   6.477   3.470   2.098
 1789SOL    HW2 6267   6.518   3.367   2.218
 1790SOL     OW 6268   3.369   1.416   4.398
 1790SOL    HW1 6269   3.302   1.388   4.466
 1790SOL    HW2 6270   3.349   1.509   4.367
 1791SOL     OW 6271   5.913   1.117   3.871
 1791SOL    HW1 6272   5.949   1.202   3.908
 1791SOL    HW2 6273   5.823   1.133   3.831
 1792SOL     OW 6274   6.612   1.530   5.309
 1792SOL    HW1 6275   6.562   1.558   5.391
 1792SOL    HW2 6276   6.551   1.535   5.230
 1793SOL     OW 6277   6.660   1.015   4.761
 1793SOL    HW1 6278   6.561   1.019   4.764
 1793SOL    HW2 6279   6.691   1.019   4.666
 1794SOL     OW 6280   6.266   0.214   6.614
 1794SOL    HW1 6281   6.311   0.263   6.688
 1794SOL    HW2 6282   6.266   0.116   6.633
 1795SOL     OW 6283   5.809   4.704   0.569
 1795SOL    HW1 6284   5.786   4.612   0.602
 1795SOL    HW2 6285   5.737   4.768   0.594
 1796SOL     OW 6286   1.914   1.042   5.764
 1796SOL    HW1 6287   1.871   1.127   5.794
 1796SOL    HW2 6288   1.984   1.015   5.830
 1797SOL     OW 6289   1.596   6.801   5.040
 1797SOL    HW1 6290   1.574   6.864   4.966
 1797SOL    HW2 6291   1.661   6.732   5.007
 1798SOL     OW 6292   3.709   3.219   4.209
 1798SOL    HW1 6293   3.632   3.157   4.190
 1798SOL    HW2 6294   3.684   3.312   4.185
 1799SOL     OW 6295   4.239   1.492   6.548
 1799SOL    HW1 6296   4.173   1.472   6.619
 1799SOL    HW2 6297   4.211   1.574   6.498
 1800SOL     OW 6298   4.864   4.393   3.778
 1800SOL    HW1 6299   4.875   4.451   3.860
 1800SOL    HW2 6300   4.875   4.449   3.696
 1801SOL     OW 6301   1.029   1.764   2.010
 1801SOL    HW1 6302   1.063   1.758   1.916
 1801SOL    HW2 6303   0.943   1.714   2.018
 1802SOL     OW 6304   6.136   5.498   4.020
 1802SOL    HW1 6305   6.189   5.428   3.972
 1802SOL    HW2 6306   6.114   5.571   3.956
 1803SOL     OW 6307   0.247   5.984   2.215
 1803SOL    HW1 6308   0.316   5.943   2.156
 1803SOL    HW2 6309   0.291   6.044   2.282
 1804SOL     OW 6310   3.375   3.506   5.955
 1804SOL    HW1 6311   3.312   3.548   5.890
 1804SOL    HW2 6312   3.331   3.427   5.998
 1805SOL     OW 6313   1.169   6.213   5.611
 1805SOL    HW1 6314   1.074   6.208   5.579
 1805SOL    HW2 6315   1.183   6.147   5.685
 1806SOL     OW 6316   6.535   2.197   2.261
 1806SOL    HW1 6317   6.603   2.140   2.309
 1806SOL    HW2 6318   6.490   2.257   2.327
 1807SOL     OW 6319   6.334   3.525   0.621
 1807SOL    HW1 6320   6.299   3.441   0.580
 1807SOL    HW2 6321   6.270   3.558   0.690
 1808SOL     OW 6322   5.448   2.921   5.123
 1808SOL    HW1 6323   5.475   2.848   5.186
 1808SOL    HW2 6324   5.380   2.980   5.166
 1809SOL     OW 6325   3.192   2.044   5.169
 1809SOL    HW1 6326   3.100   2.032   5.207
 1809SOL    HW2 6327   3.194   2.128   5.114
 1810SOL     OW 6328   0.474   0.466   4.386
 1810SOL    HW1 6329   0.515   0.473   4.476
 1810SOL    HW2 6330   0.465   0.370   4.361
 1811SOL     OW 6331   4.630   4.616   1.629
 1811SOL    HW1 6332   4.694   4.566   1.570
 1811SOL    HW2 6333   4.630   4.574   1.720
 1812SOL     OW 6334   4.476   0.089   5.781
 1812SOL    HW1 6335   4.444   0.157   5.715
 1812SOL    HW2 6336   4.427   0.003   5.767
 1813SOL     OW 6337   4.569   4.454   2.193
 1813SOL    HW1 6338   4.567   4.537   2.137
 1813SOL    HW2 6339   4.557   4.374   2.135
 1814SOL     OW 6340   6.944   6.990   0.810
 1814SOL    HW1 6341   6.931   6.982   0.909
 1814SOL    HW2 6342   0.020   6.991   0.790
 1815SOL     OW 6343   5.652   5.790   2.622
 1815SOL    HW1 6344   5.732   5.848   2.609
 1815SOL    HW2 6345   5.583   5.813   2.553
 1816SOL     OW 6346   4.041   5.776   5.683
 1816SOL    HW1 6347   4.139   5.791   5.670
 1816SOL    HW2 6348   4.017   5.794   5.779
 1817SOL     OW 6349   3.098   1.422   2.892
 1817SOL    HW1 6350   3.095   1.517   2.862
 1817SOL    HW2 6351   3.187   1.383   2.869
 1818SOL     OW 6352   2.037   6.567   0.001
 1818SOL    HW1 6353   2.099   6.517   0.061
 1818SOL    HW2 6354   2.054   6.665   0.010
 1819SOL     OW 6355   1.138   4.892   2.663
 1819SOL    HW1 6356   1.105   4.892   2.569
 1819SOL    HW2 6357   1.115   4.979   2.707
 1820SOL     OW 6358   3.968   0.312   2.635
 1820SOL    HW1 6359   3.968   0.402   2.591
 1820SOL    HW2 6360   3.911   0.249   2.583
 1821SOL     OW 6361   3.481   0.761   2.088
 1821SOL    HW1 6362   3.390   0.803   2.088
 1821SOL    HW2 6363   3.528   0.782   2.173
 1822SOL     OW 6364   1.097   3.677   1.778
 1822SOL    HW1 6365   1.163   3.743   1.744
 1822SOL    HW2 6366   1.140   3.587   1.784
 1823SOL     OW 6367   3.407   6.092   2.423
 1823SOL    HW1 6368   3.430   6.184   2.453
 1823SOL    HW2 6369   3.478   6.058   2.360
 1824SOL     OW 6370   4.388   3.791   0.804
 1824SOL    HW1 6371   4.307   3.761   0.755
 1824SOL    HW2 6372   4.367   3.802   0.901
 1825SOL     OW 6373   0.988   2.463   4.861
 1825SOL    HW1 6374   0.926   2.536   4.890
 1825SOL    HW2 6375   1.081   2.485   4.890
 1826SOL     OW 6376   3.772   1.568   1.345
 1826SOL    HW1 6377   3.688   1.606   1.307
 1826SOL    HW2 6378   3.757   1.540   1.440
 1827SOL     OW 6379   4.926   5.199   0.882
 1827SOL    HW1 6380   5.004   5.257   0.860
 1827SOL    HW2 6381   4.958   5.109   0.910
 1828SOL     OW 6382   1.082   3.706   6.227
 1828SOL    HW1 6383   1.092   3.687   6.325
 1828SOL    HW2 6384   1.117   3.629   6.174
 1829SOL     OW 6385   3.720   0.458   3.537
 1829SOL    HW1 6386   3.783   0.402   3.483
 1829SOL    HW2 6387   3.673   0.522   3.477
 1830SOL     OW 6388   5.896   6.710   5.115
 1830SOL    HW1 6389   5.955   6.633   5.091
 1830SOL    HW2 6390   5.867   6.702   5.211
 1831SOL     OW 6391   5.270   5.782   2.730
 1831SOL    HW1 6392   5.223   5.772   2.818
 1831SOL    HW2 6393   5.316   5.697   2.707
 1832SOL     OW 6394   2.859   4.000   0.378
 1832SOL    HW1 6395   2.801   3.937   0.326
 1832SOL    HW2 6396   2.835   3.995   0.475
 1833SOL     OW 6397   4.638   6.986   1.468
 1833SOL    HW1 6398   4.592   0.041   1.423
 1833SOL    HW2 6399   4.629   6.904   1.413
 1834SOL     OW 6400   2.731   2.742   0.704
 1834SOL    HW1 6401   2.663   2.680   0.744
 1834SOL    HW2 6402   2.687   2.827   0.677
 1835SOL     OW 6403   1.204   5.285   1.470
 1835SOL    HW1 6404   1.168   5.252   1.383
 1835SOL    HW2 6405   1.129   5.299   1.534
 1836SOL     OW 6406   4.896   1.626   2.358
 1836SOL    HW1 6407   4.901   1.602   2.261
 1836SOL    HW2 6408   4.960   1.569   2.410
 1837SOL     OW 6409   2.083   1.230   5.214
 1837SOL    HW1 6410   2.047   1.221   5.307
 1837SOL    HW2 6411   2.170   1.280   5.217
 1838SOL     OW 6412   6.640   0.792   0.009
 1838SOL    HW1 6413   6.692   0.868   6.991
 1838SOL    HW2 6414   6.625   0.722   6.960
 1839SOL     OW 6415   6.497   1.526   6.713
 1839SOL    HW1 6416   6.484   1.568   6.802
 1839SOL    HW2 6417   6.530   1.595   6.648
 1840SOL     OW 6418   3.578   0.114   3.066
 1840SOL    HW1 6419   3.576   0.205   3.107
 1840SOL    HW2 6420   3.528   0.050   3.125
 1841SOL     OW 6421   2.097   0.292   2.297
 1841SOL    HW1 6422   2.168   0.277   2.228
 1841SOL    HW2 6423   2.133   0.264   2.387
 1842SOL     OW 6424   1.792   5.146   0.754
 1842SOL    HW1 6425   1.856   5.213   0.791
 1842SOL    HW2 6426   1.808   5.135   0.656
 1843SOL     OW 6427   3.765   1.308   4.902
 1843SOL    HW1 6428   3.857   1.272   4.888
 1843SOL    HW2 6429   3.739   1.296   4.998
 1844SOL     OW 6430   4.971   1.734   5.789
 1844SOL    HW1 6431   4.969   1.743   5.889
 1844SOL    HW2 6432   5.024   1.652   5.765
 1845SOL     OW 6433   2.980   0.868   3.132
 1845SOL    HW1 6434   3.049   0.860   3.059
 1845SOL    HW2 6435   2.952   0.776   3.161
 1846SOL     OW 6436   4.450   1.197   3.177
 1846SOL    HW1 6437   4.395   1.127   3.221
 1846SOL    HW2 6438   4.525   1.153   3.126
 1847SOL     OW 6439   1.750   0.248   4.592
 1847SOL    HW1 6440   1.832   0.263   4.535
 1847SOL    HW2 6441   1.765   0.168   4.650
 1848SOL     OW 6442   2.437   6.019   4.157
 1848SOL    HW1 6443   2.347   6.060   4.143
 1848SOL    HW2 6444   2.504   6.090   4.179
 1849SOL     OW 6445   5.224   3.044   2.590
 1849SOL    HW1 6446   5.289   2.973   2.563
 1849SOL    HW2 6447   5.175   3.077   2.509
 1850SOL     OW 6448   4.897   2.120   2.260
 1850SOL    HW1 6449   4.992   2.123   2.230
 1850SOL    HW2 6450   4.877   2.030   2.298
 1851SOL     OW 6451   0.318   3.065   6.825
 1851SOL    HW1 6452   0.341   3.108   6.912
 1851SOL    HW2 6453   0.384   2.992   6.805
 1852SOL     OW 6454   0.833   3.979   2.100
 1852SOL    HW1 6455   0.743   3.964   2.059
 1852SOL    HW2 6456   0.889   3.897   2.089
 1853SOL     OW 6457   0.025   2.835   4.894
 1853SOL    HW1 6458   6.948   2.826   4.882
 1853SOL    HW2 6459   0.051   2.792   4.981
 1854SOL     OW 6460   1.202   5.515   3.478
 1854SOL    HW1 6461   1.275   5.583   3.472
 1854SOL    HW2 6462   1.175   5.487   3.386
 1855SOL     OW 6463   5.609   3.206   4.354
 1855SOL    HW1 6464   5.563   3.294   4.369
 1855SOL    HW2 6465   5.708   3.221   4.345
 1856SOL     OW 6466   3.761   2.984   6.772
 1856SOL    HW1 6467   3.857   2.971   6.744
 1856SOL    HW2 6468   3.731   2.903   6.823
 1857SOL     OW 6469   5.711   0.781   0.536
 1857SOL    HW1 6470   5.694   0.807   0.631
 1857SOL    HW2 6471   5.800   0.735   0.529
 1858SOL     OW 6472   5.043   2.123   4.259
 1858SOL    HW1 6473   5.033   2.110   4.161
 1858SOL    HW2 6474   5.059   2.035   4.303
 1859SOL     OW 6475   5.221   2.050   4.883
 1859SOL    HW1 6476   5.144   2.022   4.826
 1859SOL    HW2 6477   5.305   2.006   4.849
 1860SOL     OW 6478   0.681   1.725   4.686
 1860SOL    HW1 6479   0.756   1.705   4.623
 1860SOL    HW2 6480   0.627   1.800   4.650
 1861SOL     OW 6481   5.473   0.495   2.978
 1861SOL    HW1 6482   5.394   0.445   2.941
 1861SOL    HW2 6483   5.546   0.495   2.910
 1862SOL     OW 6484   1.830   6.581   6.652
 1862SOL    HW1 6485   1.861   6.673   6.677
 1862SOL    HW2 6486   1.741   6.586   6.607
 1863SOL     OW 6487   0.572   2.920   1.195
 1863SOL    HW1 6488   0.651   2.913   1.257
 1863SOL    HW2 6489   0.571   3.011   1.154
 1864SOL     OW 6490   2.956   6.042   4.466
 1864SOL    HW1 6491   3.020   6.110   4.501
 1864SOL    HW2 6492   3.002   5.984   4.398
 1865SOL     OW 6493   4.470   1.515   1.075
 1865SOL    HW1 6494   4.528   1.534   1.154
 1865SOL    HW2 6495   4.479   1.588   1.008
 1866SOL     OW 6496   6.504   3.965   4.436
 1866SOL    HW1 6497   6.542   3.880   4.472
 1866SOL    HW2 6498   6.563   3.999   4.363
 1867SOL     OW 6499   2.647   2.792   1.344
 1867SOL    HW1 6500   2.625   2.837   1.258
 1867SOL    HW2 6501   2.608   2.700   1.344
 1868SOL     OW 6502   4.696   4.162   4.748
 1868SOL    HW1 6503   4.616   4.113   4.782
 1868SOL    HW2 6504   4.760   4.096   4.708
 1869SOL     OW 6505   4.923   2.515   4.367
 1869SOL    HW1 6506   4.927   2.604   4.414
 1869SOL    HW2 6507   4.971   2.521   4.280
 1870SOL     OW 6508   0.756   3.296   4.236
 1870SOL    HW1 6509   0.834   3.257   4.284
 1870SOL    HW2 6510   0.680   3.308   4.300
 1871SOL     OW 6511   0.164   6.552   0.023
 1871SOL    HW1 6512   0.152   6.478   6.978
 1871SOL    HW2 6513   0.248   6.602   0.001
 1872SOL     OW 6514   3.182   2.571   0.686
 1872SOL    HW1 6515   3.156   2.576   0.589
 1872SOL    HW2 6516   3.231   2.485   0.702
 1873SOL     OW 6517   6.596   1.210   6.904
 1873SOL    HW1 6518   6.621   1.238   6.997
 1873SOL    HW2 6519   6.515   1.150   6.908
 1874SOL     OW 6520   1.008   0.484   6.116
 1874SOL    HW1 6521   0.917   0.522   6.103
 1874SOL    HW2 6522   1.043   0.450   6.028
 1875SOL     OW 6523   5.857   6.553   0.327
 1875SOL    HW1 6524   5.758   6.552   0.343
 1875SOL    HW2 6525   5.906   6.557   0.414
 1876SOL     OW 6526   5.580   6.691   5.914
 1876SOL    HW1 6527   5.490   6.704   5.871
 1876SOL    HW2 6528   5.629   6.617   5.868
 1877SOL     OW 6529   0.243   0.728   2.220
 1877SOL    HW1 6530   0.293   0.652   2.179
 1877SOL    HW2 6531   0.187   0.694   2.295
 1878SOL     OW 6532   0.433   4.254   3.749
 1878SOL    HW1 6533   0.369   4.178   3.744
 1878SOL    HW2 6534   0.496   4.240   3.825
 1879SOL     OW 6535   2.401   5.129   4.777
 1879SOL    HW1 6536   2.359   5.145   4.866
 1879SOL    HW2 6537   2.447   5.040   4.777
 1880SOL     OW 6538   6.955   2.356   3.215
 1880SOL    HW1 6539   6.993   2.392   3.129
 1880SOL    HW2 6540   7.008   2.391   3.292
 1881SOL     OW 6541   1.142   2.391   3.045
 1881SOL    HW1 6542   1.110   2.482   3.023
 1881SOL    HW2 6543   1.105   2.363   3.134
 1882SOL     OW 6544   0.865   5.908   0.422
 1882SOL    HW1 6545   0.924   5.974   0.376
 1882SOL    HW2 6546   0.877   5.818   0.380
 1883SOL     OW 6547   1.706   3.573   2.637
 1883SOL    HW1 6548   1.607   3.565   2.637
 1883SOL    HW2 6549   1.734   3.646   2.574
 1884SOL     OW 6550   4.334   1.015   0.759
 1884SOL    HW1 6551   4.313   1.054   0.669
 1884SOL    HW2 6552   4.421   1.053   0.792
 1885SOL     OW 6553   6.895   2.406   0.892
 1885SOL    HW1 6554   6.875   2.442   0.983
 1885SOL    HW2 6555   6.945   2.320   0.901
 1886SOL     OW 6556   1.825   1.674   6.766
 1886SOL    HW1 6557   1.768   1.706   6.691
 1886SOL    HW2 6558   1.796   1.719   6.851
 1887SOL     OW 6559   0.373   4.694   5.712
 1887SOL    HW1 6560   0.395   4.737   5.625
 1887SOL    HW2 6561   0.444   4.627   5.736
 1888SOL     OW 6562   1.885   1.915   5.154
 1888SOL    HW1 6563   1.919   1.998   5.110
 1888SOL    HW2 6564   1.854   1.936   5.246
 1889SOL     OW 6565   4.310   3.468   0.288
 1889SOL    HW1 6566   4.236   3.453   0.354
 1889SOL    HW2 6567   4.274   3.461   0.195
 1890SOL     OW 6568   1.069   5.852   5.956
 1890SOL    HW1 6569   1.041   5.943   5.985
 1890SOL    HW2 6570   1.029   5.783   6.017
 1891SOL     OW 6571   6.060   3.481   5.837
 1891SOL    HW1 6572   6.094   3.490   5.931
 1891SOL    HW2 6573   5.987   3.412   5.835
 1892SOL     OW 6574   3.947   6.117   1.115
 1892SOL    HW1 6575   4.014   6.191   1.117
 1892SOL    HW2 6576   3.862   6.148   1.158
 1893SOL     OW 6577   3.323   2.131   4.828
 1893SOL    HW1 6578   3.360   2.219   4.798
 1893SOL    HW2 6579   3.268   2.145   4.911
 1894SOL     OW 6580   4.297   4.004   1.490
 1894SOL    HW1 6581   4.393   3.978   1.503
 1894SOL    HW2 6582   4.271   4.071   1.559
 1895SOL     OW 6583   5.832   1.033   2.201
 1895SOL    HW1 6584   5.766   0.959   2.187
 1895SOL    HW2 6585   5.889   1.043   2.119
 1896SOL     OW 6586   6.325   1.294   4.231
 1896SOL    HW1 6587   6.394   1.266   4.297
 1896SOL    HW2 6588   6.234   1.282   4.272
 1897SOL     OW 6589   6.278   5.468   3.616
 1897SOL    HW1 6590   6.298   5.409   3.538
 1897SOL    HW2 6591   6.190   5.513   3.602
 1898SOL     OW 6592   5.326   6.001   1.561
 1898SOL    HW1 6593   5.418   5.978   1.592
 1898SOL    HW2 6594   5.277   5.917   1.537
 1899SOL     OW 6595   0.342   3.865   2.604
 1899SOL    HW1 6596   0.310   3.817   2.686
 1899SOL    HW2 6597   0.365   3.799   2.533
 1900SOL     OW 6598   1.310   7.004   6.857
 1900SOL    HW1 6599   1.389   0.028   6.816
 1900SOL    HW2 6600   1.268   6.942   6.790
 1901SOL     OW 6601   2.356   1.465   0.082
 1901SOL    HW1 6602   2.299   1.520   0.143
 1901SOL    HW2 6603   2.451   1.474   0.109
 1902SOL     OW 6604   1.333   2.240   4.583
 1902SOL    HW1 6605   1.363   2.159   4.634
 1902SOL    HW2 6606   1.233   2.244   4.583
 1903SOL     OW 6607   6.501   4.720   3.410
 1903SOL    HW1 6608   6.522   4.803   3.359
 1903SOL    HW2 6609   6.435   4.741   3.483
 1904SOL     OW 6610   0.421   6.866   4.441
 1904SOL    HW1 6611   0.447   6.948   4.390
 1904SOL    HW2 6612   0.417   6.889   4.539
 1905SOL     OW 6613   0.109   2.280   3.921
 1905SOL    HW1 6614   0.122   2.368   3.876
 1905SOL    HW2 6615   0.080   2.212   3.854
 1906SOL     OW 6616   2.835   0.007   5.555
 1906SOL    HW1 6617   2.884   6.958   5.503
 1906SOL    HW2 6618   2.828   7.001   5.651
 1907SOL     OW 6619   2.921   0.042   3.290
 1907SOL    HW1 6620   2.950   0.054   3.384
 1907SOL    HW2 6621   2.989   7.010   3.240
 1908SOL     OW 6622   4.778   1.442   5.775
 1908SOL    HW1 6623   4.685   1.434   5.809
 1908SOL    HW2 6624   4.842   1.403   5.841
 1909SOL     OW 6625   2.415   4.459   4.522
 1909SOL    HW1 6626   2.346   4.457   4.450
 1909SOL    HW2 6627   2.371   4.444   4.611
 1910SOL     OW 6628   5.580   2.482   6.616
 1910SOL    HW1 6629   5.632   2.474   6.531
 1910SOL    HW2 6630   5.608   2.410   6.679
 1911SOL     OW 6631   6.523   2.140   5.252
 1911SOL    HW1 6632   6.424   2.146   5.239
 1911SOL    HW2 6633   6.552   2.045   5.244
 1912SOL     OW 6634   3.341   6.701   2.627
 1912SOL    HW1 6635   3.358   6.718   2.724
 1912SOL    HW2 6636   3.361   6.784   2.575
 1913SOL     OW 6637   2.086   6.417   5.164
 1913SOL    HW1 6638   2.037   6.373   5.239
 1913SOL    HW2 6639   2.028   6.422   5.083
 1914SOL     OW 6640   2.152   2.883   6.551
 1914SOL    HW1 6641   2.088   2.949   6.592
 1914SOL    HW2 6642   2.245   2.920   6.555
 1915SOL     OW 6643   3.826   1.092   5.742
 1915SOL    HW1 6644   3.891   1.141   5.801
 1915SOL    HW2 6645   3.855   0.996   5.733
 1916SOL     OW 6646   4.249   5.669   0.761
 1916SOL    HW1 6647   4.172   5.634   0.814
 1916SOL    HW2 6648   4.230   5.764   0.734
 1917SOL     OW 6649   3.816   3.756   4.401
 1917SOL    HW1 6650   3.740   3.795   4.452
 1917SOL    HW2 6651   3.820   3.657   4.419
 1918SOL     OW 6652   6.484   6.812   5.830
 1918SOL    HW1 6653   6.413   6.777   5.769
 1918SOL    HW2 6654   6.572   6.809   5.783
 1919SOL     OW 6655   1.229   6.043   2.119
 1919SOL    HW1 6656   1.240   5.948   2.147
 1919SOL    HW2 6657   1.262   6.103   2.192
 1920SOL     OW 6658   0.803   4.350   3.908
 1920SOL    HW1 6659   0.815   4.298   3.992
 1920SOL    HW2 6660   0.883   4.337   3.849
 1921SOL     OW 6661   0.405   5.352   6.820
 1921SOL    HW1 6662   0.417   5.450   6.801
 1921SOL    HW2 6663   0.363   5.341   6.910
 1922SOL     OW 6664   4.180   3.492   1.325
 1922SOL    HW1 6665   4.223   3.461   1.410
 1922SOL    HW2 6666   4.155   3.412   1.269
 1923SOL     OW 6667   3.047   1.218   0.506
 1923SOL    HW1 6668   3.013   1.295   0.452
 1923SOL    HW2 6669   3.146   1.210   0.494
 1924SOL     OW 6670   6.830   4.472   1.928
 1924SOL    HW1 6671   6.824   4.401   1.998
 1924SOL    HW2 6672   6.921   4.470   1.886
 1925SOL     OW 6673   2.976   3.743   1.832
 1925SOL    HW1 6674   3.045   3.731   1.761
 1925SOL    HW2 6675   3.022   3.760   1.920
 1926SOL     OW 6676   1.601   0.504   4.681
 1926SOL    HW1 6677   1.515   0.456   4.666
 1926SOL    HW2 6678   1.674   0.459   4.629
 1927SOL     OW 6679   3.768   4.170   6.923
 1927SOL    HW1 6680   3.833   4.186   6.849
 1927SOL    HW2 6681   3.731   4.077   6.917
 1928SOL     OW 6682   6.597   3.020   5.618
 1928SOL    HW1 6683   6.634   2.928   5.605
 1928SOL    HW2 6684   6.500   3.013   5.643
 1929SOL     OW 6685   1.408   5.573   2.071
 1929SOL    HW1 6686   1.377   5.547   1.979
 1929SOL    HW2 6687   1.507   5.562   2.077
 1930SOL     OW 6688   5.980   4.483   0.191
 1930SOL    HW1 6689   5.944   4.560   0.243
 1930SOL    HW2 6690   5.911   4.452   0.125
 1931SOL     OW 6691   6.944   3.674   3.161
 1931SOL    HW1 6692   6.978   3.585   3.192
 1931SOL    HW2 6693   7.000   3.706   3.084
 1932SOL     OW 6694   5.195   3.565   2.892
 1932SOL    HW1 6695   5.139   3.484   2.871
 1932SOL    HW2 6696   5.254   3.545   2.970
 1933SOL     OW 6697   2.808   5.336   0.777
 1933SOL    HW1 6698   2.847   5.312   0.866
 1933SOL    HW2 6699   2.785   5.434   0.777
 1934SOL     OW 6700   1.551   0.057   5.297
 1934SOL    HW1 6701   1.617   0.064   5.222
 1934SOL    HW2 6702   1.486   7.006   5.276
 1935SOL     OW 6703   2.852   0.014   4.900
 1935SOL    HW1 6704   2.947   0.041   4.886
 1935SOL    HW2 6705   2.795   0.096   4.912
 1936SOL     OW 6706   5.649   5.331   4.717
 1936SOL    HW1 6707   5.725   5.287   4.765
 1936SOL    HW2 6708   5.626   5.417   4.763
 1937SOL     OW 6709   4.174   6.770   1.762
 1937SOL    HW1 6710   4.233   6.690   1.749
 1937SOL    HW2 6711   4.093   6.761   1.703
 1938SOL     OW 6712   4.255   1.673   3.357
 1938SOL    HW1 6713   4.172   1.679   3.301
 1938SOL    HW2 6714   4.335   1.663   3.297
 1939SOL     OW 6715   1.258   0.455   3.721
 1939SOL    HW1 6716   1.329   0.386   3.722
 1939SOL    HW2 6717   1.206   0.449   3.636
 1940SOL     OW 6718   5.235   5.356   6.805
 1940SOL    HW1 6719   5.253   5.438   6.751
 1940SOL    HW2 6720   5.312   5.293   6.798
 1941SOL     OW 6721   6.564   4.365   2.927
 1941SOL    HW1 6722   6.602   4.389   3.016
 1941SOL    HW2 6723   6.553   4.447   2.872
 1942SOL     OW 6724   5.908   6.246   2.402
 1942SOL    HW1 6725   5.923   6.257   2.304
 1942SOL    HW2 6726   5.978   6.185   2.440
 1943SOL     OW 6727   3.163   5.806   1.940
 1943SOL    HW1 6728   3.263   5.812   1.941
 1943SOL    HW2 6729   3.128   5.819   2.032
 1944SOL     OW 6730   5.235   1.958   6.483
 1944SOL    HW1 6731   5.181   1.891   6.534
 1944SOL    HW2 6732   5.297   1.910   6.421
 1945SOL     OW 6733   4.884   5.477   2.968
 1945SOL    HW1 6734   4.832   5.537   2.907
 1945SOL    HW2 6735   4.873   5.508   3.063
 1946SOL     OW 6736   0.495   1.081   0.672
 1946SOL    HW1 6737   0.542   0.996   0.650
 1946SOL    HW2 6738   0.491   1.140   0.592
 1947SOL     OW 6739   5.615   6.439   4.426
 1947SOL    HW1 6740   5.691   6.433   4.491
 1947SOL    HW2 6741   5.552   6.363   4.443
 1948SOL     OW 6742   6.479   5.199   4.454
 1948SOL    HW1 6743   6.426   5.262   4.399
 1948SOL    HW2 6744   6.577   5.219   4.444
 1949SOL     OW 6745   4.321   3.999   5.814
 1949SOL    HW1 6746   4.291   3.977   5.721
 1949SOL    HW2 6747   4.244   4.035   5.866
 1950SOL     OW 6748   3.754   3.740   0.436
 1950SOL    HW1 6749   3.732   3.783   0.348
 1950SOL    HW2 6750   3.839   3.779   0.471
 1951SOL     OW 6751   6.871   2.944   0.482
 1951SOL    HW1 6752   6.944   2.878   0.467
 1951SOL    HW2 6753   6.889   3.027   0.428
 1952SOL     OW 6754   3.364   2.662   0.313
 1952SOL    HW1 6755   3.303   2.590   0.346
 1952SOL    HW2 6756   3.347   2.746   0.365
 1953SOL     OW 6757   6.409   1.970   0.046
 1953SOL    HW1 6758   6.330   2.026   0.069
 1953SOL    HW2 6759   6.452   2.006   6.985
 1954SOL     OW 6760   5.709   1.636   4.249
 1954SOL    HW1 6761   5.731   1.697   4.173
 1954SOL    HW2 6762   5.632   1.673   4.301
 1955SOL     OW 6763   1.368   6.905   1.803
 1955SOL    HW1 6764   1.446   6.962   1.829
 1955SOL    HW2 6765   1.328   6.864   1.885
 1956SOL     OW 6766   5.738   6.491   2.734
 1956SOL    HW1 6767   5.826   6.486   2.687
 1956SOL    HW2 6768   5.666   6.454   2.676
 1957SOL     OW 6769   6.271   5.663   5.104
 1957SOL    HW1 6770   6.355   5.608   5.102
 1957SOL    HW2 6771   6.198   5.611   5.148
 1958SOL     OW 6772   6.037   3.289   3.918
 1958SOL    HW1 6773   5.987   3.289   4.004
 1958SOL    HW2 6774   6.126   3.334   3.932
 1959SOL     OW 6775   0.544   2.580   6.096
 1959SOL    HW1 6776   0.519   2.552   6.189
 1959SOL    HW2 6777   0.644   2.578   6.087
 1960SOL     OW 6778   6.716   4.519   1.127
 1960SOL    HW1 6779   6.802   4.467   1.125
 1960SOL    HW2 6780   6.683   4.525   1.221
 1961SOL     OW 6781   5.587   4.349   4.395
 1961SOL    HW1 6782   5.579   4.343   4.494
 1961SOL    HW2 6783   5.531   4.424   4.360
 1962SOL     OW 6784   1.461   6.047   3.331
 1962SOL    HW1 6785   1.374   6.027   3.376
 1962SOL    HW2 6786   1.444   6.083   3.239
 1963SOL     OW 6787   0.564   0.628   1.925
 1963SOL    HW1 6788   0.503   0.552   1.903
 1963SOL    HW2 6789   0.521   0.714   1.899
 1964SOL     OW 6790   4.380   2.835   1.292
 1964SOL    HW1 6791   4.467   2.786   1.288
 1964SOL    HW2 6792   4.310   2.775   1.330
 1965SOL     OW 6793   0.657   3.356   2.910
 1965SOL    HW1 6794   0.721   3.421   2.952
 1965SOL    HW2 6795   0.602   3.313   2.981
 1966SOL     OW 6796   0.103   5.160   5.175
 1966SOL    HW1 6797   0.153   5.213   5.244
 1966SOL    HW2 6798   0.028   5.216   5.139
 1967SOL     OW 6799   4.579   1.971   6.210
 1967SOL    HW1 6800   4.575   1.960   6.309
 1967SOL    HW2 6801   4.498   1.928   6.169
 1968SOL     OW 6802   3.190   6.378   0.172
 1968SOL    HW1 6803   3.128   6.344   0.244
 1968SOL    HW2 6804   3.279   6.334   0.182
 1969SOL     OW 6805   0.047   1.279   1.769
 1969SOL    HW1 6806   0.084   1.332   1.845
 1969SOL    HW2 6807   6.971   1.296   1.760
 1970SOL     OW 6808   2.372   1.055   6.156
 1970SOL    HW1 6809   2.413   1.126   6.098
 1970SOL    HW2 6810   2.328   1.098   6.235
 1971SOL     OW 6811   6.453   0.032   6.277
 1971SOL    HW1 6812   6.392   0.071   6.345
 1971SOL    HW2 6813   6.471   6.958   6.298
 1972SOL     OW 6814   0.087   2.658   3.059
 1972SOL    HW1 6815   0.143   2.608   3.125
 1972SOL    HW2 6816   0.144   2.724   3.010
 1973SOL     OW 6817   3.241   3.622   1.457
 1973SOL    HW1 6818   3.301   3.559   1.506
 1973SOL    HW2 6819   3.208   3.578   1.373
 1974SOL     OW 6820   6.204   5.985   4.087
 1974SOL    HW1 6821   6.245   5.907   4.134
 1974SOL    HW2 6822   6.262   6.013   4.011
 1975SOL     OW 6823   2.512   0.982   3.057
 1975SOL    HW1 6824   2.457   1.062   3.035
 1975SOL    HW2 6825   2.607   0.998   3.030
 1976SOL     OW 6826   0.441   5.857   6.852
 1976SOL    HW1 6827   0.343   5.876   6.855
 1976SOL    HW2 6828   0.477   5.855   6.946
 1977SOL     OW 6829   1.104   2.702   3.358
 1977SOL    HW1 6830   1.117   2.607   3.388
 1977SOL    HW2 6831   1.163   2.762   3.412
 1978SOL     OW 6832   1.678   0.592   4.240
 1978SOL    HW1 6833   1.607   0.569   4.173
 1978SOL    HW2 6834   1.757   0.532   4.227
 1979SOL     OW 6835   6.720   3.966   4.942
 1979SOL    HW1 6836   6.678   3.900   4.879
 1979SOL    HW2 6837   6.699   4.059   4.912
 1980SOL     OW 6838   3.078   0.702   0.277
 1980SOL    HW1 6839   3.064   0.639   0.200
 1980SOL    HW2 6840   3.009   0.774   0.273
 1981SOL     OW 6841   5.409   2.112   2.297
 1981SOL    HW1 6842   5.463   2.028   2.306
 1981SOL    HW2 6843   5.377   2.141   2.387
 1982SOL     OW 6844   6.115   4.393   5.565
 1982SOL    HW1 6845   6.036   4.373   5.624
 1982SOL    HW2 6846   6.199   4.375   5.615
 1983SOL     OW 6847   0.949   2.639   2.598
 1983SOL    HW1 6848   0.900   2.553   2.612
 1983SOL    HW2 6849   0.886   2.709   2.564
 1984SOL     OW 6850   5.485   1.325   5.675
 1984SOL    HW1 6851   5.584   1.328   5.690
 1984SOL    HW2 6852   5.460   1.240   5.630
 1985SOL     OW 6853   1.302   0.684   2.356
 1985SOL    HW1 6854   1.386   0.737   2.354
 1985SOL    HW2 6855   1.300   0.620   2.279
 1986SOL     OW 6856   1.093   1.366   6.971
 1986SOL    HW1 6857   1.115   1.432   0.021
 1986SOL    HW2 6858   1.028   1.407   6.907
 1987SOL     OW 6859   2.081   3.143   1.544
 1987SOL    HW1 6860   2.108   3.200   1.467
 1987SOL    HW2 6861   2.006   3.187   1.594
 1988SOL     OW 6862   4.951   4.104   1.042
 1988SOL    HW1 6863   4.878   4.035   1.038
 1988SOL    HW2 6864   5.036   4.065   1.007
 1989SOL     OW 6865   2.380   0.379   5.211
 1989SOL    HW1 6866   2.404   0.459   5.156
 1989SOL    HW2 6867   2.403   0.295   5.160
 1990SOL     OW 6868   3.326   0.127   1.137
 1990SOL    HW1 6869   3.233   0.096   1.156
 1990SOL    HW2 6870   3.391   0.053   1.157
 1991SOL     OW 6871   3.781   4.925   6.106
 1991SOL    HW1 6872   3.861   4.912   6.048
 1991SOL    HW2 6873   3.777   5.020   6.136
 1992SOL     OW 6874   2.357   6.518   6.722
 1992SOL    HW1 6875   2.260   6.497   6.707
 1992SOL    HW2 6876   2.401   6.441   6.767
 1993SOL     OW 6877   4.124   3.298   5.463
 1993SOL    HW1 6878   4.069   3.259   5.537
 1993SOL    HW2 6879   4.188   3.364   5.501
 1994SOL     OW 6880   1.400   2.408   1.313
 1994SOL    HW1 6881   1.429   2.449   1.400
 1994SOL    HW2 6882   1.309   2.368   1.324
 1995SOL     OW 6883   6.600   2.316   2.020
 1995SOL    HW1 6884   6.606   2.412   2.045
 1995SOL    HW2 6885   6.570   2.263   2.099
 1996SOL     OW 6886   2.736   3.609   0.848
 1996SOL    HW1 6887   2.782   3.522   0.868
 1996SOL    HW2 6888   2.675   3.597   0.770
 1997SOL     OW 6889   4.793   0.192   5.774
 1997SOL    HW1 6890   4.708   0.139   5.782
 1997SOL    HW2 6891   4.855   0.146   5.710
 1998SOL     OW 6892   3.205   3.764   5.607
 1998SOL    HW1 6893   3.300   3.772   5.634
 1998SOL    HW2 6894   3.166   3.855   5.593
 1999SOL     OW 6895   3.145   0.037   1.948
 1999SOL    HW1 6896   3.226   0.079   1.989
 1999SOL    HW2 6897   3.063   0.088   1.976
 2000SOL     OW 6898   4.236   1.754   5.729
 2000SOL    HW1 6899   4.148   1.752   5.681
 2000SOL    HW2 6900   4.245   1.841   5.778
 2001SOL     OW 6901   3.419   2.147   1.785
 2001SOL    HW1 6902   3.483   2.200   1.840
 2001SOL    HW2 6903   3.388   2.201   1.707
 2002SOL     OW 6904   0.958   5.708   6.144
 2002SOL    HW1 6905   0.932   5.763   6.223
 2002SOL    HW2 6906   1.014   5.631   6.173
 2003SOL     OW 6907   4.669   6.873   3.388
 2003SOL    HW1 6908   4.764   6.904   3.387
 2003SOL    HW2 6909   4.639   6.856   3.294
 2004SOL     OW 6910   4.895   0.817   4.837
 2004SOL    HW1 6911   4.824   0.883   4.864
 2004SOL    HW2 6912   4.948   0.791   4.918
 2005SOL     OW 6913   1.126   5.663   6.965
 2005SOL    HW1 6914   1.081   5.635   0.028
 2005SOL    HW2 6915   1.141   5.762   6.967
 2006SOL     OW 6916   5.186   3.844   3.484
 2006SOL    HW1 6917   5.092   3.824   3.511
 2006SOL    HW2 6918   5.192   3.851   3.385
 2007SOL     OW 6919   4.896   5.953   0.494
 2007SOL    HW1 6920   4.806   5.968   0.453
 2007SOL    HW2 6921   4.892   5.978   0.591
 2008SOL     OW 6922   0.901   5.346   3.419
 2008SOL    HW1 6923   0.859   5.429   3.456
 2008SOL    HW2 6924   0.951   5.369   3.335
 2009SOL     OW 6925   6.294   0.158   1.483
 2009SOL    HW1 6926   6.286   0.212   1.399
 2009SOL    HW2 6927   6.385   0.115   1.487
 2010SOL     OW 6928   1.530   1.318   0.908
 2010SOL    HW1 6929   1.494   1.225   0.908
 2010SOL    HW2 6930   1.455   1.383   0.895
 2011SOL     OW 6931   6.325   1.594   4.854
 2011SOL    HW1 6932   6.280   1.648   4.925
 2011SOL    HW2 6933   6.350   1.655   4.778
 2012SOL     OW 6934   0.778   3.663   1.132
 2012SOL    HW1 6935   0.824   3.592   1.077
 2012SOL    HW2 6936   0.798   3.753   1.093
 2013SOL     OW 6937   5.261   0.924   2.845
 2013SOL    HW1 6938   5.268   0.960   2.752
 2013SOL    HW2 6939   5.216   0.835   2.843
 2014SOL     OW 6940   1.524   5.250   3.306
 2014SOL    HW1 6941   1.483   5.188   3.239
 2014SOL    HW2 6942   1.547   5.336   3.261
 2015SOL     OW 6943   2.668   1.477   6.687
 2015SOL    HW1 6944   2.755   1.522   6.709
 2015SOL    HW2 6945   2.607   1.542   6.643
 2016SOL     OW 6946   0.616   5.942   5.323
 2016SOL    HW1 6947   0.668   5.887   5.258
 2016SOL    HW2 6948   0.661   5.938   5.413
 2017SOL     OW 6949   3.500   6.158   4.181
 2017SOL    HW1 6950   3.574   6.153   4.248
 2017SOL    HW2 6951   3.531   6.121   4.094
 2018SOL     OW 6952   6.493   5.901   6.234
 2018SOL    HW1 6953   6.528   5.982   6.188
 2018SOL    HW2 6954   6.492   5.917   6.333
 2019SOL     OW 6955   4.731   2.798   2.226
 2019SOL    HW1 6956   4.718   2.868   2.156
 2019SOL    HW2 6957   4.765   2.841   2.310
 2020SOL     OW 6958   1.041   4.523   4.668
 2020SOL    HW1 6959   1.037   4.466   4.751
 2020SOL    HW2 6960   1.131   4.511   4.625
 2021SOL     OW 6961   2.087   6.788   3.110
 2021SOL    HW1 6962   2.005   6.731   3.121
 2021SOL    HW2 6963   2.152   6.742   3.050
 2022SOL     OW 6964   2.062   3.547   2.503
 2022SOL    HW1 6965   1.985   3.610   2.502
 2022SOL    HW2 6966   2.049   3.478   2.432
 2023SOL     OW 6967   0.093   1.789   0.432
 2023SOL    HW1 6968   0.146   1.815   0.351
 2023SOL    HW2 6969   0.136   1.711   0.477
 2024SOL     OW 6970   0.079   0.476   2.749
 2024SOL    HW1 6971   0.111   0.528   2.828
 2024SOL    HW2 6972   0.039   0.539   2.682
 2025SOL     OW 6973   1.612   2.456   1.987
 2025SOL    HW1 6974   1.707   2.435   1.967
 2025SOL    HW2 6975   1.595   2.445   2.085
 2026SOL     OW 6976   1.545   2.289   6.062
 2026SOL    HW1 6977   1.568   2.195   6.087
 2026SOL    HW2 6978   1.498   2.289   5.973
 2027SOL     OW 6979   1.459   1.264   1.373
 2027SOL    HW1 6980   1.451   1.221   1.463
 2027SOL    HW2 6981   1.426   1.201   1.303
 2028SOL     OW 6982   3.383   1.263   6.346
 2028SOL    HW1 6983   3.417   1.355   6.365
 2028SOL    HW2 6984   3.285   1.259   6.367
 2029SOL     OW 6985   0.331   0.823   0.144
 2029SOL    HW1 6986   0.284   0.902   0.184
 2029SOL    HW2 6987   0.269   0.745   0.141
 2030SOL     OW 6988   1.778   1.272   4.047
 2030SOL    HW1 6989   1.731   1.359   4.058
 2030SOL    HW2 6990   1.797   1.256   3.950
 2031SOL     OW 6991   4.853   6.140   2.257
 2031SOL    HW1 6992   4.826   6.045   2.275
 2031SOL    HW2 6993   4.778   6.201   2.282
 2032SOL     OW 6994   5.504   5.870   1.319
 2032SOL    HW1 6995   5.521   5.881   1.417
 2032SOL    HW2 6996   5.500   5.960   1.276
 2033SOL     OW 6997   3.461   4.580   6.914
 2033SOL    HW1 6998   3.436   4.518   6.840
 2033SOL    HW2 6999   3.419   4.669   6.900
 2034SOL     OW 7000   2.499   0.034   4.543
 2034SOL    HW1 7001   2.491   0.011   4.640
 2034SOL    HW2 7002   2.595   0.035   4.517
 2035SOL     OW 7003   0.557   0.594   2.680
 2035SOL    HW1 7004   0.603   0.668   2.729
 2035SOL    HW2 7005   0.616   0.562   2.605
 2036SOL     OW 7006   0.489   5.925   3.025
 2036SOL    HW1 7007   0.518   6.019   3.042
 2036SOL    HW2 7008   0.516   5.898   2.932
 2037SOL     OW 7009   6.569   1.906   5.620
 2037SOL    HW1 7010   6.550   1.995   5.663
 2037SOL    HW2 7011   6.491   1.879   5.563
 2038SOL     OW 7012   1.185   1.397   6.619
 2038SOL    HW1 7013   1.254   1.401   6.691
 2038SOL    HW2 7014   1.182   1.304   6.581
 2039SOL     OW 7015   0.753   5.341   2.840
 2039SOL    HW1 7016   0.831   5.326   2.902
 2039SOL    HW2 7017   0.670   5.304   2.881
 2040SOL     OW 7018   3.197   3.129   5.068
 2040SOL    HW1 7019   3.116   3.141   5.010
 2040SOL    HW2 7020   3.224   3.033   5.068
 2041SOL     OW 7021   6.973   6.149   6.476
 2041SOL    HW1 7022   0.019   6.093   6.525
 2041SOL    HW2 7023   6.892   6.093   6.457
 2042SOL     OW 7024   6.039   5.509   6.887
 2042SOL    HW1 7025   6.098   5.524   6.967
 2042SOL    HW2 7026   6.092   5.521   6.804
 2043SOL     OW 7027   7.003   4.327   2.253
 2043SOL    HW1 7028   6.977   4.236   2.221
 2043SOL    HW2 7029   6.946   4.353   2.330
 2044SOL     OW 7030   5.021   0.294   2.008
 2044SOL    HW1 7031   5.069   0.270   1.924
 2044SOL    HW2 7032   5.008   0.211   2.064
 2045SOL     OW 7033   2.382   4.450   4.987
 2045SOL    HW1 7034   2.334   4.472   4.902
 2045SOL    HW2 7035   2.467   4.502   4.992
 2046SOL     OW 7036   6.908   0.304   4.662
 2046SOL    HW1 7037   6.929   0.223   4.607
 2046SOL    HW2 7038   6.955   0.297   4.750
 2047SOL     OW 7039   4.436   2.026   6.906
 2047SOL    HW1 7040   4.383   2.096   6.954
 2047SOL    HW2 7041   4.402   1.935   6.932
 2048SOL     OW 7042   3.465   6.141   0.219
 2048SOL    HW1 7043   3.459   6.063   0.281
 2048SOL    HW2 7044   3.529   6.208   0.257
 2049SOL     OW 7045   4.134   2.207   6.397
 2049SOL    HW1 7046   4.121   2.302   6.367
 2049SOL    HW2 7047   4.211   2.167   6.347
 2050SOL     OW 7048   6.162   2.870   4.169
 2050SOL    HW1 7049   6.083   2.842   4.224
 2050SOL    HW2 7050   6.239   2.809   4.188
 2051SOL     OW 7051   6.816   4.799   6.854
 2051SOL    HW1 7052   6.866   4.864   6.797
 2051SOL    HW2 7053   6.879   4.752   6.915
 2052SOL     OW 7054   0.461   4.239   0.280
 2052SOL    HW1 7055   0.551   4.250   0.321
 2052SOL    HW2 7056   0.439   4.142   0.271
 2053SOL     OW 7057   6.316   0.508   0.636
 2053SOL    HW1 7058   6.326   0.432   0.572
 2053SOL    HW2 7059   6.404   0.556   0.646
 2054SOL     OW 7060   4.692   2.434   1.945
 2054SOL    HW1 7061   4.734   2.497   2.009
 2054SOL    HW2 7062   4.758   2.364   1.917
 2055SOL     OW 7063   6.116   2.996   2.586
 2055SOL    HW1 7064   6.147   3.030   2.675
 2055SOL    HW2 7065   6.043   2.929   2.599
 2056SOL     OW 7066   2.360   1.237   3.081
 2056SOL    HW1 7067   2.416   1.319   3.068
 2056SOL    HW2 7068   2.267   1.264   3.105
 2057SOL     OW 7069   5.604   2.648   3.834
 2057SOL    HW1 7070   5.644   2.571   3.885
 2057SOL    HW2 7071   5.506   2.652   3.851
 2058SOL     OW 7072   1.236   1.957   3.524
 2058SOL    HW1 7073   1.317   1.900   3.511
 2058SOL    HW2 7074   1.217   1.965   3.622
 2059SOL     OW 7075   2.813   6.547   6.299
 2059SOL    HW1 7076   2.736   6.483   6.291
 2059SOL    HW2 7077   2.898   6.495   6.311
 2060SOL     OW 7078   0.102   3.894   0.842
 2060SOL    HW1 7079   0.137   3.805   0.814
 2060SOL    HW2 7080   0.067   3.888   0.935
 2061SOL     OW 7081   1.133   2.014   3.079
 2061SOL    HW1 7082   1.101   1.931   3.125
 2061SOL    HW2 7083   1.107   2.010   2.983
 2062SOL     OW 7084   5.695   0.093   3.083
 2062SOL    HW1 7085   5.753   0.012   3.072
 2062SOL    HW2 7086   5.613   0.083   3.027
 2063SOL     OW 7087   1.073   1.265   5.994
 2063SOL    HW1 7088   1.074   1.234   5.899
 2063SOL    HW2 7089   0.993   1.324   6.009
 2064SOL     OW 7090   0.775   1.527   5.523
 2064SOL    HW1 7091   0.864   1.486   5.504
 2064SOL    HW2 7092   0.788   1.613   5.573
 2065SOL     OW 7093   6.529   4.042   2.666
 2065SOL    HW1 7094   6.465   4.086   2.729
 2065SOL    HW2 7095   6.597   3.991   2.718
 2066SOL     OW 7096   0.624   5.875   4.051
 2066SOL    HW1 7097   0.562   5.836   4.120
 2066SOL    HW2 7098   0.590   5.853   3.960
 2067SOL     OW 7099   6.814   6.745   0.735
 2067SOL    HW1 7100   6.811   6.755   0.636
 2067SOL    HW2 7101   6.883   6.808   0.773
 2068SOL     OW 7102   1.024   1.413   5.497
 2068SOL    HW1 7103   1.121   1.413   5.472
 2068SOL    HW2 7104   0.976   1.344   5.443
 2069SOL     OW 7105   0.397   2.680   3.741
 2069SOL    HW1 7106   0.437   2.611   3.681
 2069SOL    HW2 7107   0.300   2.659   3.756
 2070SOL     OW 7108   1.873   0.115   2.406
 2070SOL    HW1 7109   1.887   0.207   2.370
 2070SOL    HW2 7110   1.956   0.060   2.391
 2071SOL     OW 7111   7.008   5.821   5.735
 2071SOL    HW1 7112   6.986   5.779   5.647
 2071SOL    HW2 7113   7.006   5.921   5.726
 2072SOL     OW 7114   4.680   6.450   1.528
 2072SOL    HW1 7115   4.753   6.432   1.595
 2072SOL    HW2 7116   4.625   6.527   1.560
 2073SOL     OW 7117   3.748   0.371   4.530
 2073SOL    HW1 7118   3.684   0.390   4.605
 2073SOL    HW2 7119   3.823   0.438   4.533
 2074SOL     OW 7120   0.890   3.382   0.203
 2074SOL    HW1 7121   0.952   3.457   0.229
 2074SOL    HW2 7122   0.853   3.400   0.111
 2075SOL     OW 7123   5.262   2.666   1.655
 2075SOL    HW1 7124   5.357   2.648   1.681
 2075SOL    HW2 7125   5.250   2.648   1.557
 2076SOL     OW 7126   5.175   6.757   6.973
 2076SOL    HW1 7127   5.203   6.719   0.039
 2076SOL    HW2 7128   5.161   6.855   6.982
 2077SOL     OW 7129   4.611   2.657   2.451
 2077SOL    HW1 7130   4.637   2.688   2.360
 2077SOL    HW2 7131   4.544   2.583   2.442
 2078SOL     OW 7132   1.519   6.759   6.301
 2078SOL    HW1 7133   1.443   6.820   6.280
 2078SOL    HW2 7134   1.597   6.782   6.242
 2079SOL     OW 7135   5.433   1.003   3.539
 2079SOL    HW1 7136   5.492   1.056   3.478
 2079SOL    HW2 7137   5.338   1.012   3.509
 2080SOL     OW 7138   1.667   0.681   4.883
 2080SOL    HW1 7139   1.613   0.764   4.899
 2080SOL    HW2 7140   1.615   0.618   4.825
 2081SOL     OW 7141   1.688   5.648   4.953
 2081SOL    HW1 7142   1.655   5.742   4.959
 2081SOL    HW2 7143   1.767   5.636   5.014
 2082SOL     OW 7144   6.856   0.697   2.899
 2082SOL    HW1 7145   6.763   0.691   2.863
 2082SOL    HW2 7146   6.880   0.793   2.913
 2083SOL     OW 7147   4.613   4.555   6.775
 2083SOL    HW1 7148   4.560   4.627   6.731
 2083SOL    HW2 7149   4.640   4.486   6.707
 2084SOL     OW 7150   6.783   4.249   3.591
 2084SOL    HW1 7151   6.753   4.224   3.684
 2084SOL    HW2 7152   6.875   4.287   3.595
 2085SOL     OW 7153   5.071   1.292   0.328
 2085SOL    HW1 7154   5.043   1.221   0.264
 2085SOL    HW2 7155   4.994   1.353   0.347
 2086SOL     OW 7156   3.042   6.525   5.474
 2086SOL    HW1 7157   3.104   6.588   5.427
 2086SOL    HW2 7158   3.091   6.479   5.548
 2087SOL     OW 7159   4.979   0.059   2.141
 2087SOL    HW1 7160   4.995   0.058   2.239
 2087SOL    HW2 7161   5.025   7.003   2.098
 2088SOL     OW 7162   2.713   5.950   0.657
 2088SOL    HW1 7163   2.686   6.004   0.577
 2088SOL    HW2 7164   2.794   5.896   0.635
 2089SOL     OW 7165   5.066   1.942   6.823
 2089SOL    HW1 7166   5.066   2.039   6.797
 2089SOL    HW2 7167   5.037   1.933   6.918
 2090SOL     OW 7168   3.976   3.736   5.276
 2090SOL    HW1 7169   3.968   3.726   5.177
 2090SOL    HW2 7170   3.914   3.672   5.321
 2091SOL     OW 7171   6.736   5.691   6.832
 2091SOL    HW1 7172   6.752   5.784   6.799
 2091SOL    HW2 7173   6.759   5.686   6.930
 2092SOL     OW 7174   4.455   5.682   6.790
 2092SOL    HW1 7175   4.360   5.711   6.776
 2092SOL    HW2 7176   4.497   5.661   6.702
 2093SOL     OW 7177   1.846   2.584   1.746
 2093SOL    HW1 7178   1.831   2.640   1.827
 2093SOL    HW2 7179   1.927   2.615   1.697
 2094SOL     OW 7180   5.610   1.939   1.702
 2094SOL    HW1 7181   5.637   1.856   1.653
 2094SOL    HW2 7182   5.523   1.972   1.666
 2095SOL     OW 7183   5.360   0.031   4.778
 2095SOL    HW1 7184   5.415   0.103   4.820
 2095SOL    HW2 7185   5.399   6.964   4.802
 2096SOL     OW 7186   4.410   4.512   2.429
 2096SOL    HW1 7187   4.448   4.494   2.338
 2096SOL    HW2 7188   4.319   4.552   2.420
 2097SOL     OW 7189   1.504   3.259   0.224
 2097SOL    HW1 7190   1.431   3.192   0.216
 2097SOL    HW2 7191   1.471   3.339   0.274
 2098SOL     OW 7192   4.443   5.473   3.399
 2098SOL    HW1 7193   4.470   5.381   3.425
 2098SOL    HW2 7194   4.523   5.533   3.400
 2099SOL     OW 7195   2.957   2.954   5.254
 2099SOL    HW1 7196   2.985   3.046   5.283
 2099SOL    HW2 7197   2.860   2.941   5.276
 2100SOL     OW 7198   4.134   3.746   5.503
 2100SOL    HW1 7199   4.085   3.767   5.417
 2100SOL    HW2 7200   4.135   3.647   5.516
 2101SOL     OW 7201   1.311   6.578   2.967
 2101SOL    HW1 7202   1.260   6.533   3.040
 2101SOL    HW2 7203   1.409   6.561   2.980
 2102SOL     OW 7204   6.536   4.996   2.496
 2102SOL    HW1 7205   6.538   5.095   2.499
 2102SOL    HW2 7206   6.463   4.962   2.555
 2103SOL     OW 7207   2.696   3.294   6.614
 2103SOL    HW1 7208   2.680   3.202   6.579
 2103SOL    HW2 7209   2.615   3.326   6.664
 2104SOL     OW 7210   1.306   3.780   6.788
 2104SOL    HW1 7211   1.394   3.803   6.830
 2104SOL    HW2 7212   1.266   3.863   6.748
 2105SOL     OW 7213   5.059   5.642   4.699
 2105SOL    HW1 7214   4.991   5.715   4.709
 2105SOL    HW2 7215   5.014   5.553   4.706
 2106SOL     OW 7216   4.838   3.801   0.519
 2106SOL    HW1 7217   4.916   3.768   0.466
 2106SOL    HW2 7218   4.765   3.732   0.517
 2107SOL     OW 7219   4.823   3.084   6.000
 2107SOL    HW1 7220   4.918   3.064   6.024
 2107SOL    HW2 7221   4.808   3.061   5.904
 2108SOL     OW 7222   6.894   6.289   5.489
 2108SOL    HW1 7223   6.856   6.381   5.483
 2108SOL    HW2 7224   6.965   6.279   5.419
 2109SOL     OW 7225   4.875   6.618   3.234
 2109SOL    HW1 7226   4.960   6.668   3.246
 2109SOL    HW2 7227   4.827   6.611   3.322
 2110SOL     OW 7228   2.652   2.498   5.764
 2110SOL    HW1 7229   2.621   2.496   5.669
 2110SOL    HW2 7230   2.690   2.589   5.784
 2111SOL     OW 7231   1.363   2.081   6.597
 2111SOL    HW1 7232   1.381   1.996   6.647
 2111SOL    HW2 7233   1.288   2.065   6.532
 2112SOL     OW 7234   5.190   2.234   0.954
 2112SOL    HW1 7235   5.260   2.258   1.021
 2112SOL    HW2 7236   5.197   2.295   0.875
 2113SOL     OW 7237   1.387   0.324   5.058
 2113SOL    HW1 7238   1.408   0.403   5.116
 2113SOL    HW2 7239   1.352   0.356   4.970
 2114SOL     OW 7240   1.532   2.993   0.979
 2114SOL    HW1 7241   1.598   3.016   1.051
 2114SOL    HW2 7242   1.446   3.041   0.996
 2115SOL     OW 7243   2.158   3.930   2.961
 2115SOL    HW1 7244   2.197   3.980   2.884
 2115SOL    HW2 7245   2.123   3.841   2.930
 2116SOL     OW 7246   0.273   5.098   3.363
 2116SOL    HW1 7247   0.353   5.158   3.368
 2116SOL    HW2 7248   0.206   5.137   3.299
 2117SOL     OW 7249   6.879   4.396   1.398
 2117SOL    HW1 7250   6.931   4.467   1.445
 2117SOL    HW2 7251   6.899   4.307   1.440
 2118SOL     OW 7252   6.498   3.720   1.947
 2118SOL    HW1 7253   6.494   3.678   1.857
 2118SOL    HW2 7254   6.449   3.663   2.013
 2119SOL     OW 7255   2.596   5.848   1.351
 2119SOL    HW1 7256   2.639   5.760   1.332
 2119SOL    HW2 7257   2.614   5.911   1.276
 2120SOL     OW 7258   0.423   4.908   4.307
 2120SOL    HW1 7259   0.374   4.931   4.222
 2120SOL    HW2 7260   0.414   4.810   4.324
 2121SOL     OW 7261   0.645   4.327   5.566
 2121SOL    HW1 7262   0.606   4.411   5.528
 2121SOL    HW2 7263   0.620   4.249   5.507
 2122SOL     OW 7264   5.699   4.612   6.161
 2122SOL    HW1 7265   5.605   4.618   6.126
 2122SOL    HW2 7266   5.726   4.517   6.168
 2123SOL     OW 7267   6.842   5.109   2.068
 2123SOL    HW1 7268   6.915   5.176   2.083
 2123SOL    HW2 7269   6.759   5.138   2.117
 2124SOL     OW 7270   2.788   1.945   2.074
 2124SOL    HW1 7271   2.728   2.018   2.041
 2124SOL    HW2 7272   2.769   1.928   2.171
 2125SOL     OW 7273   1.694   0.228   0.787
 2125SOL    HW1 7274   1.787   0.213   0.822
 2125SOL    HW2 7275   1.631   0.237   0.864
 2126SOL     OW 7276   3.797   0.908   0.447
 2126SOL    HW1 7277   3.736   0.968   0.497
 2126SOL    HW2 7278   3.892   0.934   0.465
 2127SOL     OW 7279   6.777   3.386   4.319
 2127SOL    HW1 7280   6.755   3.436   4.402
 2127SOL    HW2 7281   6.863   3.336   4.332
 2128SOL     OW 7282   6.488   3.802   4.162
 2128SOL    HW1 7283   6.394   3.827   4.187
 2128SOL    HW2 7284   6.546   3.884   4.166
 2129SOL     OW 7285   4.401   3.150   5.641
 2129SOL    HW1 7286   4.380   3.245   5.618
 2129SOL    HW2 7287   4.395   3.093   5.559
 2130SOL     OW 7288   3.636   0.447   2.504
 2130SOL    HW1 7289   3.604   0.353   2.499
 2130SOL    HW2 7290   3.558   0.510   2.501
 2131SOL     OW 7291   6.743   0.308   0.864
 2131SOL    HW1 7292   6.712   0.232   0.807
 2131SOL    HW2 7293   6.770   0.274   0.954
 2132SOL     OW 7294   4.075   1.900   1.257
 2132SOL    HW1 7295   4.152   1.942   1.306
 2132SOL    HW2 7296   3.989   1.927   1.301
 2133SOL     OW 7297   2.431   2.936   6.522
 2133SOL    HW1 7298   2.394   3.030   6.517
 2133SOL    HW2 7299   2.418   2.901   6.615
 2134SOL     OW 7300   0.716   2.533   0.006
 2134SOL    HW1 7301   0.701   2.631   7.019
 2134SOL    HW2 7302   0.628   2.486   0.010
 2135SOL     OW 7303   0.441   3.797   4.885
 2135SOL    HW1 7304   0.494   3.807   4.969
 2135SOL    HW2 7305   0.499   3.817   4.807
 2136SOL     OW 7306   2.113   4.419   2.791
 2136SOL    HW1 7307   2.139   4.515   2.782
 2136SOL    HW2 7308   2.187   4.368   2.835
 2137SOL     OW 7309   2.494   5.534   5.162
 2137SOL    HW1 7310   2.417   5.593   5.187
 2137SOL    HW2 7311   2.532   5.564   5.075
 2138SOL     OW 7312   6.382   6.394   3.349
 2138SOL    HW1 7313   6.351   6.473   3.402
 2138SOL    HW2 7314   6.393   6.315   3.411
 2139SOL     OW 7315   4.460   1.061   3.806
 2139SOL    HW1 7316   4.526   1.003   3.855
 2139SOL    HW2 7317   4.467   1.155   3.841
 2140SOL     OW 7318   2.779   0.009   4.491
 2140SOL    HW1 7319   2.817   7.000   4.404
 2140SOL    HW2 7320   2.844   0.071   4.535
 2141SOL     OW 7321   6.520   2.791   2.608
 2141SOL    HW1 7322   6.616   2.765   2.620
 2141SOL    HW2 7323   6.464   2.747   2.678
 2142SOL     OW 7324   1.610   1.536   3.036
 2142SOL    HW1 7325   1.538   1.477   3.070
 2142SOL    HW2 7326   1.584   1.632   3.050
 2143SOL     OW 7327   3.153   4.848   1.100
 2143SOL    HW1 7328   3.154   4.863   1.001
 2143SOL    HW2 7329   3.209   4.768   1.123
 2144SOL     OW 7330   0.143   5.549   4.516
 2144SOL    HW1 7331   0.129   5.632   4.569
 2144SOL    HW2 7332   0.239   5.539   4.493
 2145SOL     OW 7333   3.920   6.247   4.583
 2145SOL    HW1 7334   3.895   6.341   4.604
 2145SOL    HW2 7335   3.997   6.219   4.641
 2146SOL     OW 7336   2.273   3.011   1.244
 2146SOL    HW1 7337   2.358   3.018   1.295
 2146SOL    HW2 7338   2.199   3.053   1.295
 2147SOL     OW 7339   5.915   1.374   6.680
 2147SOL    HW1 7340   5.999   1.357   6.732
 2147SOL    HW2 7341   5.849   1.421   6.739
 2148SOL     OW 7342   5.879   3.320   6.182
 2148SOL    HW1 7343   5.971   3.285   6.162
 2148SOL    HW2 7344   5.883   3.420   6.189
 2149SOL     OW 7345   2.278   1.487   1.024
 2149SOL    HW1 7346   2.240   1.397   1.002
 2149SOL    HW2 7347   2.329   1.482   1.110
 2150SOL     OW 7348   2.437   2.567   2.382
 2150SOL    HW1 7349   2.454   2.615   2.296
 2150SOL    HW2 7350   2.433   2.634   2.456
 2151SOL     OW 7351   1.652   6.407   6.366
 2151SOL    HW1 7352   1.620   6.337   6.302
 2151SOL    HW2 7353   1.718   6.467   6.321
 2152SOL     OW 7354   4.248   4.632   2.029
 2152SOL    HW1 7355   4.166   4.684   2.005
 2152SOL    HW2 7356   4.306   4.623   1.948
 2153SOL     OW 7357   3.787   1.846   2.723
 2153SOL    HW1 7358   3.853   1.831   2.649
 2153SOL    HW2 7359   3.740   1.761   2.744
 2154SOL     OW 7360   3.940   0.048   4.119
 2154SOL    HW1 7361   3.944   6.982   4.071
 2154SOL    HW2 7362   3.892   0.036   4.206
 2155SOL     OW 7363   4.298   0.246   0.763
 2155SOL    HW1 7364   4.276   0.152   0.788
 2155SOL    HW2 7365   4.213   0.299   0.756
 2156SOL     OW 7366   0.220   0.377   4.846
 2156SOL    HW1 7367   0.306   0.358   4.798
 2156SOL    HW2 7368   0.191   0.296   4.897
 2157SOL     OW 7369   5.560   6.194   3.407
 2157SOL    HW1 7370   5.467   6.160   3.393
 2157SOL    HW2 7371   5.581   6.194   3.505
 2158SOL     OW 7372   3.796   5.971   0.495
 2158SOL    HW1 7373   3.789   5.899   0.425
 2158SOL    HW2 7374   3.892   5.982   0.521
 2159SOL     OW 7375   1.507   0.889   4.911
 2159SOL    HW1 7376   1.423   0.852   4.952
 2159SOL    HW2 7377   1.484   0.942   4.830
 2160SOL     OW 7378   4.906   4.272   6.983
 2160SOL    HW1 7379   4.944   4.360   6.954
 2160SOL    HW2 7380   4.975   4.219   0.009
 2161SOL     OW 7381   6.562   4.604   1.967
 2161SOL    HW1 7382   6.589   4.689   2.012
 2161SOL    HW2 7383   6.644   4.555   1.935
 2162SOL     OW 7384   3.341   0.176   2.064
 2162SOL    HW1 7385   3.416   0.132   2.112
 2162SOL    HW2 7386   3.377   0.224   1.983
 2163SOL     OW 7387   1.871   5.168   0.509
 2163SOL    HW1 7388   1.950   5.230   0.517
 2163SOL    HW2 7389   1.898   5.087   0.456
 2164SOL     OW 7390   1.904   1.957   6.185
 2164SOL    HW1 7391   1.952   1.963   6.097
 2164SOL    HW2 7392   1.950   1.889   6.243
 2165SOL     OW 7393   0.152   2.320   3.457
 2165SOL    HW1 7394   0.229   2.305   3.395
 2165SOL    HW2 7395   0.129   2.417   3.458
 2166SOL     OW 7396   0.874   3.661   4.351
 2166SOL    HW1 7397   0.917   3.659   4.441
 2166SOL    HW2 7398   0.893   3.749   4.307
 2167SOL     OW 7399   0.798   2.768   3.696
 2167SOL    HW1 7400   0.877   2.828   3.704
 2167SOL    HW2 7401   0.774   2.732   3.787
 2168SOL     OW 7402   1.160   1.884   2.768
 2168SOL    HW1 7403   1.103   1.825   2.826
 2168SOL    HW2 7404   1.211   1.828   2.704
 2169SOL     OW 7405   5.985   1.296   0.920
 2169SOL    HW1 7406   5.955   1.289   1.016
 2169SOL    HW2 7407   5.922   1.246   0.861
 2170SOL     OW 7408   6.889   3.859   5.130
 2170SOL    HW1 7409   6.817   3.910   5.083
 2170SOL    HW2 7410   6.875   3.866   5.229
 2171SOL     OW 7411   0.285   5.796   1.334
 2171SOL    HW1 7412   0.302   5.857   1.257
 2171SOL    HW2 7413   0.230   5.844   1.403
 2172SOL     OW 7414   2.045   1.861   6.623
 2172SOL    HW1 7415   2.055   1.796   6.698
 2172SOL    HW2 7416   2.047   1.812   6.536
 2173SOL     OW 7417   4.395   0.664   5.062
 2173SOL    HW1 7418   4.372   0.568   5.043
 2173SOL    HW2 7419   4.397   0.679   5.161
 2174SOL     OW 7420   6.516   5.724   4.891
 2174SOL    HW1 7421   6.557   5.633   4.900
 2174SOL    HW2 7422   6.567   5.790   4.946
 2175SOL     OW 7423   1.674   3.457   4.060
 2175SOL    HW1 7424   1.658   3.524   4.133
 2175SOL    HW2 7425   1.757   3.405   4.079
 2176SOL     OW 7426   5.633   2.137   0.978
 2176SOL    HW1 7427   5.618   2.070   1.051
 2176SOL    HW2 7428   5.612   2.095   0.890
 2177SOL     OW 7429   0.293   0.542   2.576
 2177SOL    HW1 7430   0.233   0.506   2.647
 2177SOL    HW2 7431   0.369   0.591   2.618
 2178SOL     OW 7432   1.610   1.349   2.112
 2178SOL    HW1 7433   1.664   1.292   2.050
 2178SOL    HW2 7434   1.657   1.356   2.200
 2179SOL     OW 7435   1.546   4.175   5.793
 2179SOL    HW1 7436   1.638   4.211   5.778
 2179SOL    HW2 7437   1.550   4.090   5.845
 2180SOL     OW 7438   1.485   3.430   2.116
 2180SOL    HW1 7439   1.443   3.407   2.204
 2180SOL    HW2 7440   1.459   3.361   2.048
 2181SOL     OW 7441   4.356   5.130   4.220
 2181SOL    HW1 7442   4.416   5.084   4.155
 2181SOL    HW2 7443   4.278   5.169   4.172
 2182SOL     OW 7444   1.706   4.774   3.580
 2182SOL    HW1 7445   1.673   4.681   3.597
 2182SOL    HW2 7446   1.799   4.769   3.544
 2183SOL     OW 7447   2.150   4.260   0.222
 2183SOL    HW1 7448   2.204   4.230   0.144
 2183SOL    HW2 7449   2.166   4.199   0.300
 2184SOL     OW 7450   4.256   0.330   5.953
 2184SOL    HW1 7451   4.303   0.279   6.025
 2184SOL    HW2 7452   4.285   0.297   5.863
 2185SOL     OW 7453   0.810   1.387   0.085
 2185SOL    HW1 7454   0.727   1.412   0.035
 2185SOL    HW2 7455   0.888   1.436   0.046
 2186SOL     OW 7456   6.405   5.180   0.365
 2186SOL    HW1 7457   6.430   5.266   0.320
 2186SOL    HW2 7458   6.364   5.199   0.454
 2187SOL     OW 7459   0.025   5.831   2.079
 2187SOL    HW1 7460   0.015   5.884   2.163
 2187SOL    HW2 7461   0.071   5.744   2.099
 2188SOL     OW 7462   1.039   5.489   5.104
 2188SOL    HW1 7463   1.031   5.502   5.203
 2188SOL    HW2 7464   0.952   5.455   5.067
 2189SOL     OW 7465   1.801   7.006   1.257
 2189SOL    HW1 7466   1.834   0.079   1.253
 2189SOL    HW2 7467   1.752   6.985   1.173
 2190SOL     OW 7468   6.545   3.287   1.877
 2190SOL    HW1 7469   6.605   3.208   1.892
 2190SOL    HW2 7470   6.528   3.333   1.964
 2191SOL     OW 7471   2.444   2.170   5.908
 2191SOL    HW1 7472   2.479   2.117   5.831
 2191SOL    HW2 7473   2.430   2.265   5.880
 2192SOL     OW 7474   5.503   1.195   2.445
 2192SOL    HW1 7475   5.453   1.275   2.412
 2192SOL    HW2 7476   5.438   1.120   2.462
 2193SOL     OW 7477   6.447   0.012   6.868
 2193SOL    HW1 7478   6.368   7.017   6.808
 2193SOL    HW2 7479   6.528   6.991   6.829
 2194SOL     OW 7480   1.855   3.906   6.635
 2194SOL    HW1 7481   1.865   4.000   6.668
 2194SOL    HW2 7482   1.762   3.892   6.601
 2195SOL     OW 7483   6.735   6.516   5.461
 2195SOL    HW1 7484   6.763   6.606   5.493
 2195SOL    HW2 7485   6.695   6.523   5.370
 2196SOL     OW 7486   3.113   0.112   4.965
 2196SOL    HW1 7487   3.114   0.206   4.931
 2196SOL    HW2 7488   3.197   0.066   4.939
 2197SOL     OW 7489   2.333   3.726   6.360
 2197SOL    HW1 7490   2.288   3.734   6.450
 2197SOL    HW2 7491   2.264   3.704   6.291
 2198SOL     OW 7492   5.850   6.974   1.560
 2198SOL    HW1 7493   5.769   6.915   1.562
 2198SOL    HW2 7494   5.824   0.045   1.535
 2199SOL     OW 7495   5.266   6.824   3.697
 2199SOL    HW1 7496   5.346   6.884   3.694
 2199SOL    HW2 7497   5.294   6.731   3.722
 2200SOL     OW 7498   1.856   1.989   4.213
 2200SOL    HW1 7499   1.831   2.054   4.140
 2200SOL    HW2 7500   1.953   1.999   4.233
 2201SOL     OW 7501   6.089   2.905   3.701
 2201SOL    HW1 7502   6.130   2.993   3.676
 2201SOL    HW2 7503   6.050   2.862   3.620
 2202SOL     OW 7504   4.041   5.990   1.880
 2202SOL    HW1 7505   4.052   6.011   1.783
 2202SOL    HW2 7506   4.096   6.054   1.934
 2203SOL     OW 7507   2.283   3.481   1.280
 2203SOL    HW1 7508   2.359   3.469   1.343
 2203SOL    HW2 7509   2.317   3.516   1.193
 2204SOL     OW 7510   4.922   2.216   1.006
 2204SOL    HW1 7511   4.879   2.299   0.971
 2204SOL    HW2 7512   5.021   2.223   0.994
 2205SOL     OW 7513   0.832   6.682   6.455
 2205SOL    HW1 7514   0.795   6.774   6.447
 2205SOL    HW2 7515   0.886   6.675   6.539
 2206SOL     OW 7516   3.328   4.654   5.674
 2206SOL    HW1 7517   3.283   4.734   5.633
 2206SOL    HW2 7518   3.259   4.588   5.704
 2207SOL     OW 7519   3.019   5.147   6.335
 2207SOL    HW1 7520   2.941   5.187   6.384
 2207SOL    HW2 7521   3.010   5.048   6.333
 2208SOL     OW 7522   1.781   5.212   3.441
 2208SOL    HW1 7523   1.849   5.284   3.430
 2208SOL    HW2 7524   1.713   5.219   3.369
 2209SOL     OW 7525   2.154   0.189   5.269
 2209SOL    HW1 7526   2.175   0.130   5.347
 2209SOL    HW2 7527   2.185   0.282   5.289
 2210SOL     OW 7528   0.456   4.444   4.081
 2210SOL    HW1 7529   0.496   4.448   3.989
 2210SOL    HW2 7530   0.515   4.388   4.140
 2211SOL     OW 7531   6.700   0.608   0.340
 2211SOL    HW1 7532   6.800   0.610   0.348
 2211SOL    HW2 7533   6.666   0.699   0.317
 2212SOL     OW 7534   2.415   5.851   0.458
 2212SOL    HW1 7535   2.447   5.929   0.512
 2212SOL    HW2 7536   2.491   5.788   0.444
 2213SOL     OW 7537   3.375   1.854   5.209
 2213SOL    HW1 7538   3.308   1.927   5.218
 2213SOL    HW2 7539   3.376   1.820   5.115
 2214SOL     OW 7540   3.170   3.854   4.766
 2214SOL    HW1 7541   3.242   3.796   4.804
 2214SOL    HW2 7542   3.082   3.809   4.778
 2215SOL     OW 7543   5.599   0.846   0.298
 2215SOL    HW1 7544   5.625   0.819   0.390
 2215SOL    HW2 7545   5.566   0.940   0.299
 2216SOL     OW 7546   1.494   1.132   6.714
 2216SOL    HW1 7547   1.433   1.196   6.761
 2216SOL    HW2 7548   1.554   1.088   6.781
 2217SOL     OW 7549   3.888   6.799   2.199
 2217SOL    HW1 7550   3.938   6.874   2.242
 2217SOL    HW2 7551   3.943   6.760   2.126
 2218SOL     OW 7552   6.867   5.256   6.952
 2218SOL    HW1 7553   6.889   5.329   7.016
 2218SOL    HW2 7554   6.896   5.168   6.991
 2219SOL     OW 7555   6.078   1.541   0.994
 2219SOL    HW1 7556   6.015   1.603   0.946
 2219SOL    HW2 7557   6.056   1.446   0.970
 2220SOL     OW 7558   2.424   5.864   5.254
 2220SOL    HW1 7559   2.513   5.866   5.209
 2220SOL    HW2 7560   2.413   5.946   5.309
 2221SOL     OW 7561   6.158   1.750   5.666
 2221SOL    HW1 7562   6.138   1.665   5.715
 2221SOL    HW2 7563   6.074   1.805   5.658
 2222SOL     OW 7564   5.851   0.494   1.272
 2222SOL    HW1 7565   5.790   0.547   1.331
 2222SOL    HW2 7566   5.796   0.434   1.213
 2223SOL     OW 7567   6.079   1.352   5.898
 2223SOL    HW1 7568   6.078   1.383   5.803
 2223SOL    HW2 7569   6.009   1.282   5.910
 2224SOL     OW 7570   6.486   3.945   0.725
 2224SOL    HW1 7571   6.517   3.851   0.738
 2224SOL    HW2 7572   6.388   3.946   0.706
 2225SOL     OW 7573   6.070   6.622   4.579
 2225SOL    HW1 7574   6.110   6.537   4.613
 2225SOL    HW2 7575   6.140   6.693   4.579
 2226SOL     OW 7576   3.782   5.209   0.860
 2226SOL    HW1 7577   3.838   5.201   0.943
 2226SOL    HW2 7578   3.712   5.137   0.861
 2227SOL     OW 7579   5.892   2.420   0.159
 2227SOL    HW1 7580   5.961   2.466   0.215
 2227SOL    HW2 7581   5.802   2.461   0.175
 2228SOL     OW 7582   4.448   5.201   0.934
 2228SOL    HW1 7583   4.380   5.195   1.007
 2228SOL    HW2 7584   4.465   5.297   0.911
 2229SOL     OW 7585   4.269   3.081   5.339
 2229SOL    HW1 7586   4.235   3.166   5.380
 2229SOL    HW2 7587   4.193   3.027   5.305
 2230SOL     OW 7588   6.197   6.082   0.596
 2230SOL    HW1 7589   6.238   6.030   0.521
 2230SOL    HW2 7590   6.250   6.067   0.679
 2231SOL     OW 7591   0.163   0.962   1.202
 2231SOL    HW1 7592   0.121   1.030   1.262
 2231SOL    HW2 7593   0.256   0.991   1.178
 2232SOL     OW 7594   0.935   1.610   4.474
 2232SOL    HW1 7595   1.007   1.545   4.449
 2232SOL    HW2 7596   0.977   1.694   4.508
 2233SOL     OW 7597   2.333   3.298   0.628
 2233SOL    HW1 7598   2.344   3.396   0.615
 2233SOL    HW2 7599   2.390   3.268   0.704
 2234SOL     OW 7600   4.152   1.562   1.004
 2234SOL    HW1 7601   4.168   1.544   1.101
 2234SOL    HW2 7602   4.153   1.661   0.988
 2235SOL     OW 7603   3.060   0.214   1.706
 2235SOL    HW1 7604   3.136   0.184   1.763
 2235SOL    HW2 7605   3.075   0.309   1.677
 2236SOL     OW 7606   2.058   4.007   5.965
 2236SOL    HW1 7607   2.122   4.008   5.888
 2236SOL    HW2 7608   1.979   3.951   5.942
 2237SOL     OW 7609   5.488   4.193   3.962
 2237SOL    HW1 7610   5.437   4.242   4.033
 2237SOL    HW2 7611   5.586   4.209   3.974
 2238SOL     OW 7612   4.724   5.417   1.550
 2238SOL    HW1 7613   4.650   5.456   1.495
 2238SOL    HW2 7614   4.685   5.366   1.627
 2239SOL     OW 7615   3.673   5.083   3.887
 2239SOL    HW1 7616   3.710   4.996   3.853
 2239SOL    HW2 7617   3.589   5.065   3.939
 2240SOL     OW 7618   3.423   5.318   3.302
 2240SOL    HW1 7619   3.359   5.255   3.259
 2240SOL    HW2 7620   3.513   5.276   3.306
 2241SOL     OW 7621   0.264   5.628   3.130
 2241SOL    HW1 7622   0.256   5.668   3.221
 2241SOL    HW2 7623   0.233   5.694   3.062
 2242SOL     OW 7624   5.366   2.972   2.871
 2242SOL    HW1 7625   5.394   2.884   2.833
 2242SOL    HW2 7626   5.440   3.038   2.859
 2243SOL     OW 7627   1.810   6.302   5.599
 2243SOL    HW1 7628   1.714   6.283   5.578
 2243SOL    HW2 7629   1.827   6.284   5.696
 2244SOL     OW 7630   2.383   6.917   1.360
 2244SOL    HW1 7631   2.461   6.976   1.383
 2244SOL    HW2 7632   2.349   6.873   1.444
 2245SOL     OW 7633   0.759   1.462   1.861
 2245SOL    HW1 7634   0.852   1.435   1.837
 2245SOL    HW2 7635   0.758   1.504   1.952
 2246SOL     OW 7636   1.816   0.824   4.161
 2246SOL    HW1 7637   1.863   0.898   4.207
 2246SOL    HW2 7638   1.731   0.802   4.210
 2247SOL     OW 7639   3.299   2.923   3.286
 2247SOL    HW1 7640   3.213   2.924   3.234
 2247SOL    HW2 7641   3.376   2.934   3.224
 2248SOL     OW 7642   6.340   3.911   5.155
 2248SOL    HW1 7643   6.388   3.826   5.176
 2248SOL    HW2 7644   6.363   3.941   5.062
 2249SOL     OW 7645   6.009   6.750   3.925
 2249SOL    HW1 7646   5.916   6.716   3.942
 2249SOL    HW2 7647   6.031   6.739   3.828
 2250SOL     OW 7648   3.771   3.556   4.736
 2250SOL    HW1 7649   3.853   3.523   4.782
 2250SOL    HW2 7650   3.730   3.630   4.791
 2251SOL     OW 7651   5.100   0.296   6.806
 2251SOL    HW1 7652   5.105   0.298   6.706
 2251SOL    HW2 7653   5.008   0.270   6.834
 2252SOL     OW 7654   4.646   2.265   2.645
 2252SOL    HW1 7655   4.645   2.184   2.586
 2252SOL    HW2 7656   4.736   2.308   2.641
 2253SOL     OW 7657   6.955   3.659   6.877
 2253SOL    HW1 7658   6.903   3.741   6.899
 2253SOL    HW2 7659   7.020   3.679   6.804
 2254SOL     OW 7660   3.235   3.008   4.608
 2254SOL    HW1 7661   3.288   3.035   4.688
 2254SOL    HW2 7662   3.213   2.910   4.613
 2255SOL     OW 7663   4.031   3.402   6.135
 2255SOL    HW1 7664   4.019   3.356   6.223
 2255SOL    HW2 7665   3.989   3.493   6.138
 2256SOL     OW 7666   4.854   6.438   2.293
 2256SOL    HW1 7667   4.767   6.456   2.339
 2256SOL    HW2 7668   4.929   6.465   2.353
 2257SOL     OW 7669   0.003   1.453   4.147
 2257SOL    HW1 7670   6.992   1.359   4.138
 2257SOL    HW2 7671   0.013   1.494   4.057
 2258SOL     OW 7672   1.667   5.241   4.274
 2258SOL    HW1 7673   1.703   5.308   4.339
 2258SOL    HW2 7674   1.661   5.282   4.183
 2259SOL     OW 7675   5.162   3.225   5.666
 2259SOL    HW1 7676   5.120   3.265   5.584
 2259SOL    HW2 7677   5.243   3.172   5.640
 2260SOL     OW 7678   0.513   4.639   1.320
 2260SOL    HW1 7679   0.535   4.546   1.347
 2260SOL    HW2 7680   0.598   4.692   1.312
 2261SOL     OW 7681   5.383   4.974   0.216
 2261SOL    HW1 7682   5.463   4.935   0.170
 2261SOL    HW2 7683   5.340   5.041   0.155
 2262SOL     OW 7684   6.042   0.678   3.781
 2262SOL    HW1 7685   6.001   0.599   3.737
 2262SOL    HW2 7686   5.975   0.753   3.785
 2263SOL     OW 7687   3.398   5.916   0.376
 2263SOL    HW1 7688   3.447   5.844   0.326
 2263SOL    HW2 7689   3.308   5.881   0.402
 2264SOL     OW 7690   2.913   5.329   6.729
 2264SOL    HW1 7691   2.909   5.338   6.828
 2264SOL    HW2 7692   2.822   5.342   6.690
 2265SOL     OW 7693   1.665   0.883   3.912
 2265SOL    HW1 7694   1.677   0.895   4.010
 2265SOL    HW2 7695   1.735   0.820   3.878
 2266SOL     OW 7696   5.435   1.675   0.378
 2266SOL    HW1 7697   5.393   1.641   0.293
 2266SOL    HW2 7698   5.438   1.601   0.445
 2267SOL     OW 7699   4.635   2.676   4.520
 2267SOL    HW1 7700   4.582   2.642   4.598
 2267SOL    HW2 7701   4.718   2.721   4.553
 2268SOL     OW 7702   5.898   4.284   6.639
 2268SOL    HW1 7703   5.881   4.262   6.543
 2268SOL    HW2 7704   5.842   4.363   6.665
 2269SOL     OW 7705   6.750   4.896   5.697
 2269SOL    HW1 7706   6.830   4.891   5.637
 2269SOL    HW2 7707   6.780   4.897   5.793
 2270SOL     OW 7708   3.022   2.598   5.795
 2270SOL    HW1 7709   2.984   2.577   5.705
 2270SOL    HW2 7710   2.953   2.643   5.851
 2271SOL     OW 7711   5.417   4.301   0.381
 2271SOL    HW1 7712   5.409   4.399   0.398
 2271SOL    HW2 7713   5.501   4.283   0.331
 2272SOL     OW 7714   6.264   2.201   6.478
 2272SOL    HW1 7715   6.306   2.134   6.417
 2272SOL    HW2 7716   6.309   2.199   6.567
 2273SOL     OW 7717   1.776   1.442   1.814
 2273SOL    HW1 7718   1.782   1.345   1.839
 2273SOL    HW2 7719   1.866   1.474   1.784
 2274SOL     OW 7720   1.053   2.150   6.014
 2274SOL    HW1 7721   1.106   2.157   6.099
 2274SOL    HW2 7722   0.960   2.120   6.035
 2275SOL     OW 7723   6.450   6.314   4.810
 2275SOL    HW1 7724   6.466   6.246   4.739
 2275SOL    HW2 7725   6.497   6.399   4.787
 2276SOL     OW 7726   2.455   5.627   1.920
 2276SOL    HW1 7727   2.541   5.651   1.876
 2276SOL    HW2 7728   2.432   5.694   1.990
 2277SOL     OW 7729   4.047   3.809   4.114
 2277SOL    HW1 7730   4.078   3.861   4.194
 2277SOL    HW2 7731   4.032   3.872   4.037
 2278SOL     OW 7732   6.053   4.559   4.428
 2278SOL    HW1 7733   6.134   4.613   4.405
 2278SOL    HW2 7734   6.081   4.465   4.450
 2279SOL     OW 7735   5.845   6.766   5.879
 2279SOL    HW1 7736   5.752   6.775   5.914
 2279SOL    HW2 7737   5.848   6.796   5.783
 2280SOL     OW 7738   6.908   0.032   4.609
 2280SOL    HW1 7739   6.884   7.013   4.698
 2280SOL    HW2 7740   6.967   6.991   4.559
 2281SOL     OW 7741   3.247   0.934   2.051
 2281SOL    HW1 7742   3.218   1.020   2.094
 2281SOL    HW2 7743   3.307   0.954   1.974
 2282SOL     OW 7744   5.737   0.134   5.136
 2282SOL    HW1 7745   5.762   0.211   5.194
 2282SOL    HW2 7746   5.741   0.162   5.040
 2283SOL     OW 7747   1.171   5.705   1.583
 2283SOL    HW1 7748   1.203   5.799   1.596
 2283SOL    HW2 7749   1.072   5.702   1.590
 2284SOL     OW 7750   1.793   2.681   7.002
 2284SOL    HW1 7751   1.831   2.768   0.013
 2284SOL    HW2 7752   1.859   2.637   6.942
 2285SOL     OW 7753   1.867   2.722   1.365
 2285SOL    HW1 7754   1.901   2.736   1.272
 2285SOL    HW2 7755   1.844   2.810   1.406
 2286SOL     OW 7756   5.795   0.330   3.515
 2286SOL    HW1 7757   5.829   0.281   3.595
 2286SOL    HW2 7758   5.754   0.265   3.451
 2287SOL     OW 7759   2.451   0.076   3.322
 2287SOL    HW1 7760   2.365   0.028   3.304
 2287SOL    HW2 7761   2.528   0.018   3.295
 2288SOL     OW 7762   5.717   4.817   4.043
 2288SOL    HW1 7763   5.690   4.849   3.953
 2288SOL    HW2 7764   5.655   4.855   4.112
 2289SOL     OW 7765   0.717   4.977   0.704
 2289SOL    HW1 7766   0.691   4.965   0.608
 2289SOL    HW2 7767   0.634   4.988   0.759
 2290SOL     OW 7768   0.802   3.987   0.783
 2290SOL    HW1 7769   0.767   4.079   0.767
 2290SOL    HW2 7770   0.808   3.971   0.882
 2291SOL     OW 7771   2.114   2.416   5.242
 2291SOL    HW1 7772   2.088   2.340   5.301
 2291SOL    HW2 7773   2.048   2.490   5.253
 2292SOL     OW 7774   0.328   2.028   4.505
 2292SOL    HW1 7775   0.269   2.005   4.583
 2292SOL    HW2 7776   0.309   2.122   4.476
 2293SOL     OW 7777   4.979   5.712   1.919
 2293SOL    HW1 7778   4.936   5.634   1.873
 2293SOL    HW2 7779   5.079   5.705   1.909
 2294SOL     OW 7780   3.394   0.427   6.883
 2294SOL    HW1 7781   3.315   0.424   6.822
 2294SOL    HW2 7782   3.369   0.469   6.970
 2295SOL     OW 7783   0.748   2.000   3.217
 2295SOL    HW1 7784   0.733   1.925   3.282
 2295SOL    HW2 7785   0.727   1.968   3.125
 2296SOL     OW 7786   4.801   5.339   0.675
 2296SOL    HW1 7787   4.837   5.295   0.757
 2296SOL    HW2 7788   4.862   5.321   0.598
 2297SOL     OW 7789   4.332   4.256   5.381
 2297SOL    HW1 7790   4.417   4.222   5.341
 2297SOL    HW2 7791   4.280   4.305   5.311
 2298SOL     OW 7792   4.133   3.050   1.272
 2298SOL    HW1 7793   4.144   2.952   1.288
 2298SOL    HW2 7794   4.049   3.082   1.317
 2299SOL     OW 7795   4.589   6.067   5.178
 2299SOL    HW1 7796   4.579   5.990   5.240
 2299SOL    HW2 7797   4.530   6.054   5.098
 2300SOL     OW 7798   2.164   5.525   2.696
 2300SOL    HW1 7799   2.207   5.514   2.786
 2300SOL    HW2 7800   2.228   5.500   2.624
 2301SOL     OW 7801   3.269   3.020   2.911
 2301SOL    HW1 7802   3.262   2.964   2.829
 2301SOL    HW2 7803   3.353   2.997   2.960
 2302SOL     OW 7804   3.671   0.200   0.527
 2302SOL    HW1 7805   3.614   0.133   0.574
 2302SOL    HW2 7806   3.682   0.282   0.585
 2303SOL     OW 7807   2.182   3.020   5.873
 2303SOL    HW1 7808   2.198   2.953   5.945
 2303SOL    HW2 7809   2.087   3.017   5.844
 2304SOL     OW 7810   4.364   6.627   3.678
 2304SOL    HW1 7811   4.375   6.673   3.590
 2304SOL    HW2 7812   4.428   6.667   3.744
 2305SOL     OW 7813   2.758   6.507   2.894
 2305SOL    HW1 7814   2.774   6.413   2.926
 2305SOL    HW2 7815   2.837   6.537   2.841
 2306SOL     OW 7816   2.584   5.217   2.271
 2306SOL    HW1 7817   2.562   5.166   2.355
 2306SOL    HW2 7818   2.501   5.225   2.215
 2307SOL     OW 7819   0.622   4.180   2.723
 2307SOL    HW1 7820   0.534   4.228   2.715
 2307SOL    HW2 7821   0.607   4.090   2.763
 2308SOL     OW 7822   1.436   6.357   0.539
 2308SOL    HW1 7823   1.379   6.431   0.505
 2308SOL    HW2 7824   1.416   6.340   0.635
 2309SOL     OW 7825   1.978   6.811   6.731
 2309SOL    HW1 7826   2.012   6.812   6.637
 2309SOL    HW2 7827   1.885   6.847   6.734
 2310SOL     OW 7828   5.423   6.619   1.113
 2310SOL    HW1 7829   5.433   6.698   1.173
 2310SOL    HW2 7830   5.337   6.573   1.133
 2311SOL     OW 7831   1.919   5.866   2.020
 2311SOL    HW1 7832   1.853   5.825   1.957
 2311SOL    HW2 7833   1.920   5.965   2.008
 2312SOL     OW 7834   3.587   6.620   4.209
 2312SOL    HW1 7835   3.535   6.550   4.159
 2312SOL    HW2 7836   3.673   6.638   4.161
 2313SOL     OW 7837   4.997   5.546   1.495
 2313SOL    HW1 7838   4.937   5.485   1.443
 2313SOL    HW2 7839   4.956   5.566   1.584
 2314SOL     OW 7840   5.303   0.281   5.131
 2314SOL    HW1 7841   5.348   0.320   5.212
 2314SOL    HW2 7842   5.372   0.255   5.064
 2315SOL     OW 7843   4.724   3.226   5.390
 2315SOL    HW1 7844   4.647   3.162   5.388
 2315SOL    HW2 7845   4.771   3.225   5.302
 2316SOL     OW 7846   2.855   0.690   4.393
 2316SOL    HW1 7847   2.856   0.683   4.294
 2316SOL    HW2 7848   2.781   0.632   4.429
 2317SOL     OW 7849   7.010   6.119   3.487
 2317SOL    HW1 7850   0.017   6.214   3.473
 2317SOL    HW2 7851   0.005   6.066   3.405
 2318SOL     OW 7852   2.245   2.822   4.456
 2318SOL    HW1 7853   2.302   2.759   4.510
 2318SOL    HW2 7854   2.150   2.811   4.484
 2319SOL     OW 7855   2.481   5.442   4.274
 2319SOL    HW1 7856   2.562   5.472   4.325
 2319SOL    HW2 7857   2.504   5.360   4.221
 2320SOL     OW 7858   1.018   3.051   4.941
 2320SOL    HW1 7859   1.032   3.091   4.851
 2320SOL    HW2 7860   1.104   3.055   4.993
 2321SOL     OW 7861   2.469   6.315   6.881
 2321SOL    HW1 7862   2.552   6.285   6.834
 2321SOL    HW2 7863   2.402   6.242   6.879
 2322SOL     OW 7864   1.594   3.413   3.262
 2322SOL    HW1 7865   1.645   3.412   3.176
 2322SOL    HW2 7866   1.535   3.494   3.265
 2323SOL     OW 7867   3.448   5.228   1.709
 2323SOL    HW1 7868   3.514   5.200   1.778
 2323SOL    HW2 7869   3.494   5.233   1.620
 2324SOL     OW 7870   6.749   5.717   0.692
 2324SOL    HW1 7871   6.755   5.634   0.748
 2324SOL    HW2 7872   6.659   5.722   0.649
 2325SOL     OW 7873   1.011   4.866   1.500
 2325SOL    HW1 7874   1.040   4.822   1.415
 2325SOL    HW2 7875   0.913   4.881   1.498
 2326SOL     OW 7876   3.772   5.412   6.411
 2326SOL    HW1 7877   3.860   5.453   6.433
 2326SOL    HW2 7878   3.721   5.395   6.495
 2327SOL     OW 7879   6.607   1.577   3.986
 2327SOL    HW1 7880   6.701   1.602   4.009
 2327SOL    HW2 7881   6.602   1.479   3.967
 2328SOL     OW 7882   1.823   1.823   3.069
 2328SOL    HW1 7883   1.754   1.814   2.998
 2328SOL    HW2 7884   1.856   1.732   3.096
 2329SOL     OW 7885   1.437   4.402   4.471
 2329SOL    HW1 7886   1.379   4.483   4.473
 2329SOL    HW2 7887   1.531   4.427   4.494
 2330SOL     OW 7888   0.930   3.927   1.326
 2330SOL    HW1 7889   0.994   3.882   1.264
 2330SOL    HW2 7890   0.972   3.937   1.417
 2331SOL     OW 7891   4.224   5.644   6.608
 2331SOL    HW1 7892   4.193   5.718   6.548
 2331SOL    HW2 7893   4.312   5.609   6.575
 2332SOL     OW 7894   5.362   1.498   5.491
 2332SOL    HW1 7895   5.320   1.578   5.533
 2332SOL    HW2 7896   5.395   1.436   5.563
 2333SOL     OW 7897   0.169   4.577   3.308
 2333SOL    HW1 7898   0.103   4.650   3.290
 2333SOL    HW2 7899   0.259   4.604   3.274
 2334SOL     OW 7900   2.259   0.648   0.133
 2334SOL    HW1 7901   2.226   0.739   0.108
 2334SOL    HW2 7902   2.355   0.655   0.162
 2335SOL     OW 7903   6.036   1.213   3.283
 2335SOL    HW1 7904   6.021   1.160   3.366
 2335SOL    HW2 7905   6.126   1.255   3.286
 2336SOL     OW 7906   4.494   2.523   4.988
 2336SOL    HW1 7907   4.402   2.486   4.983
 2336SOL    HW2 7908   4.501   2.586   5.065
 2337SOL     OW 7909   4.822   1.151   1.951
 2337SOL    HW1 7910   4.882   1.079   1.985
 2337SOL    HW2 7911   4.727   1.127   1.969
 2338SOL     OW 7912   1.212   2.469   5.963
 2338SOL    HW1 7913   1.244   2.375   5.945
 2338SOL    HW2 7914   1.130   2.465   6.019
 2339SOL     OW 7915   3.181   3.604   4.462
 2339SOL    HW1 7916   3.101   3.590   4.520
 2339SOL    HW2 7917   3.264   3.601   4.517
 2340SOL     OW 7918   5.874   4.330   0.466
 2340SOL    HW1 7919   5.899   4.235   0.446
 2340SOL    HW2 7920   5.879   4.384   0.382
 2341SOL     OW 7921   4.066   4.618   1.739
 2341SOL    HW1 7922   4.091   4.526   1.708
 2341SOL    HW2 7923   4.148   4.666   1.771
 2342SOL     OW 7924   0.548   0.321   5.126
 2342SOL    HW1 7925   0.605   0.286   5.051
 2342SOL    HW2 7926   0.502   0.405   5.096
 2343SOL     OW 7927   2.138   5.630   3.282
 2343SOL    HW1 7928   2.098   5.539   3.295
 2343SOL    HW2 7929   2.136   5.679   3.369
 2344SOL     OW 7930   1.941   6.267   7.001
 2344SOL    HW1 7931   1.947   6.363   6.972
 2344SOL    HW2 7932   2.006   6.251   0.054
 2345SOL     OW 7933   3.527   5.764   4.746
 2345SOL    HW1 7934   3.503   5.733   4.654
 2345SOL    HW2 7935   3.522   5.686   4.809
 2346SOL     OW 7936   3.998   2.947   5.575
 2346SOL    HW1 7937   4.000   2.900   5.487
 2346SOL    HW2 7938   3.962   2.885   5.645
 2347SOL     OW 7939   2.906   2.821   1.431
 2347SOL    HW1 7940   2.867   2.811   1.522
 2347SOL    HW2 7941   2.837   2.795   1.362
 2348SOL     OW 7942   2.729   0.327   3.511
 2348SOL    HW1 7943   2.680   0.249   3.550
 2348SOL    HW2 7944   2.699   0.340   3.416
 2349SOL     OW 7945   0.627   4.291   6.657
 2349SOL    HW1 7946   0.659   4.304   6.563
 2349SOL    HW2 7947   0.690   4.336   6.720
 2350SOL     OW 7948   4.374   6.706   6.354
 2350SOL    HW1 7949   4.300   6.725   6.290
 2350SOL    HW2 7950   4.359   6.617   6.398
 2351SOL     OW 7951   2.788   5.306   3.694
 2351SOL    HW1 7952   2.802   5.301   3.793
 2351SOL    HW2 7953   2.825   5.224   3.651
 2352SOL     OW 7954   0.928   5.310   2.359
 2352SOL    HW1 7955   0.994   5.363   2.306
 2352SOL    HW2 7956   0.910   5.357   2.446
 2353SOL     OW 7957   2.669   4.518   6.181
 2353SOL    HW1 7958   2.728   4.599   6.183
 2353SOL    HW2 7959   2.643   4.498   6.087
 2354SOL     OW 7960   3.282   1.327   5.540
 2354SOL    HW1 7961   3.281   1.235   5.580
 2354SOL    HW2 7962   3.261   1.321   5.442
 2355SOL     OW 7963   2.448   5.468   0.380
 2355SOL    HW1 7964   2.509   5.392   0.357
 2355SOL    HW2 7965   2.495   5.530   0.443
 2356SOL     OW 7966   1.506   3.923   6.888
 2356SOL    HW1 7967   1.451   3.955   6.965
 2356SOL    HW2 7968   1.591   3.883   6.922
 2357SOL     OW 7969   4.619   6.803   2.890
 2357SOL    HW1 7970   4.593   6.887   2.841
 2357SOL    HW2 7971   4.634   6.730   2.824
 2358SOL     OW 7972   4.228   5.096   5.347
 2358SOL    HW1 7973   4.190   5.004   5.347
 2358SOL    HW2 7974   4.190   5.148   5.270
 2359SOL     OW 7975   5.901   0.828   6.042
 2359SOL    HW1 7976   5.827   0.815   5.976
 2359SOL    HW2 7977   5.913   0.745   6.096
 2360SOL     OW 7978   5.573   4.622   0.225
 2360SOL    HW1 7979   5.525   4.584   0.305
 2360SOL    HW2 7980   5.671   4.620   0.242
 2361SOL     OW 7981   2.233   0.702   4.886
 2361SOL    HW1 7982   2.281   0.758   4.819
 2361SOL    HW2 7983   2.146   0.670   4.848
 2362SOL     OW 7984   2.182   6.988   4.853
 2362SOL    HW1 7985   2.172   0.006   4.762
 2362SOL    HW2 7986   2.143   0.028   4.921
 2363SOL     OW 7987   4.527   2.396   5.369
 2363SOL    HW1 7988   4.551   2.311   5.322
 2363SOL    HW2 7989   4.517   2.378   5.467
 2364SOL     OW 7990   1.024   1.618   2.443
 2364SOL    HW1 7991   0.936   1.661   2.426
 2364SOL    HW2 7992   1.023   1.575   2.534
 2365SOL     OW 7993   6.792   2.781   6.462
 2365SOL    HW1 7994   6.719   2.792   6.529
 2365SOL    HW2 7995   6.780   2.848   6.389
 2366SOL     OW 7996   1.386   5.417   6.418
 2366SOL    HW1 7997   1.398   5.454   6.511
 2366SOL    HW2 7998   1.392   5.317   6.422
 2367SOL     OW 7999   2.849   4.674   0.565
 2367SOL    HW1 8000   2.936   4.637   0.530
 2367SOL    HW2 8001   2.783   4.599   0.575
 2368SOL     OW 8002   4.439   0.186   3.308
 2368SOL    HW1 8003   4.379   0.216   3.382
 2368SOL    HW2 8004   4.389   0.126   3.246
 2369SOL     OW 8005   0.834   2.547   6.077
 2369SOL    HW1 8006   0.894   2.473   6.108
 2369SOL    HW2 8007   0.860   2.574   5.984
 2370SOL     OW 8008   5.315   3.390   0.277
 2370SOL    HW1 8009   5.337   3.402   0.374
 2370SOL    HW2 8010   5.236   3.329   0.269
 2371SOL     OW 8011   0.709   0.139   2.141
 2371SOL    HW1 8012   0.677   0.166   2.050
 2371SOL    HW2 8013   0.699   0.216   2.204
 2372SOL     OW 8014   6.814   2.338   2.309
 2372SOL    HW1 8015   6.745   2.395   2.354
 2372SOL    HW2 8016   6.769   2.271   2.250
 2373SOL     OW 8017   0.478   1.362   0.466
 2373SOL    HW1 8018   0.552   1.405   0.414
 2373SOL    HW2 8019   0.469   1.408   0.555
 2374SOL     OW 8020   6.000   1.387   3.962
 2374SOL    HW1 8021   5.947   1.409   4.044
 2374SOL    HW2 8022   6.074   1.454   3.951
 2375SOL     OW 8023   2.756   6.864   4.695
 2375SOL    HW1 8024   2.764   6.930   4.620
 2375SOL    HW2 8025   2.744   6.913   4.782
 2376SOL     OW 8026   6.408   2.689   4.042
 2376SOL    HW1 8027   6.418   2.700   3.943
 2376SOL    HW2 8028   6.348   2.610   4.061
 2377SOL     OW 8029   3.465   4.091   3.104
 2377SOL    HW1 8030   3.540   4.104   3.170
 2377SOL    HW2 8031   3.499   4.106   3.012
 2378SOL     OW 8032   5.239   2.409   0.108
 2378SOL    HW1 8033   5.147   2.386   0.078
 2378SOL    HW2 8034   5.245   2.508   0.124
 2379SOL     OW 8035   5.661   2.302   6.806
 2379SOL    HW1 8036   5.647   2.204   6.791
 2379SOL    HW2 8037   5.600   2.333   6.879
 2380SOL     OW 8038   0.820   0.249   5.654
 2380SOL    HW1 8039   0.858   0.161   5.681
 2380SOL    HW2 8040   0.893   0.310   5.622
 2381SOL     OW 8041   2.051   3.993   4.508
 2381SOL    HW1 8042   2.093   3.990   4.599
 2381SOL    HW2 8043   1.952   3.998   4.518
 2382SOL     OW 8044   2.239   4.396   3.628
 2382SOL    HW1 8045   2.258   4.346   3.544
 2382SOL    HW2 8046   2.217   4.332   3.702
 2383SOL     OW 8047   5.831   6.583   1.212
 2383SOL    HW1 8048   5.783   6.577   1.299
 2383SOL    HW2 8049   5.930   6.589   1.229
 2384SOL     OW 8050   6.541   6.718   2.661
 2384SOL    HW1 8051   6.519   6.620   2.664
 2384SOL    HW2 8052   6.623   6.735   2.716
 2385SOL     OW 8053   0.764   6.350   0.836
 2385SOL    HW1 8054   0.796   6.369   0.743
 2385SOL    HW2 8055   0.666   6.367   0.841
 2386SOL     OW 8056   5.219   4.965   4.097
 2386SOL    HW1 8057   5.282   5.034   4.132
 2386SOL    HW2 8058   5.255   4.927   4.011
 2387SOL     OW 8059   1.292   1.493   3.672
 2387SOL    HW1 8060   1.383   1.458   3.692
 2387SOL    HW2 8061   1.252   1.533   3.755
 2388SOL     OW 8062   1.472   2.378   3.436
 2388SOL    HW1 8063   1.545   2.340   3.494
 2388SOL    HW2 8064   1.418   2.303   3.397
 2389SOL     OW 8065   4.869   3.632   2.707
 2389SOL    HW1 8066   4.859   3.634   2.806
 2389SOL    HW2 8067   4.885   3.725   2.673
 2390SOL     OW 8068   4.044   3.836   3.197
 2390SOL    HW1 8069   4.066   3.738   3.192
 2390SOL    HW2 8070   3.951   3.848   3.233
 2391SOL     OW 8071   4.733   4.545   5.801
 2391SOL    HW1 8072   4.709   4.610   5.873
 2391SOL    HW2 8073   4.764   4.460   5.842
 2392SOL     OW 8074   3.525   6.605   5.590
 2392SOL    HW1 8075   3.555   6.514   5.559
 2392SOL    HW2 8076   3.519   6.666   5.511
 2393SOL     OW 8077   5.043   3.847   6.184
 2393SOL    HW1 8078   5.005   3.916   6.122
 2393SOL    HW2 8079   5.038   3.757   6.140
 2394SOL     OW 8080   1.911   3.302   4.055
 2394SOL    HW1 8081   1.926   3.204   4.052
 2394SOL    HW2 8082   1.977   3.344   4.118
 2395SOL     OW 8083   6.296   2.686   0.051
 2395SOL    HW1 8084   6.347   2.627   0.114
 2395SOL    HW2 8085   6.284   2.640   6.985
 2396SOL     OW 8086   4.378   4.937   0.983
 2396SOL    HW1 8087   4.414   5.029   0.967
 2396SOL    HW2 8088   4.434   4.870   0.933
 2397SOL     OW 8089   0.402   3.997   0.029
 2397SOL    HW1 8090   0.349   3.987   0.113
 2397SOL    HW2 8091   0.341   3.984   6.972
 2398SOL     OW 8092   2.907   3.797   6.608
 2398SOL    HW1 8093   2.989   3.751   6.642
 2398SOL    HW2 8094   2.854   3.734   6.551
 2399SOL     OW 8095   4.136   1.474   2.423
 2399SOL    HW1 8096   4.191   1.534   2.482
 2399SOL    HW2 8097   4.098   1.400   2.478
 2400SOL     OW 8098   2.908   4.793   6.949
 2400SOL    HW1 8099   2.948   4.885   6.954
 2400SOL    HW2 8100   2.957   4.739   6.880
 2401SOL     OW 8101   3.660   6.625   5.973
 2401SOL    HW1 8102   3.632   6.633   6.069
 2401SOL    HW2 8103   3.760   6.634   5.967
 2402SOL     OW 8104   0.359   0.717   3.851
 2402SOL    HW1 8105   0.359   0.695   3.753
 2402SOL    HW2 8106   0.407   0.803   3.865
 2403SOL     OW 8107   1.899   2.874   0.815
 2403SOL    HW1 8108   1.971   2.844   0.752
 2403SOL    HW2 8109   1.810   2.843   0.782
 2404SOL     OW 8110   5.053   0.983   0.959
 2404SOL    HW1 8111   5.002   0.908   1.000
 2404SOL    HW2 8112   4.989   1.049   0.919
 2405SOL     OW 8113   3.901   3.421   2.778
 2405SOL    HW1 8114   3.931   3.489   2.845
 2405SOL    HW2 8115   3.822   3.456   2.728
 2406SOL     OW 8116   2.818   6.261   3.119
 2406SOL    HW1 8117   2.895   6.321   3.098
 2406SOL    HW2 8118   2.847   6.192   3.186
 2407SOL     OW 8119   5.239   2.168   2.519
 2407SOL    HW1 8120   5.167   2.226   2.480
 2407SOL    HW2 8121   5.277   2.212   2.600
 2408SOL     OW 8122   4.408   4.945   3.588
 2408SOL    HW1 8123   4.368   4.958   3.679
 2408SOL    HW2 8124   4.344   4.896   3.530
 2409SOL     OW 8125   1.020   3.748   2.081
 2409SOL    HW1 8126   1.060   3.775   2.169
 2409SOL    HW2 8127   1.093   3.715   2.020
 2410SOL     OW 8128   5.130   2.500   5.845
 2410SOL    HW1 8129   5.047   2.444   5.840
 2410SOL    HW2 8130   5.109   2.592   5.811
 2411SOL     OW 8131   4.436   5.103   5.526
 2411SOL    HW1 8132   4.490   5.187   5.518
 2411SOL    HW2 8133   4.346   5.117   5.484
 2412SOL     OW 8134   4.286   4.574   1.247
 2412SOL    HW1 8135   4.348   4.568   1.169
 2412SOL    HW2 8136   4.282   4.669   1.279
 2413SOL     OW 8137   6.509   2.604   0.837
 2413SOL    HW1 8138   6.495   2.703   0.841
 2413SOL    HW2 8139   6.426   2.557   0.867
 2414SOL     OW 8140   4.681   4.211   2.258
 2414SOL    HW1 8141   4.664   4.310   2.255
 2414SOL    HW2 8142   4.666   4.171   2.168
 2415SOL     OW 8143   6.786   6.772   1.588
 2415SOL    HW1 8144   6.877   6.806   1.567
 2415SOL    HW2 8145   6.791   6.707   1.665
 2416SOL     OW 8146   4.225   2.248   5.351
 2416SOL    HW1 8147   4.129   2.224   5.337
 2416SOL    HW2 8148   4.264   2.190   5.422
 2417SOL     OW 8149   3.977   3.682   6.238
 2417SOL    HW1 8150   3.894   3.649   6.282
 2417SOL    HW2 8151   3.965   3.778   6.212
 2418SOL     OW 8152   3.112   4.008   3.762
 2418SOL    HW1 8153   3.207   4.005   3.792
 2418SOL    HW2 8154   3.052   4.023   3.840
 2419SOL     OW 8155   0.722   6.225   4.682
 2419SOL    HW1 8156   0.820   6.227   4.698
 2419SOL    HW2 8157   0.676   6.184   4.761
 2420SOL     OW 8158   3.059   1.235   1.865
 2420SOL    HW1 8159   3.144   1.265   1.909
 2420SOL    HW2 8160   3.001   1.314   1.846
 2421SOL     OW 8161   2.659   1.526   4.829
 2421SOL    HW1 8162   2.669   1.428   4.812
 2421SOL    HW2 8163   2.687   1.577   4.748
 2422SOL     OW 8164   5.980   0.686   1.616
 2422SOL    HW1 8165   6.011   0.667   1.523
 2422SOL    HW2 8166   5.886   0.653   1.627
 2423SOL     OW 8167   0.959   6.056   3.356
 2423SOL    HW1 8168   1.018   5.992   3.306
 2423SOL    HW2 8169   0.874   6.011   3.380
 2424SOL     OW 8170   6.092   6.550   6.524
 2424SOL    HW1 8171   6.178   6.514   6.561
 2424SOL    HW2 8172   6.073   6.506   6.436
 2425SOL     OW 8173   6.307   0.088   4.064
 2425SOL    HW1 8174   6.334   0.002   4.106
 2425SOL    HW2 8175   6.240   0.071   3.991
 2426SOL     OW 8176   1.155   5.358   4.415
 2426SOL    HW1 8177   1.230   5.324   4.359
 2426SOL    HW2 8178   1.180   5.353   4.512
 2427SOL     OW 8179   5.762   5.175   5.587
 2427SOL    HW1 8180   5.676   5.186   5.637
 2427SOL    HW2 8181   5.835   5.222   5.636
 2428SOL     OW 8182   6.066   0.034   3.595
 2428SOL    HW1 8183   6.094   0.080   3.512
 2428SOL    HW2 8184   5.990   0.083   3.637
 2429SOL     OW 8185   5.445   5.193   3.550
 2429SOL    HW1 8186   5.469   5.289   3.561
 2429SOL    HW2 8187   5.522   5.144   3.509
 2430SOL     OW 8188   6.449   1.903   1.175
 2430SOL    HW1 8189   6.417   1.828   1.117
 2430SOL    HW2 8190   6.449   1.988   1.122
 2431SOL     OW 8191   4.448   0.763   2.791
 2431SOL    HW1 8192   4.427   0.690   2.857
 2431SOL    HW2 8193   4.500   0.725   2.715
 2432SOL     OW 8194   3.329   6.576   2.913
 2432SOL    HW1 8195   3.331   6.539   3.006
 2432SOL    HW2 8196   3.290   6.668   2.915
 2433SOL     OW 8197   3.493   0.803   1.455
 2433SOL    HW1 8198   3.424   0.732   1.465
 2433SOL    HW2 8199   3.536   0.794   1.365
 2434SOL     OW 8200   4.566   0.428   4.918
 2434SOL    HW1 8201   4.500   0.493   4.879
 2434SOL    HW2 8202   4.648   0.426   4.862
 2435SOL     OW 8203   4.413   4.996   6.508
 2435SOL    HW1 8204   4.412   4.952   6.597
 2435SOL    HW2 8205   4.320   5.019   6.480
 2436SOL     OW 8206   1.691   5.903   1.712
 2436SOL    HW1 8207   1.681   5.948   1.801
 2436SOL    HW2 8208   1.603   5.905   1.664
 2437SOL     OW 8209   5.010   5.873   6.981
 2437SOL    HW1 8210   4.986   5.867   0.056
 2437SOL    HW2 8211   5.082   5.941   6.968
 2438SOL     OW 8212   3.673   1.156   6.145
 2438SOL    HW1 8213   3.729   1.157   6.228
 2438SOL    HW2 8214   3.696   1.076   6.090
 2439SOL     OW 8215   0.886   4.527   6.469
 2439SOL    HW1 8216   0.855   4.616   6.434
 2439SOL    HW2 8217   0.852   4.514   6.562
 2440SOL     OW 8218   5.000   5.723   5.603
 2440SOL    HW1 8219   5.086   5.742   5.652
 2440SOL    HW2 8220   4.928   5.702   5.669
 2441SOL     OW 8221   0.680   0.498   0.020
 2441SOL    HW1 8222   0.728   0.428   6.990
 2441SOL    HW2 8223   0.587   0.510   7.005
 2442SOL     OW 8224   6.876   4.598   5.003
 2442SOL    HW1 8225   6.786   4.565   4.975
 2442SOL    HW2 8226   6.897   4.683   4.953
 2443SOL     OW 8227   4.312   5.805   5.582
 2443SOL    HW1 8228   4.336   5.899   5.609
 2443SOL    HW2 8229   4.250   5.807   5.504
 2444SOL     OW 8230   2.812   4.140   6.176
 2444SOL    HW1 8231   2.844   4.074   6.244
 2444SOL    HW2 8232   2.771   4.219   6.223
 2445SOL     OW 8233   0.333   0.428   2.146
 2445SOL    HW1 8234   0.314   0.330   2.151
 2445SOL    HW2 8235   0.315   0.461   2.053
 2446SOL     OW 8236   0.218   4.933   3.869
 2446SOL    HW1 8237   0.239   4.947   3.966
 2446SOL    HW2 8238   0.143   4.993   3.843
 2447SOL     OW 8239   2.179   2.327   1.016
 2447SOL    HW1 8240   2.126   2.334   1.100
 2447SOL    HW2 8241   2.274   2.353   1.034
 2448SOL     OW 8242   0.600   0.491   4.648
 2448SOL    HW1 8243   0.663   0.417   4.624
 2448SOL    HW2 8244   0.520   0.452   4.695
 2449SOL     OW 8245   0.331   5.377   1.044
 2449SOL    HW1 8246   0.320   5.286   1.084
 2449SOL    HW2 8247   0.424   5.387   1.009
 2450SOL     OW 8248   2.518   4.972   3.120
 2450SOL    HW1 8249   2.470   4.956   3.034
 2450SOL    HW2 8250   2.491   4.903   3.187
 2451SOL     OW 8251   0.661   0.231   3.290
 2451SOL    HW1 8252   0.665   0.328   3.264
 2451SOL    HW2 8253   0.642   0.224   3.388
 2452SOL     OW 8254   1.498   3.266   2.774
 2452SOL    HW1 8255   1.501   3.363   2.753
 2452SOL    HW2 8256   1.513   3.213   2.691
 2453SOL     OW 8257   5.925   3.946   1.021
 2453SOL    HW1 8258   5.920   3.872   1.089
 2453SOL    HW2 8259   6.014   3.944   0.976
 2454SOL     OW 8260   3.036   1.190   0.791
 2454SOL    HW1 8261   3.054   1.216   0.696
 2454SOL    HW2 8262   2.943   1.153   0.798
 2455SOL     OW 8263   5.478   6.114   0.405
 2455SOL    HW1 8264   5.549   6.081   0.343
 2455SOL    HW2 8265   5.489   6.072   0.495
 2456SOL     OW 8266   5.796   6.654   0.956
 2456SOL    HW1 8267   5.791   6.623   1.051
 2456SOL    HW2 8268   5.769   6.750   0.951
 2457SOL     OW 8269   6.542   6.452   0.277
 2457SOL    HW1 8270   6.593   6.423   0.358
 2457SOL    HW2 8271   6.591   6.525   0.230
 2458SOL     OW 8272   2.984   5.972   3.627
 2458SOL    HW1 8273   3.044   6.023   3.567
 2458SOL    HW2 8274   2.941   5.897   3.576
 2459SOL     OW 8275   2.478   6.868   0.437
 2459SOL    HW1 8276   2.387   6.844   0.473
 2459SOL    HW2 8277   2.468   6.938   0.367
 2460SOL     OW 8278   1.768   0.916   0.879
 2460SOL    HW1 8279   1.860   0.898   0.845
 2460SOL    HW2 8280   1.733   0.834   0.926
 2461SOL     OW 8281   4.849   0.732   2.934
 2461SOL    HW1 8282   4.868   0.799   2.863
 2461SOL    HW2 8283   4.870   0.771   3.023
 2462SOL     OW 8284   2.468   5.608   0.002
 2462SOL    HW1 8285   2.486   5.628   6.927
 2462SOL    HW2 8286   2.455   5.694   0.051
 2463SOL     OW 8287   5.968   2.557   3.975
 2463SOL    HW1 8288   5.909   2.521   3.903
 2463SOL    HW2 8289   6.006   2.645   3.945
 2464SOL     OW 8290   0.986   5.128   1.607
 2464SOL    HW1 8291   1.013   5.148   1.701
 2464SOL    HW2 8292   1.008   5.032   1.586
 2465SOL     OW 8293   0.057   5.506   1.492
 2465SOL    HW1 8294   0.105   5.584   1.531
 2465SOL    HW2 8295   0.117   5.459   1.428
 2466SOL     OW 8296   3.384   0.561   1.941
 2466SOL    HW1 8297   3.447   0.633   1.971
 2466SOL    HW2 8298   3.328   0.597   1.866
 2467SOL     OW 8299   5.682   0.763   5.877
 2467SOL    HW1 8300   5.610   0.697   5.854
 2467SOL    HW2 8301   5.641   0.841   5.924
 2468SOL     OW 8302   6.624   6.377   1.893
 2468SOL    HW1 8303   6.536   6.363   1.938
 2468SOL    HW2 8304   6.620   6.341   1.800
 2469SOL     OW 8305   3.793   4.232   5.590
 2469SOL    HW1 8306   3.880   4.199   5.553
 2469SOL    HW2 8307   3.736   4.267   5.516
 2470SOL     OW 8308   2.544   3.912   6.268
 2470SOL    HW1 8309   2.483   3.834   6.261
 2470SOL    HW2 8310   2.531   3.972   6.188
 2471SOL     OW 8311   1.893   6.930   0.848
 2471SOL    HW1 8312   1.841   6.943   0.932
 2471SOL    HW2 8313   1.929   7.018   0.816
 2472SOL     OW 8314   5.288   1.190   4.634
 2472SOL    HW1 8315   5.271   1.102   4.590
 2472SOL    HW2 8316   5.226   1.259   4.596
 2473SOL     OW 8317   2.220   4.195   4.926
 2473SOL    HW1 8318   2.241   4.291   4.945
 2473SOL    HW2 8319   2.261   4.137   4.996
 2474SOL     OW 8320   6.931   5.013   0.041
 2474SOL    HW1 8321   6.952   5.081   0.112
 2474SOL    HW2 8322   6.931   4.922   0.081
 2475SOL     OW 8323   4.198   2.272   0.702
 2475SOL    HW1 8324   4.297   2.281   0.707
 2475SOL    HW2 8325   4.169   2.187   0.746
 2476SOL     OW 8326   0.313   2.564   3.194
 2476SOL    HW1 8327   0.286   2.468   3.208
 2476SOL    HW2 8328   0.394   2.584   3.248
 2477SOL     OW 8329   6.142   0.046   2.046
 2477SOL    HW1 8330   6.109   0.129   2.001
 2477SOL    HW2 8331   6.139   0.059   2.145
 2478SOL     OW 8332   5.081   6.866   2.882
 2478SOL    HW1 8333   5.155   6.883   2.948
 2478SOL    HW2 8334   4.998   6.840   2.931
 2479SOL     OW 8335   0.600   3.346   1.336
 2479SOL    HW1 8336   0.590   3.270   1.400
 2479SOL    HW2 8337   0.697   3.365   1.321
 2480SOL     OW 8338   6.855   2.707   1.059
 2480SOL    HW1 8339   6.871   2.768   1.136
 2480SOL    HW2 8340   6.763   2.669   1.064
 2481SOL     OW 8341   3.543   6.068   0.568
 2481SOL    HW1 8342   3.636   6.054   0.536
 2481SOL    HW2 8343   3.481   6.005   0.519
 2482SOL     OW 8344   4.674   3.271   6.129
 2482SOL    HW1 8345   4.750   3.207   6.115
 2482SOL    HW2 8346   4.667   3.332   6.050
 2483SOL     OW 8347   2.162   1.395   0.674
 2483SOL    HW1 8348   2.133   1.489   0.695
 2483SOL    HW2 8349   2.261   1.390   0.676
 2484SOL     OW 8350   2.030   0.877   0.840
 2484SOL    HW1 8351   2.072   0.861   0.929
 2484SOL    HW2 8352   2.073   0.819   0.771
 2485SOL     OW 8353   5.044   5.244   2.600
 2485SOL    HW1 8354   5.091   5.261   2.514
 2485SOL    HW2 8355   5.070   5.153   2.635
 2486SOL     OW 8356   2.008   5.746   3.094
 2486SOL    HW1 8357   2.042   5.681   3.162
 2486SOL    HW2 8358   2.084   5.796   3.054
 2487SOL     OW 8359   4.041   6.183   0.223
 2487SOL    HW1 8360   4.122   6.231   0.188
 2487SOL    HW2 8361   3.990   6.143   0.146
 2488SOL     OW 8362   2.708   4.221   1.591
 2488SOL    HW1 8363   2.796   4.181   1.617
 2488SOL    HW2 8364   2.718   4.320   1.584
 2489SOL     OW 8365   2.575   5.253   4.101
 2489SOL    HW1 8366   2.536   5.241   4.010
 2489SOL    HW2 8367   2.626   5.171   4.127
 2490SOL     OW 8368   6.426   4.906   0.891
 2490SOL    HW1 8369   6.464   4.893   0.982
 2490SOL    HW2 8370   6.333   4.870   0.888
 2491SOL     OW 8371   3.114   5.844   2.754
 2491SOL    HW1 8372   3.197   5.799   2.786
 2491SOL    HW2 8373   3.035   5.787   2.776
 2492SOL     OW 8374   3.871   2.960   6.410
 2492SOL    HW1 8375   3.796   3.021   6.433
 2492SOL    HW2 8376   3.844   2.866   6.428
 2493SOL     OW 8377   6.195   0.024   2.789
 2493SOL    HW1 8378   6.290   0.041   2.816
 2493SOL    HW2 8379   6.149   6.994   2.862
 2494SOL     OW 8380   5.063   3.003   2.816
 2494SOL    HW1 8381   5.058   2.910   2.854
 2494SOL    HW2 8382   5.147   3.013   2.763
 2495SOL     OW 8383   5.103   1.316   5.186
 2495SOL    HW1 8384   5.063   1.363   5.108
 2495SOL    HW2 8385   5.157   1.380   5.240
 2496SOL     OW 8386   1.238   5.142   0.145
 2496SOL    HW1 8387   1.321   5.154   0.199
 2496SOL    HW2 8388   1.165   5.105   0.203
 2497SOL     OW 8389   0.303   1.554   0.283
 2497SOL    HW1 8390   0.399   1.578   0.270
 2497SOL    HW2 8391   0.295   1.480   0.349
 2498SOL     OW 8392   2.196   3.108   3.701
 2498SOL    HW1 8393   2.211   3.068   3.611
 2498SOL    HW2 8394   2.218   3.040   3.771
 2499SOL     OW 8395   5.440   0.467   4.508
 2499SOL    HW1 8396   5.497   0.456   4.426
 2499SOL    HW2 8397   5.437   0.563   4.534
 2500SOL     OW 8398   4.638   3.738   6.199
 2500SOL    HW1 8399   4.615   3.687   6.282
 2500SOL    HW2 8400   4.725   3.703   6.162
 2501SOL     OW 8401   6.019   4.211   6.865
 2501SOL    HW1 8402   6.119   4.209   6.866
 2501SOL    HW2 8403   5.986   4.214   6.771
 2502SOL     OW 8404   2.656   6.947   3.760
 2502SOL    HW1 8405   2.605   7.015   3.708
 2502SOL    HW2 8406   2.595   6.871   3.784
 2503SOL     OW 8407   3.964   5.835   5.951
 2503SOL    HW1 8408   3.869   5.865   5.946
 2503SOL    HW2 8409   3.985   5.806   6.045
 2504SOL     OW 8410   2.252   4.913   4.926
 2504SOL    HW1 8411   2.312   4.946   4.999
 2504SOL    HW2 8412   2.210   4.827   4.954
 2505SOL     OW 8413   3.780   5.889   4.703
 2505SOL    HW1 8414   3.697   5.851   4.744
 2505SOL    HW2 8415   3.765   5.985   4.681
 2506SOL     OW 8416   6.471   3.210   5.905
 2506SOL    HW1 8417   6.534   3.244   5.835
 2506SOL    HW2 8418   6.395   3.161   5.861
 2507SOL     OW 8419   5.812   5.064   0.482
 2507SOL    HW1 8420   5.814   5.133   0.554
 2507SOL    HW2 8421   5.748   4.991   0.508
 2508SOL     OW 8422   2.878   2.049   1.690
 2508SOL    HW1 8423   2.962   2.036   1.638
 2508SOL    HW2 8424   2.800   2.052   1.627
 2509SOL     OW 8425   5.864   1.964   2.362
 2509SOL    HW1 8426   5.933   1.907   2.317
 2509SOL    HW2 8427   5.894   2.059   2.363
 2510SOL     OW 8428   2.830   4.383   0.315
 2510SOL    HW1 8429   2.883   4.450   0.367
 2510SOL    HW2 8430   2.739   4.375   0.354
 2511SOL     OW 8431   1.450   1.364   4.666
 2511SOL    HW1 8432   1.523   1.320   4.615
 2511SOL    HW2 8433   1.364   1.355   4.616
 2512SOL     OW 8434   5.320   4.287   4.158
 2512SOL    HW1 8435   5.280   4.220   4.221
 2512SOL    HW2 8436   5.310   4.379   4.195
 2513SOL     OW 8437   0.804   2.470   6.515
 2513SOL    HW1 8438   0.870   2.545   6.511
 2513SOL    HW2 8439   0.759   2.471   6.604
 2514SOL     OW 8440   0.384   1.826   4.337
 2514SOL    HW1 8441   0.362   1.888   4.412
 2514SOL    HW2 8442   0.471   1.853   4.296
 2515SOL     OW 8443   1.069   6.519   0.840
 2515SOL    HW1 8444   1.011   6.533   0.920
 2515SOL    HW2 8445   1.022   6.552   0.758
 2516SOL     OW 8446   6.077   5.459   2.946
 2516SOL    HW1 8447   6.011   5.525   2.982
 2516SOL    HW2 8448   6.056   5.368   2.981
 2517SOL     OW 8449   2.169   4.310   6.294
 2517SOL    HW1 8450   2.185   4.342   6.200
 2517SOL    HW2 8451   2.208   4.219   6.305
 2518SOL     OW 8452   2.067   2.707   6.894
 2518SOL    HW1 8453   2.092   2.640   6.824
 2518SOL    HW2 8454   2.109   2.795   6.872
 2519SOL     OW 8455   4.557   5.481   4.248
 2519SOL    HW1 8456   4.595   5.573   4.248
 2519SOL    HW2 8457   4.612   5.422   4.188
 2520SOL     OW 8458   1.537   3.546   0.883
 2520SOL    HW1 8459   1.546   3.602   0.965
 2520SOL    HW2 8460   1.620   3.492   0.870
 2521SOL     OW 8461   0.933   6.794   5.504
 2521SOL    HW1 8462   0.857   6.780   5.441
 2521SOL    HW2 8463   1.017   6.757   5.464
 2522SOL     OW 8464   1.638   3.188   4.333
 2522SOL    HW1 8465   1.552   3.144   4.358
 2522SOL    HW2 8466   1.680   3.138   4.256
 2523SOL     OW 8467   6.637   3.316   0.965
 2523SOL    HW1 8468   6.657   3.385   0.895
 2523SOL    HW2 8469   6.721   3.269   0.991
 2524SOL     OW 8470   0.344   6.036   4.276
 2524SOL    HW1 8471   0.404   6.096   4.327
 2524SOL    HW2 8472   0.333   6.070   4.182
 2525SOL     OW 8473   0.591   4.207   4.190
 2525SOL    HW1 8474   0.676   4.238   4.233
 2525SOL    HW2 8475   0.599   4.111   4.166
 2526SOL     OW 8476   0.622   2.813   5.096
 2526SOL    HW1 8477   0.618   2.890   5.160
 2526SOL    HW2 8478   0.575   2.838   5.012
 2527SOL     OW 8479   5.892   6.647   5.398
 2527SOL    HW1 8480   5.818   6.700   5.440
 2527SOL    HW2 8481   5.891   6.554   5.435
 2528SOL     OW 8482   5.589   4.890   0.653
 2528SOL    HW1 8483   5.526   4.967   0.654
 2528SOL    HW2 8484   5.538   4.804   0.662
 2529SOL     OW 8485   5.016   5.117   5.672
 2529SOL    HW1 8486   5.006   5.193   5.736
 2529SOL    HW2 8487   5.025   5.032   5.723
 2530SOL     OW 8488   0.919   6.124   3.753
 2530SOL    HW1 8489   0.979   6.176   3.693
 2530SOL    HW2 8490   0.934   6.026   3.739
 2531SOL     OW 8491   5.399   6.765   5.282
 2531SOL    HW1 8492   5.393   6.665   5.275
 2531SOL    HW2 8493   5.477   6.797   5.229
 2532SOL     OW 8494   0.765   5.748   0.879
 2532SOL    HW1 8495   0.707   5.807   0.934
 2532SOL    HW2 8496   0.785   5.793   0.792
 2533SOL     OW 8497   5.389   6.543   4.893
 2533SOL    HW1 8498   5.433   6.485   4.961
 2533SOL    HW2 8499   5.442   6.540   4.808
 2534SOL     OW 8500   2.857   0.282   3.123
 2534SOL    HW1 8501   2.899   0.221   3.190
 2534SOL    HW2 8502   2.868   0.242   3.031
 2535SOL     OW 8503   1.715   2.132   5.086
 2535SOL    HW1 8504   1.802   2.159   5.044
 2535SOL    HW2 8505   1.639   2.163   5.028
 2536SOL     OW 8506   6.640   1.313   4.022
 2536SOL    HW1 8507   6.589   1.227   4.018
 2536SOL    HW2 8508   6.652   1.341   4.117
 2537SOL     OW 8509   4.931   6.854   0.668
 2537SOL    HW1 8510   4.973   6.797   0.597
 2537SOL    HW2 8511   4.862   6.801   0.717
 2538SOL     OW 8512   1.707   4.638   5.020
 2538SOL    HW1 8513   1.725   4.565   5.086
 2538SOL    HW2 8514   1.720   4.603   4.927
 2539SOL     OW 8515   4.389   0.044   5.192
 2539SOL    HW1 8516   4.441   6.984   5.167
 2539SOL    HW2 8517   4.391   0.055   5.291
 2540SOL     OW 8518   5.641   0.680   1.396
 2540SOL    HW1 8519   5.601   0.589   1.409
 2540SOL    HW2 8520   5.627   0.734   1.479
 2541SOL     OW 8521   1.780   0.339   5.284
 2541SOL    HW1 8522   1.874   0.321   5.257
 2541SOL    HW2 8523   1.718   0.310   5.210
 2542SOL     OW 8524   4.467   2.008   4.559
 2542SOL    HW1 8525   4.447   2.104   4.538
 2542SOL    HW2 8526   4.520   2.003   4.643
 2543SOL     OW 8527   1.021   0.378   3.195
 2543SOL    HW1 8528   0.994   0.298   3.141
 2543SOL    HW2 8529   1.098   0.354   3.254
 2544SOL     OW 8530   0.298   4.712   1.475
 2544SOL    HW1 8531   0.300   4.798   1.526
 2544SOL    HW2 8532   0.384   4.700   1.426
 2545SOL     OW 8533   1.922   2.016   1.130
 2545SOL    HW1 8534   1.935   2.031   1.032
 2545SOL    HW2 8535   1.842   2.067   1.161
 2546SOL     OW 8536   6.470   3.594   1.716
 2546SOL    HW1 8537   6.381   3.569   1.754
 2546SOL    HW2 8538   6.507   3.516   1.663
 2547SOL     OW 8539   5.362   5.291   0.900
 2547SOL    HW1 8540   5.382   5.240   0.983
 2547SOL    HW2 8541   5.425   5.369   0.893
 2548SOL     OW 8542   2.000   6.920   4.574
 2548SOL    HW1 8543   1.916   6.972   4.587
 2548SOL    HW2 8544   1.984   6.846   4.508
 2549SOL     OW 8545   1.834   2.782   1.953
 2549SOL    HW1 8546   1.930   2.807   1.953
 2549SOL    HW2 8547   1.795   2.800   2.043
 2550SOL     OW 8548   5.495   6.975   7.003
 2550SOL    HW1 8549   5.439   6.992   6.921
 2550SOL    HW2 8550   5.588   6.950   6.975
 2551SOL     OW 8551   3.541   4.452   0.115
 2551SOL    HW1 8552   3.525   4.519   0.043
 2551SOL    HW2 8553   3.454   4.432   0.162
 2552SOL     OW 8554   2.305   5.285   6.407
 2552SOL    HW1 8555   2.334   5.190   6.397
 2552SOL    HW2 8556   2.216   5.298   6.364
 2553SOL     OW 8557   3.787   2.197   6.279
 2553SOL    HW1 8558   3.828   2.197   6.188
 2553SOL    HW2 8559   3.760   2.290   6.303
 2554SOL     OW 8560   2.138   5.720   7.009
 2554SOL    HW1 8561   2.210   5.678   0.042
 2554SOL    HW2 8562   2.077   5.773   0.047
 2555SOL     OW 8563   6.550   6.267   6.316
 2555SOL    HW1 8564   6.527   6.213   6.397
 2555SOL    HW2 8565   6.595   6.209   6.248
 2556SOL     OW 8566   4.058   0.386   0.822
 2556SOL    HW1 8567   3.974   0.430   0.790
 2556SOL    HW2 8568   4.037   0.326   0.900
 2557SOL     OW 8569   3.085   0.930   6.953
 2557SOL    HW1 8570   3.070   0.861   6.881
 2557SOL    HW2 8571   3.183   0.936   6.971
 2558SOL     OW 8572   5.542   4.309   6.116
 2558SOL    HW1 8573   5.575   4.215   6.111
 2558SOL    HW2 8574   5.499   4.325   6.205
 2559SOL     OW 8575   6.712   3.414   3.554
 2559SOL    HW1 8576   6.772   3.354   3.501
 2559SOL    HW2 8577   6.748   3.422   3.647
 2560SOL     OW 8578   5.107   3.511   3.553
 2560SOL    HW1 8579   5.074   3.417   3.562
 2560SOL    HW2 8580   5.035   3.574   3.585
 2561SOL     OW 8581   3.883   1.009   3.644
 2561SOL    HW1 8582   3.830   0.985   3.726
 2561SOL    HW2 8583   3.975   1.035   3.671
 2562SOL     OW 8584   3.239   6.485   3.227
 2562SOL    HW1 8585   3.166   6.479   3.296
 2562SOL    HW2 8586   3.306   6.554   3.255
 2563SOL     OW 8587   3.275   1.653   6.722
 2563SOL    HW1 8588   3.302   1.713   6.798
 2563SOL    HW2 8589   3.252   1.708   6.642
 2564SOL     OW 8590   2.014   0.163   0.373
 2564SOL    HW1 8591   1.914   0.168   0.379
 2564SOL    HW2 8592   2.047   0.226   0.303
 2565SOL     OW 8593   0.643   1.539   6.606
 2565SOL    HW1 8594   0.609   1.459   6.657
 2565SOL    HW2 8595   0.735   1.520   6.572
 2566SOL     OW 8596   2.630   6.604   1.215
 2566SOL    HW1 8597   2.686   6.536   1.167
 2566SOL    HW2 8598   2.533   6.589   1.193
 2567SOL     OW 8599   1.444   1.554   0.522
 2567SOL    HW1 8600   1.395   1.558   0.435
 2567SOL    HW2 8601   1.392   1.602   0.593
 2568SOL     OW 8602   2.809   6.836   0.913
 2568SOL    HW1 8603   2.895   6.887   0.908
 2568SOL    HW2 8604   2.746   6.869   0.843
 2569SOL     OW 8605   3.053   1.505   1.330
 2569SOL    HW1 8606   2.986   1.462   1.269
 2569SOL    HW2 8607   3.105   1.435   1.377
 2570SOL     OW 8608   5.714   5.837   6.035
 2570SOL    HW1 8609   5.793   5.827   6.095
 2570SOL    HW2 8610   5.659   5.915   6.065
 2571SOL     OW 8611   3.614   2.963   4.747
 2571SOL    HW1 8612   3.527   2.999   4.780
 2571SOL    HW2 8613   3.602   2.926   4.655
 2572SOL     OW 8614   3.205   5.753   1.467
 2572SOL    HW1 8615   3.227   5.829   1.529
 2572SOL    HW2 8616   3.282   5.689   1.465
 2573SOL     OW 8617   6.260   2.315   3.860
 2573SOL    HW1 8618   6.245   2.411   3.838
 2573SOL    HW2 8619   6.301   2.269   3.781
 2574SOL     OW 8620   6.389   3.186   0.920
 2574SOL    HW1 8621   6.478   3.227   0.940
 2574SOL    HW2 8622   6.316   3.249   0.949
 2575SOL     OW 8623   5.179   3.722   1.061
 2575SOL    HW1 8624   5.122   3.682   1.132
 2575SOL    HW2 8625   5.179   3.662   0.981
 2576SOL     OW 8626   3.069   6.858   3.216
 2576SOL    HW1 8627   3.161   6.874   3.179
 2576SOL    HW2 8628   3.022   6.789   3.160
 2577SOL     OW 8629   4.105   0.450   4.043
 2577SOL    HW1 8630   4.010   0.461   4.017
 2577SOL    HW2 8631   4.117   0.472   4.139
 2578SOL     OW 8632   5.032   2.903   5.141
 2578SOL    HW1 8633   4.952   2.942   5.096
 2578SOL    HW2 8634   5.113   2.960   5.122
 2579SOL     OW 8635   1.059   1.712   5.541
 2579SOL    HW1 8636   1.071   1.752   5.451
 2579SOL    HW2 8637   1.005   1.628   5.534
 2580SOL     OW 8638   1.618   2.607   5.481
 2580SOL    HW1 8639   1.545   2.539   5.483
 2580SOL    HW2 8640   1.701   2.568   5.521
 2581SOL     OW 8641   5.546   5.046   1.920
 2581SOL    HW1 8642   5.622   4.988   1.949
 2581SOL    HW2 8643   5.517   5.019   1.828
 2582SOL     OW 8644   2.238   5.198   3.077
 2582SOL    HW1 8645   2.334   5.223   3.064
 2582SOL    HW2 8646   2.196   5.262   3.142
 2583SOL     OW 8647   1.131   0.838   1.343
 2583SOL    HW1 8648   1.074   0.778   1.288
 2583SOL    HW2 8649   1.127   0.931   1.307
 2584SOL     OW 8650   3.730   6.596   1.148
 2584SOL    HW1 8651   3.819   6.598   1.104
 2584SOL    HW2 8652   3.660   6.567   1.081
 2585SOL     OW 8653   3.258   0.348   0.978
 2585SOL    HW1 8654   3.226   0.430   1.025
 2585SOL    HW2 8655   3.296   0.284   1.044
 2586SOL     OW 8656   5.668   1.517   5.108
 2586SOL    HW1 8657   5.577   1.511   5.066
 2586SOL    HW2 8658   5.659   1.537   5.205
 2587SOL     OW 8659   6.710   0.064   4.416
 2587SOL    HW1 8660   6.795   0.054   4.466
 2587SOL    HW2 8661   6.724   0.126   4.338
 2588SOL     OW 8662   5.488   0.045   1.048
 2588SOL    HW1 8663   5.440   7.005   0.985
 2588SOL    HW2 8664   5.485   0.138   1.012
 2589SOL     OW 8665   0.109   0.013   5.531
 2589SOL    HW1 8666   0.147   6.945   5.548
 2589SOL    HW2 8667   0.011   0.005   5.510
 2590SOL     OW 8668   4.044   6.954   2.412
 2590SOL    HW1 8669   4.049   0.030   2.389
 2590SOL    HW2 8670   4.049   6.943   2.511
 2591SOL     OW 8671   5.447   6.042   0.873
 2591SOL    HW1 8672   5.529   6.097   0.885
 2591SOL    HW2 8673   5.459   5.979   0.796
 2592SOL     OW 8674   3.001   6.096   1.622
 2592SOL    HW1 8675   2.921   6.062   1.573
 2592SOL    HW2 8676   3.082   6.044   1.596
 2593SOL     OW 8677   4.300   6.885   2.668
 2593SOL    HW1 8678   4.307   6.812   2.736
 2593SOL    HW2 8679   4.206   6.920   2.665
 2594SOL     OW 8680   0.488   6.874   5.986
 2594SOL    HW1 8681   0.396   6.835   5.986
 2594SOL    HW2 8682   0.482   6.972   5.967
 2595SOL     OW 8683   0.579   1.993   5.215
 2595SOL    HW1 8684   0.485   1.966   5.194
 2595SOL    HW2 8685   0.591   2.090   5.194
 2596SOL     OW 8686   3.633   2.437   1.712
 2596SOL    HW1 8687   3.646   2.361   1.776
 2596SOL    HW2 8688   3.606   2.519   1.762
 2597SOL     OW 8689   1.743   3.947   1.001
 2597SOL    HW1 8690   1.736   4.001   1.085
 2597SOL    HW2 8691   1.833   3.903   0.997
 2598SOL     OW 8692   6.280   2.771   4.448
 2598SOL    HW1 8693   6.335   2.691   4.427
 2598SOL    HW2 8694   6.187   2.758   4.414
 2599SOL     OW 8695   3.736   5.728   6.632
 2599SOL    HW1 8696   3.828   5.697   6.656
 2599SOL    HW2 8697   3.726   5.731   6.533
 2600SOL     OW 8698   4.843   3.657   4.116
 2600SOL    HW1 8699   4.853   3.571   4.167
 2600SOL    HW2 8700   4.768   3.710   4.155
 2601SOL     OW 8701   3.151   2.421   6.708
 2601SOL    HW1 8702   3.195   2.401   6.621
 2601SOL    HW2 8703   3.121   2.516   6.710
 2602SOL     OW 8704   0.144   4.686   3.950
 2602SOL    HW1 8705   0.179   4.602   3.909
 2602SOL    HW2 8706   0.198   4.764   3.917
 2603SOL     OW 8707   2.770   2.525   1.547
 2603SOL    HW1 8708   2.721   2.528   1.460
 2603SOL    HW2 8709   2.713   2.479   1.615
 2604SOL     OW 8710   5.250   0.807   0.834
 2604SOL    HW1 8711   5.176   0.863   0.871
 2604SOL    HW2 8712   5.242   0.801   0.735
 2605SOL     OW 8713   4.583   5.257   2.942
 2605SOL    HW1 8714   4.632   5.295   3.020
 2605SOL    HW2 8715   4.542   5.169   2.968
 2606SOL     OW 8716   6.927   4.718   0.110
 2606SOL    HW1 8717   6.978   4.739   0.192
 2606SOL    HW2 8718   6.847   4.662   0.133
 2607SOL     OW 8719   0.476   1.623   4.819
 2607SOL    HW1 8720   0.549   1.677   4.779
 2607SOL    HW2 8721   0.480   1.530   4.784
 2608SOL     OW 8722   5.053   6.594   2.758
 2608SOL    HW1 8723   5.105   6.669   2.798
 2608SOL    HW2 8724   4.985   6.562   2.825
 2609SOL     OW 8725   0.767   2.227   2.091
 2609SOL    HW1 8726   0.840   2.211   2.024
 2609SOL    HW2 8727   0.733   2.321   2.082
 2610SOL     OW 8728   6.828   5.076   4.915
 2610SOL    HW1 8729   6.873   5.124   4.840
 2610SOL    HW2 8730   6.731   5.102   4.919
 2611SOL     OW 8731   5.943   6.566   1.487
 2611SOL    HW1 8732   5.849   6.599   1.473
 2611SOL    HW2 8733   6.007   6.642   1.476
 2612SOL     OW 8734   6.001   5.979   4.853
 2612SOL    HW1 8735   6.071   6.039   4.890
 2612SOL    HW2 8736   6.036   5.886   4.845
 2613SOL     OW 8737   2.887   6.003   2.424
 2613SOL    HW1 8738   2.978   6.040   2.441
 2613SOL    HW2 8739   2.818   6.071   2.453
 2614SOL     OW 8740   6.370   6.171   5.952
 2614SOL    HW1 8741   6.328   6.090   5.911
 2614SOL    HW2 8742   6.370   6.246   5.887
 2615SOL     OW 8743   5.607   5.493   3.271
 2615SOL    HW1 8744   5.689   5.440   3.295
 2615SOL    HW2 8745   5.606   5.507   3.172
 2616SOL     OW 8746   4.103   3.519   4.072
 2616SOL    HW1 8747   4.128   3.481   4.161
 2616SOL    HW2 8748   4.095   3.618   4.078
 2617SOL     OW 8749   3.021   5.705   0.935
 2617SOL    HW1 8750   3.102   5.650   0.953
 2617SOL    HW2 8751   2.984   5.740   1.021
 2618SOL     OW 8752   0.213   6.397   3.716
 2618SOL    HW1 8753   0.308   6.415   3.739
 2618SOL    HW2 8754   0.204   6.386   3.617
 2619SOL     OW 8755   3.966   1.746   2.303
 2619SOL    HW1 8756   3.874   1.754   2.341
 2619SOL    HW2 8757   3.983   1.651   2.277
 2620SOL     OW 8758   1.560   5.734   3.664
 2620SOL    HW1 8759   1.476   5.761   3.711
 2620SOL    HW2 8760   1.579   5.638   3.684
 2621SOL     OW 8761   1.761   5.830   3.482
 2621SOL    HW1 8762   1.697   5.808   3.556
 2621SOL    HW2 8763   1.849   5.855   3.521
 2622SOL     OW 8764   1.879   2.859   6.282
 2622SOL    HW1 8765   1.950   2.930   6.278
 2622SOL    HW2 8766   1.885   2.801   6.201
 2623SOL     OW 8767   4.030   1.200   4.915
 2623SOL    HW1 8768   4.008   1.106   4.892
 2623SOL    HW2 8769   4.033   1.210   5.015
 2624SOL     OW 8770   6.542   3.046   3.337
 2624SOL    HW1 8771   6.585   3.042   3.428
 2624SOL    HW2 8772   6.505   2.956   3.314
 2625SOL     OW 8773   1.303   3.184   5.436
 2625SOL    HW1 8774   1.329   3.109   5.376
 2625SOL    HW2 8775   1.359   3.182   5.519
 2626SOL     OW 8776   0.399   6.001   3.562
 2626SOL    HW1 8777   0.379   6.064   3.637
 2626SOL    HW2 8778   0.370   5.908   3.587
 2627SOL     OW 8779   0.627   0.756   4.639
 2627SOL    HW1 8780   0.683   0.776   4.719
 2627SOL    HW2 8781   0.629   0.657   4.621
 2628SOL     OW 8782   3.693   5.453   6.686
 2628SOL    HW1 8783   3.775   5.475   6.739
 2628SOL    HW2 8784   3.631   5.531   6.685
 2629SOL     OW 8785   3.750   3.858   1.681
 2629SOL    HW1 8786   3.806   3.782   1.713
 2629SOL    HW2 8787   3.695   3.828   1.603
 2630SOL     OW 8788   3.610   2.097   2.516
 2630SOL    HW1 8789   3.651   2.131   2.432
 2630SOL    HW2 8790   3.666   2.124   2.594
 2631SOL     OW 8791   4.404   6.814   3.447
 2631SOL    HW1 8792   4.501   6.833   3.465
 2631SOL    HW2 8793   4.361   6.896   3.410
 2632SOL     OW 8794   3.209   2.127   5.513
 2632SOL    HW1 8795   3.207   2.208   5.573
 2632SOL    HW2 8796   3.224   2.156   5.419
 2633SOL     OW 8797   6.438   2.207   6.188
 2633SOL    HW1 8798   6.415   2.113   6.211
 2633SOL    HW2 8799   6.369   2.243   6.124
 2634SOL     OW 8800   1.838   4.236   3.119
 2634SOL    HW1 8801   1.742   4.263   3.129
 2634SOL    HW2 8802   1.896   4.318   3.118
 2635SOL     OW 8803   5.161   5.870   3.806
 2635SOL    HW1 8804   5.191   5.842   3.715
 2635SOL    HW2 8805   5.137   5.788   3.859
 2636SOL     OW 8806   5.220   0.414   6.573
 2636SOL    HW1 8807   5.304   0.388   6.620
 2636SOL    HW2 8808   5.219   0.376   6.481
 2637SOL     OW 8809   6.250   0.924   3.638
 2637SOL    HW1 8810   6.217   0.830   3.634
 2637SOL    HW2 8811   6.217   0.967   3.722
 2638SOL     OW 8812   6.290   6.848   2.626
 2638SOL    HW1 8813   6.264   6.924   2.685
 2638SOL    HW2 8814   6.351   6.786   2.676
 2639SOL     OW 8815   0.034   6.784   2.141
 2639SOL    HW1 8816   0.022   6.687   2.161
 2639SOL    HW2 8817   6.972   6.821   2.101
 2640SOL     OW 8818   6.927   6.456   5.884
 2640SOL    HW1 8819   6.949   6.506   5.968
 2640SOL    HW2 8820   6.864   6.511   5.828
 2641SOL     OW 8821   6.178   3.143   1.406
 2641SOL    HW1 8822   6.238   3.216   1.438
 2641SOL    HW2 8823   6.190   3.132   1.307
 2642SOL     OW 8824   5.246   0.238   4.537
 2642SOL    HW1 8825   5.304   0.315   4.512
 2642SOL    HW2 8826   5.296   0.153   4.523
 2643SOL     OW 8827   0.794   4.986   3.113
 2643SOL    HW1 8828   0.810   4.897   3.154
 2643SOL    HW2 8829   0.872   5.046   3.131
 2644SOL     OW 8830   0.300   4.408   5.415
 2644SOL    HW1 8831   0.307   4.354   5.499
 2644SOL    HW2 8832   0.390   4.444   5.391
 2645SOL     OW 8833   4.498   6.356   5.147
 2645SOL    HW1 8834   4.432   6.380   5.218
 2645SOL    HW2 8835   4.523   6.260   5.156
 2646SOL     OW 8836   6.480   6.836   6.455
 2646SOL    HW1 8837   6.554   6.810   6.517
 2646SOL    HW2 8838   6.456   6.758   6.397
 2647SOL     OW 8839   5.572   0.681   1.111
 2647SOL    HW1 8840   5.530   0.771   1.107
 2647SOL    HW2 8841   5.599   0.660   1.205
 2648SOL     OW 8842   6.356   6.417   3.705
 2648SOL    HW1 8843   6.387   6.437   3.798
 2648SOL    HW2 8844   6.416   6.347   3.665
 2649SOL     OW 8845   4.194   1.925   5.969
 2649SOL    HW1 8846   4.219   1.979   5.889
 2649SOL    HW2 8847   4.270   1.865   5.994
 2650SOL     OW 8848   0.930   4.228   4.135
 2650SOL    HW1 8849   1.007   4.193   4.083
 2650SOL    HW2 8850   0.961   4.259   4.225
 2651SOL     OW 8851   1.460   1.697   0.807
 2651SOL    HW1 8852   1.460   1.739   0.898
 2651SOL    HW2 8853   1.541   1.640   0.796
 2652SOL     OW 8854   2.911   3.624   3.475
 2652SOL    HW1 8855   2.955   3.537   3.495
 2652SOL    HW2 8856   2.910   3.681   3.558
 2653SOL     OW 8857   4.870   6.881   4.995
 2653SOL    HW1 8858   4.900   6.940   4.920
 2653SOL    HW2 8859   4.949   6.857   5.053
 2654SOL     OW 8860   4.841   3.008   0.460
 2654SOL    HW1 8861   4.890   2.946   0.399
 2654SOL    HW2 8862   4.881   3.100   0.453
 2655SOL     OW 8863   4.630   4.703   4.458
 2655SOL    HW1 8864   4.606   4.623   4.402
 2655SOL    HW2 8865   4.695   4.760   4.408
 2656SOL     OW 8866   4.382   4.654   4.187
 2656SOL    HW1 8867   4.313   4.726   4.189
 2656SOL    HW2 8868   4.366   4.591   4.263
 2657SOL     OW 8869   2.633   4.315   6.356
 2657SOL    HW1 8870   2.617   4.383   6.285
 2657SOL    HW2 8871   2.694   4.352   6.425
 2658SOL     OW 8872   5.835   4.654   6.895
 2658SOL    HW1 8873   5.909   4.679   6.957
 2658SOL    HW2 8874   5.770   4.730   6.888
 2659SOL     OW 8875   6.377   2.516   4.412
 2659SOL    HW1 8876   6.347   2.456   4.338
 2659SOL    HW2 8877   6.476   2.519   4.415
 2660SOL     OW 8878   0.979   1.878   0.977
 2660SOL    HW1 8879   0.943   1.969   0.957
 2660SOL    HW2 8880   0.952   1.815   0.904
 2661SOL     OW 8881   1.930   6.529   1.917
 2661SOL    HW1 8882   1.889   6.594   1.981
 2661SOL    HW2 8883   2.030   6.536   1.923
 2662SOL     OW 8884   4.327   0.091   4.714
 2662SOL    HW1 8885   4.363   0.090   4.808
 2662SOL    HW2 8886   4.377   0.025   4.658
 2663SOL     OW 8887   2.286   5.181   1.162
 2663SOL    HW1 8888   2.351   5.230   1.105
 2663SOL    HW2 8889   2.280   5.225   1.252
 2664SOL     OW 8890   3.618   3.714   3.251
 2664SOL    HW1 8891   3.644   3.619   3.233
 2664SOL    HW2 8892   3.529   3.732   3.209
 2665SOL     OW 8893   3.588   1.989   5.316
 2665SOL    HW1 8894   3.626   2.056   5.252
 2665SOL    HW2 8895   3.542   1.917   5.265
 2666SOL     OW 8896   4.795   3.419   1.281
 2666SOL    HW1 8897   4.774   3.333   1.327
 2666SOL    HW2 8898   4.720   3.444   1.220
 2667SOL     OW 8899   1.250   5.879   4.825
 2667SOL    HW1 8900   1.241   5.827   4.740
 2667SOL    HW2 8901   1.209   5.827   4.900
 2668SOL     OW 8902   6.646   3.702   3.537
 2668SOL    HW1 8903   6.559   3.725   3.492
 2668SOL    HW2 8904   6.656   3.603   3.539
 2669SOL     OW 8905   2.900   4.822   5.553
 2669SOL    HW1 8906   2.944   4.778   5.474
 2669SOL    HW2 8907   2.954   4.803   5.635
 2670SOL     OW 8908   6.301   1.047   6.525
 2670SOL    HW1 8909   6.259   0.974   6.580
 2670SOL    HW2 8910   6.293   1.134   6.574
 2671SOL     OW 8911   2.845   4.419   6.973
 2671SOL    HW1 8912   2.814   4.410   0.046
 2671SOL    HW2 8913   2.772   4.461   6.919
 2672SOL     OW 8914   0.837   5.637   6.960
 2672SOL    HW1 8915   0.886   5.592   0.012
 2672SOL    HW2 8916   0.899   5.652   6.883
 2673SOL     OW 8917   5.285   2.517   3.650
 2673SOL    HW1 8918   5.263   2.577   3.727
 2673SOL    HW2 8919   5.228   2.435   3.655
 2674SOL     OW 8920   2.388   4.364   4.130
 2674SOL    HW1 8921   2.335   4.420   4.067
 2674SOL    HW2 8922   2.432   4.422   4.198
 2675SOL     OW 8923   0.984   4.315   5.285
 2675SOL    HW1 8924   0.951   4.333   5.193
 2675SOL    HW2 8925   1.011   4.401   5.328
 2676SOL     OW 8926   4.334   1.201   2.844
 2676SOL    HW1 8927   4.377   1.141   2.912
 2676SOL    HW2 8928   4.403   1.235   2.781
 2677SOL     OW 8929   3.555   5.235   1.466
 2677SOL    HW1 8930   3.516   5.168   1.403
 2677SOL    HW2 8931   3.630   5.283   1.420
 2678SOL     OW 8932   0.253   4.686   0.514
 2678SOL    HW1 8933   0.219   4.640   0.596
 2678SOL    HW2 8934   0.182   4.748   0.480
 2679SOL     OW 8935   4.457   5.573   1.103
 2679SOL    HW1 8936   4.368   5.617   1.117
 2679SOL    HW2 8937   4.468   5.549   1.007
 2680SOL     OW 8938   1.747   1.149   1.033
 2680SOL    HW1 8939   1.762   1.066   0.980
 2680SOL    HW2 8940   1.669   1.200   0.996
 2681SOL     OW 8941   1.332   2.937   4.164
 2681SOL    HW1 8942   1.353   2.844   4.133
 2681SOL    HW2 8943   1.413   2.976   4.209
 2682SOL     OW 8944   5.546   3.037   2.636
 2682SOL    HW1 8945   5.474   2.986   2.589
 2682SOL    HW2 8946   5.525   3.134   2.634
 2683SOL     OW 8947   1.448   3.984   1.239
 2683SOL    HW1 8948   1.426   3.900   1.289
 2683SOL    HW2 8949   1.375   4.003   1.173
 2684SOL     OW 8950   3.943   5.460   2.285
 2684SOL    HW1 8951   4.036   5.496   2.285
 2684SOL    HW2 8952   3.942   5.369   2.328
 2685SOL     OW 8953   6.617   6.537   5.217
 2685SOL    HW1 8954   6.559   6.472   5.167
 2685SOL    HW2 8955   6.581   6.630   5.204
 2686SOL     OW 8956   1.806   2.211   4.399
 2686SOL    HW1 8957   1.824   2.149   4.323
 2686SOL    HW2 8958   1.792   2.304   4.364
 2687SOL     OW 8959   4.402   4.812   2.418
 2687SOL    HW1 8960   4.492   4.813   2.374
 2687SOL    HW2 8961   4.337   4.761   2.361
 2688SOL     OW 8962   4.334   6.047   6.364
 2688SOL    HW1 8963   4.257   6.110   6.367
 2688SOL    HW2 8964   4.379   6.054   6.275
 2689SOL     OW 8965   2.265   1.872   3.606
 2689SOL    HW1 8966   2.350   1.891   3.655
 2689SOL    HW2 8967   2.187   1.896   3.664
 2690SOL     OW 8968   3.226   3.380   3.601
 2690SOL    HW1 8969   3.280   3.464   3.598
 2690SOL    HW2 8970   3.287   3.301   3.599
 2691SOL     OW 8971   1.806   5.277   2.458
 2691SOL    HW1 8972   1.857   5.360   2.483
 2691SOL    HW2 8973   1.713   5.302   2.432
 2692SOL     OW 8974   5.587   6.076   4.180
 2692SOL    HW1 8975   5.503   6.039   4.219
 2692SOL    HW2 8976   5.653   6.093   4.253
 2693SOL     OW 8977   2.251   4.095   2.777
 2693SOL    HW1 8978   2.284   4.186   2.801
 2693SOL    HW2 8979   2.245   4.086   2.677
 2694SOL     OW 8980   3.469   0.629   3.058
 2694SOL    HW1 8981   3.372   0.628   3.085
 2694SOL    HW2 8982   3.490   0.547   3.006
 2695SOL     OW 8983   5.371   1.776   2.685
 2695SOL    HW1 8984   5.446   1.842   2.679
 2695SOL    HW2 8985   5.286   1.820   2.655
 2696SOL     OW 8986   3.301   2.583   5.347
 2696SOL    HW1 8987   3.330   2.524   5.422
 2696SOL    HW2 8988   3.277   2.527   5.268
 2697SOL     OW 8989   4.847   2.075   3.974
 2697SOL    HW1 8990   4.881   2.127   3.896
 2697SOL    HW2 8991   4.769   2.122   4.014
 2698SOL     OW 8992   2.149   5.048   0.710
 2698SOL    HW1 8993   2.075   5.110   0.732
 2698SOL    HW2 8994   2.124   4.954   0.735
 2699SOL     OW 8995   3.568   5.119   7.017
 2699SOL    HW1 8996   3.581   5.217   7.002
 2699SOL    HW2 8997   3.648   5.083   0.044
 2700SOL     OW 8998   2.097   3.203   2.051
 2700SOL    HW1 8999   2.153   3.285   2.042
 2700SOL    HW2 9000   2.004   3.222   2.019
 2701SOL     OW 9001   3.953   7.006   6.661
 2701SOL    HW1 9002   4.050   7.008   6.634
 2701SOL    HW2 9003   3.907   0.065   6.625
 2702SOL     OW 9004   6.992   1.375   2.890
 2702SOL    HW1 9005   6.925   1.382   2.816
 2702SOL    HW2 9006   6.945   1.357   2.976
 2703SOL     OW 9007   2.167   0.772   2.850
 2703SOL    HW1 9008   2.206   0.696   2.902
 2703SOL    HW2 9009   2.195   0.858   2.891
 2704SOL     OW 9010   1.067   5.690   0.664
 2704SOL    HW1 9011   1.166   5.680   0.655
 2704SOL    HW2 9012   1.037   5.647   0.750
 2705SOL     OW 9013   0.758   5.208   4.214
 2705SOL    HW1 9014   0.820   5.190   4.290
 2705SOL    HW2 9015   0.753   5.128   4.154
 2706SOL     OW 9016   0.256   0.850   1.527
 2706SOL    HW1 9017   0.286   0.944   1.544
 2706SOL    HW2 9018   0.157   0.848   1.517
 2707SOL     OW 9019   2.267   0.848   5.684
 2707SOL    HW1 9020   2.324   0.835   5.603
 2707SOL    HW2 9021   2.320   0.828   5.766
 2708SOL     OW 9022   1.667   2.905   1.766
 2708SOL    HW1 9023   1.741   2.928   1.702
 2708SOL    HW2 9024   1.705   2.858   1.846
 2709SOL     OW 9025   5.546   6.573   0.872
 2709SOL    HW1 9026   5.634   6.601   0.910
 2709SOL    HW2 9027   5.478   6.570   0.945
 2710SOL     OW 9028   6.591   3.755   2.769
 2710SOL    HW1 9029   6.613   3.676   2.713
 2710SOL    HW2 9030   6.631   3.744   2.860
 2711SOL     OW 9031   2.631   6.985   2.603
 2711SOL    HW1 9032   2.616   0.058   2.632
 2711SOL    HW2 9033   2.601   6.923   2.675
 2712SOL     OW 9034   3.954   4.820   0.411
 2712SOL    HW1 9035   3.876   4.795   0.354
 2712SOL    HW2 9036   3.964   4.919   0.413
 2713SOL     OW 9037   1.717   2.789   4.509
 2713SOL    HW1 9038   1.685   2.860   4.571
 2713SOL    HW2 9039   1.701   2.817   4.415
 2714SOL     OW 9040   4.800   2.174   0.303
 2714SOL    HW1 9041   4.792   2.077   0.329
 2714SOL    HW2 9042   4.795   2.183   0.204
 2715SOL     OW 9043   5.985   0.275   0.134
 2715SOL    HW1 9044   6.027   0.281   0.043
 2715SOL    HW2 9045   6.006   0.358   0.186
 2716SOL     OW 9046   6.106   5.245   1.883
 2716SOL    HW1 9047   6.198   5.263   1.848
 2716SOL    HW2 9048   6.040   5.256   1.809
 2717SOL     OW 9049   1.073   5.486   2.150
 2717SOL    HW1 9050   1.152   5.471   2.210
 2717SOL    HW2 9051   1.029   5.572   2.174
 2718SOL     OW 9052   2.096   3.624   4.205
 2718SOL    HW1 9053   2.069   3.631   4.301
 2718SOL    HW2 9054   2.068   3.706   4.156
 2719SOL     OW 9055   5.027   4.778   1.387
 2719SOL    HW1 9056   4.937   4.756   1.349
 2719SOL    HW2 9057   5.071   4.847   1.329
 2720SOL     OW 9058   2.471   6.411   3.743
 2720SOL    HW1 9059   2.426   6.471   3.677
 2720SOL    HW2 9060   2.568   6.401   3.719
 2721SOL     OW 9061   2.743   0.270   5.199
 2721SOL    HW1 9062   2.731   0.293   5.296
 2721SOL    HW2 9063   2.767   0.173   5.190
 2722SOL     OW 9064   6.178   5.233   2.688
 2722SOL    HW1 9065   6.249   5.262   2.624
 2722SOL    HW2 9066   6.162   5.306   2.754
 2723SOL     OW 9067   1.755   0.671   6.620
 2723SOL    HW1 9068   1.791   0.759   6.650
 2723SOL    HW2 9069   1.721   0.621   6.699
 2724SOL     OW 9070   3.272   6.777   5.566
 2724SOL    HW1 9071   3.345   6.837   5.599
 2724SOL    HW2 9072   3.241   6.808   5.476
 2725SOL     OW 9073   6.052   5.117   3.005
 2725SOL    HW1 9074   6.074   5.025   2.973
 2725SOL    HW2 9075   5.955   5.136   2.988
 2726SOL     OW 9076   6.420   4.231   1.512
 2726SOL    HW1 9077   6.415   4.157   1.445
 2726SOL    HW2 9078   6.382   4.200   1.599
 2727SOL     OW 9079   0.466   4.652   2.723
 2727SOL    HW1 9080   0.538   4.717   2.695
 2727SOL    HW2 9081   0.398   4.645   2.650
 2728SOL     OW 9082   3.230   0.768   5.013
 2728SOL    HW1 9083   3.156   0.770   5.080
 2728SOL    HW2 9084   3.193   0.752   4.922
 2729SOL     OW 9085   6.933   5.548   1.937
 2729SOL    HW1 9086   6.845   5.595   1.937
 2729SOL    HW2 9087   7.005   5.609   1.904
 2730SOL     OW 9088   1.264   6.600   1.062
 2730SOL    HW1 9089   1.182   6.547   1.043
 2730SOL    HW2 9090   1.328   6.592   0.985
 2731SOL     OW 9091   3.234   3.307   1.204
 2731SOL    HW1 9092   3.169   3.376   1.237
 2731SOL    HW2 9093   3.306   3.352   1.151
 2732SOL     OW 9094   5.798   3.562   2.263
 2732SOL    HW1 9095   5.737   3.502   2.315
 2732SOL    HW2 9096   5.834   3.633   2.323
 2733SOL     OW 9097   0.579   0.055   4.857
 2733SOL    HW1 9098   0.655   0.119   4.869
 2733SOL    HW2 9099   0.519   0.061   4.937
 2734SOL     OW 9100   2.274   5.477   2.977
 2734SOL    HW1 9101   2.301   5.558   3.030
 2734SOL    HW2 9102   2.352   5.416   2.966
 2735SOL     OW 9103   0.884   3.072   2.805
 2735SOL    HW1 9104   0.928   3.084   2.893
 2735SOL    HW2 9105   0.869   3.161   2.762
 2736SOL     OW 9106   5.189   0.692   4.141
 2736SOL    HW1 9107   5.285   0.690   4.113
 2736SOL    HW2 9108   5.155   0.786   4.136
 2737SOL     OW 9109   3.333   3.399   5.444
 2737SOL    HW1 9110   3.355   3.327   5.378
 2737SOL    HW2 9111   3.384   3.384   5.528
 2738SOL     OW 9112   5.340   5.704   4.638
 2738SOL    HW1 9113   5.327   5.797   4.602
 2738SOL    HW2 9114   5.251   5.660   4.648
 2739SOL     OW 9115   5.897   3.928   0.177
 2739SOL    HW1 9116   5.861   3.835   0.176
 2739SOL    HW2 9117   5.974   3.935   0.113
 2740SOL     OW 9118   5.531   2.047   2.033
 2740SOL    HW1 9119   5.508   2.114   2.103
 2740SOL    HW2 9120   5.630   2.037   2.026
 2741SOL     OW 9121   0.301   1.808   6.158
 2741SOL    HW1 9122   0.260   1.898   6.144
 2741SOL    HW2 9123   0.322   1.796   6.255
 2742SOL     OW 9124   1.429   5.659   6.303
 2742SOL    HW1 9125   1.431   5.564   6.336
 2742SOL    HW2 9126   1.513   5.678   6.253
 2743SOL     OW 9127   5.927   5.294   1.674
 2743SOL    HW1 9128   5.829   5.279   1.692
 2743SOL    HW2 9129   5.940   5.310   1.576
 2744SOL     OW 9130   3.503   2.775   0.055
 2744SOL    HW1 9131   3.567   2.760   7.002
 2744SOL    HW2 9132   3.434   2.702   0.055
 2745SOL     OW 9133   2.389   6.802   7.017
 2745SOL    HW1 9134   2.432   6.714   0.015
 2745SOL    HW2 9135   2.408   6.828   6.922
 2746SOL     OW 9136   1.902   3.095   4.724
 2746SOL    HW1 9137   1.858   3.182   4.703
 2746SOL    HW2 9138   2.001   3.104   4.711
 2747SOL     OW 9139   5.631   4.081   5.094
 2747SOL    HW1 9140   5.653   4.160   5.038
 2747SOL    HW2 9141   5.660   4.097   5.188
 2748SOL     OW 9142   3.310   1.315   1.975
 2748SOL    HW1 9143   3.390   1.352   1.927
 2748SOL    HW2 9144   3.305   1.355   2.066
 2749SOL     OW 9145   5.486   5.077   3.805
 2749SOL    HW1 9146   5.530   5.125   3.881
 2749SOL    HW2 9147   5.469   5.142   3.730
 2750SOL     OW 9148   0.515   5.273   1.262
 2750SOL    HW1 9149   0.447   5.202   1.242
 2750SOL    HW2 9150   0.487   5.323   1.344
 2751SOL     OW 9151   1.758   0.148   0.121
 2751SOL    HW1 9152   1.793   0.063   0.081
 2751SOL    HW2 9153   1.797   0.226   0.073
 2752SOL     OW 9154   5.268   5.841   5.537
 2752SOL    HW1 9155   5.333   5.823   5.464
 2752SOL    HW2 9156   5.272   5.768   5.605
 2753SOL     OW 9157   1.901   6.884   6.449
 2753SOL    HW1 9158   1.851   6.861   6.365
 2753SOL    HW2 9159   1.987   6.929   6.425
 2754SOL     OW 9160   6.425   0.489   4.689
 2754SOL    HW1 9161   6.500   0.429   4.715
 2754SOL    HW2 9162   6.446   0.534   4.603
 2755SOL     OW 9163   3.037   6.386   3.065
 2755SOL    HW1 9164   3.107   6.427   3.124
 2755SOL    HW2 9165   3.081   6.353   2.981
 2756SOL     OW 9166   5.752   4.283   3.964
 2756SOL    HW1 9167   5.807   4.273   3.881
 2756SOL    HW2 9168   5.812   4.280   4.044
 2757SOL     OW 9169   2.873   1.659   6.689
 2757SOL    HW1 9170   2.972   1.673   6.692
 2757SOL    HW2 9171   2.828   1.747   6.675
 2758SOL     OW 9172   5.029   6.170   3.435
 2758SOL    HW1 9173   4.985   6.083   3.457
 2758SOL    HW2 9174   4.982   6.244   3.483
 2759SOL     OW 9175   3.457   4.647   5.354
 2759SOL    HW1 9176   3.446   4.716   5.426
 2759SOL    HW2 9177   3.397   4.570   5.372
 2760SOL     OW 9178   6.118   5.932   2.749
 2760SOL    HW1 9179   6.128   5.838   2.715
 2760SOL    HW2 9180   6.195   5.954   2.808
 2761SOL     OW 9181   1.415   3.522   3.753
 2761SOL    HW1 9182   1.504   3.492   3.719
 2761SOL    HW2 9183   1.343   3.462   3.718
 2762SOL     OW 9184   1.280   2.297   7.011
 2762SOL    HW1 9185   1.252   2.203   6.993
 2762SOL    HW2 9186   1.226   2.359   6.954
 2763SOL     OW 9187   5.567   1.639   5.786
 2763SOL    HW1 9188   5.485   1.593   5.821
 2763SOL    HW2 9189   5.591   1.715   5.846
 2764SOL     OW 9190   0.295   4.844   2.849
 2764SOL    HW1 9191   0.348   4.887   2.922
 2764SOL    HW2 9192   0.348   4.770   2.809
 2765SOL     OW 9193   0.520   0.267   1.158
 2765SOL    HW1 9194   0.541   0.171   1.142
 2765SOL    HW2 9195   0.588   0.306   1.221
 2766SOL     OW 9196   4.370   1.042   6.875
 2766SOL    HW1 9197   4.370   1.085   6.965
 2766SOL    HW2 9198   4.358   1.113   6.805
 2767SOL     OW 9199   5.744   5.870   6.888
 2767SOL    HW1 9200   5.829   5.916   6.915
 2767SOL    HW2 9201   5.740   5.780   6.931
 2768SOL     OW 9202   4.330   1.107   0.380
 2768SOL    HW1 9203   4.322   1.012   0.411
 2768SOL    HW2 9204   4.365   1.109   0.287
 2769SOL     OW 9205   1.650   4.251   6.075
 2769SOL    HW1 9206   1.643   4.340   6.030
 2769SOL    HW2 9207   1.580   4.189   6.039
 2770SOL     OW 9208   3.276   6.414   6.031
 2770SOL    HW1 9209   3.263   6.387   5.935
 2770SOL    HW2 9210   3.297   6.511   6.035
 2771SOL     OW 9211   5.609   6.843   4.625
 2771SOL    HW1 9212   5.705   6.814   4.619
 2771SOL    HW2 9213   5.576   6.831   4.718
 2772SOL     OW 9214   3.425   0.636   2.537
 2772SOL    HW1 9215   3.456   0.720   2.581
 2772SOL    HW2 9216   3.377   0.658   2.452
 2773SOL     OW 9217   0.121   2.533   3.795
 2773SOL    HW1 9218   0.080   2.620   3.824
 2773SOL    HW2 9219   0.068   2.495   3.719
 2774SOL     OW 9220   5.042   2.749   2.888
 2774SOL    HW1 9221   5.028   2.693   2.806
 2774SOL    HW2 9222   5.126   2.721   2.934
 2775SOL     OW 9223   6.994   3.860   3.709
 2775SOL    HW1 9224   0.046   3.810   3.755
 2775SOL    HW2 9225   7.010   3.861   3.610
 2776SOL     OW 9226   5.122   5.693   6.611
 2776SOL    HW1 9227   5.087   5.601   6.593
 2776SOL    HW2 9228   5.204   5.686   6.669
 2777SOL     OW 9229   2.579   2.001   6.115
 2777SOL    HW1 9230   2.503   1.937   6.101
 2777SOL    HW2 9231   2.550   2.093   6.089
 2778SOL     OW 9232   2.096   6.174   6.443
 2778SOL    HW1 9233   2.020   6.240   6.440
 2778SOL    HW2 9234   2.059   6.081   6.438
 2779SOL     OW 9235   5.940   6.302   2.145
 2779SOL    HW1 9236   5.846   6.311   2.113
 2779SOL    HW2 9237   5.995   6.260   2.072
 2780SOL     OW 9238   6.867   0.525   5.965
 2780SOL    HW1 9239   6.805   0.474   5.905
 2780SOL    HW2 9240   6.840   0.621   5.967
 2781SOL     OW 9241   5.895   0.383   2.859
 2781SOL    HW1 9242   5.945   0.395   2.945
 2781SOL    HW2 9243   5.852   0.293   2.857
 2782SOL     OW 9244   4.713   1.237   5.574
 2782SOL    HW1 9245   4.757   1.147   5.569
 2782SOL    HW2 9246   4.759   1.292   5.643
 2783SOL     OW 9247   6.273   3.397   1.482
 2783SOL    HW1 9248   6.187   3.429   1.522
 2783SOL    HW2 9249   6.306   3.465   1.416
 2784SOL     OW 9250   2.754   1.846   2.326
 2784SOL    HW1 9251   2.791   1.817   2.415
 2784SOL    HW2 9252   2.692   1.923   2.340
 2785SOL     OW 9253   4.913   2.301   1.309
 2785SOL    HW1 9254   4.927   2.303   1.210
 2785SOL    HW2 9255   4.817   2.282   1.329
 2786SOL     OW 9256   6.176   6.007   1.282
 2786SOL    HW1 9257   6.112   5.991   1.357
 2786SOL    HW2 9258   6.163   5.937   1.211
 2787SOL     OW 9259   6.693   5.822   5.539
 2787SOL    HW1 9260   6.679   5.789   5.632
 2787SOL    HW2 9261   6.606   5.821   5.490
 2788SOL     OW 9262   3.285   6.059   6.282
 2788SOL    HW1 9263   3.334   5.991   6.336
 2788SOL    HW2 9264   3.351   6.117   6.234
 2789SOL     OW 9265   0.991   2.562   3.584
 2789SOL    HW1 9266   0.925   2.627   3.622
 2789SOL    HW2 9267   0.951   2.517   3.504
 2790SOL     OW 9268   2.862   5.009   0.528
 2790SOL    HW1 9269   2.767   4.980   0.518
 2790SOL    HW2 9270   2.907   4.953   0.597
 2791SOL     OW 9271   0.563   4.108   2.307
 2791SOL    HW1 9272   0.475   4.084   2.264
 2791SOL    HW2 9273   0.552   4.192   2.360
 2792SOL     OW 9274   3.286   0.731   4.617
 2792SOL    HW1 9275   3.229   0.738   4.535
 2792SOL    HW2 9276   3.304   0.822   4.653
 2793SOL     OW 9277   4.901   4.115   1.651
 2793SOL    HW1 9278   4.883   4.159   1.563
 2793SOL    HW2 9279   4.981   4.056   1.643
 2794SOL     OW 9280   0.188   1.505   6.362
 2794SOL    HW1 9281   0.106   1.451   6.347
 2794SOL    HW2 9282   0.179   1.557   6.447
 2795SOL     OW 9283   0.990   5.313   1.061
 2795SOL    HW1 9284   0.969   5.385   0.996
 2795SOL    HW2 9285   0.926   5.318   1.138
 2796SOL     OW 9286   0.608   5.222   4.951
 2796SOL    HW1 9287   0.586   5.181   4.862
 2796SOL    HW2 9288   0.524   5.249   4.997
 2797SOL     OW 9289   5.305   5.055   5.571
 2797SOL    HW1 9290   5.257   5.133   5.611
 2797SOL    HW2 9291   5.375   5.087   5.507
 2798SOL     OW 9292   6.940   6.190   2.714
 2798SOL    HW1 9293   6.895   6.104   2.736
 2798SOL    HW2 9294   6.932   6.252   2.792
 2799SOL     OW 9295   4.557   5.390   5.528
 2799SOL    HW1 9296   4.644   5.363   5.571
 2799SOL    HW2 9297   4.516   5.464   5.581
 2800SOL     OW 9298   5.749   0.692   6.816
 2800SOL    HW1 9299   5.759   0.705   6.915
 2800SOL    HW2 9300   5.783   0.774   6.769
 2801SOL     OW 9301   1.260   5.614   5.863
 2801SOL    HW1 9302   1.193   5.686   5.883
 2801SOL    HW2 9303   1.352   5.652   5.868
 2802SOL     OW 9304   0.064   6.332   5.279
 2802SOL    HW1 9305   0.146   6.339   5.222
 2802SOL    HW2 9306   7.006   6.363   5.226
 2803SOL     OW 9307   3.332   3.914   5.811
 2803SOL    HW1 9308   3.400   3.859   5.762
 2803SOL    HW2 9309   3.323   3.880   5.905
 2804SOL     OW 9310   0.417   2.957   4.147
 2804SOL    HW1 9311   0.432   3.013   4.228
 2804SOL    HW2 9312   0.363   3.009   4.080
 2805SOL     OW 9313   5.433   3.844   2.195
 2805SOL    HW1 9314   5.478   3.912   2.254
 2805SOL    HW2 9315   5.404   3.766   2.251
 2806SOL     OW 9316   2.219   4.574   6.291
 2806SOL    HW1 9317   2.214   4.475   6.295
 2806SOL    HW2 9318   2.198   4.613   6.381
 2807SOL     OW 9319   2.928   0.443   2.816
 2807SOL    HW1 9320   2.942   0.345   2.799
 2807SOL    HW2 9321   2.874   0.455   2.899
 2808SOL     OW 9322   5.680   5.775   0.942
 2808SOL    HW1 9323   5.769   5.783   0.897
 2808SOL    HW2 9324   5.657   5.861   0.987
 2809SOL     OW 9325   5.565   3.117   1.752
 2809SOL    HW1 9326   5.528   3.051   1.686
 2809SOL    HW2 9327   5.649   3.157   1.715
 2810SOL     OW 9328   2.497   5.899   3.344
 2810SOL    HW1 9329   2.565   5.942   3.285
 2810SOL    HW2 9330   2.406   5.932   3.320
 2811SOL     OW 9331   0.980   0.705   2.715
 2811SOL    HW1 9332   0.960   0.728   2.810
 2811SOL    HW2 9333   1.017   0.612   2.710
 2812SOL     OW 9334   0.274   3.130   0.729
 2812SOL    HW1 9335   0.318   3.180   0.655
 2812SOL    HW2 9336   0.300   3.033   0.724
 2813SOL     OW 9337   0.992   1.354   1.468
 2813SOL    HW1 9338   1.072   1.398   1.510
 2813SOL    HW2 9339   0.965   1.405   1.386
 2814SOL     OW 9340   2.939   3.940   6.362
 2814SOL    HW1 9341   2.902   3.891   6.283
 2814SOL    HW2 9342   2.906   3.897   6.446
 2815SOL     OW 9343   0.232   6.150   5.937
 2815SOL    HW1 9344   0.322   6.160   5.894
 2815SOL    HW2 9345   0.224   6.215   6.012
 2816SOL     OW 9346   6.874   6.133   5.154
 2816SOL    HW1 9347   6.792   6.175   5.194
 2816SOL    HW2 9348   6.930   6.093   5.226
 2817SOL     OW 9349   3.940   0.888   1.918
 2817SOL    HW1 9350   3.841   0.898   1.935
 2817SOL    HW2 9351   3.987   0.878   2.006
 2818SOL     OW 9352   0.539   1.067   0.957
 2818SOL    HW1 9353   0.538   1.095   0.861
 2818SOL    HW2 9354   0.510   0.972   0.964
 2819SOL     OW 9355   0.925   0.538   0.977
 2819SOL    HW1 9356   0.956   0.453   1.020
 2819SOL    HW2 9357   0.948   0.536   0.880
 2820SOL     OW 9358   1.427   1.752   2.157
 2820SOL    HW1 9359   1.335   1.715   2.171
 2820SOL    HW2 9360   1.470   1.705   2.080
 2821SOL     OW 9361   3.490   5.262   6.060
 2821SOL    HW1 9362   3.431   5.243   6.138
 2821SOL    HW2 9363   3.490   5.183   5.998
 2822SOL     OW 9364   3.839   2.938   0.424
 2822SOL    HW1 9365   3.829   2.912   0.327
 2822SOL    HW2 9366   3.788   2.874   0.481
 2823SOL     OW 9367   5.314   1.161   0.689
 2823SOL    HW1 9368   5.239   1.224   0.710
 2823SOL    HW2 9369   5.276   1.073   0.659
 2824SOL     OW 9370   1.501   3.636   5.191
 2824SOL    HW1 9371   1.592   3.627   5.151
 2824SOL    HW2 9372   1.482   3.558   5.249
 2825SOL     OW 9373   5.411   0.498   6.927
 2825SOL    HW1 9374   5.453   0.491   6.837
 2825SOL    HW2 9375   5.325   0.448   6.928
 2826SOL     OW 9376   1.440   3.558   6.387
 2826SOL    HW1 9377   1.463   3.582   6.481
 2826SOL    HW2 9378   1.521   3.569   6.329
 2827SOL     OW 9379   0.758   0.611   6.467
 2827SOL    HW1 9380   0.798   0.524   6.439
 2827SOL    HW2 9381   0.706   0.650   6.391
 2828SOL     OW 9382   1.737   3.396   1.173
 2828SOL    HW1 9383   1.726   3.389   1.272
 2828SOL    HW2 9384   1.655   3.361   1.127
 2829SOL     OW 9385   3.592   3.710   2.843
 2829SOL    HW1 9386   3.594   3.613   2.817
 2829SOL    HW2 9387   3.669   3.729   2.904
 2830SOL     OW 9388   3.697   4.480   5.327
 2830SOL    HW1 9389   3.791   4.446   5.318
 2830SOL    HW2 9390   3.694   4.577   5.302
 2831SOL     OW 9391   0.058   1.742   2.423
 2831SOL    HW1 9392   0.120   1.743   2.345
 2831SOL    HW2 9393   0.053   1.649   2.460
 2832SOL     OW 9394   0.885   3.341   1.323
 2832SOL    HW1 9395   0.954   3.401   1.281
 2832SOL    HW2 9396   0.897   3.342   1.422
 2833SOL     OW 9397   2.349   0.724   1.980
 2833SOL    HW1 9398   2.431   0.692   1.932
 2833SOL    HW2 9399   2.293   0.778   1.918
 2834SOL     OW 9400   4.499   6.391   4.679
 2834SOL    HW1 9401   4.520   6.293   4.688
 2834SOL    HW2 9402   4.494   6.432   4.770
 2835SOL     OW 9403   1.267   6.547   0.455
 2835SOL    HW1 9404   1.321   6.620   0.415
 2835SOL    HW2 9405   1.184   6.585   0.496
 2836SOL     OW 9406   4.136   6.321   3.314
 2836SOL    HW1 9407   4.135   6.227   3.278
 2836SOL    HW2 9408   4.108   6.384   3.242
 2837SOL     OW 9409   5.604   4.075   2.219
 2837SOL    HW1 9410   5.674   4.108   2.156
 2837SOL    HW2 9411   5.515   4.114   2.193
 2838SOL     OW 9412   5.079   3.989   6.757
 2838SOL    HW1 9413   5.109   4.055   6.688
 2838SOL    HW2 9414   5.130   3.903   6.746
 2839SOL     OW 9415   6.452   2.852   3.552
 2839SOL    HW1 9416   6.404   2.933   3.518
 2839SOL    HW2 9417   6.549   2.875   3.566
 2840SOL     OW 9418   1.692   5.764   2.803
 2840SOL    HW1 9419   1.767   5.709   2.766
 2840SOL    HW2 9420   1.667   5.730   2.894
 2841SOL     OW 9421   6.193   2.563   0.720
 2841SOL    HW1 9422   6.240   2.614   0.648
 2841SOL    HW2 9423   6.101   2.538   0.689
 2842SOL     OW 9424   1.214   5.480   4.880
 2842SOL    HW1 9425   1.141   5.474   4.948
 2842SOL    HW2 9426   1.300   5.449   4.920
 2843SOL     OW 9427   2.483   2.564   2.794
 2843SOL    HW1 9428   2.562   2.502   2.790
 2843SOL    HW2 9429   2.400   2.510   2.803
 2844SOL     OW 9430   4.550   4.306   1.466
 2844SOL    HW1 9431   4.466   4.360   1.472
 2844SOL    HW2 9432   4.563   4.255   1.551
 2845SOL     OW 9433   5.053   2.979   3.892
 2845SOL    HW1 9434   4.957   2.953   3.903
 2845SOL    HW2 9435   5.065   3.075   3.918
 2846SOL     OW 9436   3.936   0.839   0.071
 2846SOL    HW1 9437   3.974   0.923   0.110
 2846SOL    HW2 9438   3.843   0.825   0.106
 2847SOL     OW 9439   4.781   4.164   1.979
 2847SOL    HW1 9440   4.709   4.232   1.964
 2847SOL    HW2 9441   4.751   4.076   1.943
 2848SOL     OW 9442   1.104   2.325   5.224
 2848SOL    HW1 9443   1.032   2.299   5.159
 2848SOL    HW2 9444   1.064   2.336   5.315
 2849SOL     OW 9445   3.665   0.627   1.704
 2849SOL    HW1 9446   3.614   0.713   1.710
 2849SOL    HW2 9447   3.762   0.647   1.690
 2850SOL     OW 9448   2.080   6.938   3.486
 2850SOL    HW1 9449   1.985   6.908   3.489
 2850SOL    HW2 9450   2.095   7.008   3.556
 2851SOL     OW 9451   3.867   3.230   6.860
 2851SOL    HW1 9452   3.888   3.249   6.956
 2851SOL    HW2 9453   3.825   3.139   6.852
 2852SOL     OW 9454   6.421   4.159   0.087
 2852SOL    HW1 9455   6.403   4.258   0.093
 2852SOL    HW2 9456   6.406   4.117   0.176
 2853SOL     OW 9457   0.116   3.460   0.030
 2853SOL    HW1 9458   0.135   3.550   7.012
 2853SOL    HW2 9459   0.108   3.467   0.129
 2854SOL     OW 9460   3.430   1.054   6.170
 2854SOL    HW1 9461   3.525   1.069   6.140
 2854SOL    HW2 9462   3.391   1.141   6.200
 2855SOL     OW 9463   0.984   2.428   4.415
 2855SOL    HW1 9464   1.073   2.472   4.407
 2855SOL    HW2 9465   0.913   2.492   4.385
 2856SOL     OW 9466   1.664   3.207   3.020
 2856SOL    HW1 9467   1.619   3.229   2.934
 2856SOL    HW2 9468   1.750   3.257   3.025
 2857SOL     OW 9469   0.332   3.721   0.594
 2857SOL    HW1 9470   0.376   3.757   0.676
 2857SOL    HW2 9471   0.272   3.645   0.619
 2858SOL     OW 9472   5.725   6.166   2.764
 2858SOL    HW1 9473   5.658   6.198   2.831
 2858SOL    HW2 9474   5.816   6.166   2.805
 2859SOL     OW 9475   5.535   5.742   0.435
 2859SOL    HW1 9476   5.570   5.764   0.344
 2859SOL    HW2 9477   5.443   5.778   0.446
 2860SOL     OW 9478   1.591   6.178   1.541
 2860SOL    HW1 9479   1.630   6.208   1.628
 2860SOL    HW2 9480   1.646   6.103   1.504
 2861SOL     OW 9481   2.839   5.242   5.657
 2861SOL    HW1 9482   2.807   5.173   5.592
 2861SOL    HW2 9483   2.818   5.213   5.750
 2862SOL     OW 9484   4.377   2.878   1.689
 2862SOL    HW1 9485   4.370   2.847   1.594
 2862SOL    HW2 9486   4.472   2.868   1.720
 2863SOL     OW 9487   5.428   0.807   6.223
 2863SOL    HW1 9488   5.470   0.783   6.311
 2863SOL    HW2 9489   5.345   0.860   6.240
 2864SOL     OW 9490   4.388   2.783   1.002
 2864SOL    HW1 9491   4.365   2.779   1.099
 2864SOL    HW2 9492   4.304   2.787   0.948
 2865SOL     OW 9493   4.274   6.446   4.368
 2865SOL    HW1 9494   4.313   6.498   4.444
 2865SOL    HW2 9495   4.175   6.463   4.364
 2866SOL     OW 9496   5.825   4.337   7.008
 2866SOL    HW1 9497   5.895   4.279   6.966
 2866SOL    HW2 9498   5.818   4.423   6.957
 2867SOL     OW 9499   6.599   6.681   2.377
 2867SOL    HW1 9500   6.535   6.625   2.323
 2867SOL    HW2 9501   6.560   6.700   2.467
 2868SOL     OW 9502   1.100   1.207   5.702
 2868SOL    HW1 9503   1.200   1.210   5.711
 2868SOL    HW2 9504   1.072   1.268   5.627
 2869SOL     OW 9505   6.050   6.985   4.242
 2869SOL    HW1 9506   6.038   0.056   4.277
 2869SOL    HW2 9507   5.985   6.924   4.287
 2870SOL     OW 9508   1.402   1.927   0.118
 2870SOL    HW1 9509   1.379   1.904   0.212
 2870SOL    HW2 9510   1.490   1.975   0.116
 2871SOL     OW 9511   6.978   0.796   0.846
 2871SOL    HW1 9512   7.011   0.758   0.759
 2871SOL    HW2 9513   6.886   0.759   0.864
 2872SOL     OW 9514   2.664   1.443   1.856
 2872SOL    HW1 9515   2.758   1.411   1.871
 2872SOL    HW2 9516   2.659   1.541   1.876
 2873SOL     OW 9517   0.388   5.319   1.508
 2873SOL    HW1 9518   0.320   5.278   1.567
 2873SOL    HW2 9519   0.463   5.356   1.563
 2874SOL     OW 9520   3.627   0.173   2.572
 2874SOL    HW1 9521   3.682   0.091   2.587
 2874SOL    HW2 9522   3.538   0.162   2.617
 2875SOL     OW 9523   2.939   6.842   2.526
 2875SOL    HW1 9524   2.910   6.932   2.494
 2875SOL    HW2 9525   2.941   6.778   2.449
 2876SOL     OW 9526   1.086   6.359   1.808
 2876SOL    HW1 9527   1.177   6.370   1.848
 2876SOL    HW2 9528   1.054   6.265   1.823
 2877SOL     OW 9529   2.213   2.027   6.062
 2877SOL    HW1 9530   2.245   1.955   6.122
 2877SOL    HW2 9531   2.287   2.055   6.001
 2878SOL     OW 9532   3.150   3.244   4.533
 2878SOL    HW1 9533   3.081   3.248   4.461
 2878SOL    HW2 9534   3.170   3.148   4.555
 2879SOL     OW 9535   4.573   5.101   5.936
 2879SOL    HW1 9536   4.536   5.021   5.890
 2879SOL    HW2 9537   4.563   5.182   5.877
 2880SOL     OW 9538   0.633   2.290   3.402
 2880SOL    HW1 9539   0.686   2.294   3.317
 2880SOL    HW2 9540   0.665   2.213   3.458
 2881SOL     OW 9541   3.001   5.050   6.963
 2881SOL    HW1 9542   2.944   5.131   6.974
 2881SOL    HW2 9543   3.096   5.073   6.984
 2882SOL     OW 9544   5.613   6.512   0.430
 2882SOL    HW1 9545   5.610   6.452   0.510
 2882SOL    HW2 9546   5.602   6.607   0.459
 2883SOL     OW 9547   6.622   6.568   3.311
 2883SOL    HW1 9548   6.546   6.527   3.361
 2883SOL    HW2 9549   6.694   6.500   3.300
 2884SOL     OW 9550   7.014   4.936   2.510
 2884SOL    HW1 9551   0.003   4.939   2.411
 2884SOL    HW2 9552   6.931   4.884   2.533
 2885SOL     OW 9553   1.015   2.165   4.227
 2885SOL    HW1 9554   0.941   2.195   4.287
 2885SOL    HW2 9555   1.040   2.239   4.164
 2886SOL     OW 9556   2.482   4.437   0.237
 2886SOL    HW1 9557   2.383   4.436   0.252
 2886SOL    HW2 9558   2.516   4.530   0.248
 2887SOL     OW 9559   0.308   5.998   4.009
 2887SOL    HW1 9560   0.332   5.913   4.054
 2887SOL    HW2 9561   0.376   6.019   3.939
 2888SOL     OW 9562   0.146   5.683   6.705
 2888SOL    HW1 9563   0.196   5.658   6.788
 2888SOL    HW2 9564   0.131   5.602   6.649
 2889SOL     OW 9565   3.187   6.392   2.780
 2889SOL    HW1 9566   3.226   6.477   2.814
 2889SOL    HW2 9567   3.176   6.397   2.681
 2890SOL     OW 9568   2.300   6.324   0.513
 2890SOL    HW1 9569   2.252   6.241   0.542
 2890SOL    HW2 9570   2.260   6.403   0.559
 2891SOL     OW 9571   1.134   3.250   2.523
 2891SOL    HW1 9572   1.081   3.239   2.607
 2891SOL    HW2 9573   1.221   3.200   2.532
 2892SOL     OW 9574   6.482   3.425   1.136
 2892SOL    HW1 9575   6.539   3.372   1.073
 2892SOL    HW2 9576   6.526   3.513   1.155
 2893SOL     OW 9577   1.197   5.279   4.699
 2893SOL    HW1 9578   1.170   5.193   4.743
 2893SOL    HW2 9579   1.204   5.351   4.767
 2894SOL     OW 9580   2.358   4.255   1.880
 2894SOL    HW1 9581   2.427   4.328   1.881
 2894SOL    HW2 9582   2.268   4.295   1.866
 2895SOL     OW 9583   3.567   0.662   6.130
 2895SOL    HW1 9584   3.631   0.614   6.189
 2895SOL    HW2 9585   3.482   0.610   6.123
 2896SOL     OW 9586   5.875   6.938   5.614
 2896SOL    HW1 9587   5.859   7.021   5.560
 2896SOL    HW2 9588   5.964   6.943   5.659
 2897SOL     OW 9589   3.504   5.111   2.627
 2897SOL    HW1 9590   3.425   5.162   2.662
 2897SOL    HW2 9591   3.480   5.015   2.619
 2898SOL     OW 9592   6.016   3.990   3.391
 2898SOL    HW1 9593   6.044   3.912   3.447
 2898SOL    HW2 9594   6.081   4.003   3.317
 2899SOL     OW 9595   6.920   2.219   1.423
 2899SOL    HW1 9596   6.844   2.229   1.359
 2899SOL    HW2 9597   6.978   2.300   1.419
 2900SOL     OW 9598   3.724   4.673   6.839
 2900SOL    HW1 9599   3.790   4.667   6.914
 2900SOL    HW2 9600   3.635   4.641   6.869
 2901SOL     OW 9601   1.503   4.888   4.202
 2901SOL    HW1 9602   1.463   4.973   4.168
 2901SOL    HW2 9603   1.434   4.815   4.197
 2902SOL     OW 9604   0.017   5.970   3.712
 2902SOL    HW1 9605   6.962   5.907   3.724
 2902SOL    HW2 9606   0.001   6.027   3.632
 2903SOL     OW 9607   4.377   6.192   0.969
 2903SOL    HW1 9608   4.380   6.198   1.069
 2903SOL    HW2 9609   4.435   6.118   0.938
 2904SOL     OW 9610   2.753   4.819   5.212
 2904SOL    HW1 9611   2.801   4.789   5.130
 2904SOL    HW2 9612   2.700   4.743   5.249
 2905SOL     OW 9613   1.320   4.134   3.194
 2905SOL    HW1 9614   1.375   4.068   3.143
 2905SOL    HW2 9615   1.223   4.114   3.181
 2906SOL     OW 9616   5.590   6.233   2.990
 2906SOL    HW1 9617   5.563   6.329   2.999
 2906SOL    HW2 9618   5.510   6.178   2.970
 2907SOL     OW 9619   0.965   0.821   3.986
 2907SOL    HW1 9620   0.969   0.883   3.908
 2907SOL    HW2 9621   0.989   0.870   4.069
 2908SOL     OW 9622   5.303   0.371   3.581
 2908SOL    HW1 9623   5.207   0.392   3.597
 2908SOL    HW2 9624   5.346   0.345   3.668
 2909SOL     OW 9625   1.151   6.645   3.227
 2909SOL    HW1 9626   1.067   6.591   3.226
 2909SOL    HW2 9627   1.135   6.734   3.184
 2910SOL     OW 9628   6.797   0.955   3.790
 2910SOL    HW1 9629   6.880   0.921   3.835
 2910SOL    HW2 9630   6.801   0.936   3.692
 2911SOL     OW 9631   1.299   4.886   3.954
 2911SOL    HW1 9632   1.268   4.820   3.886
 2911SOL    HW2 9633   1.225   4.951   3.974
 2912SOL     OW 9634   0.106   6.277   0.752
 2912SOL    HW1 9635   0.110   6.248   0.657
 2912SOL    HW2 9636   0.025   6.239   0.796
 2913SOL     OW 9637   2.422   4.418   2.183
 2913SOL    HW1 9638   2.474   4.487   2.134
 2913SOL    HW2 9639   2.449   4.327   2.152
 2914SOL     OW 9640   5.146   5.270   1.316
 2914SOL    HW1 9641   5.050   5.293   1.333
 2914SOL    HW2 9642   5.205   5.328   1.373
 2915SOL     OW 9643   2.761   2.358   3.348
 2915SOL    HW1 9644   2.855   2.340   3.377
 2915SOL    HW2 9645   2.741   2.305   3.266
 2916SOL     OW 9646   2.241   5.369   0.009
 2916SOL    HW1 9647   2.245   5.436   0.084
 2916SOL    HW2 9648   2.210   5.415   6.947
 2917SOL     OW 9649   2.855   0.247   3.763
 2917SOL    HW1 9650   2.805   0.296   3.691
 2917SOL    HW2 9651   2.792   0.188   3.813
 2918SOL     OW 9652   6.184   3.251   0.648
 2918SOL    HW1 9653   6.188   3.270   0.746
 2918SOL    HW2 9654   6.088   3.249   0.619
 2919SOL     OW 9655   6.526   5.964   4.050
 2919SOL    HW1 9656   6.620   5.949   4.080
 2919SOL    HW2 9657   6.508   6.062   4.042
 2920SOL     OW 9658   2.327   0.462   1.770
 2920SOL    HW1 9659   2.242   0.486   1.817
 2920SOL    HW2 9660   2.405   0.480   1.830
 2921SOL     OW 9661   6.844   0.013   5.493
 2921SOL    HW1 9662   6.758   0.009   5.544
 2921SOL    HW2 9663   6.867   0.109   5.476
 2922SOL     OW 9664   4.357   0.249   2.120
 2922SOL    HW1 9665   4.333   0.181   2.189
 2922SOL    HW2 9666   4.438   0.299   2.150
 2923SOL     OW 9667   6.370   4.961   4.549
 2923SOL    HW1 9668   6.411   5.046   4.516
 2923SOL    HW2 9669   6.431   4.917   4.614
 2924SOL     OW 9670   6.821   1.470   4.963
 2924SOL    HW1 9671   6.753   1.522   4.911
 2924SOL    HW2 9672   6.892   1.532   4.996
 2925SOL     OW 9673   5.520   0.970   6.814
 2925SOL    HW1 9674   5.436   1.003   6.773
 2925SOL    HW2 9675   5.512   0.873   6.836
 2926SOL     OW 9676   6.727   2.208   5.017
 2926SOL    HW1 9677   6.745   2.276   4.946
 2926SOL    HW2 9678   6.699   2.253   5.101
 2927SOL     OW 9679   2.126   3.565   0.893
 2927SOL    HW1 9680   2.037   3.534   0.926
 2927SOL    HW2 9681   2.150   3.517   0.809
 2928SOL     OW 9682   6.386   1.302   0.458
 2928SOL    HW1 9683   6.445   1.313   0.539
 2928SOL    HW2 9684   6.295   1.272   0.487
 2929SOL     OW 9685   1.118   2.610   5.175
 2929SOL    HW1 9686   1.141   2.514   5.160
 2929SOL    HW2 9687   1.200   2.659   5.207
 2930SOL     OW 9688   6.002   5.845   5.557
 2930SOL    HW1 9689   5.969   5.900   5.479
 2930SOL    HW2 9690   5.946   5.762   5.565
 2931SOL     OW 9691   4.598   5.048   0.722
 2931SOL    HW1 9692   4.685   5.082   0.758
 2931SOL    HW2 9693   4.525   5.110   0.747
 2932SOL     OW 9694   6.766   5.493   2.401
 2932SOL    HW1 9695   6.770   5.408   2.453
 2932SOL    HW2 9696   6.859   5.524   2.380
 2933SOL     OW 9697   0.130   6.941   1.689
 2933SOL    HW1 9698   0.225   6.962   1.714
 2933SOL    HW2 9699   0.079   0.004   1.676
 2934SOL     OW 9700   4.440   3.104   1.337
 2934SOL    HW1 9701   4.426   3.017   1.290
 2934SOL    HW2 9702   4.378   3.111   1.414
 2935SOL     OW 9703   1.228   2.611   6.577
 2935SOL    HW1 9704   1.301   2.679   6.572
 2935SOL    HW2 9705   1.266   2.524   6.608
 2936SOL     OW 9706   4.688   0.184   0.438
 2936SOL    HW1 9707   4.594   0.207   0.463
 2936SOL    HW2 9708   4.721   0.248   0.369
 2937SOL     OW 9709   4.806   4.731   1.216
 2937SOL    HW1 9710   4.769   4.657   1.272
 2937SOL    HW2 9711   4.810   4.701   1.121
 2938SOL     OW 9712   6.190   5.523   0.132
 2938SOL    HW1 9713   6.123   5.529   0.206
 2938SOL    HW2 9714   6.281   5.545   0.166
 2939SOL     OW 9715   0.530   6.745   1.761
 2939SOL    HW1 9716   0.595   6.820   1.745
 2939SOL    HW2 9717   0.493   6.714   1.674
 2940SOL     OW 9718   5.982   5.931   4.403
 2940SOL    HW1 9719   5.899   5.970   4.363
 2940SOL    HW2 9720   5.966   5.835   4.426
 2941SOL     OW 9721   2.189   2.714   3.009
 2941SOL    HW1 9722   2.285   2.700   3.031
 2941SOL    HW2 9723   2.149   2.627   2.979
 2942SOL     OW 9724   3.049   2.666   0.449
 2942SOL    HW1 9725   3.091   2.601   0.387
 2942SOL    HW2 9726   2.956   2.687   0.418
 2943SOL     OW 9727   6.016   4.816   4.049
 2943SOL    HW1 9728   5.918   4.834   4.054
 2943SOL    HW2 9729   6.036   4.727   4.092
 2944SOL     OW 9730   2.828   6.470   4.139
 2944SOL    HW1 9731   2.864   6.543   4.082
 2944SOL    HW2 9732   2.772   6.408   4.084
 2945SOL     OW 9733   5.089   3.583   1.451
 2945SOL    HW1 9734   5.051   3.498   1.489
 2945SOL    HW2 9735   5.146   3.627   1.520
 2946SOL     OW 9736   2.318   4.288   5.757
 2946SOL    HW1 9737   2.348   4.193   5.760
 2946SOL    HW2 9738   2.396   4.349   5.765
 2947SOL     OW 9739   0.094   5.783   0.356
 2947SOL    HW1 9740   0.147   5.747   0.433
 2947SOL    HW2 9741   0.123   5.876   0.335
 2948SOL     OW 9742   5.967   4.830   3.160
 2948SOL    HW1 9743   6.018   4.818   3.074
 2948SOL    HW2 9744   5.986   4.753   3.221
 2949SOL     OW 9745   0.914   6.502   0.057
 2949SOL    HW1 9746   0.956   6.589   0.032
 2949SOL    HW2 9747   0.903   6.445   6.997
 2950SOL     OW 9748   5.740   4.974   2.774
 2950SOL    HW1 9749   5.640   4.974   2.762
 2950SOL    HW2 9750   5.773   4.880   2.783
 2951SOL     OW 9751   5.861   0.965   1.407
 2951SOL    HW1 9752   5.908   1.000   1.326
 2951SOL    HW2 9753   5.920   0.901   1.456
 2952SOL     OW 9754   6.129   0.511   5.155
 2952SOL    HW1 9755   6.087   0.425   5.124
 2952SOL    HW2 9756   6.226   0.511   5.130
 2953SOL     OW 9757   6.511   4.989   3.246
 2953SOL    HW1 9758   6.456   5.041   3.312
 2953SOL    HW2 9759   6.470   4.998   3.155
 2954SOL     OW 9760   0.291   4.790   6.771
 2954SOL    HW1 9761   0.324   4.747   6.687
 2954SOL    HW2 9762   0.299   4.889   6.763
 2955SOL     OW 9763   0.946   4.056   0.214
 2955SOL    HW1 9764   0.948   4.042   0.115
 2955SOL    HW2 9765   0.872   4.000   0.254
 2956SOL     OW 9766   6.800   5.386   4.064
 2956SOL    HW1 9767   6.751   5.431   4.138
 2956SOL    HW2 9768   6.858   5.314   4.101
 2957SOL     OW 9769   4.254   4.846   1.239
 2957SOL    HW1 9770   4.303   4.890   1.163
 2957SOL    HW2 9771   4.160   4.827   1.211
 2958SOL     OW 9772   2.073   4.997   3.443
 2958SOL    HW1 9773   2.072   4.924   3.512
 2958SOL    HW2 9774   2.115   5.079   3.482
 2959SOL     OW 9775   5.447   2.667   2.824
 2959SOL    HW1 9776   5.399   2.635   2.743
 2959SOL    HW2 9777   5.543   2.640   2.819
 2960SOL     OW 9778   3.360   0.927   0.120
 2960SOL    HW1 9779   3.347   0.868   0.199
 2960SOL    HW2 9780   3.400   0.874   0.045
 2961SOL     OW 9781   6.091   4.838   2.917
 2961SOL    HW1 9782   5.995   4.821   2.893
 2961SOL    HW2 9783   6.143   4.861   2.835
 2962SOL     OW 9784   5.117   6.727   3.491
 2962SOL    HW1 9785   5.130   6.629   3.503
 2962SOL    HW2 9786   5.159   6.776   3.567
 2963SOL     OW 9787   1.559   1.144   6.372
 2963SOL    HW1 9788   1.477   1.143   6.429
 2963SOL    HW2 9789   1.575   1.052   6.336
 2964SOL     OW 9790   0.489   2.876   6.743
 2964SOL    HW1 9791   0.540   2.866   6.829
 2964SOL    HW2 9792   0.550   2.859   6.666
 2965SOL     OW 9793   1.426   0.623   4.425
 2965SOL    HW1 9794   1.500   0.637   4.358
 2965SOL    HW2 9795   1.431   0.695   4.494
 2966SOL     OW 9796   4.657   5.958   4.015
 2966SOL    HW1 9797   4.662   6.021   3.938
 2966SOL    HW2 9798   4.626   6.007   4.096
 2967SOL     OW 9799   6.957   1.156   6.102
 2967SOL    HW1 9800   6.940   1.227   6.034
 2967SOL    HW2 9801   6.942   1.193   6.193
 2968SOL     OW 9802   2.328   3.213   1.050
 2968SOL    HW1 9803   2.262   3.287   1.034
 2968SOL    HW2 9804   2.306   3.167   1.136
 2969SOL     OW 9805   4.834   4.006   4.578
 2969SOL    HW1 9806   4.824   4.049   4.488
 2969SOL    HW2 9807   4.932   3.994   4.598
 2970SOL     OW 9808   3.077   2.742   5.402
 2970SOL    HW1 9809   3.059   2.827   5.353
 2970SOL    HW2 9810   3.159   2.698   5.364
 2971SOL     OW 9811   5.614   4.014   0.217
 2971SOL    HW1 9812   5.699   3.962   0.206
 2971SOL    HW2 9813   5.635   4.111   0.226
 2972SOL     OW 9814   5.606   4.891   0.111
 2972SOL    HW1 9815   5.638   4.811   0.163
 2972SOL    HW2 9816   5.674   4.916   0.043
 2973SOL     OW 9817   4.626   6.575   2.717
 2973SOL    HW1 9818   4.563   6.604   2.644
 2973SOL    HW2 9819   4.679   6.497   2.686
 2974SOL     OW 9820   5.971   4.311   3.411
 2974SOL    HW1 9821   6.002   4.219   3.386
 2974SOL    HW2 9822   5.874   4.320   3.389
 2975SOL     OW 9823   4.855   4.651   3.632
 2975SOL    HW1 9824   4.800   4.685   3.556
 2975SOL    HW2 9825   4.938   4.706   3.641
 2976SOL     OW 9826   4.741   1.801   3.044
 2976SOL    HW1 9827   4.691   1.876   3.086
 2976SOL    HW2 9828   4.739   1.721   3.104
 2977SOL     OW 9829   0.919   0.239   2.397
 2977SOL    HW1 9830   0.995   0.187   2.359
 2977SOL    HW2 9831   0.925   0.335   2.367
 2978SOL     OW 9832   4.212   4.143   6.802
 2978SOL    HW1 9833   4.223   4.069   6.869
 2978SOL    HW2 9834   4.300   4.161   6.758
 2979SOL     OW 9835   3.614   1.369   4.484
 2979SOL    HW1 9836   3.531   1.381   4.430
 2979SOL    HW2 9837   3.596   1.391   4.580
 2980SOL     OW 9838   2.705   4.935   6.212
 2980SOL    HW1 9839   2.692   5.030   6.184
 2980SOL    HW2 9840   2.639   4.877   6.164
 2981SOL     OW 9841   2.245   1.799   6.977
 2981SOL    HW1 9842   2.162   1.761   6.936
 2981SOL    HW2 9843   2.325   1.749   6.944
 2982SOL     OW 9844   2.030   6.848   2.424
 2982SOL    HW1 9845   1.996   6.813   2.336
 2982SOL    HW2 9846   1.953   6.861   2.486
 2983SOL     OW 9847   0.311   2.606   0.136
 2983SOL    HW1 9848   0.234   2.627   0.076
 2983SOL    HW2 9849   0.281   2.543   0.207
 2984SOL     OW 9850   6.627   4.643   6.659
 2984SOL    HW1 9851   6.655   4.616   6.567
 2984SOL    HW2 9852   6.705   4.684   6.707
 2985SOL     OW 9853   0.937   0.709   4.529
 2985SOL    HW1 9854   0.843   0.744   4.518
 2985SOL    HW2 9855   0.982   0.706   4.440
 2986SOL     OW 9856   3.271   3.910   2.319
 2986SOL    HW1 9857   3.183   3.897   2.364
 2986SOL    HW2 9858   3.317   3.990   2.357
 2987SOL     OW 9859   1.436   2.267   4.056
 2987SOL    HW1 9860   1.526   2.230   4.035
 2987SOL    HW2 9861   1.420   2.264   4.154
 2988SOL     OW 9862   1.317   0.111   1.573
 2988SOL    HW1 9863   1.414   0.127   1.555
 2988SOL    HW2 9864   1.305   0.087   1.670
 2989SOL     OW 9865   5.388   3.865   5.439
 2989SOL    HW1 9866   5.486   3.850   5.426
 2989SOL    HW2 9867   5.338   3.821   5.364
 2990SOL     OW 9868   5.460   2.345   4.225
 2990SOL    HW1 9869   5.464   2.249   4.252
 2990SOL    HW2 9870   5.365   2.370   4.206
 2991SOL     OW 9871   6.169   3.533   0.310
 2991SOL    HW1 9872   6.149   3.437   0.291
 2991SOL    HW2 9873   6.177   3.583   0.223
 2992SOL     OW 9874   0.608   4.590   4.445
 2992SOL    HW1 9875   0.580   4.537   4.525
 2992SOL    HW2 9876   0.696   4.633   4.462
 2993SOL     OW 9877   0.010   5.177   0.218
 2993SOL    HW1 9878   0.090   5.147   0.271
 2993SOL    HW2 9879   6.981   5.245   0.270
 2994SOL     OW 9880   4.517   6.536   6.814
 2994SOL    HW1 9881   4.567   6.449   6.813
 2994SOL    HW2 9882   4.462   6.542   6.897
 2995SOL     OW 9883   4.757   0.403   0.242
 2995SOL    HW1 9884   4.718   0.402   0.150
 2995SOL    HW2 9885   4.844   0.354   0.242
 2996SOL     OW 9886   1.715   2.036   4.805
 2996SOL    HW1 9887   1.734   1.990   4.718
 2996SOL    HW2 9888   1.776   2.000   4.876
 2997SOL     OW 9889   4.224   0.709   3.203
 2997SOL    HW1 9890   4.205   0.723   3.300
 2997SOL    HW2 9891   4.297   0.642   3.193
 2998SOL     OW 9892   3.006   0.540   3.987
 2998SOL    HW1 9893   3.015   0.457   4.042
 2998SOL    HW2 9894   3.094   0.587   3.984
 2999SOL     OW 9895   2.735   4.860   6.496
 2999SOL    HW1 9896   2.712   4.940   6.552
 2999SOL    HW2 9897   2.743   4.887   6.400
 3000SOL     OW 9898   2.772   3.800   5.696
 3000SOL    HW1 9899   2.784   3.702   5.684
 3000SOL    HW2 9900   2.677   3.824   5.675
 3001SOL     OW 9901   6.178   2.070   0.202
 3001SOL    HW1 9902   6.079   2.085   0.196
 3001SOL    HW2 9903   6.195   1.983   0.249
 3002SOL     OW 9904   2.853   1.371   1.189
 3002SOL    HW1 9905   2.863   1.273   1.171
 3002SOL    HW2 9906   2.896   1.423   1.115
 3003SOL     OW 9907   0.710   6.322   1.131
 3003SOL    HW1 9908   0.733   6.395   1.066
 3003SOL    HW2 9909   0.754   6.340   1.219
 3004SOL     OW 9910   1.862   4.460   4.303
 3004SOL    HW1 9911   1.913   4.378   4.275
 3004SOL    HW2 9912   1.782   4.471   4.244
 3005SOL     OW 9913   0.694   3.189   5.641
 3005SOL    HW1 9914   0.767   3.137   5.686
 3005SOL    HW2 9915   0.731   3.273   5.603
 3006SOL     OW 9916   5.805   1.543   5.717
 3006SOL    HW1 9917   5.811   1.443   5.717
 3006SOL    HW2 9918   5.710   1.571   5.724
 3007SOL     OW 9919   4.855   5.666   0.183
 3007SOL    HW1 9920   4.758   5.687   0.166
 3007SOL    HW2 9921   4.882   5.588   0.127
 3008SOL     OW 9922   3.699   2.341   5.920
 3008SOL    HW1 9923   3.760   2.263   5.907
 3008SOL    HW2 9924   3.712   2.406   5.846
 3009SOL     OW 9925   6.791   2.466   3.002
 3009SOL    HW1 9926   6.777   2.564   2.989
 3009SOL    HW2 9927   6.814   2.448   3.098
 3010SOL     OW 9928   3.496   5.848   5.670
 3010SOL    HW1 9929   3.527   5.933   5.629
 3010SOL    HW2 9930   3.469   5.783   5.599
 3011SOL     OW 9931   6.362   0.336   1.871
 3011SOL    HW1 9932   6.386   0.323   1.775
 3011SOL    HW2 9933   6.386   0.253   1.922
 3012SOL     OW 9934   2.658   3.537   6.779
 3012SOL    HW1 9935   2.710   3.596   6.717
 3012SOL    HW2 9936   2.571   3.513   6.737
 3013SOL     OW 9937   6.027   5.193   3.268
 3013SOL    HW1 9938   5.984   5.118   3.319
 3013SOL    HW2 9939   6.055   5.159   3.178
 3014SOL     OW 9940   5.097   1.215   6.573
 3014SOL    HW1 9941   5.010   1.167   6.583
 3014SOL    HW2 9942   5.082   1.314   6.574
 3015SOL     OW 9943   2.598   1.013   0.668
 3015SOL    HW1 9944   2.619   0.918   0.649
 3015SOL    HW2 9945   2.535   1.018   0.746
 3016SOL     OW 9946   3.240   0.131   4.223
 3016SOL    HW1 9947   3.331   0.138   4.181
 3016SOL    HW2 9948   3.227   0.208   4.286
 3017SOL     OW 9949   5.968   4.635   2.176
 3017SOL    HW1 9950   6.046   4.630   2.238
 3017SOL    HW2 9951   5.895   4.688   2.219
 3018SOL     OW 9952   3.870   6.735   6.585
 3018SOL    HW1 9953   3.845   6.693   6.672
 3018SOL    HW2 9954   3.876   6.834   6.596
 3019SOL     OW 9955   1.082   6.967   0.314
 3019SOL    HW1 9956   1.017   0.018   0.293
 3019SOL    HW2 9957   1.115   6.926   0.228
 3020SOL     OW 9958   4.979   3.215   0.022
 3020SOL    HW1 9959   4.980   3.234   6.945
 3020SOL    HW2 9960   4.903   3.154   0.043
 3021SOL     OW 9961   2.525   6.891   4.220
 3021SOL    HW1 9962   2.592   6.857   4.155
 3021SOL    HW2 9963   2.487   6.815   4.272
 3022SOL     OW 9964   3.789   5.971   4.128
 3022SOL    HW1 9965   3.786   6.066   4.096
 3022SOL    HW2 9966   3.855   5.964   4.203
 3023SOL     OW 9967   4.035   6.919   2.728
 3023SOL    HW1 9968   4.049   7.001   2.784
 3023SOL    HW2 9969   4.020   6.840   2.788
 3024SOL     OW 9970   5.842   5.768   5.172
 3024SOL    HW1 9971   5.813   5.693   5.112
 3024SOL    HW2 9972   5.762   5.812   5.212
 3025SOL     OW 9973   4.263   5.966   0.755
 3025SOL    HW1 9974   4.272   5.992   0.851
 3025SOL    HW2 9975   4.183   6.011   0.716
 3026SOL     OW 9976   6.874   1.063   6.873
 3026SOL    HW1 9977   6.934   1.091   6.948
 3026SOL    HW2 9978   6.840   1.144   6.825
 3027SOL     OW 9979   3.934   1.297   1.971
 3027SOL    HW1 9980   4.006   1.283   1.903
 3027SOL    HW2 9981   3.974   1.339   2.053
 3028SOL     OW 9982   1.823   3.890   6.355
 3028SOL    HW1 9983   1.765   3.970   6.346
 3028SOL    HW2 9984   1.919   3.917   6.346
 3029SOL     OW 9985   0.441   2.309   3.843
 3029SOL    HW1 9986   0.540   2.295   3.853
 3029SOL    HW2 9987   0.396   2.221   3.832
 3030SOL     OW 9988   1.338   4.182   0.974
 3030SOL    HW1 9989   1.438   4.179   0.973
 3030SOL    HW2 9990   1.307   4.277   0.982
 3031SOL     OW 9991   1.304   5.514   1.763
 3031SOL    HW1 9992   1.344   5.451   1.697
 3031SOL    HW2 9993   1.260   5.590   1.716
 3032SOL     OW 9994   1.766   5.833   3.195
 3032SOL    HW1 9995   1.772   5.865   3.290
 3032SOL    HW2 9996   1.858   5.821   3.158
 3033SOL     OW 9997   6.419   2.499   3.448
 3033SOL    HW1 9998   6.337   2.485   3.503
 3033SOL    HW2 9999   6.496   2.518   3.508
 3034SOL     OW10000   1.074   5.636   3.679
 3034SOL    HW110001   1.027   5.554   3.709
 3034SOL    HW210002   1.118   5.620   3.591
 3035SOL     OW10003   1.285   3.204   6.179
 3035SOL    HW110004   1.350   3.236   6.248
 3035SOL    HW210005   1.254   3.112   6.203
 3036SOL     OW10006   1.321   1.932   5.453
 3036SOL    HW110007   1.375   1.882   5.521
 3036SOL    HW210008   1.251   1.986   5.500
 3037SOL     OW10009   0.014   5.410   5.459
 3037SOL    HW110010   0.086   5.377   5.520
 3037SOL    HW210011   6.950   5.365   5.482
 3038SOL     OW10012   5.031   5.499   6.065
 3038SOL    HW110013   4.997   5.584   6.023
 3038SOL    HW210014   5.096   5.522   6.138
 3039SOL     OW10015   6.908   3.175   6.809
 3039SOL    HW110016   6.923   3.088   6.763
 3039SOL    HW210017   6.988   3.233   6.797
 3040SOL     OW10018   3.558   4.286   5.958
 3040SOL    HW110019   3.579   4.221   5.885
 3040SOL    HW210020   3.466   4.324   5.945
 3041SOL     OW10021   0.756   3.883   5.494
 3041SOL    HW110022   0.844   3.899   5.449
 3041SOL    HW210023   0.700   3.966   5.488
 3042SOL     OW10024   6.668   5.678   2.208
 3042SOL    HW110025   6.669   5.646   2.113
 3042SOL    HW210026   6.708   5.607   2.267
 3043SOL     OW10027   2.991   3.732   0.293
 3043SOL    HW110028   2.894   3.751   0.281
 3043SOL    HW210029   3.021   3.770   0.381
 3044SOL     OW10030   3.280   4.193   5.749
 3044SOL    HW110031   3.305   4.102   5.783
 3044SOL    HW210032   3.339   4.217   5.672
 3045SOL     OW10033   4.220   0.333   3.047
 3045SOL    HW110034   4.289   0.383   3.099
 3045SOL    HW210035   4.250   0.321   2.953
 3046SOL     OW10036   4.374   6.048   6.845
 3046SOL    HW110037   4.308   6.123   6.850
 3046SOL    HW210038   4.355   5.981   6.917
 3047SOL     OW10039   6.374   6.640   0.737
 3047SOL    HW110040   6.441   6.689   0.683
 3047SOL    HW210041   6.321   6.705   0.792
 3048SOL     OW10042   4.237   2.674   0.780
 3048SOL    HW110043   4.178   2.613   0.833
 3048SOL    HW210044   4.204   2.676   0.685
 3049SOL     OW10045   1.118   0.719   4.322
 3049SOL    HW110046   1.114   0.784   4.247
 3049SOL    HW210047   1.163   0.761   4.401
 3050SOL     OW10048   2.081   2.655   1.607
 3050SOL    HW110049   2.078   2.565   1.562
 3050SOL    HW210050   2.068   2.727   1.539
 3051SOL     OW10051   2.859   0.043   6.287
 3051SOL    HW110052   2.824   6.975   6.260
 3051SOL    HW210053   2.801   0.079   6.360
 3052SOL     OW10054   5.633   6.226   2.526
 3052SOL    HW110055   5.665   6.228   2.620
 3052SOL    HW210056   5.711   6.228   2.464
 3053SOL     OW10057   1.066   4.107   0.961
 3053SOL    HW110058   1.161   4.136   0.948
 3053SOL    HW210059   1.011   4.141   0.885
 3054SOL     OW10060   5.528   1.073   3.275
 3054SOL    HW110061   5.590   1.017   3.219
 3054SOL    HW210062   5.438   1.076   3.232
 3055SOL     OW10063   6.079   6.964   6.031
 3055SOL    HW110064   6.040   6.907   6.104
 3055SOL    HW210065   6.172   6.932   6.011
 3056SOL     OW10066   5.920   1.738   5.913
 3056SOL    HW110067   5.855   1.685   5.859
 3056SOL    HW210068   5.993   1.679   5.946
 3057SOL     OW10069   5.664   6.236   3.658
 3057SOL    HW110070   5.676   6.236   3.758
 3057SOL    HW210071   5.733   6.296   3.617
 3058SOL     OW10072   6.673   4.016   1.387
 3058SOL    HW110073   6.675   3.999   1.485
 3058SOL    HW210074   6.581   4.048   1.360
 3059SOL     OW10075   2.172   2.418   4.078
 3059SOL    HW110076   2.157   2.374   4.166
 3059SOL    HW210077   2.215   2.353   4.015
 3060SOL     OW10078   2.772   5.193   6.455
 3060SOL    HW110079   2.736   5.143   6.534
 3060SOL    HW210080   2.718   5.276   6.441
 3061SOL     OW10081   5.845   5.187   5.955
 3061SOL    HW110082   5.931   5.214   5.913
 3061SOL    HW210083   5.831   5.238   6.040
 3062SOL     OW10084   3.980   5.080   1.042
 3062SOL    HW110085   3.987   4.993   0.995
 3062SOL    HW210086   3.931   5.068   1.129
 3063SOL     OW10087   0.881   4.822   0.414
 3063SOL    HW110088   0.909   4.788   0.325
 3063SOL    HW210089   0.960   4.824   0.476
 3064SOL     OW10090   4.478   2.797   0.175
 3064SOL    HW110091   4.469   2.895   0.157
 3064SOL    HW210092   4.446   2.777   0.267
 3065SOL     OW10093   0.892   1.430   6.549
 3065SOL    HW110094   0.983   1.390   6.546
 3065SOL    HW210095   0.824   1.358   6.556
 3066SOL     OW10096   4.888   5.100   5.924
 3066SOL    HW110097   4.926   5.011   5.897
 3066SOL    HW210098   4.792   5.089   5.948
 3067SOL     OW10099   1.989   1.945   0.381
 3067SOL    HW110100   1.900   1.900   0.387
 3067SOL    HW210101   2.055   1.894   0.435
 3068SOL     OW10102   0.664   1.160   1.405
 3068SOL    HW110103   0.705   1.089   1.347
 3068SOL    HW210104   0.626   1.232   1.347
 3069SOL     OW10105   6.260   6.647   3.365
 3069SOL    HW110106   6.327   6.721   3.355
 3069SOL    HW210107   6.208   6.638   3.280
 3070SOL     OW10108   3.021   1.378   6.858
 3070SOL    HW110109   2.963   1.296   6.858
 3070SOL    HW210110   2.970   1.455   6.896
 3071SOL     OW10111   6.911   4.497   3.903
 3071SOL    HW110112   6.951   4.566   3.963
 3071SOL    HW210113   6.833   4.454   3.949
 3072SOL     OW10114   1.916   5.977   7.019
 3072SOL    HW110115   1.956   6.068   0.008
 3072SOL    HW210116   1.819   5.980   0.021
 3073SOL     OW10117   0.548   4.561   1.005
 3073SOL    HW110118   0.504   4.621   1.072
 3073SOL    HW210119   0.636   4.530   1.040
 3074SOL     OW10120   1.286   4.148   1.530
 3074SOL    HW110121   1.222   4.197   1.589
 3074SOL    HW210122   1.305   4.203   1.449
 3075SOL     OW10123   2.361   4.906   3.880
 3075SOL    HW110124   2.280   4.850   3.863
 3075SOL    HW210125   2.334   4.992   3.924
 3076SOL     OW10126   6.935   1.242   5.092
 3076SOL    HW110127   6.885   1.321   5.057
 3076SOL    HW210128   0.010   1.265   5.099
 3077SOL     OW10129   6.165   3.959   1.961
 3077SOL    HW110130   6.210   3.930   1.877
 3077SOL    HW210131   6.229   4.012   2.017
 3078SOL     OW10132   6.760   3.136   2.373
 3078SOL    HW110133   6.757   3.124   2.274
 3078SOL    HW210134   6.707   3.217   2.398
 3079SOL     OW10135   2.698   2.268   4.101
 3079SOL    HW110136   2.654   2.317   4.026
 3079SOL    HW210137   2.741   2.185   4.067
 3080SOL     OW10138   4.600   4.196   1.702
 3080SOL    HW110139   4.612   4.101   1.670
 3080SOL    HW210140   4.530   4.198   1.773
 3081SOL     OW10141   0.711   4.444   6.958
 3081SOL    HW110142   0.692   4.514   6.889
 3081SOL    HW210143   0.628   4.392   6.976
 3082SOL     OW10144   3.010   5.497   4.770
 3082SOL    HW110145   3.026   5.435   4.847
 3082SOL    HW210146   3.053   5.459   4.688
 3083SOL     OW10147   2.839   5.390   2.333
 3083SOL    HW110148   2.851   5.340   2.248
 3083SOL    HW210149   2.762   5.352   2.384
 3084SOL     OW10150   0.871   3.806   2.548
 3084SOL    HW110151   0.826   3.743   2.611
 3084SOL    HW210152   0.816   3.816   2.465
 3085SOL     OW10153   5.209   4.378   0.699
 3085SOL    HW110154   5.169   4.469   0.709
 3085SOL    HW210155   5.296   4.385   0.651
 3086SOL     OW10156   4.901   1.518   0.326
 3086SOL    HW110157   4.921   1.578   0.402
 3086SOL    HW210158   4.957   1.542   0.247
 3087SOL     OW10159   2.542   6.268   2.083
 3087SOL    HW110160   2.637   6.266   2.112
 3087SOL    HW210161   2.537   6.267   1.983
 3088SOL     OW10162   0.926   2.948   6.036
 3088SOL    HW110163   1.002   3.007   6.009
 3088SOL    HW210164   0.961   2.857   6.057
 3089SOL     OW10165   5.007   1.000   5.210
 3089SOL    HW110166   5.077   0.959   5.151
 3089SOL    HW210167   5.014   1.099   5.205
 3090SOL     OW10168   1.972   1.073   2.199
 3090SOL    HW110169   2.021   1.110   2.120
 3090SOL    HW210170   1.939   0.981   2.178
 3091SOL     OW10171   1.199   1.174   0.551
 3091SOL    HW110172   1.223   1.081   0.524
 3091SOL    HW210173   1.183   1.229   0.469
 3092SOL     OW10174   5.153   6.907   1.989
 3092SOL    HW110175   5.221   6.901   2.062
 3092SOL    HW210176   5.197   6.891   1.901
 3093SOL     OW10177   5.640   6.218   5.786
 3093SOL    HW110178   5.552   6.177   5.811
 3093SOL    HW210179   5.713   6.151   5.800
 3094SOL     OW10180   2.816   0.704   4.124
 3094SOL    HW110181   2.864   0.644   4.060
 3094SOL    HW210182   2.722   0.672   4.135
 3095SOL     OW10183   2.689   2.930   5.351
 3095SOL    HW110184   2.710   2.978   5.436
 3095SOL    HW210185   2.605   2.968   5.312
 3096SOL     OW10186   0.634   3.494   4.760
 3096SOL    HW110187   0.651   3.441   4.843
 3096SOL    HW210188   0.672   3.585   4.771
 3097SOL     OW10189   5.801   3.012   0.075
 3097SOL    HW110190   5.853   2.928   0.062
 3097SOL    HW210191   5.711   2.990   0.112
 3098SOL     OW10192   1.783   2.578   2.357
 3098SOL    HW110193   1.705   2.545   2.410
 3098SOL    HW210194   1.853   2.613   2.419
 3099SOL     OW10195   0.946   5.858   3.755
 3099SOL    HW110196   1.016   5.792   3.729
 3099SOL    HW210197   0.855   5.817   3.745
 3100SOL     OW10198   6.934   6.391   2.921
 3100SOL    HW110199   7.006   6.355   2.979
 3100SOL    HW210200   6.974   6.442   2.845
 3101SOL     OW10201   4.894   6.928   5.694
 3101SOL    HW110202   4.808   6.951   5.648
 3101SOL    HW210203   4.966   6.988   5.660
 3102SOL     OW10204   6.792   5.701   0.088
 3102SOL    HW110205   6.783   5.799   0.072
 3102SOL    HW210206   6.766   5.680   0.182
 3103SOL     OW10207   4.458   0.759   1.077
 3103SOL    HW110208   4.551   0.785   1.104
 3103SOL    HW210209   4.461   0.674   1.025
 3104SOL     OW10210   4.460   0.046   6.551
 3104SOL    HW110211   4.483   6.975   6.581
 3104SOL    HW210212   4.370   0.046   6.508
 3105SOL     OW10213   5.080   3.275   0.826
 3105SOL    HW110214   4.988   3.257   0.860
 3105SOL    HW210215   5.073   3.322   0.737
 3106SOL     OW10216   5.091   0.903   5.664
 3106SOL    HW110217   5.074   0.983   5.607
 3106SOL    HW210218   5.143   0.929   5.745
 3107SOL     OW10219   4.375   1.743   4.589
 3107SOL    HW110220   4.392   1.837   4.560
 3107SOL    HW210221   4.419   1.679   4.526
 3108SOL     OW10222   2.209   4.818   4.655
 3108SOL    HW110223   2.120   4.773   4.645
 3108SOL    HW210224   2.224   4.840   4.752
 3109SOL     OW10225   6.338   0.333   5.032
 3109SOL    HW110226   6.398   0.270   4.983
 3109SOL    HW210227   6.363   0.427   5.009
 3110SOL     OW10228   2.308   4.650   3.473
 3110SOL    HW110229   2.220   4.696   3.477
 3110SOL    HW210230   2.294   4.554   3.447
 3111SOL     OW10231   6.372   4.826   3.881
 3111SOL    HW110232   6.330   4.873   3.959
 3111SOL    HW210233   6.378   4.728   3.900
 3112SOL     OW10234   3.304   3.216   6.831
 3112SOL    HW110235   3.221   3.207   6.885
 3112SOL    HW210236   3.295   3.164   6.746
 3113SOL     OW10237   3.514   5.492   2.392
 3113SOL    HW110238   3.533   5.556   2.467
 3113SOL    HW210239   3.572   5.515   2.314
 3114SOL     OW10240   3.941   1.203   0.369
 3114SOL    HW110241   3.871   1.245   0.426
 3114SOL    HW210242   3.990   1.133   0.422
 3115SOL     OW10243   3.978   4.446   5.320
 3115SOL    HW110244   4.008   4.537   5.349
 3115SOL    HW210245   4.056   4.394   5.286
 3116SOL     OW10246   1.156   2.072   0.825
 3116SOL    HW110247   1.072   2.038   0.782
 3116SOL    HW210248   1.138   2.157   0.873
 3117SOL     OW10249   4.722   2.541   5.604
 3117SOL    HW110250   4.734   2.640   5.606
 3117SOL    HW210251   4.788   2.500   5.542
 3118SOL     OW10252   1.359   0.177   2.877
 3118SOL    HW110253   1.338   0.128   2.793
 3118SOL    HW210254   1.364   0.275   2.859
 3119SOL     OW10255   2.977   2.503   5.530
 3119SOL    HW110256   2.970   2.442   5.452
 3119SOL    HW210257   3.000   2.595   5.499
 3120SOL     OW10258   3.339   0.458   5.273
 3120SOL    HW110259   3.301   0.445   5.182
 3120SOL    HW210260   3.271   0.431   5.342
 3121SOL     OW10261   5.050   1.835   4.353
 3121SOL    HW110262   5.116   1.835   4.429
 3121SOL    HW210263   5.006   1.746   4.347
 3122SOL     OW10264   4.506   4.617   4.826
 3122SOL    HW110265   4.456   4.639   4.743
 3122SOL    HW210266   4.443   4.582   4.895
 3123SOL     OW10267   2.302   0.375   3.596
 3123SOL    HW110268   2.297   0.453   3.534
 3123SOL    HW210269   2.393   0.373   3.639
 3124SOL     OW10270   5.418   6.473   4.185
 3124SOL    HW110271   5.376   6.548   4.135
 3124SOL    HW210272   5.491   6.509   4.243
 3125SOL     OW10273   0.675   2.899   5.923
 3125SOL    HW110274   0.762   2.928   5.964
 3125SOL    HW210275   0.693   2.834   5.849
 3126SOL     OW10276   5.605   4.989   5.886
 3126SOL    HW110277   5.655   5.074   5.868
 3126SOL    HW210278   5.507   5.004   5.875
 3127SOL     OW10279   1.455   2.398   5.479
 3127SOL    HW110280   1.535   2.339   5.486
 3127SOL    HW210281   1.424   2.402   5.384
 3128SOL     OW10282   3.693   0.675   0.609
 3128SOL    HW110283   3.718   0.739   0.681
 3128SOL    HW210284   3.695   0.721   0.520
 3129SOL     OW10285   5.507   3.143   0.811
 3129SOL    HW110286   5.480   3.239   0.816
 3129SOL    HW210287   5.433   3.086   0.848
 3130SOL     OW10288   1.606   4.345   1.187
 3130SOL    HW110289   1.662   4.422   1.216
 3130SOL    HW210290   1.611   4.272   1.255
 3131SOL     OW10291   0.142   3.393   2.171
 3131SOL    HW110292   0.232   3.351   2.180
 3131SOL    HW210293   0.152   3.488   2.143
 3132SOL     OW10294   4.368   4.823   6.924
 3132SOL    HW110295   4.279   4.811   6.880
 3132SOL    HW210296   4.430   4.870   6.861
 3133SOL     OW10297   3.942   1.350   3.373
 3133SOL    HW110298   4.017   1.373   3.436
 3133SOL    HW210299   3.881   1.284   3.416
 3134SOL     OW10300   3.616   5.016   1.839
 3134SOL    HW110301   3.712   5.041   1.851
 3134SOL    HW210302   3.596   4.932   1.890
 3135SOL     OW10303   5.416   6.717   6.310
 3135SOL    HW110304   5.469   6.633   6.300
 3135SOL    HW210305   5.449   6.768   6.389
 3136SOL     OW10306   5.693   0.838   2.132
 3136SOL    HW110307   5.619   0.772   2.135
 3136SOL    HW210308   5.762   0.809   2.066
 3137SOL     OW10309   6.828   6.936   2.089
 3137SOL    HW110310   6.865   6.997   2.020
 3137SOL    HW210311   6.808   6.988   2.173
 3138SOL     OW10312   5.799   5.241   3.552
 3138SOL    HW110313   5.845   5.154   3.535
 3138SOL    HW210314   5.819   5.304   3.476
 3139SOL     OW10315   3.406   5.013   1.317
 3139SOL    HW110316   3.382   4.989   1.411
 3139SOL    HW210317   3.471   4.947   1.281
 3140SOL     OW10318   7.000   5.979   5.355
 3140SOL    HW110319   6.949   5.907   5.402
 3140SOL    HW210320   0.065   5.994   5.402
 3141SOL     OW10321   6.857   1.849   0.519
 3141SOL    HW110322   6.828   1.944   0.505
 3141SOL    HW210323   6.957   1.845   0.522
 3142SOL     OW10324   4.016   0.860   2.615
 3142SOL    HW110325   4.020   0.846   2.714
 3142SOL    HW210326   4.004   0.957   2.595
 3143SOL     OW10327   6.476   1.767   0.191
 3143SOL    HW110328   6.457   1.857   0.150
 3143SOL    HW210329   6.564   1.771   0.239
 3144SOL     OW10330   4.335   3.713   6.892
 3144SOL    HW110331   4.274   3.783   6.930
 3144SOL    HW210332   4.405   3.691   6.959
 3145SOL     OW10333   1.701   6.785   2.235
 3145SOL    HW110334   1.687   6.796   2.334
 3145SOL    HW210335   1.798   6.771   2.217
 3146SOL     OW10336   1.119   1.182   4.914
 3146SOL    HW110337   1.194   1.247   4.905
 3146SOL    HW210338   1.054   1.195   4.840
 3147SOL     OW10339   3.290   5.291   6.791
 3147SOL    HW110340   3.296   5.227   6.868
 3147SOL    HW210341   3.214   5.265   6.731
 3148SOL     OW10342   0.428   0.426   3.623
 3148SOL    HW110343   0.466   0.488   3.554
 3148SOL    HW210344   0.328   0.432   3.622
 3149SOL     OW10345   3.105   1.227   6.396
 3149SOL    HW110346   3.112   1.288   6.475
 3149SOL    HW210347   3.012   1.191   6.390
 3150SOL     OW10348   6.363   5.362   5.826
 3150SOL    HW110349   6.405   5.283   5.870
 3150SOL    HW210350   6.309   5.331   5.748
 3151SOL     OW10351   6.951   2.110   6.178
 3151SOL    HW110352   6.907   2.031   6.135
 3151SOL    HW210353   6.934   2.108   6.277
 3152SOL     OW10354   0.915   4.314   6.700
 3152SOL    HW110355   1.004   4.360   6.695
 3152SOL    HW210356   0.904   4.273   6.791
 3153SOL     OW10357   6.214   4.841   0.449
 3153SOL    HW110358   6.121   4.877   0.437
 3153SOL    HW210359   6.275   4.882   0.382
 3154SOL     OW10360   5.777   0.877   1.104
 3154SOL    HW110361   5.714   0.804   1.080
 3154SOL    HW210362   5.843   0.844   1.171
 3155SOL     OW10363   6.625   4.721   0.684
 3155SOL    HW110364   6.645   4.785   0.758
 3155SOL    HW210365   6.670   4.634   0.701
 3156SOL     OW10366   3.621   3.975   2.036
 3156SOL    HW110367   3.658   3.909   2.102
 3156SOL    HW210368   3.527   3.951   2.014
 3157SOL     OW10369   1.550   2.226   4.855
 3157SOL    HW110370   1.583   2.308   4.809
 3157SOL    HW210371   1.608   2.148   4.830
 3158SOL     OW10372   2.649   1.901   5.341
 3158SOL    HW110373   2.735   1.882   5.293
 3158SOL    HW210374   2.665   1.969   5.413
 3159SOL     OW10375   5.059   0.460   0.019
 3159SOL    HW110376   4.983   0.408   0.057
 3159SOL    HW210377   5.080   0.426   6.949
 3160SOL     OW10378   2.217   6.649   5.247
 3160SOL    HW110379   2.173   6.565   5.216
 3160SOL    HW210380   2.266   6.692   5.171
 3161SOL     OW10381   1.985   2.779   2.808
 3161SOL    HW110382   1.992   2.878   2.815
 3161SOL    HW210383   1.930   2.744   2.884
 3162SOL     OW10384   2.227   5.551   0.214
 3162SOL    HW110385   2.309   5.523   0.263
 3162SOL    HW210386   2.165   5.598   0.276
 3163SOL     OW10387   3.655   3.437   0.442
 3163SOL    HW110388   3.688   3.529   0.462
 3163SOL    HW210389   3.624   3.393   0.526
 3164SOL     OW10390   3.705   5.797   2.108
 3164SOL    HW110391   3.784   5.782   2.048
 3164SOL    HW210392   3.684   5.713   2.158
 3165SOL     OW10393   1.257   5.401   1.183
 3165SOL    HW110394   1.309   5.360   1.107
 3165SOL    HW210395   1.159   5.388   1.167
 3166SOL     OW10396   4.681   1.211   4.033
 3166SOL    HW110397   4.724   1.129   3.996
 3166SOL    HW210398   4.600   1.234   3.978
 3167SOL     OW10399   5.690   4.375   1.088
 3167SOL    HW110400   5.680   4.456   1.144
 3167SOL    HW210401   5.786   4.347   1.086
 3168SOL     OW10402   6.032   2.399   1.087
 3168SOL    HW110403   5.985   2.477   1.047
 3168SOL    HW210404   5.984   2.368   1.168
 3169SOL     OW10405   2.004   4.490   3.090
 3169SOL    HW110406   2.067   4.506   3.014
 3169SOL    HW210407   2.056   4.469   3.173
 3170SOL     OW10408   4.356   5.964   2.384
 3170SOL    HW110409   4.396   6.055   2.389
 3170SOL    HW210410   4.257   5.971   2.395
 3171SOL     OW10411   5.672   2.255   1.744
 3171SOL    HW110412   5.581   2.250   1.783
 3171SOL    HW210413   5.714   2.165   1.746
 3172SOL     OW10414   0.278   5.337   0.029
 3172SOL    HW110415   0.211   5.409   0.014
 3172SOL    HW210416   0.330   5.356   0.112
 3173SOL     OW10417   2.836   2.654   6.848
 3173SOL    HW110418   2.767   2.647   6.776
 3173SOL    HW210419   2.927   2.659   6.806
 3174SOL     OW10420   2.530   2.811   6.308
 3174SOL    HW110421   2.493   2.871   6.379
 3174SOL    HW210422   2.479   2.725   6.307
 3175SOL     OW10423   5.574   1.157   2.127
 3175SOL    HW110424   5.587   1.075   2.072
 3175SOL    HW210425   5.579   1.134   2.224
 3176SOL     OW10426   0.293   2.863   5.377
 3176SOL    HW110427   0.334   2.953   5.391
 3176SOL    HW210428   0.342   2.795   5.430
 3177SOL     OW10429   5.009   4.161   3.895
 3177SOL    HW110430   5.073   4.098   3.938
 3177SOL    HW210431   4.917   4.145   3.933
 3178SOL     OW10432   6.253   2.207   0.480
 3178SOL    HW110433   6.211   2.116   0.476
 3178SOL    HW210434   6.250   2.248   0.389
 3179SOL     OW10435   1.318   1.639   1.734
 3179SOL    HW110436   1.285   1.590   1.815
 3179SOL    HW210437   1.417   1.650   1.740
 3180SOL     OW10438   5.393   6.461   0.253
 3180SOL    HW110439   5.470   6.471   0.317
 3180SOL    HW210440   5.416   6.391   0.185
 3181SOL     OW10441   6.666   1.320   4.285
 3181SOL    HW110442   6.614   1.261   4.346
 3181SOL    HW210443   6.699   1.400   4.337
 3182SOL     OW10444   2.705   0.779   6.380
 3182SOL    HW110445   2.695   0.712   6.454
 3182SOL    HW210446   2.636   0.852   6.392
 3183SOL     OW10447   4.460   5.082   2.104
 3183SOL    HW110448   4.455   5.051   2.009
 3183SOL    HW210449   4.378   5.053   2.153
 3184SOL     OW10450   0.309   1.897   2.858
 3184SOL    HW110451   0.316   1.798   2.853
 3184SOL    HW210452   0.214   1.923   2.876
 3185SOL     OW10453   6.014   6.781   6.219
 3185SOL    HW110454   6.075   6.716   6.174
 3185SOL    HW210455   5.932   6.733   6.251
 3186SOL     OW10456   2.778   1.488   0.815
 3186SOL    HW110457   2.698   1.441   0.852
 3186SOL    HW210458   2.854   1.478   0.879
 3187SOL     OW10459   3.349   5.130   2.151
 3187SOL    HW110460   3.295   5.141   2.234
 3187SOL    HW210461   3.424   5.066   2.167
 3188SOL     OW10462   2.265   5.607   4.830
 3188SOL    HW110463   2.238   5.698   4.859
 3188SOL    HW210464   2.211   5.579   4.750
 3189SOL     OW10465   1.981   1.571   0.450
 3189SOL    HW110466   1.895   1.541   0.408
 3189SOL    HW210467   1.961   1.639   0.521
 3190SOL     OW10468   6.483   5.659   6.773
 3190SOL    HW110469   6.581   5.674   6.775
 3190SOL    HW210470   6.464   5.562   6.758
 3191SOL     OW10471   4.637   5.288   1.772
 3191SOL    HW110472   4.652   5.330   1.861
 3191SOL    HW210473   4.558   5.228   1.776
 3192SOL     OW10474   0.275   2.599   0.872
 3192SOL    HW110475   0.237   2.513   0.907
 3192SOL    HW210476   0.223   2.676   0.910
 3193SOL     OW10477   4.019   1.173   5.206
 3193SOL    HW110478   4.103   1.169   5.259
 3193SOL    HW210479   3.986   1.268   5.204
 3194SOL     OW10480   0.811   1.077   4.805
 3194SOL    HW110481   0.729   1.038   4.764
 3194SOL    HW210482   0.789   1.116   4.894
 3195SOL     OW10483   0.545   1.343   1.704
 3195SOL    HW110484   0.605   1.401   1.758
 3195SOL    HW210485   0.479   1.298   1.765
 3196SOL     OW10486   6.696   0.548   6.483
 3196SOL    HW110487   6.706   0.510   6.575
 3196SOL    HW210488   6.787   0.572   6.447
 3197SOL     OW10489   2.326   0.008   5.414
 3197SOL    HW110490   2.323   6.935   5.447
 3197SOL    HW210491   2.320   0.070   5.492
 3198SOL     OW10492   6.082   2.605   3.185
 3198SOL    HW110493   6.009   2.558   3.234
 3198SOL    HW210494   6.168   2.555   3.196
 3199SOL     OW10495   5.356   4.775   3.080
 3199SOL    HW110496   5.434   4.835   3.098
 3199SOL    HW210497   5.388   4.680   3.080
 3200SOL     OW10498   6.183   3.111   2.826
 3200SOL    HW110499   6.252   3.165   2.778
 3200SOL    HW210500   6.210   3.098   2.921
 3201SOL     OW10501   6.300   5.060   3.447
 3201SOL    HW110502   6.272   5.154   3.428
 3201SOL    HW210503   6.236   4.997   3.404
 3202SOL     OW10504   0.861   5.382   0.637
 3202SOL    HW110505   0.898   5.292   0.656
 3202SOL    HW210506   0.774   5.373   0.589
 3203SOL     OW10507   5.542   1.571   1.501
 3203SOL    HW110508   5.640   1.559   1.518
 3203SOL    HW210509   5.527   1.659   1.456
 3204SOL     OW10510   3.152   0.845   2.906
 3204SOL    HW110511   3.229   0.828   2.968
 3204SOL    HW210512   3.124   0.759   2.864
 3205SOL     OW10513   5.083   2.736   5.717
 3205SOL    HW110514   5.044   2.788   5.641
 3205SOL    HW210515   5.029   2.754   5.800
 3206SOL     OW10516   2.381   3.766   1.288
 3206SOL    HW110517   2.413   3.859   1.272
 3206SOL    HW210518   2.326   3.736   1.209
 3207SOL     OW10519   1.362   0.914   6.599
 3207SOL    HW110520   1.407   0.839   6.550
 3207SOL    HW210521   1.432   0.976   6.636
 3208SOL     OW10522   5.600   6.061   6.127
 3208SOL    HW110523   5.549   6.044   6.212
 3208SOL    HW210524   5.679   6.118   6.148
 3209SOL     OW10525   3.061   4.956   4.588
 3209SOL    HW110526   3.026   4.887   4.651
 3209SOL    HW210527   2.985   5.004   4.546
 3210SOL     OW10528   1.316   4.916   1.350
 3210SOL    HW110529   1.267   4.837   1.314
 3210SOL    HW210530   1.250   4.988   1.373
 3211SOL     OW10531   2.105   4.746   0.494
 3211SOL    HW110532   2.146   4.670   0.444
 3211SOL    HW210533   2.139   4.745   0.588
 3212SOL     OW10534   3.166   6.903   2.194
 3212SOL    HW110535   3.118   6.882   2.109
 3212SOL    HW210536   3.153   6.999   2.217
 3213SOL     OW10537   1.747   0.357   6.458
 3213SOL    HW110538   1.792   0.445   6.471
 3213SOL    HW210539   1.794   0.287   6.512
 3214SOL     OW10540   4.721   6.318   2.645
 3214SOL    HW110541   4.711   6.219   2.636
 3214SOL    HW210542   4.784   6.339   2.720
 3215SOL     OW10543   0.732   3.945   1.056
 3215SOL    HW110544   0.647   3.959   1.006
 3215SOL    HW210545   0.767   4.033   1.087
 3216SOL     OW10546   5.697   5.247   1.012
 3216SOL    HW110547   5.683   5.275   0.917
 3216SOL    HW210548   5.787   5.204   1.022
 3217SOL     OW10549   0.212   5.610   2.088
 3217SOL    HW110550   0.307   5.617   2.119
 3217SOL    HW210551   0.209   5.568   1.998
 3218SOL     OW10552   5.804   2.322   3.348
 3218SOL    HW110553   5.819   2.416   3.377
 3218SOL    HW210554   5.708   2.299   3.357
 3219SOL     OW10555   6.679   0.382   4.781
 3219SOL    HW110556   6.701   0.428   4.867
 3219SOL    HW210557   6.763   0.358   4.733
 3220SOL     OW10558   0.331   5.722   6.208
 3220SOL    HW110559   0.426   5.752   6.205
 3220SOL    HW210560   0.278   5.774   6.141
 3221SOL     OW10561   3.145   6.534   2.482
 3221SOL    HW110562   3.217   6.581   2.534
 3221SOL    HW210563   3.104   6.597   2.417
 3222SOL     OW10564   3.140   0.788   2.383
 3222SOL    HW110565   3.125   0.774   2.285
 3222SOL    HW210566   3.195   0.870   2.397
 3223SOL     OW10567   2.890   0.123   0.167
 3223SOL    HW110568   2.859   0.030   0.144
 3223SOL    HW210569   2.973   0.118   0.222
 3224SOL     OW10570   4.766   2.484   5.081
 3224SOL    HW110571   4.688   2.536   5.046
 3224SOL    HW210572   4.769   2.394   5.038
 3225SOL     OW10573   4.642   1.308   5.329
 3225SOL    HW110574   4.634   1.261   5.417
 3225SOL    HW210575   4.720   1.370   5.331
 3226SOL     OW10576   1.825   0.403   1.688
 3226SOL    HW110577   1.784   0.429   1.775
 3226SOL    HW210578   1.776   0.448   1.613
 3227SOL     OW10579   3.307   3.034   6.624
 3227SOL    HW110580   3.379   3.034   6.555
 3227SOL    HW210581   3.226   2.988   6.588
 3228SOL     OW10582   6.898   3.726   0.638
 3228SOL    HW110583   6.861   3.658   0.576
 3228SOL    HW210584   6.853   3.814   0.623
 3229SOL     OW10585   3.699   0.828   5.405
 3229SOL    HW110586   3.610   0.785   5.415
 3229SOL    HW210587   3.753   0.813   5.489
 3230SOL     OW10588   1.666   5.720   6.172
 3230SOL    HW110589   1.689   5.623   6.167
 3230SOL    HW210590   1.731   5.773   6.118
 3231SOL     OW10591   2.778   1.005   2.971
 3231SOL    HW110592   2.782   0.980   2.874
 3231SOL    HW210593   2.863   0.980   3.016
 3232SOL     OW10594   3.993   5.753   4.003
 3232SOL    HW110595   3.925   5.814   4.043
 3232SOL    HW210596   4.067   5.807   3.962
 3233SOL     OW10597   0.285   2.877   0.560
 3233SOL    HW110598   0.200   2.837   0.594
 3233SOL    HW210599   0.331   2.812   0.500
 3234SOL     OW10600   1.215   2.926   0.361
 3234SOL    HW110601   1.275   2.991   0.313
 3234SOL    HW210602   1.245   2.918   0.456
 3235SOL     OW10603   6.454   0.089   2.024
 3235SOL    HW110604   6.370   0.048   2.061
 3235SOL    HW210605   6.515   0.016   1.993
 3236SOL     OW10606   1.084   4.549   0.759
 3236SOL    HW110607   1.021   4.627   0.756
 3236SOL    HW210608   1.120   4.533   0.667
 3237SOL     OW10609   6.126   1.123   2.750
 3237SOL    HW110610   6.109   1.136   2.848
 3237SOL    HW210611   6.203   1.060   2.737
 3238SOL     OW10612   5.858   5.237   0.036
 3238SOL    HW110613   5.837   5.155   7.005
 3238SOL    HW210614   5.950   5.269   0.013
 3239SOL     OW10615   0.138   0.508   3.612
 3239SOL    HW110616   0.051   0.554   3.631
 3239SOL    HW210617   0.172   0.536   3.522
 3240SOL     OW10618   0.637   0.529   5.758
 3240SOL    HW110619   0.537   0.532   5.763
 3240SOL    HW210620   0.672   0.465   5.827
 3241SOL     OW10621   5.375   1.501   5.876
 3241SOL    HW110622   5.425   1.435   5.820
 3241SOL    HW210623   5.295   1.533   5.826
 3242SOL     OW10624   4.849   3.729   5.857
 3242SOL    HW110625   4.826   3.661   5.927
 3242SOL    HW210626   4.779   3.728   5.786
 3243SOL     OW10627   4.561   5.603   0.188
 3243SOL    HW110628   4.544   5.657   0.271
 3243SOL    HW210629   4.592   5.511   0.214
 3244SOL     OW10630   5.954   6.360   6.991
 3244SOL    HW110631   5.920   6.266   6.988
 3244SOL    HW210632   5.934   6.405   6.905
 3245SOL     OW10633   4.940   1.671   4.685
 3245SOL    HW110634   4.853   1.623   4.679
 3245SOL    HW210635   5.015   1.609   4.662
 3246SOL     OW10636   6.476   7.009   2.872
 3246SOL    HW110637   6.558   0.039   2.848
 3246SOL    HW210638   6.490   6.913   2.848
 3247SOL     OW10639   6.576   4.826   2.149
 3247SOL    HW110640   6.506   4.811   2.219
 3247SOL    HW210641   6.667   4.822   2.190
 3248SOL     OW10642   5.364   2.282   2.756
 3248SOL    HW110643   5.430   2.245   2.822
 3248SOL    HW210644   5.298   2.339   2.804
 3249SOL     OW10645   3.421   3.893   3.411
 3249SOL    HW110646   3.446   3.879   3.315
 3249SOL    HW210647   3.322   3.895   3.419
 3250SOL     OW10648   5.281   0.339   2.863
 3250SOL    HW110649   5.245   0.355   2.771
 3250SOL    HW210650   5.205   0.333   2.928
 3251SOL     OW10651   3.027   0.881   4.140
 3251SOL    HW110652   2.945   0.824   4.132
 3251SOL    HW210653   3.020   0.959   4.078
 3252SOL     OW10654   2.745   0.636   2.660
 3252SOL    HW110655   2.793   0.559   2.620
 3252SOL    HW210656   2.790   0.722   2.633
 3253SOL     OW10657   4.615   3.417   0.293
 3253SOL    HW110658   4.662   3.424   0.381
 3253SOL    HW210659   4.516   3.413   0.308
 3254SOL     OW10660   5.012   6.629   6.457
 3254SOL    HW110661   4.933   6.568   6.472
 3254SOL    HW210662   5.028   6.683   6.539
 3255SOL     OW10663   4.977   6.505   1.096
 3255SOL    HW110664   4.892   6.471   1.055
 3255SOL    HW210665   4.998   6.595   1.059
 3256SOL     OW10666   3.501   1.989   0.850
 3256SOL    HW110667   3.512   1.916   0.917
 3256SOL    HW210668   3.518   2.077   0.893
 3257SOL     OW10669   2.092   1.769   1.591
 3257SOL    HW110670   2.068   1.803   1.682
 3257SOL    HW210671   2.088   1.845   1.526
 3258SOL     OW10672   4.002   5.497   3.422
 3258SOL    HW110673   4.027   5.522   3.328
 3258SOL    HW210674   3.933   5.424   3.419
 3259SOL     OW10675   4.952   5.578   4.331
 3259SOL    HW110676   5.030   5.540   4.378
 3259SOL    HW210677   4.872   5.518   4.343
 3260SOL     OW10678   1.683   3.380   1.454
 3260SOL    HW110679   1.600   3.419   1.495
 3260SOL    HW210680   1.759   3.444   1.466
 3261SOL     OW10681   5.214   0.626   1.238
 3261SOL    HW110682   5.129   0.646   1.190
 3261SOL    HW210683   5.273   0.707   1.236
 3262SOL     OW10684   3.896   2.106   1.895
 3262SOL    HW110685   3.860   2.188   1.940
 3262SOL    HW210686   3.832   2.030   1.905
 3263SOL     OW10687   3.235   1.117   2.652
 3263SOL    HW110688   3.280   1.205   2.665
 3263SOL    HW210689   3.170   1.101   2.726
 3264SOL     OW10690   1.987   5.493   1.147
 3264SOL    HW110691   1.970   5.415   1.207
 3264SOL    HW210692   2.071   5.477   1.096
 3265SOL     OW10693   5.651   6.838   6.471
 3265SOL    HW110694   5.608   6.928   6.482
 3265SOL    HW210695   5.731   6.846   6.412
 3266SOL     OW10696   3.123   4.472   6.587
 3266SOL    HW110697   3.070   4.557   6.597
 3266SOL    HW210698   3.142   4.456   6.490
 3267SOL     OW10699   2.667   6.873   2.366
 3267SOL    HW110700   2.665   6.778   2.399
 3267SOL    HW210701   2.674   6.935   2.444
 3268SOL     OW10702   1.822   4.362   0.979
 3268SOL    HW110703   1.749   4.298   0.957
 3268SOL    HW210704   1.791   4.423   1.052
 3269SOL     OW10705   6.653   5.632   1.944
 3269SOL    HW110706   6.642   5.569   1.867
 3269SOL    HW210707   6.594   5.711   1.932
 3270SOL     OW10708   1.561   3.603   0.090
 3270SOL    HW110709   1.564   3.702   0.102
 3270SOL    HW210710   1.538   3.559   0.177
 3271SOL     OW10711   6.774   3.205   1.648
 3271SOL    HW110712   6.727   3.117   1.653
 3271SOL    HW210713   6.813   3.227   1.737
 3272SOL     OW10714   2.779   4.355   6.608
 3272SOL    HW110715   2.869   4.324   6.640
 3272SOL    HW210716   2.758   4.443   6.650
 3273SOL     OW10717   6.380   4.993   6.989
 3273SOL    HW110718   6.480   4.996   6.985
 3273SOL    HW210719   6.342   5.036   6.907
 3274SOL     OW10720   5.818   0.515   0.858
 3274SOL    HW110721   5.761   0.597   0.846
 3274SOL    HW210722   5.812   0.485   0.954
 3275SOL     OW10723   4.841   0.842   0.006
 3275SOL    HW110724   4.750   0.870   6.996
 3275SOL    HW210725   4.905   0.845   6.951
 3276SOL     OW10726   3.958   6.437   6.761
 3276SOL    HW110727   3.911   6.369   6.816
 3276SOL    HW210728   3.949   6.414   6.664
 3277SOL     OW10729   3.515   1.331   0.966
 3277SOL    HW110730   3.594   1.355   1.022
 3277SOL    HW210731   3.433   1.373   1.004
 3278SOL     OW10732   1.249   0.890   5.886
 3278SOL    HW110733   1.150   0.897   5.881
 3278SOL    HW210734   1.277   0.872   5.981
 3279SOL     OW10735   5.296   0.031   0.609
 3279SOL    HW110736   5.322   6.973   0.556
 3279SOL    HW210737   5.277   0.004   0.704
 3280SOL     OW10738   4.755   4.941   4.848
 3280SOL    HW110739   4.800   4.911   4.764
 3280SOL    HW210740   4.656   4.934   4.838
 3281SOL     OW10741   1.158   5.110   0.993
 3281SOL    HW110742   1.080   5.168   1.015
 3281SOL    HW210743   1.140   5.016   1.021
 3282SOL     OW10744   6.612   4.510   5.004
 3282SOL    HW110745   6.599   4.484   5.100
 3282SOL    HW210746   6.574   4.439   4.944
 3283SOL     OW10747   3.301   1.101   1.411
 3283SOL    HW110748   3.386   1.083   1.361
 3283SOL    HW210749   3.283   1.024   1.473
 3284SOL     OW10750   0.971   6.056   5.387
 3284SOL    HW110751   0.894   6.106   5.427
 3284SOL    HW210752   0.961   5.959   5.406
 3285SOL     OW10753   4.898   2.355   4.800
 3285SOL    HW110754   4.962   2.320   4.868
 3285SOL    HW210755   4.948   2.402   4.727
 3286SOL     OW10756   3.362   2.581   1.598
 3286SOL    HW110757   3.287   2.648   1.598
 3286SOL    HW210758   3.441   2.619   1.647
 3287SOL     OW10759   0.652   0.481   0.363
 3287SOL    HW110760   0.736   0.491   0.310
 3287SOL    HW210761   0.581   0.539   0.323
 3288SOL     OW10762   1.854   6.942   0.005
 3288SOL    HW110763   1.943   6.898   0.012
 3288SOL    HW210764   1.829   6.952   6.930
 3289SOL     OW10765   2.652   1.504   5.997
 3289SOL    HW110766   2.709   1.485   5.918
 3289SOL    HW210767   2.699   1.475   6.080
 3290SOL     OW10768   6.581   5.200   0.864
 3290SOL    HW110769   6.533   5.114   0.844
 3290SOL    HW210770   6.585   5.214   0.963
 3291SOL     OW10771   2.480   1.055   5.624
 3291SOL    HW110772   2.495   1.020   5.532
 3291SOL    HW210773   2.555   1.025   5.683
 3292SOL     OW10774   0.046   1.240   0.401
 3292SOL    HW110775   0.031   1.321   0.458
 3292SOL    HW210776   0.137   1.244   0.360
 3293SOL     OW10777   6.503   4.878   1.645
 3293SOL    HW110778   6.579   4.813   1.647
 3293SOL    HW210779   6.418   4.829   1.625
 3294SOL     OW10780   4.981   2.334   6.130
 3294SOL    HW110781   5.023   2.269   6.193
 3294SOL    HW210782   4.993   2.301   6.036
 3295SOL     OW10783   1.176   3.402   1.837
 3295SOL    HW110784   1.152   3.391   1.933
 3295SOL    HW210785   1.156   3.317   1.788
 3296SOL     OW10786   0.776   0.744   3.439
 3296SOL    HW110787   0.807   0.711   3.528
 3296SOL    HW210788   0.703   0.812   3.453
 3297SOL     OW10789   2.687   1.255   5.476
 3297SOL    HW110790   2.654   1.269   5.382
 3297SOL    HW210791   2.699   1.343   5.520
 3298SOL     OW10792   6.636   2.185   5.517
 3298SOL    HW110793   6.598   2.207   5.427
 3298SOL    HW210794   6.730   2.154   5.507
 3299SOL     OW10795   3.606   6.076   3.051
 3299SOL    HW110796   3.526   6.082   3.110
 3299SOL    HW210797   3.674   6.015   3.094
 3300SOL     OW10798   1.700   0.550   6.145
 3300SOL    HW110799   1.633   0.601   6.091
 3300SOL    HW210800   1.654   0.478   6.197
 3301SOL     OW10801   2.134   3.387   3.858
 3301SOL    HW110802   2.216   3.343   3.896
 3301SOL    HW210803   2.115   3.349   3.767
 3302SOL     OW10804   0.808   5.056   5.098
 3302SOL    HW110805   0.828   4.962   5.129
 3302SOL    HW210806   0.776   5.053   5.003
 3303SOL     OW10807   3.117   3.872   6.998
 3303SOL    HW110808   3.047   3.940   6.978
 3303SOL    HW210809   3.183   3.868   6.922
 3304SOL     OW10810   1.508   5.107   6.259
 3304SOL    HW110811   1.493   5.037   6.189
 3304SOL    HW210812   1.593   5.156   6.240
 3305SOL     OW10813   2.955   0.985   1.905
 3305SOL    HW110814   2.915   0.963   1.994
 3305SOL    HW210815   2.980   1.081   1.902
 3306SOL     OW10816   1.157   4.795   4.690
 3306SOL    HW110817   1.143   4.863   4.762
 3306SOL    HW210818   1.116   4.708   4.718
 3307SOL     OW10819   0.912   0.183   5.281
 3307SOL    HW110820   0.921   0.105   5.218
 3307SOL    HW210821   0.869   0.259   5.233
 3308SOL     OW10822   3.284   5.581   0.981
 3308SOL    HW110823   3.266   5.526   1.062
 3308SOL    HW210824   3.372   5.626   0.990
 3309SOL     OW10825   6.278   4.720   4.380
 3309SOL    HW110826   6.359   4.719   4.321
 3309SOL    HW210827   6.270   4.809   4.425
 3310SOL     OW10828   6.919   4.149   4.674
 3310SOL    HW110829   6.882   4.228   4.627
 3310SOL    HW210830   6.858   4.071   4.662
 3311SOL     OW10831   3.124   4.115   0.461
 3311SOL    HW110832   3.125   4.141   0.558
 3311SOL    HW210833   3.030   4.107   0.429
 3312SOL     OW10834   3.950   3.211   5.953
 3312SOL    HW110835   3.979   3.278   6.022
 3312SOL    HW210836   4.024   3.199   5.887
 3313SOL     OW10837   1.475   6.527   3.564
 3313SOL    HW110838   1.422   6.565   3.640
 3313SOL    HW210839   1.543   6.594   3.533
 3314SOL     OW10840   2.555   0.611   1.840
 3314SOL    HW110841   2.595   0.537   1.893
 3314SOL    HW210842   2.628   0.669   1.803
 3315SOL     OW10843   0.543   3.870   5.136
 3315SOL    HW110844   0.480   3.861   5.214
 3315SOL    HW210845   0.523   3.954   5.086
 3316SOL     OW10846   4.231   0.855   4.943
 3316SOL    HW110847   4.252   0.857   4.845
 3316SOL    HW210848   4.301   0.802   4.991
 3317SOL     OW10849   5.223   2.433   2.361
 3317SOL    HW110850   5.129   2.412   2.386
 3317SOL    HW210851   5.236   2.532   2.361
 3318SOL     OW10852   1.726   1.483   0.366
 3318SOL    HW110853   1.661   1.407   0.370
 3318SOL    HW210854   1.691   1.552   0.303
 3319SOL     OW10855   5.630   1.030   3.794
 3319SOL    HW110856   5.557   1.068   3.850
 3319SOL    HW210857   5.592   0.998   3.707
 3320SOL     OW10858   5.982   0.881   0.094
 3320SOL    HW110859   6.047   0.932   0.038
 3320SOL    HW210860   5.959   0.934   0.175
 3321SOL     OW10861   5.854   1.687   0.863
 3321SOL    HW110862   5.924   1.758   0.853
 3321SOL    HW210863   5.769   1.717   0.820
 3322SOL     OW10864   0.257   2.592   1.318
 3322SOL    HW110865   0.342   2.552   1.353
 3322SOL    HW210866   0.275   2.686   1.288
 3323SOL     OW10867   2.338   2.529   0.662
 3323SOL    HW110868   2.308   2.594   0.731
 3323SOL    HW210869   2.427   2.491   0.690
 3324SOL     OW10870   4.373   5.201   6.116
 3324SOL    HW110871   4.441   5.149   6.064
 3324SOL    HW210872   4.289   5.148   6.122
 3325SOL     OW10873   0.211   3.785   0.160
 3325SOL    HW110874   0.152   3.819   0.087
 3325SOL    HW210875   0.240   3.861   0.218
 3326SOL     OW10876   4.581   1.435   1.817
 3326SOL    HW110877   4.509   1.417   1.883
 3326SOL    HW210878   4.541   1.448   1.726
 3327SOL     OW10879   2.912   5.810   1.166
 3327SOL    HW110880   2.812   5.807   1.164
 3327SOL    HW210881   2.942   5.905   1.169
 3328SOL     OW10882   3.863   1.855   0.630
 3328SOL    HW110883   3.914   1.865   0.545
 3328SOL    HW210884   3.765   1.867   0.611
 3329SOL     OW10885   5.533   0.206   5.619
 3329SOL    HW110886   5.439   0.207   5.654
 3329SOL    HW210887   5.535   0.163   5.529
 3330SOL     OW10888   6.228   3.526   1.837
 3330SOL    HW110889   6.167   3.593   1.795
 3330SOL    HW210890   6.213   3.437   1.795
 3331SOL     OW10891   2.671   3.254   1.429
 3331SOL    HW110892   2.592   3.313   1.411
 3331SOL    HW210893   2.639   3.164   1.457
 3332SOL     OW10894   5.863   5.346   0.274
 3332SOL    HW110895   5.884   5.294   0.357
 3332SOL    HW210896   5.840   5.283   0.200
 3333SOL     OW10897   3.733   5.773   6.362
 3333SOL    HW110898   3.662   5.814   6.306
 3333SOL    HW210899   3.783   5.705   6.309
 3334SOL     OW10900   3.072   3.778   1.192
 3334SOL    HW110901   3.167   3.784   1.223
 3334SOL    HW210902   3.054   3.686   1.157
 3335SOL     OW10903   4.791   5.087   5.268
 3335SOL    HW110904   4.729   5.037   5.328
 3335SOL    HW210905   4.885   5.063   5.289
 3336SOL     OW10906   2.947   5.087   4.934
 3336SOL    HW110907   2.901   5.099   4.846
 3336SOL    HW210908   3.004   5.004   4.931
 3337SOL     OW10909   3.201   2.783   1.888
 3337SOL    HW110910   3.221   2.773   1.791
 3337SOL    HW210911   3.147   2.704   1.919
 3338SOL     OW10912   6.212   3.474   1.059
 3338SOL    HW110913   6.224   3.558   1.005
 3338SOL    HW210914   6.298   3.453   1.106
 3339SOL     OW10915   6.652   0.030   6.646
 3339SOL    HW110916   6.692   0.071   6.565
 3339SOL    HW210917   6.633   0.100   6.714
 3340SOL     OW10918   3.798   0.076   1.350
 3340SOL    HW110919   3.875   0.101   1.292
 3340SOL    HW210920   3.758   0.158   1.391
 3341SOL     OW10921   1.535   6.055   4.122
 3341SOL    HW110922   1.597   6.005   4.062
 3341SOL    HW210923   1.442   6.017   4.114
 3342SOL     OW10924   2.448   6.644   4.315
 3342SOL    HW110925   2.371   6.607   4.366
 3342SOL    HW210926   2.481   6.576   4.250
 3343SOL     OW10927   5.098   2.903   0.392
 3343SOL    HW110928   5.123   2.915   0.488
 3343SOL    HW210929   5.042   2.821   0.382
 3344SOL     OW10930   5.936   3.399   4.613
 3344SOL    HW110931   5.941   3.334   4.537
 3344SOL    HW210932   5.849   3.448   4.610
 3345SOL     OW10933   2.105   3.871   5.686
 3345SOL    HW110934   2.152   3.892   5.600
 3345SOL    HW210935   2.040   3.797   5.672
 3346SOL     OW10936   1.668   0.944   1.796
 3346SOL    HW110937   1.744   0.889   1.761
 3346SOL    HW210938   1.612   0.977   1.720
 3347SOL     OW10939   0.616   5.070   3.845
 3347SOL    HW110940   0.705   5.054   3.889
 3347SOL    HW210941   0.552   4.999   3.875
 3348SOL     OW10942   3.032   3.184   2.992
 3348SOL    HW110943   3.105   3.116   2.982
 3348SOL    HW210944   3.016   3.200   3.089
 3349SOL     OW10945   0.352   4.668   4.358
 3349SOL    HW110946   0.437   4.624   4.389
 3349SOL    HW210947   0.294   4.599   4.314
 3350SOL     OW10948   1.148   2.143   6.273
 3350SOL    HW110949   1.154   2.055   6.320
 3350SOL    HW210950   1.147   2.217   6.340
 3351SOL     OW10951   4.939   0.297   2.632
 3351SOL    HW110952   4.983   0.253   2.710
 3351SOL    HW210953   4.996   0.371   2.598
 3352SOL     OW10954   0.086   3.580   0.656
 3352SOL    HW110955   0.006   3.639   0.651
 3352SOL    HW210956   0.065   3.491   0.615
 3353SOL     OW10957   0.900   6.318   2.120
 3353SOL    HW110958   0.855   6.384   2.181
 3353SOL    HW210959   0.997   6.341   2.111
 3354SOL     OW10960   5.819   2.643   4.238
 3354SOL    HW110961   5.805   2.633   4.140
 3354SOL    HW210962   5.794   2.558   4.285
 3355SOL     OW10963   1.466   1.356   0.099
 3355SOL    HW110964   1.542   1.302   0.063
 3355SOL    HW210965   1.397   1.294   0.138
 3356SOL     OW10966   1.764   3.183   0.154
 3356SOL    HW110967   1.666   3.191   0.174
 3356SOL    HW210968   1.812   3.262   0.192
 3357SOL     OW10969   2.359   5.218   2.073
 3357SOL    HW110970   2.414   5.265   2.004
 3357SOL    HW210971   2.312   5.285   2.130
 3358SOL     OW10972   4.683   0.346   1.555
 3358SOL    HW110973   4.599   0.366   1.606
 3358SOL    HW210974   4.660   0.299   1.470
 3359SOL     OW10975   6.763   0.152   3.948
 3359SOL    HW110976   6.832   0.199   4.002
 3359SOL    HW210977   6.677   0.148   3.999
 3360SOL     OW10978   6.983   1.089   0.863
 3360SOL    HW110979   6.897   1.099   0.914
 3360SOL    HW210980   7.009   0.993   0.861
 3361SOL     OW10981   0.311   4.910   2.223
 3361SOL    HW110982   0.321   4.900   2.321
 3361SOL    HW210983   0.382   4.856   2.176
 3362SOL     OW10984   3.863   1.516   4.476
 3362SOL    HW110985   3.780   1.461   4.475
 3362SOL    HW210986   3.875   1.555   4.567
 3363SOL     OW10987   1.033   0.571   6.596
 3363SOL    HW110988   1.088   0.553   6.514
 3363SOL    HW210989   1.072   0.647   6.647
 3364SOL     OW10990   1.285   4.397   4.060
 3364SOL    HW110991   1.285   4.363   4.154
 3364SOL    HW210992   1.356   4.351   4.007
 3365SOL     OW10993   0.681   2.059   4.866
 3365SOL    HW110994   0.641   1.985   4.921
 3365SOL    HW210995   0.777   2.069   4.890
 3366SOL     OW10996   6.526   0.179   5.847
 3366SOL    HW110997   6.591   0.253   5.827
 3366SOL    HW210998   6.465   0.209   5.921
 3367SOL     OW10999   2.110   2.469   1.892
 3367SOL    HW111000   2.158   2.535   1.950
 3367SOL    HW211001   2.176   2.408   1.849
 3368SOL     OW11002   0.770   6.205   6.598
 3368SOL    HW111003   0.806   6.130   6.654
 3368SOL    HW211004   0.673   6.190   6.582
 3369SOL     OW11005   3.632   2.060   5.728
 3369SOL    HW111006   3.716   2.060   5.783
 3369SOL    HW211007   3.608   2.154   5.703
 3370SOL     OW11008   6.717   6.097   5.570
 3370SOL    HW111009   6.731   6.008   5.527
 3370SOL    HW211010   6.777   6.165   5.528
 3371SOL     OW11011   0.778   4.545   2.323
 3371SOL    HW111012   0.763   4.505   2.413
 3371SOL    HW211013   0.689   4.565   2.280
 3372SOL     OW11014   1.116   0.887   2.223
 3372SOL    HW111015   1.169   0.808   2.254
 3372SOL    HW211016   1.152   0.971   2.263
 3373SOL     OW11017   6.251   1.287   3.592
 3373SOL    HW111018   6.219   1.382   3.591
 3373SOL    HW211019   6.265   1.257   3.686
 3374SOL     OW11020   2.717   5.584   4.389
 3374SOL    HW111021   2.661   5.654   4.344
 3374SOL    HW211022   2.770   5.626   4.462
 3375SOL     OW11023   4.840   5.155   5.018
 3375SOL    HW111024   4.801   5.131   5.107
 3375SOL    HW211025   4.806   5.092   4.948
 3376SOL     OW11026   4.133   3.581   3.175
 3376SOL    HW111027   4.216   3.637   3.183
 3376SOL    HW211028   4.111   3.541   3.264
 3377SOL     OW11029   0.048   6.026   4.711
 3377SOL    HW111030   0.104   6.080   4.774
 3377SOL    HW211031   0.067   6.054   4.617
 3378SOL     OW11032   6.487   0.525   1.037
 3378SOL    HW111033   6.540   0.440   1.024
 3378SOL    HW211034   6.449   0.526   1.129
 3379SOL     OW11035   6.782   5.103   6.175
 3379SOL    HW111036   6.843   5.173   6.213
 3379SOL    HW211037   6.701   5.094   6.233
 3380SOL     OW11038   5.947   6.164   6.059
 3380SOL    HW111039   5.908   6.079   6.025
 3380SOL    HW211040   5.912   6.182   6.151
 3381SOL     OW11041   1.617   2.401   0.790
 3381SOL    HW111042   1.661   2.367   0.874
 3381SOL    HW211043   1.522   2.370   0.788
 3382SOL     OW11044   0.852   1.228   0.559
 3382SOL    HW111045   0.884   1.244   0.652
 3382SOL    HW211046   0.875   1.134   0.531
 3383SOL     OW11047   4.957   5.226   2.884
 3383SOL    HW111048   4.906   5.302   2.923
 3383SOL    HW211049   4.981   5.247   2.789
 3384SOL     OW11050   2.971   3.282   4.941
 3384SOL    HW111051   2.900   3.264   5.009
 3384SOL    HW211052   2.931   3.283   4.849
 3385SOL     OW11053   0.136   3.694   3.848
 3385SOL    HW111054   0.085   3.695   3.934
 3385SOL    HW211055   0.232   3.675   3.866
 3386SOL     OW11056   6.089   2.961   5.308
 3386SOL    HW111057   6.053   3.054   5.293
 3386SOL    HW211058   6.020   2.907   5.356
 3387SOL     OW11059   2.388   0.417   2.566
 3387SOL    HW111060   2.488   0.414   2.562
 3387SOL    HW211061   2.358   0.503   2.607
 3388SOL     OW11062   6.021   3.487   1.581
 3388SOL    HW111063   5.976   3.430   1.650
 3388SOL    HW211064   5.999   3.583   1.599
 3389SOL     OW11065   4.433   5.161   4.926
 3389SOL    HW111066   4.447   5.151   5.024
 3389SOL    HW211067   4.465   5.252   4.897
 3390SOL     OW11068   5.433   4.650   6.019
 3390SOL    HW111069   5.362   4.589   6.056
 3390SOL    HW211070   5.405   4.682   5.929
 3391SOL     OW11071   5.785   2.241   4.562
 3391SOL    HW111072   5.724   2.300   4.508
 3391SOL    HW211073   5.864   2.294   4.592
 3392SOL     OW11074   2.513   1.021   3.339
 3392SOL    HW111075   2.515   1.113   3.380
 3392SOL    HW211076   2.505   1.029   3.240
 3393SOL     OW11077   0.274   6.504   0.641
 3393SOL    HW111078   0.297   6.476   0.548
 3393SOL    HW211079   0.207   6.440   0.679
 3394SOL     OW11080   6.095   3.292   0.893
 3394SOL    HW111081   6.148   3.362   0.941
 3394SOL    HW211082   6.065   3.223   0.959
 3395SOL     OW11083   6.702   3.692   4.042
 3395SOL    HW111084   6.705   3.732   3.950
 3395SOL    HW211085   6.620   3.726   4.089
 3396SOL     OW11086   6.965   1.950   3.424
 3396SOL    HW111087   6.942   2.046   3.441
 3396SOL    HW211088   6.917   1.893   3.490
 3397SOL     OW11089   2.770   1.128   5.690
 3397SOL    HW111090   2.733   1.188   5.760
 3397SOL    HW211091   2.742   1.160   5.600
 3398SOL     OW11092   1.110   6.733   4.048
 3398SOL    HW111093   1.087   6.726   4.146
 3398SOL    HW211094   1.153   6.648   4.018
 3399SOL     OW11095   4.904   4.480   4.070
 3399SOL    HW111096   4.936   4.433   4.153
 3399SOL    HW211097   4.920   4.578   4.080
 3400SOL     OW11098   4.279   1.550   5.364
 3400SOL    HW111099   4.355   1.610   5.386
 3400SOL    HW211100   4.303   1.491   5.287
 3401SOL     OW11101   6.801   3.393   1.274
 3401SOL    HW111102   6.863   3.365   1.348
 3401SOL    HW211103   6.807   3.328   1.199
 3402SOL     OW11104   4.232   6.581   0.645
 3402SOL    HW111105   4.195   6.664   0.686
 3402SOL    HW211106   4.284   6.530   0.713
 3403SOL     OW11107   3.392   0.495   4.550
 3403SOL    HW111108   3.467   0.472   4.612
 3403SOL    HW211109   3.345   0.577   4.584
 3404SOL     OW11110   5.297   1.675   6.906
 3404SOL    HW111111   5.287   1.774   6.920
 3404SOL    HW211112   5.289   1.654   6.809
 3405SOL     OW11113   5.988   3.863   3.922
 3405SOL    HW111114   5.911   3.808   3.890
 3405SOL    HW211115   5.989   3.864   4.022
 3406SOL     OW11116   1.266   4.401   1.846
 3406SOL    HW111117   1.356   4.363   1.823
 3406SOL    HW211118   1.247   4.385   1.943
 3407SOL     OW11119   1.643   4.998   0.018
 3407SOL    HW111120   1.663   4.945   6.957
 3407SOL    HW211121   1.557   4.965   0.058
 3408SOL     OW11122   5.331   4.247   4.813
 3408SOL    HW111123   5.243   4.293   4.824
 3408SOL    HW211124   5.378   4.243   4.901
 3409SOL     OW11125   2.975   6.570   5.920
 3409SOL    HW111126   3.030   6.577   5.837
 3409SOL    HW211127   3.022   6.618   5.995
 3410SOL     OW11128   6.187   5.803   0.246
 3410SOL    HW111129   6.194   5.778   0.150
 3410SOL    HW211130   6.154   5.725   0.300
 3411SOL     OW11131   0.233   2.783   2.029
 3411SOL    HW111132   0.295   2.811   1.957
 3411SOL    HW211133   0.195   2.693   2.008
 3412SOL     OW11134   4.585   2.530   6.782
 3412SOL    HW111135   4.518   2.587   6.829
 3412SOL    HW211136   4.538   2.472   6.715
 3413SOL     OW11137   4.900   0.927   2.754
 3413SOL    HW111138   4.841   0.984   2.812
 3413SOL    HW211139   4.851   0.902   2.671
 3414SOL     OW11140   2.274   1.978   5.599
 3414SOL    HW111141   2.280   1.915   5.521
 3414SOL    HW211142   2.359   1.975   5.651
 3415SOL     OW11143   2.223   4.561   4.340
 3415SOL    HW111144   2.266   4.627   4.278
 3415SOL    HW211145   2.159   4.607   4.400
 3416SOL     OW11146   6.486   5.548   0.235
 3416SOL    HW111147   6.541   5.465   0.222
 3416SOL    HW211148   6.542   5.618   0.279
 3417SOL     OW11149   6.868   5.681   3.477
 3417SOL    HW111150   6.875   5.592   3.521
 3417SOL    HW211151   6.794   5.733   3.519
 3418SOL     OW11152   3.946   0.140   4.874
 3418SOL    HW111153   4.017   0.210   4.884
 3418SOL    HW211154   3.929   0.125   4.776
 3419SOL     OW11155   3.497   5.400   4.903
 3419SOL    HW111156   3.443   5.440   4.829
 3419SOL    HW211157   3.488   5.457   4.985
 3420SOL     OW11158   5.257   2.671   3.031
 3420SOL    HW111159   5.337   2.667   2.972
 3420SOL    HW211160   5.266   2.604   3.105
 3421SOL     OW11161   6.041   0.513   6.184
 3421SOL    HW111162   6.128   0.555   6.206
 3421SOL    HW211163   6.052   0.413   6.181
 3422SOL     OW11164   2.174   6.493   1.177
 3422SOL    HW111165   2.128   6.443   1.104
 3422SOL    HW211166   2.261   6.449   1.199
 3423SOL     OW11167   2.111   6.924   0.306
 3423SOL    HW111168   2.092   7.020   0.326
 3423SOL    HW211169   2.167   6.885   0.379
 3424SOL     OW11170   2.850   6.371   2.425
 3424SOL    HW111171   2.928   6.395   2.368
 3424SOL    HW211172   2.881   6.358   2.519
 3425SOL     OW11173   5.290   3.863   1.956
 3425SOL    HW111174   5.231   3.783   1.964
 3425SOL    HW211175   5.341   3.876   2.041
 3426SOL     OW11176   2.802   3.097   0.192
 3426SOL    HW111177   2.765   3.038   0.120
 3426SOL    HW211178   2.730   3.119   0.258
 3427SOL     OW11179   6.799   7.005   6.233
 3427SOL    HW111180   6.749   0.053   6.283
 3427SOL    HW211181   6.897   0.004   6.235
 3428SOL     OW11182   3.764   5.039   1.229
 3428SOL    HW111183   3.704   4.961   1.250
 3428SOL    HW211184   3.708   5.115   1.196
 3429SOL     OW11185   0.942   1.514   6.798
 3429SOL    HW111186   0.882   1.586   6.834
 3429SOL    HW211187   0.922   1.499   6.701
 3430SOL     OW11188   0.573   6.606   5.217
 3430SOL    HW111189   0.631   6.554   5.280
 3430SOL    HW211190   0.478   6.600   5.247
 3431SOL     OW11191   1.868   0.320   1.210
 3431SOL    HW111192   1.924   0.327   1.292
 3431SOL    HW211193   1.781   0.367   1.225
 3432SOL     OW11194   2.628   2.591   6.682
 3432SOL    HW111195   2.600   2.662   6.617
 3432SOL    HW211196   2.669   2.514   6.632
 3433SOL     OW11197   1.028   0.010   6.330
 3433SOL    HW111198   0.944   0.011   6.386
 3433SOL    HW211199   1.050   0.103   6.302
 3434SOL     OW11200   3.775   2.628   1.090
 3434SOL    HW111201   3.690   2.666   1.126
 3434SOL    HW211202   3.852   2.683   1.123
 3435SOL     OW11203   0.958   1.790   1.455
 3435SOL    HW111204   1.056   1.803   1.438
 3435SOL    HW211205   0.908   1.871   1.421
 3436SOL     OW11206   3.956   6.415   5.727
 3436SOL    HW111207   4.017   6.449   5.655
 3436SOL    HW211208   3.957   6.479   5.804
 3437SOL     OW11209   3.748   0.525   6.383
 3437SOL    HW111210   3.683   0.518   6.459
 3437SOL    HW211211   3.805   0.443   6.381
 3438SOL     OW11212   1.392   2.767   0.177
 3438SOL    HW111213   1.321   2.827   0.213
 3438SOL    HW211214   1.362   2.728   0.090
 3439SOL     OW11215   1.836   6.935   5.962
 3439SOL    HW111216   1.936   6.929   5.953
 3439SOL    HW211217   1.810   0.007   5.984
 3440SOL     OW11218   4.248   3.309   1.547
 3440SOL    HW111219   4.152   3.328   1.568
 3440SOL    HW211220   4.281   3.235   1.605
 3441SOL     OW11221   4.939   0.365   3.739
 3441SOL    HW111222   4.892   0.395   3.656
 3441SOL    HW211223   4.895   0.405   3.819
 3442SOL     OW11224   3.110   4.950   2.548
 3442SOL    HW111225   3.019   4.908   2.547
 3442SOL    HW211226   3.142   4.959   2.642
 3443SOL     OW11227   5.521   0.535   2.341
 3443SOL    HW111228   5.545   0.440   2.321
 3443SOL    HW211229   5.497   0.543   2.438
 3444SOL     OW11230   4.974   5.093   0.036
 3444SOL    HW111231   4.969   5.122   6.962
 3444SOL    HW211232   4.934   5.002   0.046
 3445SOL     OW11233   5.737   5.194   4.308
 3445SOL    HW111234   5.766   5.196   4.403
 3445SOL    HW211235   5.699   5.283   4.283
 3446SOL     OW11236   6.371   0.933   3.083
 3446SOL    HW111237   6.329   0.880   3.009
 3446SOL    HW211238   6.314   0.926   3.165
 3447SOL     OW11239   5.604   4.158   0.939
 3447SOL    HW111240   5.672   4.134   0.870
 3447SOL    HW211241   5.640   4.230   0.998
 3448SOL     OW11242   2.920   0.216   1.008
 3448SOL    HW111243   3.006   0.260   1.034
 3448SOL    HW211244   2.849   0.241   1.074
 3449SOL     OW11245   6.168   6.324   4.397
 3449SOL    HW111246   6.170   6.356   4.492
 3449SOL    HW211247   6.177   6.402   4.335
 3450SOL     OW11248   0.675   2.833   6.938
 3450SOL    HW111249   0.728   2.911   6.973
 3450SOL    HW211250   0.727   2.787   6.866
 3451SOL     OW11251   1.275   5.410   3.014
 3451SOL    HW111252   1.336   5.338   2.983
 3451SOL    HW211253   1.329   5.483   3.056
 3452SOL     OW11254   5.662   1.860   0.117
 3452SOL    HW111255   5.603   1.839   0.039
 3452SOL    HW211256   5.606   1.889   0.195
 3453SOL     OW11257   6.643   6.132   6.114
 3453SOL    HW111258   6.585   6.131   6.033
 3453SOL    HW211259   6.736   6.160   6.089
 3454SOL     OW11260   1.787   1.189   6.660
 3454SOL    HW111261   1.789   1.284   6.628
 3454SOL    HW211262   1.696   1.151   6.647
 3455SOL     OW11263   2.153   3.251   4.480
 3455SOL    HW111264   2.133   3.172   4.423
 3455SOL    HW211265   2.178   3.220   4.572
 3456SOL     OW11266   5.361   6.637   2.647
 3456SOL    HW111267   5.318   6.547   2.655
 3456SOL    HW211268   5.385   6.670   2.739
 3457SOL     OW11269   2.280   5.566   4.008
 3457SOL    HW111270   2.369   5.610   4.021
 3457SOL    HW211271   2.234   5.556   4.096
 3458SOL     OW11272   5.070   0.059   0.339
 3458SOL    HW111273   5.084   0.079   0.436
 3458SOL    HW211274   5.024   6.992   0.330
 3459SOL     OW11275   6.332   3.718   2.646
 3459SOL    HW111276   6.266   3.687   2.714
 3459SOL    HW211277   6.415   3.750   2.693
 3460SOL     OW11278   2.728   3.733   0.249
 3460SOL    HW111279   2.750   3.665   0.179
 3460SOL    HW211280   2.629   3.741   0.257
 3461SOL     OW11281   4.394   5.902   4.608
 3461SOL    HW111282   4.360   5.931   4.519
 3461SOL    HW211283   4.414   5.805   4.607
 3462SOL     OW11284   0.103   3.711   2.259
 3462SOL    HW111285   0.198   3.701   2.227
 3462SOL    HW211286   0.099   3.696   2.357
 3463SOL     OW11287   1.052   3.111   3.066
 3463SOL    HW111288   1.119   3.073   3.001
 3463SOL    HW211289   1.094   3.117   3.157
 3464SOL     OW11290   6.534   2.320   6.934
 3464SOL    HW111291   6.450   2.266   6.930
 3464SOL    HW211292   6.597   2.288   6.862
 3465SOL     OW11293   0.392   2.912   1.856
 3465SOL    HW111294   0.317   2.975   1.838
 3465SOL    HW211295   0.416   2.865   1.771
 3466SOL     OW11296   6.776   4.511   6.269
 3466SOL    HW111297   6.811   4.437   6.327
 3466SOL    HW211298   6.753   4.475   6.179
 3467SOL     OW11299   2.182   1.908   0.570
 3467SOL    HW111300   2.279   1.930   0.570
 3467SOL    HW211301   2.136   1.957   0.644
 3468SOL     OW11302   5.294   1.053   3.113
 3468SOL    HW111303   5.255   1.132   3.067
 3468SOL    HW211304   5.294   0.975   3.050
 3469SOL     OW11305   4.563   0.726   4.424
 3469SOL    HW111306   4.540   0.747   4.519
 3469SOL    HW211307   4.480   0.707   4.372
 3470SOL     OW11308   0.492   2.290   1.982
 3470SOL    HW111309   0.396   2.262   1.971
 3470SOL    HW211310   0.551   2.224   1.935
 3471SOL     OW11311   4.671   4.223   3.750
 3471SOL    HW111312   4.727   4.303   3.772
 3471SOL    HW211313   4.589   4.253   3.701
 3472SOL     OW11314   2.791   0.798   1.813
 3472SOL    HW111315   2.860   0.865   1.839
 3472SOL    HW211316   2.700   0.840   1.820
 3473SOL     OW11317   6.701   3.002   2.631
 3473SOL    HW111318   6.704   3.039   2.538
 3473SOL    HW211319   6.618   2.949   2.644
 3474SOL     OW11320   0.294   4.648   2.497
 3474SOL    HW111321   0.197   4.655   2.519
 3474SOL    HW211322   0.336   4.739   2.500
 3475SOL     OW11323   1.182   4.656   3.853
 3475SOL    HW111324   1.085   4.670   3.875
 3475SOL    HW211325   1.210   4.565   3.882
 3476SOL     OW11326   2.560   2.154   2.521
 3476SOL    HW111327   2.630   2.106   2.575
 3476SOL    HW211328   2.589   2.248   2.506
 3477SOL     OW11329   1.989   4.852   0.844
 3477SOL    HW111330   1.987   4.897   0.933
 3477SOL    HW211331   1.897   4.824   0.818
 3478SOL     OW11332   2.194   6.073   5.987
 3478SOL    HW111333   2.199   5.993   6.047
 3478SOL    HW211334   2.281   6.121   5.989
 3479SOL     OW11335   0.951   0.643   3.237
 3479SOL    HW111336   0.945   0.544   3.224
 3479SOL    HW211337   0.907   0.668   3.323
 3480SOL     OW11338   6.900   5.688   4.865
 3480SOL    HW111339   6.985   5.678   4.812
 3480SOL    HW211340   6.883   5.785   4.882
 3481SOL     OW11341   5.187   0.871   0.285
 3481SOL    HW111342   5.248   0.800   0.319
 3481SOL    HW211343   5.109   0.880   0.348
 3482SOL     OW11344   6.713   0.949   2.013
 3482SOL    HW111345   6.786   0.919   1.950
 3482SOL    HW211346   6.752   0.965   2.103
 3483SOL     OW11347   5.405   2.223   1.863
 3483SOL    HW111348   5.433   2.130   1.886
 3483SOL    HW211349   5.311   2.238   1.895
 3484SOL     OW11350   0.991   2.986   0.556
 3484SOL    HW111351   1.012   3.046   0.633
 3484SOL    HW211352   1.068   2.985   0.492
 3485SOL     OW11353   1.986   1.672   4.490
 3485SOL    HW111354   1.954   1.715   4.575
 3485SOL    HW211355   2.055   1.730   4.447
 3486SOL     OW11356   2.580   0.328   3.245
 3486SOL    HW111357   2.543   0.236   3.259
 3486SOL    HW211358   2.630   0.330   3.158
 3487SOL     OW11359   6.996   2.103   0.878
 3487SOL    HW111360   6.934   2.093   0.955
 3487SOL    HW211361   0.046   2.034   0.884
 3488SOL     OW11362   5.991   0.814   5.345
 3488SOL    HW111363   6.006   0.734   5.403
 3488SOL    HW211364   6.046   0.805   5.261
 3489SOL     OW11365   3.720   0.412   1.858
 3489SOL    HW111366   3.690   0.418   1.953
 3489SOL    HW211367   3.701   0.498   1.811
 3490SOL     OW11368   3.986   4.374   1.161
 3490SOL    HW111369   3.953   4.351   1.069
 3490SOL    HW211370   4.063   4.437   1.153
 3491SOL     OW11371   4.379   2.262   5.891
 3491SOL    HW111372   4.399   2.351   5.850
 3491SOL    HW211373   4.430   2.252   5.976
 3492SOL     OW11374   6.842   3.990   0.972
 3492SOL    HW111375   6.891   4.009   1.057
 3492SOL    HW211376   6.838   3.891   0.957
 3493SOL     OW11377   4.761   4.095   4.291
 3493SOL    HW111378   4.673   4.127   4.258
 3493SOL    HW211379   4.830   4.168   4.279
 3494SOL     OW11380   2.835   1.124   1.584
 3494SOL    HW111381   2.770   1.197   1.562
 3494SOL    HW211382   2.891   1.152   1.662
 3495SOL     OW11383   6.135   4.837   1.964
 3495SOL    HW111384   6.226   4.817   1.930
 3495SOL    HW211385   6.114   4.777   2.041
 3496SOL     OW11386   6.157   4.936   0.744
 3496SOL    HW111387   6.227   4.986   0.693
 3496SOL    HW211388   6.150   4.843   0.708
 3497SOL     OW11389   2.928   1.734   3.497
 3497SOL    HW111390   2.933   1.728   3.597
 3497SOL    HW211391   2.919   1.642   3.459
 3498SOL     OW11392   3.220   1.715   1.399
 3498SOL    HW111393   3.199   1.745   1.492
 3498SOL    HW211394   3.155   1.644   1.371
 3499SOL     OW11395   5.695   3.983   4.151
 3499SOL    HW111396   5.757   4.060   4.140
 3499SOL    HW211397   5.648   3.965   4.065
 3500SOL     OW11398   1.552   3.229   3.926
 3500SOL    HW111399   1.577   3.234   3.829
 3500SOL    HW211400   1.582   3.311   3.973
 3501SOL     OW11401   3.155   5.914   5.955
 3501SOL    HW111402   3.165   5.923   6.054
 3501SOL    HW211403   3.093   5.984   5.921
 3502SOL     OW11404   6.608   1.764   1.380
 3502SOL    HW111405   6.558   1.814   1.310
 3502SOL    HW211406   6.705   1.790   1.378
 3503SOL     OW11407   6.145   5.731   4.860
 3503SOL    HW111408   6.233   5.749   4.815
 3503SOL    HW211409   6.158   5.732   4.959
 3504SOL     OW11410   2.340   0.255   1.604
 3504SOL    HW111411   2.335   0.327   1.673
 3504SOL    HW211412   2.435   0.242   1.577
 3505SOL     OW11413   5.221   4.224   6.116
 3505SOL    HW111414   5.280   4.148   6.143
 3505SOL    HW211415   5.125   4.198   6.129
 3506SOL     OW11416   5.235   4.946   5.090
 3506SOL    HW111417   5.143   4.916   5.066
 3506SOL    HW211418   5.255   4.920   5.184
 3507SOL     OW11419   2.773   0.645   0.955
 3507SOL    HW111420   2.840   0.589   0.905
 3507SOL    HW211421   2.820   0.721   0.999
 3508SOL     OW11422   1.996   2.377   5.974
 3508SOL    HW111423   2.053   2.334   6.043
 3508SOL    HW211424   2.040   2.461   5.942
 3509SOL     OW11425   4.862   0.269   6.899
 3509SOL    HW111426   4.835   0.173   6.907
 3509SOL    HW211427   4.786   0.328   6.927
 3510SOL     OW11428   1.117   0.784   1.965
 3510SOL    HW111429   1.208   0.758   1.931
 3510SOL    HW211430   1.126   0.834   2.050
 3511SOL     OW11431   2.265   4.440   1.419
 3511SOL    HW111432   2.172   4.474   1.407
 3511SOL    HW211433   2.261   4.343   1.442
 3512SOL     OW11434   0.635   4.913   0.446
 3512SOL    HW111435   0.730   4.885   0.433
 3512SOL    HW211436   0.574   4.845   0.406
 3513SOL     OW11437   5.589   2.332   0.528
 3513SOL    HW111438   5.561   2.393   0.454
 3513SOL    HW211439   5.635   2.252   0.490
 3514SOL     OW11440   0.067   1.033   1.873
 3514SOL    HW111441   0.056   1.124   1.833
 3514SOL    HW211442   0.140   1.034   1.941
 3515SOL     OW11443   4.581   6.010   3.133
 3515SOL    HW111444   4.649   6.011   3.061
 3515SOL    HW211445   4.552   5.916   3.151
 3516SOL     OW11446   5.027   6.916   0.922
 3516SOL    HW111447   4.961   6.875   0.859
 3516SOL    HW211448   5.105   6.854   0.933
 3517SOL     OW11449   0.854   1.968   1.277
 3517SOL    HW111450   0.858   1.882   1.225
 3517SOL    HW211451   0.763   2.008   1.265
 3518SOL     OW11452   4.836   3.091   4.781
 3518SOL    HW111453   4.854   3.189   4.788
 3518SOL    HW211454   4.913   3.045   4.738
 3519SOL     OW11455   1.546   1.168   6.052
 3519SOL    HW111456   1.554   1.258   6.095
 3519SOL    HW211457   1.586   1.099   6.112
 3520SOL     OW11458   3.339   5.846   6.962
 3520SOL    HW111459   3.348   5.767   6.902
 3520SOL    HW211460   3.391   5.923   6.925
 3521SOL     OW11461   4.843   2.548   0.142
 3521SOL    HW111462   4.781   2.501   0.204
 3521SOL    HW211463   4.886   2.482   0.081
 3522SOL     OW11464   0.443   4.895   0.778
 3522SOL    HW111465   0.355   4.898   0.826
 3522SOL    HW211466   0.436   4.835   0.699
 3523SOL     OW11467   1.315   4.511   5.560
 3523SOL    HW111468   1.372   4.571   5.616
 3523SOL    HW211469   1.335   4.527   5.463
 3524SOL     OW11470   5.030   1.436   1.715
 3524SOL    HW111471   5.029   1.336   1.714
 3524SOL    HW211472   4.954   1.470   1.770
 3525SOL     OW11473   6.642   4.538   3.565
 3525SOL    HW111474   6.601   4.614   3.514
 3525SOL    HW211475   6.710   4.493   3.508
 3526SOL     OW11476   2.414   6.778   3.895
 3526SOL    HW111477   2.484   6.715   3.929
 3526SOL    HW211478   2.326   6.756   3.936
 3527SOL     OW11479   5.591   3.212   6.188
 3527SOL    HW111480   5.546   3.236   6.274
 3527SOL    HW211481   5.603   3.295   6.133
 3528SOL     OW11482   1.382   6.473   5.198
 3528SOL    HW111483   1.303   6.451   5.255
 3528SOL    HW211484   1.423   6.558   5.229
 3529SOL     OW11485   3.999   0.459   0.372
 3529SOL    HW111486   4.013   0.518   0.292
 3529SOL    HW211487   4.087   0.441   0.416
 3530SOL     OW11488   6.302   5.827   2.420
 3530SOL    HW111489   6.395   5.799   2.442
 3530SOL    HW211490   6.289   5.923   2.445
 3531SOL     OW11491   5.203   3.050   0.955
 3531SOL    HW111492   5.142   3.113   1.004
 3531SOL    HW211493   5.285   3.033   1.010
 3532SOL     OW11494   2.625   6.569   1.852
 3532SOL    HW111495   2.686   6.641   1.887
 3532SOL    HW211496   2.678   6.508   1.792
 3533SOL     OW11497   0.769   1.844   2.785
 3533SOL    HW111498   0.815   1.908   2.723
 3533SOL    HW211499   0.815   1.756   2.781
 3534SOL     OW11500   6.888   1.955   1.110
 3534SOL    HW111501   6.877   1.928   1.206
 3534SOL    HW211502   6.815   1.914   1.055
 3535SOL     OW11503   1.711   5.358   6.780
 3535SOL    HW111504   1.713   5.456   6.757
 3535SOL    HW211505   1.726   5.304   6.697
 3536SOL     OW11506   3.315   1.756   3.252
 3536SOL    HW111507   3.249   1.683   3.237
 3536SOL    HW211508   3.269   1.844   3.247
 3537SOL     OW11509   3.175   5.872   2.485
 3537SOL    HW111510   3.133   5.898   2.572
 3537SOL    HW211511   3.257   5.818   2.503
 3538SOL     OW11512   2.266   6.776   6.295
 3538SOL    HW111513   2.340   6.775   6.362
 3538SOL    HW211514   2.204   6.851   6.314
 3539SOL     OW11515   3.636   3.235   5.828
 3539SOL    HW111516   3.588   3.155   5.862
 3539SOL    HW211517   3.714   3.256   5.888
 3540SOL     OW11518   1.928   2.622   5.256
 3540SOL    HW111519   1.900   2.592   5.347
 3540SOL    HW211520   1.847   2.633   5.198
 3541SOL     OW11521   1.849   3.007   5.899
 3541SOL    HW111522   1.760   2.966   5.921
 3541SOL    HW211523   1.853   3.100   5.936
 3542SOL     OW11524   1.677   5.536   3.351
 3542SOL    HW111525   1.701   5.605   3.282
 3542SOL    HW211526   1.633   5.580   3.428
 3543SOL     OW11527   0.612   2.320   4.726
 3543SOL    HW111528   0.628   2.233   4.773
 3543SOL    HW211529   0.698   2.355   4.690
 3544SOL     OW11530   2.005   4.302   5.893
 3544SOL    HW111531   2.094   4.336   5.925
 3544SOL    HW211532   1.990   4.210   5.929
 3545SOL     OW11533   4.104   5.354   0.472
 3545SOL    HW111534   4.082   5.344   0.569
 3545SOL    HW211535   4.199   5.326   0.456
 3546SOL     OW11536   1.176   3.997   4.431
 3546SOL    HW111537   1.146   4.004   4.526
 3546SOL    HW211538   1.232   3.915   4.419
 3547SOL     OW11539   0.021   4.342   3.655
 3547SOL    HW111540   0.027   4.394   3.741
 3547SOL    HW211541   0.078   4.386   3.586
 3548SOL     OW11542   5.963   1.993   5.920
 3548SOL    HW111543   5.875   2.040   5.911
 3548SOL    HW211544   5.949   1.895   5.912
 3549SOL     OW11545   6.274   5.044   6.161
 3549SOL    HW111546   6.189   5.092   6.139
 3549SOL    HW211547   6.256   4.976   6.232
 3550SOL     OW11548   6.306   2.183   2.638
 3550SOL    HW111549   6.279   2.132   2.720
 3550SOL    HW211550   6.372   2.130   2.586
 3551SOL     OW11551   3.627   0.371   2.110
 3551SOL    HW111552   3.536   0.396   2.142
 3551SOL    HW211553   3.676   0.323   2.183
 3552SOL     OW11554   5.678   6.638   2.196
 3552SOL    HW111555   5.614   6.649   2.272
 3552SOL    HW211556   5.686   6.725   2.147
 3553SOL     OW11557   5.281   3.876   1.272
 3553SOL    HW111558   5.232   3.811   1.213
 3553SOL    HW211559   5.348   3.827   1.327
 3554SOL     OW11560   4.051   2.524   0.969
 3554SOL    HW111561   4.009   2.520   0.878
 3554SOL    HW211562   3.982   2.505   1.039
 3555SOL     OW11563   1.075   3.861   4.037
 3555SOL    HW111564   1.142   3.790   4.020
 3555SOL    HW211565   1.120   3.951   4.033
 3556SOL     OW11566   4.817   1.169   3.174
 3556SOL    HW111567   4.855   1.078   3.190
 3556SOL    HW211568   4.891   1.233   3.153
 3557SOL     OW11569   1.141   0.114   3.804
 3557SOL    HW111570   1.148   0.114   3.704
 3557SOL    HW211571   1.136   0.208   3.837
 3558SOL     OW11572   1.117   6.489   1.342
 3558SOL    HW111573   1.093   6.586   1.341
 3558SOL    HW211574   1.201   6.475   1.291
 3559SOL     OW11575   0.302   6.118   4.847
 3559SOL    HW111576   0.327   6.177   4.770
 3559SOL    HW211577   0.318   6.167   4.933
 3560SOL     OW11578   0.707   5.726   1.390
 3560SOL    HW111579   0.614   5.692   1.377
 3560SOL    HW211580   0.733   5.784   1.313
 3561SOL     OW11581   4.398   4.715   5.408
 3561SOL    HW111582   4.433   4.715   5.502
 3561SOL    HW211583   4.307   4.756   5.406
 3562SOL     OW11584   5.168   1.080   3.465
 3562SOL    HW111585   5.158   1.123   3.554
 3562SOL    HW211586   5.078   1.056   3.428
 3563SOL     OW11587   5.829   1.237   0.431
 3563SOL    HW111588   5.732   1.257   0.442
 3563SOL    HW211589   5.873   1.232   0.521
 3564SOL     OW11590   1.652   4.419   4.154
 3564SOL    HW111591   1.568   4.460   4.192
 3564SOL    HW211592   1.662   4.447   4.059
 3565SOL     OW11593   3.745   5.665   5.173
 3565SOL    HW111594   3.834   5.668   5.219
 3565SOL    HW211595   3.745   5.591   5.106
 3566SOL     OW11596   6.691   3.553   6.153
 3566SOL    HW111597   6.654   3.517   6.067
 3566SOL    HW211598   6.692   3.482   6.222
 3567SOL     OW11599   1.127   3.271   0.114
 3567SOL    HW111600   1.030   3.264   0.133
 3567SOL    HW211601   1.149   3.364   0.084
 3568SOL     OW11602   4.917   5.874   4.031
 3568SOL    HW111603   4.982   5.943   3.997
 3568SOL    HW211604   4.827   5.917   4.041
 3569SOL     OW11605   2.912   2.785   5.991
 3569SOL    HW111606   2.813   2.784   6.007
 3569SOL    HW211607   2.945   2.879   5.997
 3570SOL     OW11608   5.062   7.020   4.817
 3570SOL    HW111609   5.161   7.015   4.834
 3570SOL    HW211610   5.046   0.047   4.732
 3571SOL     OW11611   2.149   0.718   5.157
 3571SOL    HW111612   2.050   0.703   5.152
 3571SOL    HW211613   2.182   0.753   5.069
 3572SOL     OW11614   5.621   3.548   2.518
 3572SOL    HW111615   5.677   3.629   2.539
 3572SOL    HW211616   5.568   3.565   2.435
 3573SOL     OW11617   6.191   4.023   2.533
 3573SOL    HW111618   6.167   4.021   2.630
 3573SOL    HW211619   6.286   3.991   2.521
 3574SOL     OW11620   1.063   3.190   0.769
 3574SOL    HW111621   1.005   3.168   0.847
 3574SOL    HW211622   1.155   3.212   0.801
 3575SOL     OW11623   4.923   5.692   2.526
 3575SOL    HW111624   4.928   5.640   2.441
 3575SOL    HW211625   4.948   5.632   2.603
 3576SOL     OW11626   0.758   1.952   0.421
 3576SOL    HW111627   0.672   1.921   0.463
 3576SOL    HW211628   0.828   1.883   0.436
 3577SOL     OW11629   1.732   2.997   6.531
 3577SOL    HW111630   1.714   3.068   6.462
 3577SOL    HW211631   1.780   2.921   6.488
 3578SOL     OW11632   5.085   1.723   1.031
 3578SOL    HW111633   5.146   1.801   1.040
 3578SOL    HW211634   4.991   1.751   1.051
 3579SOL     OW11635   6.684   2.324   2.796
 3579SOL    HW111636   6.728   2.235   2.790
 3579SOL    HW211637   6.724   2.376   2.872
 3580SOL     OW11638   6.059   3.029   0.299
 3580SOL    HW111639   6.089   2.948   0.249
 3580SOL    HW211640   5.959   3.031   0.302
 3581SOL     OW11641   0.732   5.681   3.342
 3581SOL    HW111642   0.737   5.622   3.423
 3581SOL    HW211643   0.655   5.745   3.353
 3582SOL     OW11644   1.875   4.453   5.486
 3582SOL    HW111645   1.961   4.498   5.465
 3582SOL    HW211646   1.831   4.498   5.564
 3583SOL     OW11647   1.424   4.820   0.160
 3583SOL    HW111648   1.372   4.774   0.232
 3583SOL    HW211649   1.397   4.783   0.071
 3584SOL     OW11650   5.426   4.654   5.343
 3584SOL    HW111651   5.476   4.733   5.378
 3584SOL    HW211652   5.418   4.585   5.416
 3585SOL     OW11653   2.620   2.374   4.862
 3585SOL    HW111654   2.661   2.285   4.884
 3585SOL    HW211655   2.595   2.420   4.947
 3586SOL     OW11656   6.620   1.608   4.861
 3586SOL    HW111657   6.657   1.698   4.840
 3586SOL    HW211658   6.524   1.603   4.833
 3587SOL     OW11659   1.862   5.808   5.967
 3587SOL    HW111660   1.949   5.760   5.976
 3587SOL    HW211661   1.844   5.826   5.870
 3588SOL     OW11662   6.848   2.707   5.127
 3588SOL    HW111663   6.941   2.682   5.100
 3588SOL    HW211664   6.851   2.791   5.182
 3589SOL     OW11665   5.987   0.606   6.584
 3589SOL    HW111666   5.924   0.633   6.510
 3589SOL    HW211667   5.993   0.506   6.587
 3590SOL     OW11668   6.952   3.656   0.368
 3590SOL    HW111669   6.994   3.743   0.396
 3590SOL    HW211670   7.017   3.581   0.385
 3591SOL     OW11671   5.463   3.839   0.048
 3591SOL    HW111672   5.455   3.742   0.072
 3591SOL    HW211673   5.521   3.885   0.115
 3592SOL     OW11674   0.359   7.016   3.133
 3592SOL    HW111675   0.395   6.989   3.222
 3592SOL    HW211676   0.434   0.013   3.071
 3593SOL     OW11677   0.113   4.208   5.994
 3593SOL    HW111678   0.051   4.199   6.072
 3593SOL    HW211679   0.115   4.303   5.963
 3594SOL     OW11680   4.591   0.338   3.920
 3594SOL    HW111681   4.521   0.267   3.910
 3594SOL    HW211682   4.670   0.301   3.968
 3595SOL     OW11683   5.438   5.855   6.383
 3595SOL    HW111684   5.377   5.885   6.310
 3595SOL    HW211685   5.414   5.762   6.410
 3596SOL     OW11686   5.133   3.014   3.593
 3596SOL    HW111687   5.081   3.046   3.672
 3596SOL    HW211688   5.071   2.970   3.528
 3597SOL     OW11689   1.608   2.850   5.379
 3597SOL    HW111690   1.677   2.908   5.423
 3597SOL    HW211691   1.612   2.758   5.419
 3598SOL     OW11692   1.981   6.519   5.937
 3598SOL    HW111693   2.012   6.605   5.977
 3598SOL    HW211694   2.021   6.509   5.846
 3599SOL     OW11695   4.837   2.387   0.648
 3599SOL    HW111696   4.786   2.302   0.635
 3599SOL    HW211697   4.929   2.377   0.608
 3600SOL     OW11698   0.639   2.990   2.146
 3600SOL    HW111699   0.695   3.028   2.220
 3600SOL    HW211700   0.695   2.977   2.064
 3601SOL     OW11701   5.356   2.779   5.772
 3601SOL    HW111702   5.363   2.858   5.833
 3601SOL    HW211703   5.262   2.748   5.768
 3602SOL     OW11704   1.088   3.834   1.086
 3602SOL    HW111705   1.068   3.916   1.033
 3602SOL    HW211706   1.095   3.755   1.025
 3603SOL     OW11707   3.674   1.105   4.408
 3603SOL    HW111708   3.761   1.100   4.359
 3603SOL    HW211709   3.652   1.200   4.428
 3604SOL     OW11710   6.773   6.922   3.853
 3604SOL    HW111711   6.756   7.012   3.894
 3604SOL    HW211712   6.819   6.863   3.919
 3605SOL     OW11713   0.933   4.572   3.951
 3605SOL    HW111714   0.870   4.644   3.923
 3605SOL    HW211715   0.893   4.483   3.927
 3606SOL     OW11716   1.338   6.265   3.512
 3606SOL    HW111717   1.378   6.354   3.534
 3606SOL    HW211718   1.399   6.216   3.450
 3607SOL     OW11719   5.486   3.761   1.735
 3607SOL    HW111720   5.580   3.795   1.728
 3607SOL    HW211721   5.442   3.803   1.815
 3608SOL     OW11722   4.800   1.282   4.710
 3608SOL    HW111723   4.714   1.328   4.732
 3608SOL    HW211724   4.790   1.236   4.621
 3609SOL     OW11725   2.450   0.201   4.014
 3609SOL    HW111726   2.431   0.169   4.106
 3609SOL    HW211727   2.398   0.147   3.948
 3610SOL     OW11728   1.731   1.239   5.844
 3610SOL    HW111729   1.668   1.178   5.891
 3610SOL    HW211730   1.789   1.285   5.911
 3611SOL     OW11731   4.090   4.773   3.735
 3611SOL    HW111732   4.125   4.760   3.642
 3611SOL    HW211733   4.109   4.692   3.790
 3612SOL     OW11734   0.636   0.724   6.229
 3612SOL    HW111735   0.633   0.812   6.181
 3612SOL    HW211736   0.547   0.679   6.222
 3613SOL     OW11737   5.141   4.417   1.990
 3613SOL    HW111738   5.168   4.322   1.968
 3613SOL    HW211739   5.056   4.416   2.042
 3614SOL     OW11740   3.076   3.815   0.530
 3614SOL    HW111741   3.113   3.902   0.498
 3614SOL    HW211742   3.108   3.798   0.623
 3615SOL     OW11743   5.559   2.385   6.182
 3615SOL    HW111744   5.500   2.348   6.254
 3615SOL    HW211745   5.503   2.407   6.102
 3616SOL     OW11746   1.034   0.210   5.949
 3616SOL    HW111747   1.125   0.251   5.959
 3616SOL    HW211748   1.014   0.195   5.852
 3617SOL     OW11749   4.345   0.736   5.328
 3617SOL    HW111750   4.249   0.757   5.343
 3617SOL    HW211751   4.394   0.744   5.415
 3618SOL     OW11752   2.565   3.222   5.372
 3618SOL    HW111753   2.535   3.165   5.296
 3618SOL    HW211754   2.555   3.319   5.348
 3619SOL     OW11755   5.614   3.448   6.506
 3619SOL    HW111756   5.677   3.372   6.490
 3619SOL    HW211757   5.615   3.472   6.603
 3620SOL     OW11758   5.649   5.572   5.769
 3620SOL    HW111759   5.717   5.616   5.710
 3620SOL    HW211760   5.670   5.593   5.865
 3621SOL     OW11761   3.368   3.116   4.818
 3621SOL    HW111762   3.350   3.098   4.914
 3621SOL    HW211763   3.371   3.214   4.802
 3622SOL     OW11764   2.392   0.997   0.873
 3622SOL    HW111765   2.320   1.067   0.871
 3622SOL    HW211766   2.405   0.966   0.967
 3623SOL     OW11767   6.565   5.610   4.532
 3623SOL    HW111768   6.623   5.561   4.467
 3623SOL    HW211769   6.472   5.574   4.528
 3624SOL     OW11770   1.237   6.687   2.075
 3624SOL    HW111771   1.181   6.652   2.000
 3624SOL    HW211772   1.327   6.643   2.073
 3625SOL     OW11773   0.029   3.316   6.382
 3625SOL    HW111774   0.029   3.216   6.373
 3625SOL    HW211775   0.093   3.355   6.316
 3626SOL     OW11776   0.609   3.058   5.271
 3626SOL    HW111777   0.680   3.120   5.238
 3626SOL    HW211778   0.527   3.111   5.296
 3627SOL     OW11779   4.446   3.487   1.665
 3627SOL    HW111780   4.404   3.577   1.676
 3627SOL    HW211781   4.376   3.421   1.637
 3628SOL     OW11782   1.318   1.119   2.171
 3628SOL    HW111783   1.348   1.077   2.256
 3628SOL    HW211784   1.397   1.141   2.114
 3629SOL     OW11785   1.094   0.553   5.017
 3629SOL    HW111786   1.065   0.526   5.109
 3629SOL    HW211787   1.022   0.530   4.952
 3630SOL     OW11788   6.638   3.134   3.575
 3630SOL    HW111789   6.691   3.122   3.659
 3630SOL    HW211790   6.625   3.231   3.558
 3631SOL     OW11791   1.796   6.846   3.466
 3631SOL    HW111792   1.834   6.754   3.454
 3631SOL    HW211793   1.770   6.883   3.376
 3632SOL     OW11794   4.879   4.592   0.537
 3632SOL    HW111795   4.881   4.671   0.476
 3632SOL    HW211796   4.885   4.508   0.483
 3633SOL     OW11797   4.654   2.911   6.172
 3633SOL    HW111798   4.706   2.958   6.243
 3633SOL    HW211799   4.681   2.947   6.083
 3634SOL     OW11800   1.982   6.314   6.150
 3634SOL    HW111801   1.992   6.223   6.108
 3634SOL    HW211802   1.968   6.382   6.078
 3635SOL     OW11803   2.748   1.158   0.865
 3635SOL    HW111804   2.731   1.139   0.768
 3635SOL    HW211805   2.671   1.209   0.903
 3636SOL     OW11806   6.470   5.579   0.936
 3636SOL    HW111807   6.450   5.508   1.003
 3636SOL    HW211808   6.467   5.668   0.980
 3637SOL     OW11809   0.933   2.770   1.185
 3637SOL    HW111810   0.916   2.863   1.217
 3637SOL    HW211811   0.924   2.767   1.085
 3638SOL     OW11812   6.851   4.253   2.819
 3638SOL    HW111813   6.869   4.256   2.918
 3638SOL    HW211814   6.753   4.240   2.803
 3639SOL     OW11815   3.543   5.086   6.424
 3639SOL    HW111816   3.542   4.986   6.430
 3639SOL    HW211817   3.619   5.115   6.366
 3640SOL     OW11818   4.994   2.085   0.694
 3640SOL    HW111819   4.909   2.064   0.743
 3640SOL    HW211820   5.046   2.154   0.745
 3641SOL     OW11821   5.736   3.704   1.330
 3641SOL    HW111822   5.642   3.738   1.334
 3641SOL    HW211823   5.738   3.610   1.365
 3642SOL     OW11824   4.931   2.279   6.505
 3642SOL    HW111825   4.967   2.221   6.432
 3642SOL    HW211826   4.831   2.285   6.496
 3643SOL     OW11827   4.151   6.039   5.980
 3643SOL    HW111828   4.132   6.071   6.072
 3643SOL    HW211829   4.110   5.948   5.968
 3644SOL     OW11830   2.307   0.620   1.501
 3644SOL    HW111831   2.275   0.552   1.567
 3644SOL    HW211832   2.394   0.589   1.462
 3645SOL     OW11833   0.931   3.506   4.132
 3645SOL    HW111834   0.874   3.431   4.166
 3645SOL    HW211835   0.963   3.562   4.208
 3646SOL     OW11836   1.671   4.249   5.369
 3646SOL    HW111837   1.696   4.231   5.274
 3646SOL    HW211838   1.743   4.303   5.412
 3647SOL     OW11839   2.639   6.067   6.770
 3647SOL    HW111840   2.689   5.991   6.813
 3647SOL    HW211841   2.700   6.146   6.762
 3648SOL     OW11842   5.089   5.776   3.193
 3648SOL    HW111843   5.130   5.686   3.208
 3648SOL    HW211844   5.143   5.845   3.240
 3649SOL     OW11845   6.602   3.305   0.305
 3649SOL    HW111846   6.548   3.259   0.376
 3649SOL    HW211847   6.540   3.348   0.239
 3650SOL     OW11848   6.203   4.324   0.893
 3650SOL    HW111849   6.257   4.405   0.918
 3650SOL    HW211850   6.108   4.337   0.919
 3651SOL     OW11851   2.051   0.251   4.430
 3651SOL    HW111852   2.032   0.174   4.369
 3651SOL    HW211853   2.104   0.320   4.382
 3652SOL     OW11854   5.830   6.883   3.078
 3652SOL    HW111855   5.785   6.799   3.049
 3652SOL    HW211856   5.903   6.860   3.143
 3653SOL     OW11857   2.002   1.030   3.073
 3653SOL    HW111858   1.994   0.940   3.115
 3653SOL    HW211859   2.079   1.031   3.010
 3654SOL     OW11860   5.015   5.873   0.257
 3654SOL    HW111861   4.963   5.790   0.237
 3654SOL    HW211862   4.983   5.913   0.343
 3655SOL     OW11863   3.043   1.426   3.948
 3655SOL    HW111864   3.122   1.452   4.004
 3655SOL    HW211865   3.074   1.397   3.858
 3656SOL     OW11866   1.334   5.623   1.377
 3656SOL    HW111867   1.302   5.540   1.332
 3656SOL    HW211868   1.276   5.643   1.455
 3657SOL     OW11869   4.914   5.816   5.124
 3657SOL    HW111870   4.865   5.753   5.064
 3657SOL    HW211871   4.912   5.781   5.218
 3658SOL     OW11872   1.719   4.901   6.565
 3658SOL    HW111873   1.623   4.926   6.553
 3658SOL    HW211874   1.755   4.866   6.479
 3659SOL     OW11875   0.477   1.847   6.682
 3659SOL    HW111876   0.418   1.815   6.607
 3659SOL    HW211877   0.553   1.899   6.644
 3660SOL     OW11878   5.971   5.653   4.544
 3660SOL    HW111879   6.006   5.608   4.462
 3660SOL    HW211880   6.007   5.607   4.625
 3661SOL     OW11881   0.902   0.522   4.835
 3661SOL    HW111882   0.856   0.611   4.832
 3661SOL    HW211883   0.927   0.495   4.742
 3662SOL     OW11884   4.240   1.031   4.228
 3662SOL    HW111885   4.338   1.015   4.221
 3662SOL    HW211886   4.223   1.097   4.301
 3663SOL     OW11887   1.725   2.925   6.824
 3663SOL    HW111888   1.735   2.940   6.726
 3663SOL    HW211889   1.654   2.857   6.840
 3664SOL     OW11890   3.964   1.978   1.512
 3664SOL    HW111891   3.881   2.018   1.550
 3664SOL    HW211892   3.975   1.885   1.547
 3665SOL     OW11893   0.742   5.569   5.757
 3665SOL    HW111894   0.785   5.541   5.671
 3665SOL    HW211895   0.790   5.648   5.794
 3666SOL     OW11896   0.945   3.351   3.174
 3666SOL    HW111897   0.986   3.282   3.114
 3666SOL    HW211898   1.015   3.416   3.204
 3667SOL     OW11899   0.647   1.093   3.607
 3667SOL    HW111900   0.577   1.155   3.641
 3667SOL    HW211901   0.644   1.007   3.658
 3668SOL     OW11902   1.421   0.670   1.489
 3668SOL    HW111903   1.359   0.718   1.552
 3668SOL    HW211904   1.442   0.729   1.411
 3669SOL     OW11905   5.585   1.259   4.041
 3669SOL    HW111906   5.585   1.355   4.013
 3669SOL    HW211907   5.511   1.211   3.995
 3670SOL     OW11908   2.993   5.236   0.595
 3670SOL    HW111909   2.958   5.148   0.566
 3670SOL    HW211910   2.951   5.262   0.682
 3671SOL     OW11911   0.032   0.852   3.943
 3671SOL    HW111912   0.066   0.781   3.881
 3671SOL    HW211913   0.109   0.894   3.991
 3672SOL     OW11914   4.617   2.042   2.508
 3672SOL    HW111915   4.687   2.018   2.440
 3672SOL    HW211916   4.568   1.960   2.535
 3673SOL     OW11917   3.960   5.504   6.828
 3673SOL    HW111918   3.958   5.560   6.910
 3673SOL    HW211919   4.054   5.477   6.807
 3674SOL     OW11920   1.493   5.984   5.330
 3674SOL    HW111921   1.441   6.062   5.365
 3674SOL    HW211922   1.591   6.005   5.332
 3675SOL     OW11923   0.679   2.574   4.507
 3675SOL    HW111924   0.612   2.620   4.565
 3675SOL    HW211925   0.751   2.639   4.481
 3676SOL     OW11926   5.753   2.731   2.756
 3676SOL    HW111927   5.759   2.828   2.777
 3676SOL    HW211928   5.744   2.718   2.657
 3677SOL     OW11929   2.479   0.622   5.056
 3677SOL    HW111930   2.577   0.615   5.039
 3677SOL    HW211931   2.447   0.714   5.033
 3678SOL     OW11932   1.608   1.483   4.077
 3678SOL    HW111933   1.522   1.448   4.116
 3678SOL    HW211934   1.661   1.528   4.149
 3679SOL     OW11935   6.654   0.197   3.692
 3679SOL    HW111936   6.555   0.185   3.692
 3679SOL    HW211937   6.687   0.200   3.786
 3680SOL     OW11938   4.632   2.361   4.524
 3680SOL    HW111939   4.669   2.440   4.574
 3680SOL    HW211940   4.708   2.309   4.485
 3681SOL     OW11941   1.361   0.878   6.144
 3681SOL    HW111942   1.304   0.944   6.193
 3681SOL    HW211943   1.454   0.881   6.180
 3682SOL     OW11944   5.804   2.746   0.321
 3682SOL    HW111945   5.888   2.771   0.274
 3682SOL    HW211946   5.823   2.733   0.418
 3683SOL     OW11947   0.688   1.354   4.692
 3683SOL    HW111948   0.682   1.257   4.719
 3683SOL    HW211949   0.606   1.379   4.641
 3684SOL     OW11950   1.103   6.035   0.078
 3684SOL    HW111951   1.140   6.122   0.111
 3684SOL    HW211952   1.178   5.969   0.069
 3685SOL     OW11953   2.434   6.151   5.338
 3685SOL    HW111954   2.534   6.156   5.338
 3685SOL    HW211955   2.398   6.206   5.263
 3686SOL     OW11956   6.289   4.437   4.227
 3686SOL    HW111957   6.311   4.358   4.285
 3686SOL    HW211958   6.335   4.518   4.263
 3687SOL     OW11959   4.728   6.589   3.451
 3687SOL    HW111960   4.667   6.668   3.456
 3687SOL    HW211961   4.763   6.568   3.542
 3688SOL     OW11962   6.478   3.084   6.650
 3688SOL    HW111963   6.395   3.087   6.594
 3688SOL    HW211964   6.538   3.160   6.625
 3689SOL     OW11965   2.681   2.132   5.472
 3689SOL    HW111966   2.709   2.216   5.519
 3689SOL    HW211967   2.675   2.149   5.374
 3690SOL     OW11968   5.058   5.918   1.286
 3690SOL    HW111969   5.101   5.862   1.356
 3690SOL    HW211970   5.127   5.951   1.222
 3691SOL     OW11971   2.800   1.910   5.994
 3691SOL    HW111972   2.834   1.941   5.905
 3691SOL    HW211973   2.727   1.971   6.026
 3692SOL     OW11974   6.714   4.439   5.990
 3692SOL    HW111975   6.618   4.415   6.007
 3692SOL    HW211976   6.748   4.386   5.912
 3693SOL     OW11977   1.965   1.576   3.148
 3693SOL    HW111978   2.032   1.589   3.075
 3693SOL    HW211979   1.905   1.500   3.126
 3694SOL     OW11980   1.330   6.640   1.626
 3694SOL    HW111981   1.368   6.719   1.675
 3694SOL    HW211982   1.253   6.668   1.570
 3695SOL     OW11983   6.350   1.852   2.158
 3695SOL    HW111984   6.316   1.844   2.064
 3695SOL    HW211985   6.391   1.765   2.185
 3696SOL     OW11986   4.272   0.013   5.566
 3696SOL    HW111987   4.228   6.993   5.487
 3696SOL    HW211988   4.216   0.090   5.598
 3697SOL     OW11989   6.795   6.171   3.155
 3697SOL    HW111990   6.777   6.196   3.250
 3697SOL    HW211991   6.874   6.222   3.121
 3698SOL     OW11992   2.244   1.296   3.627
 3698SOL    HW111993   2.253   1.390   3.659
 3698SOL    HW211994   2.210   1.296   3.533
 3699SOL     OW11995   2.061   1.983   3.432
 3699SOL    HW111996   2.116   1.933   3.499
 3699SOL    HW211997   2.064   1.935   3.344
 3700SOL     OW11998   1.408   5.037   4.754
 3700SOL    HW111999   1.371   5.103   4.820
 3700SOL    HW212000   1.434   4.953   4.801
 3701SOL     OW12001   0.645   6.526   2.712
 3701SOL    HW112002   0.602   6.578   2.786
 3701SOL    HW212003   0.591   6.444   2.693
 3702SOL     OW12004   5.872   6.657   3.406
 3702SOL    HW112005   5.784   6.705   3.401
 3702SOL    HW212006   5.946   6.721   3.387
 3703SOL     OW12007   0.870   0.343   6.633
 3703SOL    HW112008   0.918   0.431   6.630
 3703SOL    HW212009   0.850   0.312   6.540
 3704SOL     OW12010   5.418   3.005   1.164
 3704SOL    HW112011   5.505   3.051   1.176
 3704SOL    HW212012   5.432   2.906   1.165
 3705SOL     OW12013   4.665   4.982   3.637
 3705SOL    HW112014   4.570   4.973   3.607
 3705SOL    HW212015   4.675   4.942   3.728
 3706SOL     OW12016   0.503   4.275   0.006
 3706SOL    HW112017   0.493   4.176   7.016
 3706SOL    HW212018   0.460   4.302   0.093
 3707SOL     OW12019   4.204   5.874   3.895
 3707SOL    HW112020   4.214   5.952   3.834
 3707SOL    HW212021   4.292   5.856   3.941
 3708SOL     OW12022   4.665   6.713   1.148
 3708SOL    HW112023   4.738   6.781   1.145
 3708SOL    HW212024   4.576   6.758   1.148
 3709SOL     OW12025   2.611   0.076   1.431
 3709SOL    HW112026   2.607   0.022   1.515
 3709SOL    HW212027   2.698   0.061   1.385
 3710SOL     OW12028   0.426   5.667   5.069
 3710SOL    HW112029   0.366   5.589   5.053
 3710SOL    HW212030   0.379   5.735   5.126
 3711SOL     OW12031   1.255   6.344   4.782
 3711SOL    HW112032   1.243   6.275   4.854
 3711SOL    HW212033   1.288   6.429   4.822
 3712SOL     OW12034   1.466   6.325   6.882
 3712SOL    HW112035   1.467   6.270   6.798
 3712SOL    HW212036   1.549   6.306   6.935
 3713SOL     OW12037   1.095   0.792   4.777
 3713SOL    HW112038   1.024   0.760   4.714
 3713SOL    HW212039   1.185   0.767   4.740
 3714SOL     OW12040   6.476   5.348   7.000
 3714SOL    HW112041   6.488   5.278   0.049
 3714SOL    HW212042   6.475   5.439   0.021
 3715SOL     OW12043   0.589   5.143   2.717
 3715SOL    HW112044   0.652   5.220   2.718
 3715SOL    HW212045   0.638   5.059   2.693
 3716SOL     OW12046   5.891   5.275   4.525
 3716SOL    HW112047   5.873   5.186   4.567
 3716SOL    HW212048   5.986   5.302   4.541
 3717SOL     OW12049   6.479   1.178   0.941
 3717SOL    HW112050   6.510   1.118   0.867
 3717SOL    HW212051   6.439   1.260   0.902
 3718SOL     OW12052   6.661   0.236   6.827
 3718SOL    HW112053   6.687   0.285   6.911
 3718SOL    HW212054   6.561   0.228   6.823
 3719SOL     OW12055   4.052   3.332   6.409
 3719SOL    HW112056   4.136   3.278   6.416
 3719SOL    HW212057   4.028   3.368   6.499
 3720SOL     OW12058   5.797   3.761   0.638
 3720SOL    HW112059   5.789   3.721   0.729
 3720SOL    HW212060   5.815   3.688   0.571
 3721SOL     OW12061   6.892   5.014   0.715
 3721SOL    HW112062   6.869   5.001   0.812
 3721SOL    HW212063   6.859   5.103   0.685
 3722SOL     OW12064   5.380   6.469   1.547
 3722SOL    HW112065   5.463   6.441   1.594
 3722SOL    HW212066   5.321   6.389   1.532
 3723SOL     OW12067   4.996   5.465   0.025
 3723SOL    HW112068   5.041   5.403   0.089
 3723SOL    HW212069   5.065   5.521   7.000
 3724SOL     OW12070   1.576   4.885   5.507
 3724SOL    HW112071   1.612   4.955   5.568
 3724SOL    HW212072   1.585   4.795   5.551
 3725SOL     OW12073   0.627   6.347   6.948
 3725SOL    HW112074   0.664   6.300   0.006
 3725SOL    HW212075   0.608   6.281   6.876
 3726SOL     OW12076   5.547   3.706   5.917
 3726SOL    HW112077   5.500   3.747   5.839
 3726SOL    HW212078   5.631   3.661   5.886
 3727SOL     OW12079   6.834   3.225   5.011
 3727SOL    HW112080   6.849   3.177   5.097
 3727SOL    HW212081   6.915   3.280   4.989
 3728SOL     OW12082   2.545   3.876   6.549
 3728SOL    HW112083   2.546   3.846   6.453
 3728SOL    HW212084   2.614   3.947   6.562
 3729SOL     OW12085   0.759   0.460   4.048
 3729SOL    HW112086   0.699   0.539   4.062
 3729SOL    HW212087   0.815   0.446   4.130
 3730SOL     OW12088   3.999   6.033   5.559
 3730SOL    HW112089   4.002   5.940   5.595
 3730SOL    HW212090   3.919   6.081   5.594
 3731SOL     OW12091   0.649   1.721   0.060
 3731SOL    HW112092   0.657   1.818   0.082
 3731SOL    HW212093   0.561   1.703   0.015
 3732SOL     OW12094   1.872   2.360   0.600
 3732SOL    HW112095   1.793   2.345   0.659
 3732SOL    HW212096   1.951   2.385   0.655
 3733SOL     OW12097   1.854   2.611   3.810
 3733SOL    HW112098   1.763   2.636   3.777
 3733SOL    HW212099   1.921   2.676   3.775
 3734SOL     OW12100   4.551   0.727   1.457
 3734SOL    HW112101   4.561   0.646   1.399
 3734SOL    HW212102   4.454   0.739   1.480
 3735SOL     OW12103   4.041   0.564   2.521
 3735SOL    HW112104   4.025   0.541   2.426
 3735SOL    HW212105   3.995   0.649   2.544
 3736SOL     OW12106   0.074   1.185   1.309
 3736SOL    HW112107   0.115   1.217   1.394
 3736SOL    HW212108   6.999   1.166   1.324
 3737SOL     OW12109   6.277   1.945   3.540
 3737SOL    HW112110   6.258   1.860   3.589
 3737SOL    HW212111   6.283   2.020   3.605
 3738SOL     OW12112   6.332   6.388   0.972
 3738SOL    HW112113   6.352   6.469   0.917
 3738SOL    HW212114   6.359   6.405   1.067
 3739SOL     OW12115   2.661   4.514   1.640
 3739SOL    HW112116   2.672   4.609   1.611
 3739SOL    HW212117   2.685   4.506   1.736
 3740SOL     OW12118   6.027   5.588   0.346
 3740SOL    HW112119   5.982   5.499   0.338
 3740SOL    HW212120   5.958   5.661   0.349
 3741SOL     OW12121   4.002   2.987   6.654
 3741SOL    HW112122   4.095   3.021   6.640
 3741SOL    HW212123   3.963   2.959   6.566
 3742SOL     OW12124   4.428   0.239   0.502
 3742SOL    HW112125   4.390   0.227   0.594
 3742SOL    HW212126   4.374   0.307   0.453
 3743SOL     OW12127   5.375   4.180   1.484
 3743SOL    HW112128   5.362   4.094   1.435
 3743SOL    HW212129   5.412   4.160   1.575
 3744SOL     OW12130   1.044   6.302   2.449
 3744SOL    HW112131   1.026   6.370   2.378
 3744SOL    HW212132   0.999   6.216   2.425
 3745SOL     OW12133   5.283   4.097   2.394
 3745SOL    HW112134   5.352   4.025   2.403
 3745SOL    HW212135   5.299   4.149   2.310
 3746SOL     OW12136   5.893   0.584   3.411
 3746SOL    HW112137   5.798   0.552   3.401
 3746SOL    HW212138   5.942   0.524   3.474
 3747SOL     OW12139   4.897   6.646   5.700
 3747SOL    HW112140   4.861   6.735   5.729
 3747SOL    HW212141   4.954   6.658   5.618
 3748SOL     OW12142   5.206   0.413   2.327
 3748SOL    HW112143   5.197   0.409   2.427
 3748SOL    HW212144   5.150   0.488   2.291
 3749SOL     OW12145   2.123   4.434   3.339
 3749SOL    HW112146   2.052   4.433   3.409
 3749SOL    HW212147   2.180   4.353   3.349
 3750SOL     OW12148   6.094   4.223   1.199
 3750SOL    HW112149   6.155   4.152   1.164
 3750SOL    HW212150   6.068   4.201   1.293
 3751SOL     OW12151   0.539   2.741   0.974
 3751SOL    HW112152   0.550   2.800   1.054
 3751SOL    HW212153   0.454   2.689   0.982
 3752SOL     OW12154   0.863   6.815   0.389
 3752SOL    HW112155   0.801   6.865   0.449
 3752SOL    HW212156   0.931   6.879   0.351
 3753SOL     OW12157   0.409   0.211   4.325
 3753SOL    HW112158   0.469   0.140   4.289
 3753SOL    HW212159   0.349   0.245   4.252
 3754SOL     OW12160   4.764   6.104   1.776
 3754SOL    HW112161   4.689   6.170   1.780
 3754SOL    HW212162   4.728   6.013   1.755
 3755SOL     OW12163   5.406   5.710   4.901
 3755SOL    HW112164   5.315   5.716   4.943
 3755SOL    HW212165   5.397   5.711   4.802
 3756SOL     OW12166   1.867   0.670   6.360
 3756SOL    HW112167   1.809   0.700   6.435
 3756SOL    HW212168   1.811   0.632   6.286
 3757SOL     OW12169   3.716   6.001   6.922
 3757SOL    HW112170   3.770   6.020   6.840
 3757SOL    HW212171   3.627   6.046   6.914
 3758SOL     OW12172   1.351   1.372   4.147
 3758SOL    HW112173   1.320   1.384   4.052
 3758SOL    HW212174   1.350   1.275   4.170
 3759SOL     OW12175   4.139   4.804   5.426
 3759SOL    HW112176   4.080   4.834   5.351
 3759SOL    HW212177   4.083   4.768   5.500
 3760SOL     OW12178   0.651   3.545   4.474
 3760SOL    HW112179   0.649   3.537   4.574
 3760SOL    HW212180   0.744   3.567   4.445
 3761SOL     OW12181   0.837   6.889   4.859
 3761SOL    HW112182   0.847   6.888   4.760
 3761SOL    HW212183   0.769   6.820   4.887
 3762SOL     OW12184   0.717   5.317   6.900
 3762SOL    HW112185   0.718   5.405   6.947
 3762SOL    HW212186   0.627   5.302   6.859
 3763SOL     OW12187   6.355   4.940   0.232
 3763SOL    HW112188   6.378   5.023   0.282
 3763SOL    HW212189   6.367   4.955   0.134
 3764SOL     OW12190   2.070   0.373   3.738
 3764SOL    HW112191   2.143   0.367   3.671
 3764SOL    HW212192   2.049   0.469   3.757
 3765SOL     OW12193   5.345   1.612   1.832
 3765SOL    HW112194   5.295   1.671   1.896
 3765SOL    HW212195   5.442   1.632   1.837
 3766SOL     OW12196   1.175   1.215   4.627
 3766SOL    HW112197   1.192   1.287   4.694
 3766SOL    HW212198   1.082   1.222   4.593
 3767SOL     OW12199   2.227   5.467   0.539
 3767SOL    HW112200   2.304   5.437   0.483
 3767SOL    HW212201   2.145   5.418   0.512
 3768SOL     OW12202   2.229   5.793   5.713
 3768SOL    HW112203   2.289   5.733   5.659
 3768SOL    HW212204   2.221   5.881   5.666
 3769SOL     OW12205   5.380   5.483   5.282
 3769SOL    HW112206   5.380   5.420   5.204
 3769SOL    HW212207   5.436   5.445   5.355
 3770SOL     OW12208   1.649   0.525   6.878
 3770SOL    HW112209   1.605   0.451   6.929
 3770SOL    HW212210   1.608   0.612   6.903
 3771SOL     OW12211   5.743   2.100   0.462
 3771SOL    HW112212   5.821   2.119   0.403
 3771SOL    HW212213   5.681   2.036   0.416
 3772SOL     OW12214   6.842   1.451   0.618
 3772SOL    HW112215   6.840   1.382   0.691
 3772SOL    HW212216   6.863   1.541   0.658
 3773SOL     OW12217   5.933   2.956   6.245
 3773SOL    HW112218   5.936   2.986   6.340
 3773SOL    HW212219   6.026   2.933   6.215
 3774SOL     OW12220   0.693   6.582   6.749
 3774SOL    HW112221   0.608   6.634   6.751
 3774SOL    HW212222   0.689   6.507   6.814
 3775SOL     OW12223   5.246   4.142   1.950
 3775SOL    HW112224   5.311   4.145   1.873
 3775SOL    HW212225   5.216   4.048   1.964
 3776SOL     OW12226   3.510   1.066   0.934
 3776SOL    HW112227   3.486   1.067   0.837
 3776SOL    HW212228   3.518   1.160   0.967
 3777SOL     OW12229   3.140   4.898   4.178
 3777SOL    HW112230   3.098   4.813   4.211
 3777SOL    HW212231   3.160   4.957   4.256
 3778SOL     OW12232   2.881   5.618   3.272
 3778SOL    HW112233   2.962   5.566   3.301
 3778SOL    HW212234   2.877   5.704   3.323
 3779SOL     OW12235   2.024   4.559   0.842
 3779SOL    HW112236   2.072   4.600   0.920
 3779SOL    HW212237   1.975   4.477   0.872
 3780SOL     OW12238   4.473   4.677   5.668
 3780SOL    HW112239   4.385   4.670   5.714
 3780SOL    HW212240   4.536   4.609   5.706
 3781SOL     OW12241   1.305   6.464   4.353
 3781SOL    HW112242   1.339   6.474   4.446
 3781SOL    HW212243   1.219   6.414   4.353
 3782SOL     OW12244   2.937   2.264   4.225
 3782SOL    HW112245   2.849   2.269   4.179
 3782SOL    HW212246   3.010   2.248   4.158
 3783SOL     OW12247   5.522   6.482   5.356
 3783SOL    HW112248   5.562   6.557   5.410
 3783SOL    HW212249   5.481   6.416   5.418
 3784SOL     OW12250   4.863   1.692   3.444
 3784SOL    HW112251   4.858   1.775   3.389
 3784SOL    HW212252   4.959   1.669   3.459
 3785SOL     OW12253   1.811   1.141   0.112
 3785SOL    HW112254   1.887   1.105   0.167
 3785SOL    HW212255   1.818   1.240   0.106
 3786SOL     OW12256   2.756   6.548   3.255
 3786SOL    HW112257   2.730   6.585   3.344
 3786SOL    HW212258   2.693   6.475   3.229
 3787SOL     OW12259   5.952   6.091   3.531
 3787SOL    HW112260   5.949   6.191   3.521
 3787SOL    HW212261   5.872   6.061   3.583
 3788SOL     OW12262   0.385   3.188   3.468
 3788SOL    HW112263   0.393   3.095   3.431
 3788SOL    HW212264   0.357   3.250   3.394
 3789SOL     OW12265   1.073   3.021   4.085
 3789SOL    HW112266   1.008   2.955   4.122
 3789SOL    HW212267   1.162   3.009   4.128
 3790SOL     OW12268   1.388   3.826   5.037
 3790SOL    HW112269   1.459   3.897   5.036
 3790SOL    HW212270   1.411   3.756   5.104
 3791SOL     OW12271   6.326   0.134   0.966
 3791SOL    HW112272   6.333   0.040   0.933
 3791SOL    HW212273   6.231   0.153   0.993
 3792SOL     OW12274   6.842   0.763   4.150
 3792SOL    HW112275   6.861   0.696   4.222
 3792SOL    HW212276   6.919   0.765   4.086
 3793SOL     OW12277   3.741   6.928   2.719
 3793SOL    HW112278   3.838   6.945   2.733
 3793SOL    HW212279   3.726   6.832   2.698
 3794SOL     OW12280   3.207   4.563   1.132
 3794SOL    HW112281   3.130   4.505   1.159
 3794SOL    HW212282   3.237   4.538   1.040
 3795SOL     OW12283   3.547   6.569   0.018
 3795SOL    HW112284   3.544   6.635   0.093
 3795SOL    HW212285   3.456   6.531   0.002
 3796SOL     OW12286   2.475   2.139   1.341
 3796SOL    HW112287   2.404   2.087   1.388
 3796SOL    HW212288   2.463   2.237   1.360
 3797SOL     OW12289   6.591   4.599   2.601
 3797SOL    HW112290   6.504   4.647   2.616
 3797SOL    HW212291   6.573   4.506   2.570
 3798SOL     OW12292   3.391   5.413   3.565
 3798SOL    HW112293   3.385   5.360   3.480
 3798SOL    HW212294   3.476   5.390   3.612
 3799SOL     OW12295   0.099   2.477   4.713
 3799SOL    HW112296   0.193   2.442   4.713
 3799SOL    HW212297   0.102   2.577   4.704
 3800SOL     OW12298   5.146   2.952   4.605
 3800SOL    HW112299   5.195   2.933   4.690
 3800SOL    HW212300   5.145   3.051   4.589
 3801SOL     OW12301   0.103   6.569   4.185
 3801SOL    HW112302   0.174   6.521   4.134
 3801SOL    HW212303   0.050   6.502   4.238
 3802SOL     OW12304   0.142   1.820   4.219
 3802SOL    HW112305   0.121   1.748   4.153
 3802SOL    HW212306   0.234   1.804   4.256
 3803SOL     OW12307   3.733   1.529   1.628
 3803SOL    HW112308   3.670   1.606   1.632
 3803SOL    HW212309   3.761   1.504   1.721
 3804SOL     OW12310   5.217   2.023   4.038
 3804SOL    HW112311   5.217   2.026   4.138
 3804SOL    HW212312   5.311   2.021   4.005
 3805SOL     OW12313   2.735   3.638   1.784
 3805SOL    HW112314   2.826   3.669   1.812
 3805SOL    HW212315   2.676   3.717   1.769
 3806SOL     OW12316   2.427   3.767   0.263
 3806SOL    HW112317   2.423   3.722   0.352
 3806SOL    HW212318   2.335   3.778   0.227
 3807SOL     OW12319   2.068   1.099   3.812
 3807SOL    HW112320   2.108   1.156   3.740
 3807SOL    HW212321   2.141   1.060   3.868
 3808SOL     OW12322   3.708   1.293   1.268
 3808SOL    HW112323   3.757   1.369   1.225
 3808SOL    HW212324   3.743   1.279   1.361
 3809SOL     OW12325   6.355   2.703   0.554
 3809SOL    HW112326   6.375   2.799   0.574
 3809SOL    HW212327   6.432   2.646   0.583
 3810SOL     OW12328   4.316   2.716   5.353
 3810SOL    HW112329   4.305   2.815   5.350
 3810SOL    HW212330   4.233   2.672   5.318
 3811SOL     OW12331   0.397   4.803   4.655
 3811SOL    HW112332   0.312   4.763   4.690
 3811SOL    HW212333   0.431   4.747   4.579
 3812SOL     OW12334   5.776   1.317   5.342
 3812SOL    HW112335   5.695   1.267   5.312
 3812SOL    HW212336   5.857   1.282   5.296
 3813SOL     OW12337   4.037   3.934   0.704
 3813SOL    HW112338   3.947   3.940   0.662
 3813SOL    HW212339   4.030   3.889   0.793
 3814SOL     OW12340   6.571   6.627   1.479
 3814SOL    HW112341   6.630   6.706   1.494
 3814SOL    HW212342   6.587   6.591   1.387
 3815SOL     OW12343   5.112   2.522   0.453
 3815SOL    HW112344   5.043   2.582   0.412
 3815SOL    HW212345   5.080   2.428   0.451
 3816SOL     OW12346   6.692   5.911   0.893
 3816SOL    HW112347   6.732   5.835   0.843
 3816SOL    HW212348   6.687   5.992   0.834
 3817SOL     OW12349   4.787   2.992   3.900
 3817SOL    HW112350   4.753   2.899   3.886
 3817SOL    HW212351   4.740   3.054   3.838
 3818SOL     OW12352   5.226   0.070   0.903
 3818SOL    HW112353   5.193   0.149   0.851
 3818SOL    HW212354   5.149   0.009   0.921
 3819SOL     OW12355   5.467   5.128   0.701
 3819SOL    HW112356   5.414   5.095   0.623
 3819SOL    HW212357   5.408   5.181   0.762
 3820SOL     OW12358   6.812   6.781   4.309
 3820SOL    HW112359   6.724   6.821   4.336
 3820SOL    HW212360   6.878   6.791   4.383
 3821SOL     OW12361   1.885   3.244   1.727
 3821SOL    HW112362   1.821   3.320   1.726
 3821SOL    HW212363   1.852   3.173   1.789
 3822SOL     OW12364   1.328   5.625   2.805
 3822SOL    HW112365   1.303   5.624   2.901
 3822SOL    HW212366   1.287   5.705   2.761
 3823SOL     OW12367   3.990   2.721   5.773
 3823SOL    HW112368   4.087   2.741   5.787
 3823SOL    HW212369   3.971   2.627   5.803
 3824SOL     OW12370   6.108   1.591   6.028
 3824SOL    HW112371   6.149   1.581   6.118
 3824SOL    HW212372   6.089   1.500   5.989
 3825SOL     OW12373   0.417   0.342   0.904
 3825SOL    HW112374   0.447   0.304   0.991
 3825SOL    HW212375   0.464   0.429   0.888
 3826SOL     OW12376   0.848   3.866   6.575
 3826SOL    HW112377   0.947   3.861   6.588
 3826SOL    HW212378   0.815   3.779   6.538
 3827SOL     OW12379   3.330   3.479   0.551
 3827SOL    HW112380   3.387   3.413   0.600
 3827SOL    HW212381   3.389   3.549   0.510
 3828SOL     OW12382   4.312   2.138   1.393
 3828SOL    HW112383   4.223   2.153   1.349
 3828SOL    HW212384   4.358   2.225   1.406
 3829SOL     OW12385   2.288   4.737   4.162
 3829SOL    HW112386   2.254   4.821   4.205
 3829SOL    HW212387   2.247   4.727   4.072
 3830SOL     OW12388   0.800   0.291   4.591
 3830SOL    HW112389   0.776   0.220   4.525
 3830SOL    HW212390   0.857   0.251   4.663
 3831SOL     OW12391   4.497   1.777   2.156
 3831SOL    HW112392   4.410   1.826   2.155
 3831SOL    HW212393   4.554   1.808   2.080
 3832SOL     OW12394   5.972   0.720   2.314
 3832SOL    HW112395   5.895   0.677   2.266
 3832SOL    HW212396   6.031   0.650   2.353
 3833SOL     OW12397   0.853   5.819   5.801
 3833SOL    HW112398   0.791   5.888   5.838
 3833SOL    HW212399   0.945   5.835   5.836
 3834SOL     OW12400   3.369   2.880   0.462
 3834SOL    HW112401   3.422   2.964   0.448
 3834SOL    HW212402   3.272   2.904   0.474
 3835SOL     OW12403   3.066   4.858   5.060
 3835SOL    HW112404   3.054   4.862   5.160
 3835SOL    HW212405   3.047   4.765   5.028
 3836SOL     OW12406   2.002   3.429   5.073
 3836SOL    HW112407   2.040   3.373   5.147
 3836SOL    HW212408   2.063   3.426   4.994
 3837SOL     OW12409   4.646   3.129   6.840
 3837SOL    HW112410   4.665   3.072   6.760
 3837SOL    HW212411   4.688   3.087   6.921
 3838SOL     OW12412   6.215   4.119   4.247
 3838SOL    HW112413   6.236   4.121   4.150
 3838SOL    HW212414   6.230   4.027   4.283
 3839SOL     OW12415   4.440   0.067   4.117
 3839SOL    HW112416   4.389   0.069   4.031
 3839SOL    HW212417   4.400   7.022   4.179
 3840SOL     OW12418   1.990   1.398   5.495
 3840SOL    HW112419   1.896   1.393   5.462
 3840SOL    HW212420   1.997   1.349   5.582
 3841SOL     OW12421   0.249   3.686   5.179
 3841SOL    HW112422   0.229   3.750   5.104
 3841SOL    HW212423   0.164   3.662   5.226
 3842SOL     OW12424   1.434   5.143   0.330
 3842SOL    HW112425   1.506   5.211   0.343
 3842SOL    HW212426   1.461   5.057   0.372
 3843SOL     OW12427   6.787   3.672   1.190
 3843SOL    HW112428   6.845   3.741   1.234
 3843SOL    HW212429   6.816   3.581   1.219
 3844SOL     OW12430   6.714   4.654   5.427
 3844SOL    HW112431   6.718   4.666   5.526
 3844SOL    HW212432   6.708   4.743   5.383
 3845SOL     OW12433   3.454   2.843   2.512
 3845SOL    HW112434   3.400   2.876   2.589
 3845SOL    HW212435   3.455   2.743   2.512
 3846SOL     OW12436   0.215   4.426   4.195
 3846SOL    HW112437   0.165   4.503   4.156
 3846SOL    HW212438   0.308   4.425   4.160
 3847SOL     OW12439   6.470   1.800   6.115
 3847SOL    HW112440   6.412   1.814   6.035
 3847SOL    HW212441   6.505   1.707   6.116
 3848SOL     OW12442   2.675   5.701   3.030
 3848SOL    HW112443   2.731   5.694   3.112
 3848SOL    HW212444   2.579   5.685   3.053
 3849SOL     OW12445   0.730   1.072   5.566
 3849SOL    HW112446   0.727   1.124   5.651
 3849SOL    HW212447   0.790   1.118   5.501
 3850SOL     OW12448   2.237   3.652   1.674
 3850SOL    HW112449   2.137   3.643   1.682
 3850SOL    HW212450   2.281   3.592   1.741
 3851SOL     OW12451   1.240   4.251   2.768
 3851SOL    HW112452   1.237   4.228   2.671
 3851SOL    HW212453   1.270   4.346   2.779
 3852SOL     OW12454   4.773   6.918   4.652
 3852SOL    HW112455   4.768   6.992   4.719
 3852SOL    HW212456   4.825   6.842   4.691
 3853SOL     OW12457   1.138   3.600   2.587
 3853SOL    HW112458   1.069   3.580   2.517
 3853SOL    HW212459   1.102   3.573   2.677
 3854SOL     OW12460   0.488   4.032   3.340
 3854SOL    HW112461   0.415   4.031   3.408
 3854SOL    HW212462   0.495   3.941   3.298
 3855SOL     OW12463   5.591   5.522   6.682
 3855SOL    HW112464   5.602   5.498   6.778
 3855SOL    HW212465   5.660   5.590   6.657
 3856SOL     OW12466   0.310   6.686   4.816
 3856SOL    HW112467   0.383   6.712   4.752
 3856SOL    HW212468   0.330   6.725   4.906
 3857SOL     OW12469   1.202   6.680   5.060
 3857SOL    HW112470   1.281   6.635   5.020
 3857SOL    HW212471   1.152   6.615   5.118
 3858SOL     OW12472   1.321   6.020   6.196
 3858SOL    HW112473   1.264   5.949   6.238
 3858SOL    HW212474   1.269   6.105   6.188
 3859SOL     OW12475   0.035   1.735   2.795
 3859SOL    HW112476   6.965   1.695   2.798
 3859SOL    HW212477   0.028   1.834   2.784
 3860SOL     OW12478   2.129   6.105   4.569
 3860SOL    HW112479   2.199   6.041   4.537
 3860SOL    HW212480   2.115   6.176   4.500
 3861SOL     OW12481   5.753   4.497   1.364
 3861SOL    HW112482   5.844   4.504   1.323
 3861SOL    HW212483   5.733   4.402   1.386
 3862SOL     OW12484   6.851   6.750   5.469
 3862SOL    HW112485   6.827   6.743   5.372
 3862SOL    HW212486   6.870   6.845   5.493
 3863SOL     OW12487   3.844   4.356   0.158
 3863SOL    HW112488   3.915   4.424   0.177
 3863SOL    HW212489   3.867   4.307   0.073
 3864SOL     OW12490   4.152   2.193   6.005
 3864SOL    HW112491   4.153   2.098   6.035
 3864SOL    HW212492   4.236   2.213   5.954
 3865SOL     OW12493   3.835   0.579   1.405
 3865SOL    HW112494   3.853   0.674   1.379
 3865SOL    HW212495   3.738   0.568   1.425
 3866SOL     OW12496   4.041   0.997   0.515
 3866SOL    HW112497   4.028   1.005   0.614
 3866SOL    HW212498   4.128   0.951   0.497
 3867SOL     OW12499   2.149   3.678   3.667
 3867SOL    HW112500   2.185   3.753   3.723
 3867SOL    HW212501   2.185   3.591   3.702
 3868SOL     OW12502   2.457   5.875   2.084
 3868SOL    HW112503   2.551   5.902   2.106
 3868SOL    HW212504   2.402   5.957   2.066
 3869SOL     OW12505   0.150   2.472   4.157
 3869SOL    HW112506   0.233   2.481   4.102
 3869SOL    HW212507   0.119   2.377   4.154
 3870SOL     OW12508   3.203   4.891   0.138
 3870SOL    HW112509   3.138   4.886   0.213
 3870SOL    HW212510   3.239   4.800   0.118
 3871SOL     OW12511   3.146   0.180   2.279
 3871SOL    HW112512   3.236   0.204   2.244
 3871SOL    HW212513   3.131   0.224   2.367
 3872SOL     OW12514   3.804   3.101   1.097
 3872SOL    HW112515   3.811   3.198   1.072
 3872SOL    HW212516   3.884   3.052   1.063
 3873SOL     OW12517   5.805   5.468   1.488
 3873SOL    HW112518   5.754   5.513   1.415
 3873SOL    HW212519   5.758   5.481   1.575
 3874SOL     OW12520   4.187   6.746   0.135
 3874SOL    HW112521   4.167   6.820   0.199
 3874SOL    HW212522   4.124   6.670   0.151
 3875SOL     OW12523   1.083   3.883   2.722
 3875SOL    HW112524   0.996   3.910   2.680
 3875SOL    HW212525   1.129   3.817   2.663
 3876SOL     OW12526   4.740   5.123   6.270
 3876SOL    HW112527   4.714   5.178   6.191
 3876SOL    HW212528   4.834   5.090   6.258
 3877SOL     OW12529   6.907   1.593   1.325
 3877SOL    HW112530   6.896   1.558   1.418
 3877SOL    HW212531   7.004   1.591   1.301
 3878SOL     OW12532   3.056   6.433   6.192
 3878SOL    HW112533   3.022   6.346   6.227
 3878SOL    HW212534   3.127   6.416   6.123
 3879SOL     OW12535   4.780   5.572   1.122
 3879SOL    HW112536   4.682   5.592   1.126
 3879SOL    HW212537   4.803   5.533   1.032
 3880SOL     OW12538   5.992   4.214   2.624
 3880SOL    HW112539   6.071   4.198   2.565
 3880SOL    HW212540   6.002   4.161   2.708
 3881SOL     OW12541   1.310   5.524   0.828
 3881SOL    HW112542   1.345   5.449   0.884
 3881SOL    HW212543   1.292   5.604   0.886
 3882SOL     OW12544   6.504   0.881   6.059
 3882SOL    HW112545   6.413   0.919   6.071
 3882SOL    HW212546   6.499   0.796   6.006
 3883SOL     OW12547   4.887   1.267   4.219
 3883SOL    HW112548   4.814   1.259   4.151
 3883SOL    HW212549   4.973   1.238   4.178
 3884SOL     OW12550   1.423   6.198   4.585
 3884SOL    HW112551   1.463   6.119   4.631
 3884SOL    HW212552   1.366   6.249   4.650
 3885SOL     OW12553   6.403   0.953   4.802
 3885SOL    HW112554   6.340   1.024   4.834
 3885SOL    HW212555   6.389   0.870   4.855
 3886SOL     OW12556   6.691   0.450   5.763
 3886SOL    HW112557   6.621   0.511   5.797
 3886SOL    HW212558   6.663   0.413   5.674
 3887SOL     OW12559   4.838   1.575   5.540
 3887SOL    HW112560   4.813   1.671   5.550
 3887SOL    HW212561   4.808   1.524   5.620
 3888SOL     OW12562   6.960   1.642   0.124
 3888SOL    HW112563   6.918   1.626   0.035
 3888SOL    HW212564   6.941   1.565   0.184
 3889SOL     OW12565   0.687   5.554   6.358
 3889SOL    HW112566   0.745   5.533   6.436
 3889SOL    HW212567   0.716   5.641   6.317
 3890SOL     OW12568   5.973   6.024   3.268
 3890SOL    HW112569   5.912   6.095   3.234
 3890SOL    HW212570   5.967   6.020   3.368
 3891SOL     OW12571   5.360   5.293   4.725
 3891SOL    HW112572   5.354   5.389   4.753
 3891SOL    HW212573   5.444   5.253   4.762
 3892SOL     OW12574   0.471   0.204   2.795
 3892SOL    HW112575   0.538   0.259   2.745
 3892SOL    HW212576   0.400   0.173   2.732
 3893SOL     OW12577   3.839   5.692   3.624
 3893SOL    HW112578   3.836   5.624   3.698
 3893SOL    HW212579   3.896   5.657   3.549
 3894SOL     OW12580   3.624   2.640   0.339
 3894SOL    HW112581   3.635   2.683   0.428
 3894SOL    HW212582   3.536   2.666   0.300
 3895SOL     OW12583   1.592   1.489   5.210
 3895SOL    HW112584   1.594   1.416   5.142
 3895SOL    HW212585   1.617   1.576   5.166
 3896SOL     OW12586   0.353   1.743   5.780
 3896SOL    HW112587   0.281   1.694   5.828
 3896SOL    HW212588   0.325   1.762   5.686
 3897SOL     OW12589   2.699   6.620   2.170
 3897SOL    HW112590   2.635   6.613   2.247
 3897SOL    HW212591   2.704   6.532   2.123
 3898SOL     OW12592   3.509   3.045   4.162
 3898SOL    HW112593   3.462   2.988   4.230
 3898SOL    HW212594   3.443   3.076   4.094
 3899SOL     OW12595   5.206   1.607   5.271
 3899SOL    HW112596   5.239   1.541   5.338
 3899SOL    HW212597   5.135   1.664   5.313
 3900SOL     OW12598   6.482   2.832   3.154
 3900SOL    HW112599   6.417   2.758   3.135
 3900SOL    HW212600   6.556   2.828   3.087
 3901SOL     OW12601   0.997   6.289   4.734
 3901SOL    HW112602   0.984   6.386   4.751
 3901SOL    HW212603   1.094   6.267   4.738
 3902SOL     OW12604   5.595   4.980   1.417
 3902SOL    HW112605   5.693   4.973   1.436
 3902SOL    HW212606   5.567   4.904   1.358
 3903SOL     OW12607   4.021   2.168   0.303
 3903SOL    HW112608   4.108   2.183   0.349
 3903SOL    HW212609   4.037   2.155   0.205
 3904SOL     OW12610   0.960   0.189   0.207
 3904SOL    HW112611   0.907   0.264   0.245
 3904SOL    HW212612   0.905   0.141   0.139
 3905SOL     OW12613   6.814   6.742   6.221
 3905SOL    HW112614   6.742   6.673   6.222
 3905SOL    HW212615   6.774   6.833   6.211
 3906SOL     OW12616   1.565   4.804   3.889
 3906SOL    HW112617   1.490   4.824   3.953
 3906SOL    HW212618   1.556   4.862   3.808
 3907SOL     OW12619   6.953   0.733   4.818
 3907SOL    HW112620   6.908   0.766   4.736
 3907SOL    HW212621   0.008   0.674   4.792
 3908SOL     OW12622   1.484   0.950   5.538
 3908SOL    HW112623   1.542   0.923   5.461
 3908SOL    HW212624   1.500   1.047   5.558
 3909SOL     OW12625   5.400   3.115   5.641
 3909SOL    HW112626   5.464   3.155   5.707
 3909SOL    HW212627   5.401   3.016   5.650
 3910SOL     OW12628   3.209   3.237   2.035
 3910SOL    HW112629   3.284   3.201   1.980
 3910SOL    HW212630   3.197   3.334   2.016
 3911SOL     OW12631   5.561   0.395   1.428
 3911SOL    HW112632   5.510   0.403   1.513
 3911SOL    HW212633   5.500   0.413   1.351
 3912SOL     OW12634   3.060   2.227   0.157
 3912SOL    HW112635   3.056   2.240   0.058
 3912SOL    HW212636   3.013   2.303   0.203
 3913SOL     OW12637   3.957   6.253   0.474
 3913SOL    HW112638   3.980   6.208   0.388
 3913SOL    HW212639   3.994   6.346   0.474
 3914SOL     OW12640   5.827   1.322   1.459
 3914SOL    HW112641   5.879   1.254   1.509
 3914SOL    HW212642   5.729   1.306   1.471
 3915SOL     OW12643   4.837   5.585   0.440
 3915SOL    HW112644   4.865   5.632   0.356
 3915SOL    HW212645   4.908   5.597   0.510
 3916SOL     OW12646   2.556   0.491   2.844
 3916SOL    HW112647   2.553   0.567   2.779
 3916SOL    HW212648   2.624   0.510   2.914
 3917SOL     OW12649   2.463   5.320   0.970
 3917SOL    HW112650   2.427   5.273   0.890
 3917SOL    HW212651   2.559   5.342   0.955
 3918SOL     OW12652   5.509   1.110   0.886
 3918SOL    HW112653   5.458   1.134   0.969
 3918SOL    HW212654   5.452   1.128   0.806
 3919SOL     OW12655   4.537   1.129   1.160
 3919SOL    HW112656   4.454   1.158   1.112
 3919SOL    HW212657   4.512   1.071   1.237
 3920SOL     OW12658   3.042   1.544   6.387
 3920SOL    HW112659   3.083   1.481   6.453
 3920SOL    HW212660   3.111   1.573   6.321
 3921SOL     OW12661   0.509   2.530   6.362
 3921SOL    HW112662   0.604   2.525   6.395
 3921SOL    HW212663   0.469   2.617   6.390
 3922SOL     OW12664   4.979   4.633   1.793
 3922SOL    HW112665   4.934   4.637   1.882
 3922SOL    HW212666   4.989   4.537   1.765
 3923SOL     OW12667   5.611   1.048   1.825
 3923SOL    HW112668   5.565   1.137   1.823
 3923SOL    HW212669   5.620   1.014   1.732
 3924SOL     OW12670   6.907   4.423   4.525
 3924SOL    HW112671   6.990   4.455   4.570
 3924SOL    HW212672   6.886   4.483   4.447
 3925SOL     OW12673   5.357   3.716   0.433
 3925SOL    HW112674   5.378   3.713   0.335
 3925SOL    HW212675   5.366   3.809   0.467
 3926SOL     OW12676   1.407   0.544   6.247
 3926SOL    HW112677   1.432   0.451   6.275
 3926SOL    HW212678   1.406   0.549   6.147
 3927SOL     OW12679   0.630   2.527   5.127
 3927SOL    HW112680   0.697   2.518   5.201
 3927SOL    HW212681   0.627   2.622   5.095
 3928SOL     OW12682   2.134   6.626   3.497
 3928SOL    HW112683   2.159   6.723   3.494
 3928SOL    HW212684   2.087   6.605   3.582
 3929SOL     OW12685   6.893   1.996   5.023
 3929SOL    HW112686   6.831   2.074   5.017
 3929SOL    HW212687   6.864   1.937   5.098
 3930SOL     OW12688   1.276   3.305   3.605
 3930SOL    HW112689   1.201   3.354   3.561
 3930SOL    HW212690   1.239   3.230   3.660
 3931SOL     OW12691   1.412   2.544   1.559
 3931SOL    HW112692   1.443   2.487   1.635
 3931SOL    HW212693   1.312   2.547   1.558
 3932SOL     OW12694   1.943   6.005   4.258
 3932SOL    HW112695   1.855   6.045   4.281
 3932SOL    HW212696   1.967   5.936   4.327
 3933SOL     OW12697   2.241   5.160   0.332
 3933SOL    HW112698   2.325   5.134   0.380
 3933SOL    HW212699   2.230   5.102   0.251
 3934SOL     OW12700   0.832   1.540   2.820
 3934SOL    HW112701   0.840   1.501   2.912
 3934SOL    HW212702   0.914   1.518   2.767
 3935SOL     OW12703   6.367   3.511   6.536
 3935SOL    HW112704   6.426   3.430   6.543
 3935SOL    HW212705   6.419   3.587   6.496
 3936SOL     OW12706   6.395   5.524   5.472
 3936SOL    HW112707   6.426   5.438   5.512
 3936SOL    HW212708   6.467   5.563   5.416
 3937SOL     OW12709   6.732   5.949   2.701
 3937SOL    HW112710   6.660   5.970   2.635
 3937SOL    HW212711   6.763   5.855   2.687
 3938SOL     OW12712   6.505   4.051   3.562
 3938SOL    HW112713   6.600   4.029   3.587
 3938SOL    HW212714   6.460   4.096   3.639
 3939SOL     OW12715   0.569   1.102   2.516
 3939SOL    HW112716   0.668   1.114   2.519
 3939SOL    HW212717   0.547   1.006   2.499
 3940SOL     OW12718   3.049   4.822   2.030
 3940SOL    HW112719   2.981   4.749   2.035
 3940SOL    HW212720   3.024   4.896   2.093
 3941SOL     OW12721   5.911   6.740   4.372
 3941SOL    HW112722   5.853   6.680   4.316
 3941SOL    HW212723   5.950   6.687   4.448
 3942SOL     OW12724   1.226   6.277   6.290
 3942SOL    HW112725   1.141   6.276   6.343
 3942SOL    HW212726   1.232   6.362   6.237
 3943SOL     OW12727   1.423   3.174   1.623
 3943SOL    HW112728   1.430   3.077   1.644
 3943SOL    HW212729   1.359   3.187   1.547
 3944SOL     OW12730   6.685   2.297   6.686
 3944SOL    HW112731   6.766   2.354   6.674
 3944SOL    HW212732   6.706   2.202   6.662
 3945SOL     OW12733   0.892   1.321   3.008
 3945SOL    HW112734   0.967   1.279   2.958
 3945SOL    HW212735   0.807   1.308   2.958
 3946SOL     OW12736   0.476   2.928   0.763
 3946SOL    HW112737   0.506   2.851   0.820
 3946SOL    HW212738   0.471   2.898   0.668
 3947SOL     OW12739   6.131   5.800   0.830
 3947SOL    HW112740   6.103   5.704   0.825
 3947SOL    HW212741   6.217   5.812   0.781
 3948SOL     OW12742   1.739   2.459   6.159
 3948SOL    HW112743   1.648   2.423   6.139
 3948SOL    HW212744   1.808   2.397   6.121
 3949SOL     OW12745   6.250   6.212   1.764
 3949SOL    HW112746   6.168   6.260   1.735
 3949SOL    HW212747   6.245   6.116   1.738
 3950SOL     OW12748   3.710   4.402   1.198
 3950SOL    HW112749   3.806   4.376   1.189
 3950SOL    HW212750   3.654   4.340   1.142
 3951SOL     OW12751   0.420   2.031   5.522
 3951SOL    HW112752   0.496   1.986   5.475
 3951SOL    HW212753   0.350   1.963   5.544
 3952SOL     OW12754   6.233   2.622   5.615
 3952SOL    HW112755   6.323   2.654   5.646
 3952SOL    HW212756   6.163   2.686   5.647
 3953SOL     OW12757   3.610   4.541   6.386
 3953SOL    HW112758   3.630   4.634   6.416
 3953SOL    HW212759   3.652   4.525   6.296
 3954SOL     OW12760   0.334   3.551   4.803
 3954SOL    HW112761   0.382   3.636   4.824
 3954SOL    HW212762   0.349   3.484   4.876
 3955SOL     OW12763   5.354   5.643   6.730
 3955SOL    HW112764   5.387   5.737   6.720
 3955SOL    HW212765   5.429   5.580   6.710
 3956SOL     OW12766   0.345   2.867   6.171
 3956SOL    HW112767   0.420   2.860   6.105
 3956SOL    HW212768   0.380   2.852   6.263
 3957SOL     OW12769   2.199   6.740   4.164
 3957SOL    HW112770   2.265   6.715   4.236
 3957SOL    HW212771   2.106   6.726   4.199
 3958SOL     OW12772   6.304   6.198   6.218
 3958SOL    HW112773   6.393   6.216   6.260
 3958SOL    HW212774   6.313   6.200   6.118
 3959SOL     OW12775   3.297   5.112   0.013
 3959SOL    HW112776   3.255   5.041   0.069
 3959SOL    HW212777   3.396   5.098   0.011
 3960SOL     OW12778   3.642   2.994   0.167
 3960SOL    HW112779   3.628   2.896   0.153
 3960SOL    HW212780   3.609   3.044   0.086
 3961SOL     OW12781   5.021   1.152   1.731
 3961SOL    HW112782   4.932   1.159   1.775
 3961SOL    HW212783   5.081   1.093   1.786
 3962SOL     OW12784   0.802   6.892   6.871
 3962SOL    HW112785   0.891   6.853   6.848
 3962SOL    HW212786   0.764   6.843   6.950
 3963SOL     OW12787   4.675   5.727   4.230
 3963SOL    HW112788   4.765   5.713   4.271
 3963SOL    HW212789   4.637   5.814   4.262
 3964SOL     OW12790   4.940   5.992   5.454
 3964SOL    HW112791   4.950   5.988   5.554
 3964SOL    HW212792   4.910   5.903   5.420
 3965SOL     OW12793   3.497   4.198   6.952
 3965SOL    HW112794   3.494   4.108   6.995
 3965SOL    HW212795   3.592   4.230   6.948
 3966SOL     OW12796   6.331   4.497   5.345
 3966SOL    HW112797   6.264   4.425   5.324
 3966SOL    HW212798   6.420   4.471   5.307
 3967SOL     OW12799   0.533   6.300   5.581
 3967SOL    HW112800   0.529   6.398   5.599
 3967SOL    HW212801   0.451   6.272   5.531
 3968SOL     OW12802   5.300   0.940   2.556
 3968SOL    HW112803   5.380   0.885   2.580
 3968SOL    HW212804   5.217   0.886   2.572
 3969SOL     OW12805   0.898   5.031   2.879
 3969SOL    HW112806   0.838   5.011   2.956
 3969SOL    HW212807   0.859   4.991   2.795
 3970SOL     OW12808   4.953   4.545   3.366
 3970SOL    HW112809   5.004   4.604   3.429
 3970SOL    HW212810   4.856   4.550   3.388
 3971SOL     OW12811   2.150   6.169   3.512
 3971SOL    HW112812   2.165   6.073   3.535
 3971SOL    HW212813   2.238   6.216   3.505
 3972SOL     OW12814   0.522   6.687   0.608
 3972SOL    HW112815   0.563   6.599   0.588
 3972SOL    HW212816   0.477   6.684   0.697
 3973SOL     OW12817   3.490   4.090   4.081
 3973SOL    HW112818   3.544   4.007   4.092
 3973SOL    HW212819   3.492   4.119   3.986
 3974SOL     OW12820   6.619   1.081   6.223
 3974SOL    HW112821   6.697   1.025   6.253
 3974SOL    HW212822   6.585   1.045   6.136
 3975SOL     OW12823   6.729   1.290   6.507
 3975SOL    HW112824   6.648   1.339   6.475
 3975SOL    HW212825   6.713   1.192   6.504
 3976SOL     OW12826   1.610   4.155   0.894
 3976SOL    HW112827   1.677   4.174   0.822
 3976SOL    HW212828   1.638   4.074   0.945
 3977SOL     OW12829   2.695   6.171   6.487
 3977SOL    HW112830   2.763   6.098   6.491
 3977SOL    HW212831   2.604   6.132   6.503
 3978SOL     OW12832   5.948   1.920   5.621
 3978SOL    HW112833   5.895   1.976   5.685
 3978SOL    HW212834   5.977   1.977   5.544
 3979SOL     OW12835   1.129   6.872   2.275
 3979SOL    HW112836   1.174   6.830   2.197
 3979SOL    HW212837   1.132   6.809   2.353
 3980SOL     OW12838   4.911   3.200   4.415
 3980SOL    HW112839   4.901   3.164   4.323
 3980SOL    HW212840   4.843   3.159   4.475
 3981SOL     OW12841   6.531   2.008   0.749
 3981SOL    HW112842   6.543   1.989   0.651
 3981SOL    HW212843   6.484   2.095   0.761
 3982SOL     OW12844   2.665   1.824   3.856
 3982SOL    HW112845   2.652   1.771   3.772
 3982SOL    HW212846   2.660   1.763   3.935
 3983SOL     OW12847   3.118   6.922   4.148
 3983SOL    HW112848   3.034   6.915   4.201
 3983SOL    HW212849   3.170   7.003   4.177
 3984SOL     OW12850   1.359   6.452   1.818
 3984SOL    HW112851   1.341   6.513   1.742
 3984SOL    HW212852   1.451   6.413   1.809
 3985SOL     OW12853   1.930   3.719   0.016
 3985SOL    HW112854   1.836   3.686   0.006
 3985SOL    HW212855   1.971   3.727   6.947
 3986SOL     OW12856   0.068   1.984   1.417
 3986SOL    HW112857   0.027   1.910   1.469
 3986SOL    HW212858   0.011   2.066   1.425
 3987SOL     OW12859   1.780   5.215   6.259
 3987SOL    HW112860   1.760   5.301   6.212
 3987SOL    HW212861   1.844   5.161   6.204
 3988SOL     OW12862   3.753   2.458   0.187
 3988SOL    HW112863   3.704   2.410   0.114
 3988SOL    HW212864   3.695   2.530   0.224
 3989SOL     OW12865   5.830   0.056   6.978
 3989SOL    HW112866   5.843   0.098   6.888
 3989SOL    HW212867   5.842   0.125   0.027
 3990SOL     OW12868   0.860   2.753   4.405
 3990SOL    HW112869   0.942   2.739   4.461
 3990SOL    HW212870   0.888   2.772   4.311
 3991SOL     OW12871   0.524   2.465   3.607
 3991SOL    HW112872   0.580   2.402   3.553
 3991SOL    HW212873   0.493   2.419   3.690
 3992SOL     OW12874   4.106   3.292   6.758
 3992SOL    HW112875   4.177   3.230   6.791
 3992SOL    HW212876   4.016   3.257   6.785
 3993SOL     OW12877   2.881   2.183   3.123
 3993SOL    HW112878   2.897   2.084   3.119
 3993SOL    HW212879   2.789   2.203   3.088
 3994SOL     OW12880   2.415   2.751   4.232
 3994SOL    HW112881   2.361   2.802   4.299
 3994SOL    HW212882   2.462   2.675   4.277
 3995SOL     OW12883   2.277   4.221   3.374
 3995SOL    HW112884   2.307   4.150   3.437
 3995SOL    HW212885   2.282   4.187   3.280
 3996SOL     OW12886   1.083   0.575   3.944
 3996SOL    HW112887   1.105   0.555   3.849
 3996SOL    HW212888   1.034   0.662   3.949
 3997SOL     OW12889   4.952   3.651   2.963
 3997SOL    HW112890   5.050   3.638   2.950
 3997SOL    HW212891   4.932   3.749   2.968
 3998SOL     OW12892   6.571   1.965   2.824
 3998SOL    HW112893   6.671   1.961   2.823
 3998SOL    HW212894   6.537   1.978   2.731
 3999SOL     OW12895   6.069   4.081   2.840
 3999SOL    HW112896   6.155   4.107   2.884
 3999SOL    HW212897   6.024   4.010   2.894
 4000SOL     OW12898   2.571   5.423   2.537
 4000SOL    HW112899   2.579   5.394   2.632
 4000SOL    HW212900   2.627   5.503   2.521
 4001SOL     OW12901   2.993   3.954   5.641
 4001SOL    HW112902   2.906   3.906   5.652
 4001SOL    HW212903   2.992   4.038   5.696
 4002SOL     OW12904   3.711   3.233   4.950
 4002SOL    HW112905   3.780   3.187   4.894
 4002SOL    HW212906   3.651   3.286   4.892
 4003SOL     OW12907   2.774   1.621   6.349
 4003SOL    HW112908   2.827   1.634   6.265
 4003SOL    HW212909   2.828   1.568   6.415
 4004SOL     OW12910   6.356   3.434   2.963
 4004SOL    HW112911   6.342   3.409   2.868
 4004SOL    HW212912   6.451   3.464   2.976
 4005SOL     OW12913   4.026   3.496   0.639
 4005SOL    HW112914   4.116   3.464   0.669
 4005SOL    HW212915   3.959   3.482   0.712
 4006SOL     OW12916   5.203   5.267   2.005
 4006SOL    HW112917   5.128   5.206   2.030
 4006SOL    HW212918   5.285   5.243   2.057
 4007SOL     OW12919   0.582   1.979   2.905
 4007SOL    HW112920   0.650   1.930   2.850
 4007SOL    HW212921   0.493   1.934   2.896
 4008SOL     OW12922   3.183   0.353   0.073
 4008SOL    HW112923   3.151   0.309   0.157
 4008SOL    HW212924   3.270   0.400   0.092
 4009SOL     OW12925   4.898   1.665   1.373
 4009SOL    HW112926   4.976   1.642   1.431
 4009SOL    HW212927   4.885   1.764   1.372
 4010SOL     OW12928   3.553   4.809   1.167
 4010SOL    HW112929   3.484   4.794   1.096
 4010SOL    HW212930   3.634   4.755   1.147
 4011SOL     OW12931   7.008   5.923   0.796
 4011SOL    HW112932   6.959   6.011   0.790
 4011SOL    HW212933   6.985   5.878   0.882
 4012SOL     OW12934   4.239   6.920   1.996
 4012SOL    HW112935   4.333   6.952   1.984
 4012SOL    HW212936   4.204   6.888   1.908
 4013SOL     OW12937   1.793   6.876   0.589
 4013SOL    HW112938   1.717   6.933   0.558
 4013SOL    HW212939   1.817   6.902   0.683
 4014SOL     OW12940   3.541   6.380   3.818
 4014SOL    HW112941   3.523   6.470   3.858
 4014SOL    HW212942   3.606   6.390   3.743
 4015SOL     OW12943   4.558   4.903   6.307
 4015SOL    HW112944   4.485   4.929   6.371
 4015SOL    HW212945   4.626   4.976   6.302
 4016SOL     OW12946   2.945   5.203   0.305
 4016SOL    HW112947   2.947   5.223   0.403
 4016SOL    HW212948   3.027   5.240   0.261
 4017SOL     OW12949   0.105   4.841   5.290
 4017SOL    HW112950   0.138   4.760   5.242
 4017SOL    HW212951   0.135   4.923   5.240
 4018SOL     OW12952   4.409   6.587   2.016
 4018SOL    HW112953   4.473   6.662   2.030
 4018SOL    HW212954   4.392   6.541   2.103
 4019SOL     OW12955   5.085   3.482   2.208
 4019SOL    HW112956   5.075   3.533   2.123
 4019SOL    HW212957   5.177   3.444   2.214
 4020SOL     OW12958   6.661   3.546   4.944
 4020SOL    HW112959   6.629   3.546   5.039
 4020SOL    HW212960   6.623   3.467   4.896
 4021SOL     OW12961   3.528   3.834   5.629
 4021SOL    HW112962   3.589   3.756   5.611
 4021SOL    HW212963   3.498   3.873   5.542
 4022SOL     OW12964   3.914   0.088   0.420
 4022SOL    HW112965   3.927   0.117   0.325
 4022SOL    HW212966   3.820   0.108   0.448
 4023SOL     OW12967   0.035   1.042   5.429
 4023SOL    HW112968   0.122   1.021   5.472
 4023SOL    HW212969   6.994   1.081   5.497
 4024SOL     OW12970   1.806   5.140   4.619
 4024SOL    HW112971   1.708   5.154   4.606
 4024SOL    HW212972   1.824   5.118   4.715
 4025SOL     OW12973   1.009   5.955   4.274
 4025SOL    HW112974   1.086   6.018   4.283
 4025SOL    HW212975   1.043   5.862   4.259
 4026SOL     OW12976   6.415   6.397   5.069
 4026SOL    HW112977   6.435   6.360   4.978
 4026SOL    HW212978   6.348   6.470   5.062
 4027SOL     OW12979   2.643   1.712   0.026
 4027SOL    HW112980   2.672   1.789   6.990
 4027SOL    HW212981   2.554   1.732   0.066
 4028SOL     OW12982   4.456   1.439   3.404
 4028SOL    HW112983   4.420   1.394   3.322
 4028SOL    HW212984   4.455   1.538   3.390
 4029SOL     OW12985   2.535   4.003   5.956
 4029SOL    HW112986   2.495   3.982   5.867
 4029SOL    HW212987   2.588   4.088   5.950
 4030SOL     OW12988   6.909   0.922   1.168
 4030SOL    HW112989   7.006   0.941   1.179
 4030SOL    HW212990   6.897   0.847   1.103
 4031SOL     OW12991   5.353   6.636   3.127
 4031SOL    HW112992   5.276   6.687   3.167
 4031SOL    HW212993   5.357   6.652   3.029
 4032SOL     OW12994   0.251   0.045   2.691
 4032SOL    HW112995   0.176   0.110   2.697
 4032SOL    HW212996   0.268   0.022   2.595
 4033SOL     OW12997   1.841   2.122   2.370
 4033SOL    HW112998   1.868   2.218   2.369
 4033SOL    HW212999   1.756   2.110   2.319
 4034SOL     OW13000   6.046   2.087   5.357
 4034SOL    HW113001   5.973   2.128   5.303
 4034SOL    HW213002   6.069   2.147   5.433
 4035SOL     OW13003   6.641   1.188   1.560
 4035SOL    HW113004   6.620   1.113   1.622
 4035SOL    HW213005   6.561   1.247   1.550
 4036SOL     OW13006   4.014   4.770   2.041
 4036SOL    HW113007   3.944   4.799   1.976
 4036SOL    HW213008   4.016   4.834   2.119
 4037SOL     OW13009   2.001   1.753   6.319
 4037SOL    HW113010   1.948   1.674   6.290
 4037SOL    HW213011   2.086   1.722   6.360
 4038SOL     OW13012   4.762   2.821   0.156
 4038SOL    HW113013   4.665   2.798   0.168
 4038SOL    HW213014   4.813   2.739   0.131
 4039SOL     OW13015   4.675   5.838   1.686
 4039SOL    HW113016   4.603   5.824   1.753
 4039SOL    HW213017   4.646   5.801   1.598
 4040SOL     OW13018   2.946   6.201   4.796
 4040SOL    HW113019   2.913   6.289   4.763
 4040SOL    HW213020   2.994   6.154   4.722
 4041SOL     OW13021   2.267   6.018   1.255
 4041SOL    HW113022   2.285   6.080   1.179
 4041SOL    HW213023   2.315   6.051   1.337
 4042SOL     OW13024   5.909   6.212   3.943
 4042SOL    HW113025   5.986   6.211   3.878
 4042SOL    HW213026   5.899   6.122   3.984
 4043SOL     OW13027   0.036   1.956   6.691
 4043SOL    HW113028   7.011   1.899   6.758
 4043SOL    HW213029   0.020   2.052   6.712
 4044SOL     OW13030   5.300   5.422   3.043
 4044SOL    HW113031   5.397   5.446   3.048
 4044SOL    HW213032   5.255   5.447   3.129
 4045SOL     OW13033   4.157   6.282   5.856
 4045SOL    HW113034   4.065   6.300   5.822
 4045SOL    HW213035   4.162   6.189   5.893
 4046SOL     OW13036   0.846   2.266   2.346
 4046SOL    HW113037   0.764   2.245   2.400
 4046SOL    HW213038   0.824   2.260   2.248
 4047SOL     OW13039   2.417   2.460   6.839
 4047SOL    HW113040   2.426   2.499   6.930
 4047SOL    HW213041   2.445   2.527   6.770
 4048SOL     OW13042   5.510   1.315   1.824
 4048SOL    HW113043   5.446   1.357   1.760
 4048SOL    HW213044   5.485   1.342   1.917
 4049SOL     OW13045   4.843   5.811   6.333
 4049SOL    HW113046   4.888   5.859   6.408
 4049SOL    HW213047   4.747   5.792   6.357
 4050SOL     OW13048   0.958   5.917   1.783
 4050SOL    HW113049   0.965   5.992   1.849
 4050SOL    HW213050   1.029   5.927   1.713
 4051SOL     OW13051   4.552   1.308   6.362
 4051SOL    HW113052   4.579   1.368   6.287
 4051SOL    HW213053   4.466   1.263   6.340
 4052SOL     OW13054   5.775   2.132   3.088
 4052SOL    HW113055   5.777   2.183   3.174
 4052SOL    HW213056   5.728   2.185   3.018
 4053SOL     OW13057   2.510   5.938   4.815
 4053SOL    HW113058   2.484   5.854   4.863
 4053SOL    HW213059   2.575   5.989   4.870
 4054SOL     OW13060   5.167   3.974   0.937
 4054SOL    HW113061   5.158   3.898   1.001
 4054SOL    HW213062   5.264   3.989   0.917
 4055SOL     OW13063   2.348   4.394   0.872
 4055SOL    HW113064   2.439   4.366   0.903
 4055SOL    HW213065   2.299   4.439   0.947
 4056SOL     OW13066   5.571   3.785   1.063
 4056SOL    HW113067   5.557   3.820   1.156
 4056SOL    HW213068   5.513   3.836   0.999
 4057SOL     OW13069   0.182   3.091   0.392
 4057SOL    HW113070   0.254   3.159   0.400
 4057SOL    HW213071   0.200   3.015   0.455
 4058SOL     OW13072   3.193   6.437   4.869
 4058SOL    HW113073   3.205   6.420   4.967
 4058SOL    HW213074   3.127   6.372   4.831
 4059SOL     OW13075   0.250   1.613   2.654
 4059SOL    HW113076   0.177   1.663   2.702
 4059SOL    HW213077   0.252   1.642   2.558
 4060SOL     OW13078   5.316   4.809   5.707
 4060SOL    HW113079   5.327   4.900   5.668
 4060SOL    HW213080   5.225   4.800   5.747
 4061SOL     OW13081   2.550   4.728   2.401
 4061SOL    HW113082   2.520   4.633   2.410
 4061SOL    HW213083   2.642   4.729   2.360
 4062SOL     OW13084   2.235   0.107   2.085
 4062SOL    HW113085   2.293   0.145   2.012
 4062SOL    HW213086   2.289   0.099   2.169
 4063SOL     OW13087   6.111   0.158   0.592
 4063SOL    HW113088   6.167   0.116   0.664
 4063SOL    HW213089   6.170   0.198   0.523
 4064SOL     OW13090   2.771   1.677   4.644
 4064SOL    HW113091   2.807   1.736   4.572
 4064SOL    HW213092   2.831   1.597   4.655
 4065SOL     OW13093   1.146   6.818   1.504
 4065SOL    HW113094   1.115   6.778   1.417
 4065SOL    HW213095   1.090   6.898   1.525
 4066SOL     OW13096   6.352   4.216   2.825
 4066SOL    HW113097   6.304   4.304   2.827
 4066SOL    HW213098   6.438   4.225   2.875
 4067SOL     OW13099   5.978   3.892   3.008
 4067SOL    HW113100   6.037   3.933   3.077
 4067SOL    HW213101   5.888   3.874   3.047
 4068SOL     OW13102   2.092   2.102   4.507
 4068SOL    HW113103   2.008   2.072   4.553
 4068SOL    HW213104   2.150   2.023   4.489
 4069SOL     OW13105   4.055   5.170   6.768
 4069SOL    HW113106   4.066   5.160   6.867
 4069SOL    HW213107   4.096   5.257   6.738
 4070SOL     OW13108   0.410   2.314   2.710
 4070SOL    HW113109   0.508   2.314   2.727
 4070SOL    HW213110   0.379   2.408   2.692
 4071SOL     OW13111   1.332   1.355   4.916
 4071SOL    HW113112   1.386   1.362   4.833
 4071SOL    HW213113   1.282   1.441   4.930
 4072SOL     OW13114   0.775   5.500   4.681
 4072SOL    HW113115   0.808   5.509   4.587
 4072SOL    HW213116   0.755   5.591   4.717
 4073SOL     OW13117   2.485   5.953   6.587
 4073SOL    HW113118   2.574   5.908   6.575
 4073SOL    HW213119   2.485   6.004   6.673
 4074SOL     OW13120   0.768   4.768   1.242
 4074SOL    HW113121   0.766   4.863   1.275
 4074SOL    HW213122   0.807   4.765   1.151
 4075SOL     OW13123   4.850   1.936   1.364
 4075SOL    HW113124   4.784   2.010   1.358
 4075SOL    HW213125   4.896   1.924   1.276
 4076SOL     OW13126   2.179   3.453   6.528
 4076SOL    HW113127   2.139   3.416   6.444
 4076SOL    HW213128   2.132   3.415   6.607
 4077SOL     OW13129   3.782   2.270   0.384
 4077SOL    HW113130   3.759   2.320   0.301
 4077SOL    HW213131   3.876   2.237   0.379
 4078SOL     OW13132   1.994   5.269   2.047
 4078SOL    HW113133   1.915   5.221   2.084
 4078SOL    HW213134   2.028   5.222   1.966
 4079SOL     OW13135   2.003   1.146   3.413
 4079SOL    HW113136   1.967   1.202   3.488
 4079SOL    HW213137   2.044   1.205   3.344
 4080SOL     OW13138   4.746   2.645   6.229
 4080SOL    HW113139   4.710   2.739   6.223
 4080SOL    HW213140   4.846   2.647   6.218
 4081SOL     OW13141   1.430   2.729   4.020
 4081SOL    HW113142   1.530   2.718   4.028
 4081SOL    HW213143   1.407   2.754   3.926
 4082SOL     OW13144   1.063   4.516   0.494
 4082SOL    HW113145   0.966   4.522   0.517
 4082SOL    HW213146   1.075   4.457   0.414
 4083SOL     OW13147   6.875   3.486   2.595
 4083SOL    HW113148   6.890   3.576   2.633
 4083SOL    HW213149   6.917   3.481   2.504
 4084SOL     OW13150   5.958   2.468   3.652
 4084SOL    HW113151   5.937   2.522   3.570
 4084SOL    HW213152   5.894   2.392   3.659
 4085SOL     OW13153   3.273   5.452   1.259
 4085SOL    HW113154   3.230   5.398   1.331
 4085SOL    HW213155   3.335   5.519   1.299
 4086SOL     OW13156   1.883   5.578   1.605
 4086SOL    HW113157   1.977   5.611   1.604
 4086SOL    HW213158   1.837   5.611   1.688
 4087SOL     OW13159   3.024   2.232   3.339
 4087SOL    HW113160   3.000   2.224   3.242
 4087SOL    HW213161   3.105   2.291   3.348
 4088SOL     OW13162   0.595   1.919   0.853
 4088SOL    HW113163   0.517   1.981   0.849
 4088SOL    HW213164   0.678   1.971   0.874
 4089SOL     OW13165   6.142   6.217   3.797
 4089SOL    HW113166   6.221   6.156   3.804
 4089SOL    HW213167   6.173   6.310   3.781
 4090SOL     OW13168   0.959   4.116   5.963
 4090SOL    HW113169   0.988   4.178   5.890
 4090SOL    HW213170   1.040   4.081   6.011
 4091SOL     OW13171   6.668   6.350   0.498
 4091SOL    HW113172   6.612   6.382   0.574
 4091SOL    HW213173   6.681   6.251   0.506
 4092SOL     OW13174   6.834   2.465   5.280
 4092SOL    HW113175   6.820   2.539   5.214
 4092SOL    HW213176   6.747   2.442   5.323
 4093SOL     OW13177   4.386   0.340   2.829
 4093SOL    HW113178   4.312   0.394   2.788
 4093SOL    HW213179   4.472   0.365   2.786
 4094SOL     OW13180   2.574   5.992   4.523
 4094SOL    HW113181   2.551   5.975   4.619
 4094SOL    HW213182   2.638   6.069   4.517
 4095SOL     OW13183   0.409   3.668   7.007
 4095SOL    HW113184   0.335   3.649   6.942
 4095SOL    HW213185   0.377   3.732   0.056
 4096SOL     OW13186   4.664   5.977   0.367
 4096SOL    HW113187   4.686   6.026   0.283
 4096SOL    HW213188   4.614   6.039   0.429
 4097SOL     OW13189   3.676   4.470   6.114
 4097SOL    HW113190   3.672   4.556   6.064
 4097SOL    HW213191   3.646   4.396   6.055
 4098SOL     OW13192   0.845   3.304   1.599
 4098SOL    HW113193   0.934   3.295   1.644
 4098SOL    HW213194   0.783   3.234   1.633
 4099SOL     OW13195   2.863   4.773   1.244
 4099SOL    HW113196   2.828   4.682   1.266
 4099SOL    HW213197   2.788   4.838   1.239
 4100SOL     OW13198   6.547   5.438   5.121
 4100SOL    HW113199   6.535   5.351   5.074
 4100SOL    HW213200   6.628   5.484   5.087
 4101SOL     OW13201   5.871   0.963   0.375
 4101SOL    HW113202   5.836   1.056   0.382
 4101SOL    HW213203   5.811   0.901   0.426
 4102SOL     OW13204   6.540   0.651   0.594
 4102SOL    HW113205   6.597   0.619   0.518
 4102SOL    HW213206   6.548   0.750   0.602
 4103SOL     OW13207   0.590   0.934   0.358
 4103SOL    HW113208   0.594   0.842   0.321
 4103SOL    HW213209   0.664   0.989   0.319
 4104SOL     OW13210   0.704   4.947   2.412
 4104SOL    HW113211   0.700   4.872   2.346
 4104SOL    HW213212   0.707   5.034   2.364
 4105SOL     OW13213   4.027   6.002   1.606
 4105SOL    HW113214   4.003   6.081   1.549
 4105SOL    HW213215   3.999   5.918   1.560
 4106SOL     OW13216   6.813   1.776   4.350
 4106SOL    HW113217   6.771   1.822   4.272
 4106SOL    HW213218   6.865   1.843   4.404
 4107SOL     OW13219   1.501   6.247   1.133
 4107SOL    HW113220   1.561   6.173   1.102
 4107SOL    HW213221   1.548   6.301   1.203
 4108SOL     OW13222   6.892   4.224   5.412
 4108SOL    HW113223   6.924   4.318   5.422
 4108SOL    HW213224   6.898   4.197   5.317
 4109SOL     OW13225   4.744   6.622   4.976
 4109SOL    HW113226   4.792   6.709   4.972
 4109SOL    HW213227   4.799   6.555   5.024
 4110SOL     OW13228   4.119   2.625   6.819
 4110SOL    HW113229   4.081   2.603   6.910
 4110SOL    HW213230   4.157   2.717   6.820
 4111SOL     OW13231   3.728   3.369   6.660
 4111SOL    HW113232   3.794   3.313   6.711
 4111SOL    HW213233   3.751   3.465   6.671
 4112SOL     OW13234   4.613   0.331   5.269
 4112SOL    HW113235   4.650   0.245   5.235
 4112SOL    HW213236   4.668   0.407   5.236
 4113SOL     OW13237   4.823   6.431   4.284
 4113SOL    HW113238   4.863   6.371   4.215
 4113SOL    HW213239   4.741   6.388   4.322
 4114SOL     OW13240   3.444   2.109   4.524
 4114SOL    HW113241   3.533   2.137   4.559
 4114SOL    HW213242   3.418   2.022   4.566
 4115SOL     OW13243   4.127   5.704   2.289
 4115SOL    HW113244   4.170   5.709   2.199
 4115SOL    HW213245   4.046   5.764   2.290
 4116SOL     OW13246   3.793   2.161   1.642
 4116SOL    HW113247   3.712   2.208   1.676
 4116SOL    HW213248   3.859   2.150   1.716
 4117SOL     OW13249   0.705   5.157   2.260
 4117SOL    HW113250   0.792   5.206   2.267
 4117SOL    HW213251   0.634   5.218   2.226
 4118SOL     OW13252   2.881   6.886   6.712
 4118SOL    HW113253   2.824   6.813   6.750
 4118SOL    HW213254   2.875   6.967   6.771
 4119SOL     OW13255   4.120   2.184   3.806
 4119SOL    HW113256   4.177   2.159   3.728
 4119SOL    HW213257   4.146   2.276   3.838
 4120SOL     OW13258   4.289   0.525   0.577
 4120SOL    HW113259   4.311   0.587   0.652
 4120SOL    HW213260   4.277   0.577   0.492
 4121SOL     OW13261   5.980   1.204   5.170
 4121SOL    HW113262   5.978   1.274   5.099
 4121SOL    HW213263   5.970   1.113   5.128
 4122SOL     OW13264   1.073   5.401   5.366
 4122SOL    HW113265   1.056   5.304   5.379
 4122SOL    HW213266   1.135   5.434   5.437
 4123SOL     OW13267   4.286   4.899   5.985
 4123SOL    HW113268   4.316   4.902   5.890
 4123SOL    HW213269   4.224   4.976   6.003
 4124SOL     OW13270   6.226   5.344   6.375
 4124SOL    HW113271   6.175   5.383   6.298
 4124SOL    HW213272   6.323   5.364   6.364
 4125SOL     OW13273   4.617   1.606   2.375
 4125SOL    HW113274   4.712   1.589   2.349
 4125SOL    HW213275   4.579   1.678   2.317
 4126SOL     OW13276   1.363   3.620   3.332
 4126SOL    HW113277   1.398   3.656   3.419
 4126SOL    HW213278   1.288   3.679   3.301
 4127SOL     OW13279   4.752   4.681   4.698
 4127SOL    HW113280   4.684   4.699   4.769
 4127SOL    HW213281   4.707   4.667   4.610
 4128SOL     OW13282   1.348   3.711   2.012
 4128SOL    HW113283   1.344   3.658   1.928
 4128SOL    HW213284   1.362   3.650   2.090
 4129SOL     OW13285   5.058   1.413   6.839
 4129SOL    HW113286   4.995   1.339   6.866
 4129SOL    HW213287   5.050   1.429   6.741
 4130SOL     OW13288   6.821   2.499   5.567
 4130SOL    HW113289   6.851   2.419   5.619
 4130SOL    HW213290   6.876   2.507   5.484
 4131SOL     OW13291   1.209   6.130   4.072
 4131SOL    HW113292   1.252   6.170   4.154
 4131SOL    HW213293   1.124   6.178   4.052
 4132SOL     OW13294   5.083   4.407   3.559
 4132SOL    HW113295   5.061   4.410   3.462
 4132SOL    HW213296   5.124   4.494   3.587
 4133SOL     OW13297   2.705   6.962   1.860
 4133SOL    HW113298   2.764   6.896   1.905
 4133SOL    HW213299   2.664   0.000   1.929
 4134SOL     OW13300   2.100   2.616   0.118
 4134SOL    HW113301   2.009   2.583   0.144
 4134SOL    HW213302   2.100   2.642   0.021
 4135SOL     OW13303   2.019   1.523   2.432
 4135SOL    HW113304   2.027   1.558   2.338
 4135SOL    HW213305   2.016   1.599   2.496
 4136SOL     OW13306   1.739   2.038   2.628
 4136SOL    HW113307   1.776   2.083   2.546
 4136SOL    HW213308   1.810   2.033   2.698
 4137SOL     OW13309   1.542   4.509   0.963
 4137SOL    HW113310   1.565   4.434   1.023
 4137SOL    HW213311   1.588   4.498   0.875
 4138SOL     OW13312   3.699   5.042   3.029
 4138SOL    HW113313   3.650   4.989   2.960
 4138SOL    HW213314   3.676   5.006   3.120
 4139SOL     OW13315   2.408   2.666   4.622
 4139SOL    HW113316   2.491   2.647   4.569
 4139SOL    HW213317   2.392   2.591   4.686
 4140SOL     OW13318   3.027   0.746   5.238
 4140SOL    HW113319   2.942   0.797   5.254
 4140SOL    HW213320   3.070   0.725   5.325
 4141SOL     OW13321   5.215   6.684   1.484
 4141SOL    HW113322   5.291   6.619   1.490
 4141SOL    HW213323   5.133   6.637   1.454
 4142SOL     OW13324   6.330   5.614   0.689
 4142SOL    HW113325   6.405   5.609   0.756
 4142SOL    HW213326   6.254   5.556   0.720
 4143SOL     OW13327   0.598   2.897   0.381
 4143SOL    HW113328   0.518   2.839   0.361
 4143SOL    HW213329   0.678   2.839   0.394
 4144SOL     OW13330   5.152   3.551   6.426
 4144SOL    HW113331   5.072   3.596   6.385
 4144SOL    HW213332   5.122   3.481   6.490
 4145SOL     OW13333   6.690   5.925   1.316
 4145SOL    HW113334   6.683   5.848   1.253
 4145SOL    HW213335   6.608   5.931   1.372
 4146SOL     OW13336   0.232   1.069   5.616
 4146SOL    HW113337   0.268   1.091   5.706
 4146SOL    HW213338   0.305   1.033   5.558
 4147SOL     OW13339   4.442   2.816   5.658
 4147SOL    HW113340   4.472   2.864   5.575
 4147SOL    HW213341   4.518   2.766   5.698
 4148SOL     OW13342   0.998   0.149   4.155
 4148SOL    HW113343   0.981   0.205   4.236
 4148SOL    HW213344   1.048   0.202   4.088
 4149SOL     OW13345   0.462   2.493   0.683
 4149SOL    HW113346   0.469   2.399   0.717
 4149SOL    HW213347   0.390   2.541   0.734
 4150SOL     OW13348   0.411   0.976   5.234
 4150SOL    HW113349   0.476   0.920   5.183
 4150SOL    HW213350   0.319   0.940   5.222
 4151SOL     OW13351   4.206   6.251   6.136
 4151SOL    HW113352   4.290   6.252   6.083
 4151SOL    HW213353   4.151   6.332   6.113
 4152SOL     OW13354   2.912   6.094   1.078
 4152SOL    HW113355   2.860   6.130   1.001
 4152SOL    HW213356   3.010   6.094   1.056
 4153SOL     OW13357   4.630   5.171   0.091
 4153SOL    HW113358   4.540   5.131   0.104
 4153SOL    HW213359   4.625   5.242   0.020
 4154SOL     OW13360   0.414   4.492   4.680
 4154SOL    HW113361   0.382   4.446   4.763
 4154SOL    HW213362   0.394   4.435   4.601
 4155SOL     OW13363   6.495   2.056   3.070
 4155SOL    HW113364   6.414   2.007   3.102
 4155SOL    HW213365   6.524   2.019   2.982
 4156SOL     OW13366   5.225   6.661   4.472
 4156SOL    HW113367   5.190   6.568   4.470
 4156SOL    HW213368   5.183   6.711   4.548
 4157SOL     OW13369   4.184   6.489   3.821
 4157SOL    HW113370   4.262   6.529   3.774
 4157SOL    HW213371   4.107   6.479   3.757
 4158SOL     OW13372   2.024   5.247   4.111
 4158SOL    HW113373   1.966   5.322   4.143
 4158SOL    HW213374   2.095   5.284   4.051
 4159SOL     OW13375   1.898   3.178   3.654
 4159SOL    HW113376   1.997   3.175   3.664
 4159SOL    HW213377   1.874   3.224   3.568
 4160SOL     OW13378   0.018   0.317   0.826
 4160SOL    HW113379   0.033   0.219   0.841
 4160SOL    HW213380   6.951   0.343   0.863
 4161SOL     OW13381   1.330   0.147   6.148
 4161SOL    HW113382   1.269   0.174   6.223
 4161SOL    HW213383   1.318   0.211   6.072
 4162SOL     OW13384   5.939   6.426   5.565
 4162SOL    HW113385   6.039   6.419   5.565
 4162SOL    HW213386   5.899   6.335   5.550
 4163SOL     OW13387   6.124   0.192   3.367
 4163SOL    HW113388   6.191   0.243   3.313
 4163SOL    HW213389   6.055   0.153   3.307
 4164SOL     OW13390   0.790   6.639   6.171
 4164SOL    HW113391   0.829   6.571   6.109
 4164SOL    HW213392   0.822   6.622   6.264
 4165SOL     OW13393   4.452   0.468   0.211
 4165SOL    HW113394   4.481   0.377   0.182
 4165SOL    HW213395   4.353   0.470   0.223
 4166SOL     OW13396   5.964   3.463   1.104
 4166SOL    HW113397   6.061   3.457   1.083
 4166SOL    HW213398   5.947   3.421   1.194
 4167SOL     OW13399   1.666   4.564   0.705
 4167SOL    HW113400   1.753   4.521   0.682
 4167SOL    HW213401   1.681   4.658   0.735
 4168SOL     OW13402   0.301   5.137   1.166
 4168SOL    HW113403   0.214   5.135   1.216
 4168SOL    HW213404   0.333   5.043   1.152
 4169SOL     OW13405   5.848   3.504   3.590
 4169SOL    HW113406   5.936   3.466   3.620
 4169SOL    HW213407   5.832   3.480   3.494
 4170SOL     OW13408   2.942   3.564   4.973
 4170SOL    HW113409   2.977   3.476   4.939
 4170SOL    HW213410   3.005   3.601   5.040
 4171SOL     OW13411   5.162   4.577   1.514
 4171SOL    HW113412   5.173   4.492   1.464
 4171SOL    HW213413   5.121   4.646   1.454
 4172SOL     OW13414   0.340   1.778   6.411
 4172SOL    HW113415   0.339   1.877   6.405
 4172SOL    HW213416   0.264   1.747   6.469
 4173SOL     OW13417   5.441   3.329   5.385
 4173SOL    HW113418   5.451   3.378   5.471
 4173SOL    HW213419   5.478   3.384   5.310
 4174SOL     OW13420   5.051   0.454   4.115
 4174SOL    HW113421   5.109   0.394   4.061
 4174SOL    HW213422   5.098   0.541   4.130
 4175SOL     OW13423   2.859   5.726   4.555
 4175SOL    HW113424   2.890   5.770   4.470
 4175SOL    HW213425   2.878   5.786   4.633
 4176SOL     OW13426   2.828   6.806   2.033
 4176SOL    HW113427   2.785   6.732   2.084
 4176SOL    HW213428   2.824   6.890   2.087
 4177SOL     OW13429   6.707   4.228   4.910
 4177SOL    HW113430   6.803   4.239   4.885
 4177SOL    HW213431   6.648   4.253   4.833
 4178SOL     OW13432   4.516   0.735   4.048
 4178SOL    HW113433   4.437   0.752   3.988
 4178SOL    HW213434   4.484   0.693   4.133
 4179SOL     OW13435   5.195   2.738   3.802
 4179SOL    HW113436   5.270   2.785   3.757
 4179SOL    HW213437   5.168   2.788   3.884
 4180SOL     OW13438   5.461   3.352   1.732
 4180SOL    HW113439   5.492   3.260   1.759
 4180SOL    HW213440   5.523   3.420   1.772
 4181SOL     OW13441   2.134   2.254   6.162
 4181SOL    HW113442   2.126   2.155   6.147
 4181SOL    HW213443   2.096   2.276   6.252
 4182SOL     OW13444   0.372   6.107   2.418
 4182SOL    HW113445   0.327   6.054   2.490
 4182SOL    HW213446   0.369   6.204   2.442
 4183SOL     OW13447   3.911   1.217   0.988
 4183SOL    HW113448   3.956   1.218   1.077
 4183SOL    HW213449   3.962   1.275   0.924
 4184SOL     OW13450   4.655   4.987   1.238
 4184SOL    HW113451   4.679   5.070   1.188
 4184SOL    HW213452   4.717   4.913   1.210
 4185SOL     OW13453   0.761   5.803   2.693
 4185SOL    HW113454   0.827   5.879   2.690
 4185SOL    HW213455   0.796   5.728   2.637
 4186SOL     OW13456   1.318   4.741   0.665
 4186SOL    HW113457   1.352   4.647   0.674
 4186SOL    HW213458   1.326   4.788   0.753
 4187SOL     OW13459   3.625   3.534   6.229
 4187SOL    HW113460   3.560   3.609   6.242
 4187SOL    HW213461   3.648   3.526   6.132
 4188SOL     OW13462   4.868   6.569   3.702
 4188SOL    HW113463   4.836   6.571   3.797
 4188SOL    HW213464   4.934   6.494   3.691
 4189SOL     OW13465   3.155   1.291   4.536
 4189SOL    HW113466   3.194   1.239   4.612
 4189SOL    HW213467   3.167   1.238   4.451
 4190SOL     OW13468   1.548   0.065   6.523
 4190SOL    HW113469   1.516   6.993   6.508
 4190SOL    HW213470   1.648   0.066   6.523
 4191SOL     OW13471   5.727   3.534   2.824
 4191SOL    HW113472   5.706   3.561   2.918
 4191SOL    HW213473   5.796   3.462   2.824
 4192SOL     OW13474   6.711   0.899   3.528
 4192SOL    HW113475   6.647   0.842   3.579
 4192SOL    HW213476   6.782   0.841   3.487
 4193SOL     OW13477   2.053   6.883   1.562
 4193SOL    HW113478   2.113   6.882   1.642
 4193SOL    HW213479   2.074   6.804   1.504
 4194SOL     OW13480   6.696   1.604   5.661
 4194SOL    HW113481   6.613   1.596   5.606
 4194SOL    HW213482   6.701   1.695   5.702
 4195SOL     OW13483   3.281   0.615   1.523
 4195SOL    HW113484   3.222   0.566   1.460
 4195SOL    HW213485   3.252   0.600   1.617
 4196SOL     OW13486   6.252   1.712   3.663
 4196SOL    HW113487   6.186   1.644   3.632
 4196SOL    HW213488   6.335   1.705   3.608
 4197SOL     OW13489   4.539   4.933   4.588
 4197SOL    HW113490   4.578   4.848   4.554
 4197SOL    HW213491   4.513   4.922   4.684
 4198SOL     OW13492   5.950   3.470   6.622
 4198SOL    HW113493   5.865   3.427   6.592
 4198SOL    HW213494   6.008   3.402   6.666
 4199SOL     OW13495   1.888   3.604   6.038
 4199SOL    HW113496   1.840   3.559   5.963
 4199SOL    HW213497   1.874   3.703   6.031
 4200SOL     OW13498   2.956   6.685   5.018
 4200SOL    HW113499   2.926   6.589   5.018
 4200SOL    HW213500   2.949   6.721   5.111
 4201SOL     OW13501   5.720   6.440   3.968
 4201SOL    HW113502   5.803   6.386   3.956
 4201SOL    HW213503   5.640   6.380   3.971
 4202SOL     OW13504   4.108   5.517   5.765
 4202SOL    HW113505   4.194   5.567   5.763
 4202SOL    HW213506   4.037   5.571   5.719
 4203SOL     OW13507   4.501   5.796   2.246
 4203SOL    HW113508   4.436   5.732   2.206
 4203SOL    HW213509   4.453   5.861   2.305
 4204SOL     OW13510   3.430   2.881   1.974
 4204SOL    HW113511   3.331   2.874   1.961
 4204SOL    HW213512   3.449   2.907   2.069
 4205SOL     OW13513   3.679   5.467   4.501
 4205SOL    HW113514   3.612   5.539   4.483
 4205SOL    HW213515   3.761   5.483   4.446
 4206SOL     OW13516   5.768   1.260   5.701
 4206SOL    HW113517   5.822   1.236   5.621
 4206SOL    HW213518   5.731   1.177   5.743
 4207SOL     OW13519   2.130   1.734   1.290
 4207SOL    HW113520   2.034   1.755   1.305
 4207SOL    HW213521   2.176   1.815   1.251
 4208SOL     OW13522   1.328   2.220   0.255
 4208SOL    HW113523   1.377   2.293   0.301
 4208SOL    HW213524   1.311   2.245   0.159
 4209SOL     OW13525   1.250   1.645   4.633
 4209SOL    HW113526   1.322   1.682   4.693
 4209SOL    HW213527   1.274   1.664   4.538
 4210SOL     OW13528   2.919   3.300   1.894
 4210SOL    HW113529   2.861   3.262   1.966
 4210SOL    HW213530   2.983   3.366   1.934
 4211SOL     OW13531   4.762   6.092   6.019
 4211SOL    HW113532   4.842   6.091   6.079
 4211SOL    HW213533   4.689   6.038   6.061
 4212SOL     OW13534   6.292   1.955   2.397
 4212SOL    HW113535   6.301   1.902   2.313
 4212SOL    HW213536   6.250   2.044   2.376
 4213SOL     OW13537   2.108   1.338   2.621
 4213SOL    HW113538   2.062   1.391   2.550
 4213SOL    HW213539   2.204   1.365   2.625
 4214SOL     OW13540   6.679   4.096   5.784
 4214SOL    HW113541   6.671   3.998   5.769
 4214SOL    HW213542   6.677   4.116   5.882
 4215SOL     OW13543   6.638   5.940   4.994
 4215SOL    HW113544   6.622   5.912   5.089
 4215SOL    HW213545   6.735   5.932   4.972
 4216SOL     OW13546   1.490   1.775   3.119
 4216SOL    HW113547   1.471   1.774   3.217
 4216SOL    HW213548   1.486   1.869   3.085
 4217SOL     OW13549   6.055   0.435   3.093
 4217SOL    HW113550   6.140   0.394   3.128
 4217SOL    HW213551   6.030   0.512   3.151
 4218SOL     OW13552   4.975   0.064   1.305
 4218SOL    HW113553   4.897   0.125   1.294
 4218SOL    HW213554   5.055   0.103   1.258
 4219SOL     OW13555   2.791   5.347   4.920
 4219SOL    HW113556   2.768   5.428   4.867
 4219SOL    HW213557   2.817   5.273   4.857
 4220SOL     OW13558   6.420   3.278   3.445
 4220SOL    HW113559   6.461   3.362   3.411
 4220SOL    HW213560   6.469   3.199   3.409
 4221SOL     OW13561   6.346   5.846   6.570
 4221SOL    HW113562   6.254   5.808   6.555
 4221SOL    HW213563   6.392   5.794   6.641
 4222SOL     OW13564   6.251   2.137   2.121
 4222SOL    HW113565   6.342   2.150   2.161
 4222SOL    HW213566   6.240   2.042   2.093
 4223SOL     OW13567   3.302   2.917   4.329
 4223SOL    HW113568   3.240   2.951   4.401
 4223SOL    HW213569   3.249   2.896   4.247
 4224SOL     OW13570   4.877   3.121   4.141
 4224SOL    HW113571   4.850   3.037   4.094
 4224SOL    HW213572   4.842   3.200   4.091
 4225SOL     OW13573   5.228   0.904   5.374
 4225SOL    HW113574   5.271   0.850   5.302
 4225SOL    HW213575   5.159   0.849   5.420
 4226SOL     OW13576   2.189   0.234   3.344
 4226SOL    HW113577   2.264   0.261   3.404
 4226SOL    HW213578   2.188   0.135   3.334
 4227SOL     OW13579   3.200   4.390   6.292
 4227SOL    HW113580   3.208   4.297   6.329
 4227SOL    HW213581   3.255   4.397   6.209
 4228SOL     OW13582   6.170   4.808   3.409
 4228SOL    HW113583   6.092   4.750   3.434
 4228SOL    HW213584   6.231   4.818   3.487
 4229SOL     OW13585   4.157   5.020   6.404
 4229SOL    HW113586   4.176   4.935   6.356
 4229SOL    HW213587   4.108   5.000   6.489
 4230SOL     OW13588   2.442   0.538   4.773
 4230SOL    HW113589   2.391   0.462   4.733
 4230SOL    HW213590   2.389   0.579   4.847
 4231SOL     OW13591   5.530   6.412   5.065
 4231SOL    HW113592   5.536   6.453   5.156
 4231SOL    HW213593   5.521   6.313   5.073
 4232SOL     OW13594   0.584   5.414   1.657
 4232SOL    HW113595   0.619   5.330   1.698
 4232SOL    HW213596   0.653   5.486   1.663
 4233SOL     OW13597   6.570   0.189   0.116
 4233SOL    HW113598   6.480   0.167   0.078
 4233SOL    HW213599   6.631   0.112   0.101
 4234SOL     OW13600   1.765   6.429   5.249
 4234SOL    HW113601   1.841   6.400   5.306
 4234SOL    HW213602   1.691   6.362   5.254
 4235SOL     OW13603   5.806   4.157   5.346
 4235SOL    HW113604   5.820   4.101   5.428
 4235SOL    HW213605   5.741   4.230   5.366
 4236SOL     OW13606   6.849   3.026   2.853
 4236SOL    HW113607   6.863   3.118   2.888
 4236SOL    HW213608   6.789   3.029   2.773
 4237SOL     OW13609   6.056   4.553   4.118
 4237SOL    HW113610   6.142   4.503   4.133
 4237SOL    HW213611   5.985   4.517   4.178
 4238SOL     OW13612   4.297   4.620   3.875
 4238SOL    HW113613   4.361   4.565   3.928
 4238SOL    HW213614   4.332   4.713   3.866
 4239SOL     OW13615   5.778   0.047   4.128
 4239SOL    HW113616   5.734   0.078   4.213
 4239SOL    HW213617   5.748   6.976   4.107
 4240SOL     OW13618   2.389   6.095   6.386
 4240SOL    HW113619   2.426   6.054   6.470
 4240SOL    HW213620   2.296   6.127   6.402
 4241SOL     OW13621   6.041   0.396   1.060
 4241SOL    HW113622   5.960   0.417   1.116
 4241SOL    HW213623   6.076   0.479   1.018
 4242SOL     OW13624   2.233   6.965   3.274
 4242SOL    HW113625   2.178   6.942   3.354
 4242SOL    HW213626   2.194   6.922   3.193
 4243SOL     OW13627   0.676   3.652   2.833
 4243SOL    HW113628   0.747   3.598   2.878
 4243SOL    HW213629   0.619   3.593   2.776
 4244SOL     OW13630   4.785   5.824   1.267
 4244SOL    HW113631   4.864   5.884   1.279
 4244SOL    HW213632   4.811   5.744   1.214
 4245SOL     OW13633   0.049   2.399   0.210
 4245SOL    HW113634   0.104   2.342   0.271
 4245SOL    HW213635   6.976   2.401   0.242
 4246SOL     OW13636   5.367   3.424   3.065
 4246SOL    HW113637   5.324   3.333   3.061
 4246SOL    HW213638   5.352   3.464   3.155
 4247SOL     OW13639   2.174   5.225   4.685
 4247SOL    HW113640   2.260   5.185   4.718
 4247SOL    HW213641   2.097   5.170   4.717
 4248SOL     OW13642   1.690   1.009   3.444
 4248SOL    HW113643   1.693   1.041   3.539
 4248SOL    HW213644   1.599   0.973   3.424
 4249SOL     OW13645   6.813   1.863   3.643
 4249SOL    HW113646   6.752   1.837   3.568
 4249SOL    HW213647   6.859   1.782   3.678
 4250SOL     OW13648   6.899   5.712   4.286
 4250SOL    HW113649   6.952   5.648   4.230
 4250SOL    HW213650   6.960   5.778   4.328
 4251SOL     OW13651   6.052   2.617   6.690
 4251SOL    HW113652   5.983   2.592   6.759
 4251SOL    HW213653   6.059   2.544   6.623
 4252SOL     OW13654   5.840   5.989   6.442
 4252SOL    HW113655   5.912   6.050   6.412
 4252SOL    HW213656   5.787   6.033   6.515
 4253SOL     OW13657   3.431   6.367   2.444
 4253SOL    HW113658   3.416   6.389   2.348
 4253SOL    HW213659   3.379   6.431   2.501
 4254SOL     OW13660   2.199   4.599   1.756
 4254SOL    HW113661   2.106   4.593   1.720
 4254SOL    HW213662   2.242   4.509   1.751
 4255SOL     OW13663   0.053   3.322   3.965
 4255SOL    HW113664   0.133   3.331   4.025
 4255SOL    HW213665   7.001   3.380   4.001
 4256SOL     OW13666   1.058   5.757   1.994
 4256SOL    HW113667   1.045   5.780   1.897
 4256SOL    HW213668   0.979   5.704   2.026
 4257SOL     OW13669   6.632   0.742   4.809
 4257SOL    HW113670   6.638   0.709   4.904
 4257SOL    HW213671   6.647   0.841   4.807
 4258SOL     OW13672   3.554   5.710   1.082
 4258SOL    HW113673   3.561   5.631   1.021
 4258SOL    HW213674   3.642   5.723   1.129
 4259SOL     OW13675   1.696   6.696   1.034
 4259SOL    HW113676   1.765   6.688   1.106
 4259SOL    HW213677   1.611   6.729   1.074
 4260SOL     OW13678   5.053   6.918   3.868
 4260SOL    HW113679   5.105   6.863   3.803
 4260SOL    HW213680   5.116   6.973   3.923
 4261SOL     OW13681   2.093   0.075   3.744
 4261SOL    HW113682   2.012   0.030   3.780
 4261SOL    HW213683   2.086   0.173   3.759
 4262SOL     OW13684   1.939   4.557   5.815
 4262SOL    HW113685   1.972   4.475   5.861
 4262SOL    HW213686   1.885   4.612   5.879
 4263SOL     OW13687   3.142   1.558   3.211
 4263SOL    HW113688   3.049   1.588   3.189
 4263SOL    HW213689   3.152   1.461   3.187
 4264SOL     OW13690   5.948   1.354   4.832
 4264SOL    HW113691   5.880   1.321   4.897
 4264SOL    HW213692   5.990   1.277   4.785
 4265SOL     OW13693   3.329   0.363   0.711
 4265SOL    HW113694   3.317   0.296   0.785
 4265SOL    HW213695   3.272   0.443   0.729
 4266SOL     OW13696   1.707   6.838   6.778
 4266SOL    HW113697   1.650   6.801   6.852
 4266SOL    HW213698   1.680   6.796   6.691
 4267SOL     OW13699   2.159   3.923   3.889
 4267SOL    HW113700   2.160   4.002   3.951
 4267SOL    HW213701   2.104   3.850   3.929
 4268SOL     OW13702   2.047   5.056   6.738
 4268SOL    HW113703   1.979   5.123   6.767
 4268SOL    HW213704   2.107   5.033   6.815
 4269SOL     OW13705   3.338   1.549   3.655
 4269SOL    HW113706   3.405   1.582   3.588
 4269SOL    HW213707   3.375   1.558   3.747
 4270SOL     OW13708   3.896   3.164   1.390
 4270SOL    HW113709   3.804   3.184   1.356
 4270SOL    HW213710   3.925   3.235   1.454
 4271SOL     OW13711   6.570   0.859   0.336
 4271SOL    HW113712   6.602   0.948   0.303
 4271SOL    HW213713   6.473   0.848   0.314
 4272SOL     OW13714   6.877   3.339   5.582
 4272SOL    HW113715   6.937   3.261   5.566
 4272SOL    HW213716   6.931   3.419   5.608
 4273SOL     OW13717   4.960   6.501   5.104
 4273SOL    HW113718   4.941   6.407   5.133
 4273SOL    HW213719   5.022   6.544   5.170
 4274SOL     OW13720   0.505   6.611   2.051
 4274SOL    HW113721   0.548   6.624   1.962
 4274SOL    HW213722   0.490   6.513   2.067
 4275SOL     OW13723   0.098   2.031   4.673
 4275SOL    HW113724   0.060   2.118   4.644
 4275SOL    HW213725   0.120   2.036   4.771
 4276SOL     OW13726   2.930   5.099   3.278
 4276SOL    HW113727   2.864   5.110   3.203
 4276SOL    HW213728   2.887   5.128   3.363
 4277SOL     OW13729   6.864   4.682   3.703
 4277SOL    HW113730   6.869   4.624   3.785
 4277SOL    HW213731   6.812   4.635   3.632
 4278SOL     OW13732   6.939   6.233   3.826
 4278SOL    HW113733   7.008   6.163   3.844
 4278SOL    HW213734   6.908   6.272   3.912
 4279SOL     OW13735   1.906   0.588   2.268
 4279SOL    HW113736   1.878   0.684   2.262
 4279SOL    HW213737   1.958   0.562   2.187
 4280SOL     OW13738   6.123   6.683   5.894
 4280SOL    HW113739   6.134   6.584   5.892
 4280SOL    HW213740   6.025   6.706   5.897
 4281SOL     OW13741   4.816   5.152   4.221
 4281SOL    HW113742   4.737   5.154   4.282
 4281SOL    HW213743   4.806   5.222   4.150
 4282SOL     OW13744   3.316   4.437   0.616
 4282SOL    HW113745   3.327   4.382   0.533
 4282SOL    HW213746   3.394   4.499   0.627
 4283SOL     OW13747   4.816   1.224   3.511
 4283SOL    HW113748   4.768   1.224   3.424
 4283SOL    HW213749   4.901   1.275   3.502
 4284SOL     OW13750   3.928   5.592   0.063
 4284SOL    HW113751   3.921   5.560   0.157
 4284SOL    HW213752   3.849   5.649   0.041
 4285SOL     OW13753   3.066   0.722   6.176
 4285SOL    HW113754   3.151   0.749   6.131
 4285SOL    HW213755   2.998   0.794   6.162
 4286SOL     OW13756   6.945   0.618   6.395
 4286SOL    HW113757   6.912   0.683   6.326
 4286SOL    HW213758   7.014   0.662   6.452
 4287SOL     OW13759   4.759   1.326   6.539
 4287SOL    HW113760   4.683   1.322   6.475
 4287SOL    HW213761   4.726   1.309   6.632
 4288SOL     OW13762   6.733   5.936   2.342
 4288SOL    HW113763   6.740   5.837   2.327
 4288SOL    HW213764   6.822   5.979   2.323
 4289SOL     OW13765   1.111   2.047   5.552
 4289SOL    HW113766   1.031   2.006   5.595
 4289SOL    HW213767   1.106   2.146   5.558
 4290SOL     OW13768   0.172   6.235   4.041
 4290SOL    HW113769   0.222   6.312   4.079
 4290SOL    HW213770   0.236   6.170   4.000
 4291SOL     OW13771   4.539   2.748   6.559
 4291SOL    HW113772   4.465   2.690   6.524
 4291SOL    HW213773   4.504   2.840   6.577
 4292SOL     OW13774   6.029   2.774   0.123
 4292SOL    HW113775   6.074   2.806   0.040
 4292SOL    HW213776   6.074   2.692   0.156
 4293SOL     OW13777   4.599   3.634   7.002
 4293SOL    HW113778   4.651   3.715   6.977
 4293SOL    HW213779   4.648   3.583   0.051
 4294SOL     OW13780   2.442   2.278   6.184
 4294SOL    HW113781   2.504   2.267   6.107
 4294SOL    HW213782   2.351   2.243   6.159
 4295SOL     OW13783   3.944   6.347   3.012
 4295SOL    HW113784   4.030   6.391   3.039
 4295SOL    HW213785   3.868   6.390   3.060
 4296SOL     OW13786   3.287   6.832   1.004
 4296SOL    HW113787   3.327   6.886   0.930
 4296SOL    HW213788   3.353   6.823   1.078
 4297SOL     OW13789   6.499   6.171   1.606
 4297SOL    HW113790   6.550   6.257   1.601
 4297SOL    HW213791   6.403   6.190   1.626
 4298SOL     OW13792   3.671   6.387   1.557
 4298SOL    HW113793   3.747   6.443   1.525
 4298SOL    HW213794   3.606   6.373   1.482
 4299SOL     OW13795   0.609   3.500   0.112
 4299SOL    HW113796   0.689   3.472   0.060
 4299SOL    HW213797   0.541   3.540   0.051
 4300SOL     OW13798   2.755   0.337   1.225
 4300SOL    HW113799   2.793   0.371   1.311
 4300SOL    HW213800   2.738   0.415   1.164
 4301SOL     OW13801   2.978   6.969   1.656
 4301SOL    HW113802   2.999   0.041   1.682
 4301SOL    HW213803   2.909   6.970   1.584
 4302SOL     OW13804   6.280   0.229   0.069
 4302SOL    HW113805   6.231   0.143   0.053
 4302SOL    HW213806   6.233   0.303   0.020
 4303SOL     OW13807   0.188   4.604   3.573
 4303SOL    HW113808   0.176   4.704   3.580
 4303SOL    HW213809   0.158   4.573   3.483
 4304SOL     OW13810   3.572   4.064   1.758
 4304SOL    HW113811   3.563   4.065   1.858
 4304SOL    HW213812   3.608   3.975   1.729
 4305SOL     OW13813   0.509   6.859   4.723
 4305SOL    HW113814   0.593   6.830   4.676
 4305SOL    HW213815   0.523   6.949   4.765
 4306SOL     OW13816   4.821   4.439   4.856
 4306SOL    HW113817   4.797   4.371   4.786
 4306SOL    HW213818   4.816   4.530   4.816
 4307SOL     OW13819   5.676   2.889   5.781
 4307SOL    HW113820   5.586   2.849   5.764
 4307SOL    HW213821   5.676   2.936   5.869
 4308SOL     OW13822   5.440   5.017   1.681
 4308SOL    HW113823   5.348   5.033   1.647
 4308SOL    HW213824   5.500   4.992   1.605
 4309SOL     OW13825   1.236   3.526   0.049
 4309SOL    HW113826   1.193   3.545   0.138
 4309SOL    HW213827   1.310   3.591   0.034
 4310SOL     OW13828   1.377   2.785   1.953
 4310SOL    HW113829   1.427   2.792   1.867
 4310SOL    HW213830   1.282   2.759   1.935
 4311SOL     OW13831   1.027   6.622   1.900
 4311SOL    HW113832   1.055   6.541   1.848
 4311SOL    HW213833   0.947   6.663   1.857
 4312SOL     OW13834   1.182   5.398   2.680
 4312SOL    HW113835   1.235   5.473   2.717
 4312SOL    HW213836   1.176   5.324   2.747
 4313SOL     OW13837   3.342   2.137   6.859
 4313SOL    HW113838   3.243   2.141   6.850
 4313SOL    HW213839   3.367   2.160   6.953
 4314SOL     OW13840   6.305   1.876   5.447
 4314SOL    HW113841   6.257   1.863   5.360
 4314SOL    HW213842   6.249   1.840   5.521
 4315SOL     OW13843   1.902   1.781   3.974
 4315SOL    HW113844   1.811   1.747   3.998
 4315SOL    HW213845   1.957   1.789   4.058
 4316SOL     OW13846   4.869   6.852   2.683
 4316SOL    HW113847   4.878   6.755   2.662
 4316SOL    HW213848   4.946   6.881   2.740
 4317SOL     OW13849   4.080   0.784   5.398
 4317SOL    HW113850   4.061   0.867   5.450
 4317SOL    HW213851   3.995   0.750   5.358
 4318SOL     OW13852   0.621   0.628   4.220
 4318SOL    HW113853   0.567   0.577   4.286
 4318SOL    HW213854   0.689   0.684   4.268
 4319SOL     OW13855   1.877   1.805   1.286
 4319SOL    HW113856   1.807   1.746   1.246
 4319SOL    HW213857   1.905   1.875   1.220
 4320SOL     OW13858   4.083   6.140   0.679
 4320SOL    HW113859   4.093   6.215   0.744
 4320SOL    HW213860   4.046   6.175   0.593
 4321SOL     OW13861   6.955   4.871   3.494
 4321SOL    HW113862   6.930   4.816   3.574
 4321SOL    HW213863   0.008   4.933   3.519
 4322SOL     OW13864   0.122   3.170   5.699
 4322SOL    HW113865   0.166   3.255   5.669
 4322SOL    HW213866   0.065   3.135   5.625
 4323SOL     OW13867   4.279   5.469   0.076
 4323SOL    HW113868   4.214   5.443   0.004
 4323SOL    HW213869   4.253   5.557   0.114
 4324SOL     OW13870   6.659   3.260   5.727
 4324SOL    HW113871   6.666   3.164   5.699
 4324SOL    HW213872   6.738   3.310   5.692
 4325SOL     OW13873   2.379   1.836   2.265
 4325SOL    HW113874   2.448   1.896   2.225
 4325SOL    HW213875   2.383   1.746   2.222
 4326SOL     OW13876   5.535   3.280   2.344
 4326SOL    HW113877   5.534   3.332   2.259
 4326SOL    HW213878   5.441   3.263   2.375
 4327SOL     OW13879   3.855   5.428   3.019
 4327SOL    HW113880   3.923   5.490   3.058
 4327SOL    HW213881   3.887   5.334   3.026
 4328SOL     OW13882   6.510   4.321   4.704
 4328SOL    HW113883   6.484   4.253   4.635
 4328SOL    HW213884   6.468   4.409   4.682
 4329SOL     OW13885   5.760   3.510   5.565
 4329SOL    HW113886   5.712   3.509   5.477
 4329SOL    HW213887   5.843   3.455   5.558
 4330SOL     OW13888   1.937   6.537   4.713
 4330SOL    HW113889   1.902   6.568   4.625
 4330SOL    HW213890   1.898   6.447   4.734
 4331SOL     OW13891   0.383   0.434   1.516
 4331SOL    HW113892   0.366   0.512   1.577
 4331SOL    HW213893   0.351   0.456   1.424
 4332SOL     OW13894   5.806   3.776   2.490
 4332SOL    HW113895   5.893   3.766   2.539
 4332SOL    HW213896   5.780   3.873   2.489
 4333SOL     OW13897   4.603   2.141   5.209
 4333SOL    HW113898   4.659   2.185   5.139
 4333SOL    HW213899   4.657   2.071   5.256
 4334SOL     OW13900   1.480   2.997   2.291
 4334SOL    HW113901   1.428   3.015   2.208
 4334SOL    HW213902   1.490   2.898   2.304
 4335SOL     OW13903   3.370   2.913   1.045
 4335SOL    HW113904   3.391   2.816   1.057
 4335SOL    HW213905   3.286   2.923   0.991
 4336SOL     OW13906   2.215   4.738   5.287
 4336SOL    HW113907   2.180   4.830   5.272
 4336SOL    HW213908   2.301   4.727   5.238
 4337SOL     OW13909   1.406   6.159   2.285
 4337SOL    HW113910   1.484   6.197   2.235
 4337SOL    HW213911   1.426   6.065   2.313
 4338SOL     OW13912   6.060   0.206   6.054
 4338SOL    HW113913   6.054   0.106   6.045
 4338SOL    HW213914   5.978   0.240   6.099
 4339SOL     OW13915   3.668   2.463   6.356
 4339SOL    HW113916   3.604   2.496   6.425
 4339SOL    HW213917   3.650   2.509   6.269
 4340SOL     OW13918   6.067   2.830   1.269
 4340SOL    HW113919   6.116   2.804   1.185
 4340SOL    HW213920   6.121   2.802   1.348
 4341SOL     OW13921   1.094   5.381   1.916
 4341SOL    HW113922   1.153   5.440   1.861
 4341SOL    HW213923   1.072   5.427   2.002
 4342SOL     OW13924   4.905   3.384   3.012
 4342SOL    HW113925   4.898   3.318   2.938
 4342SOL    HW213926   4.925   3.475   2.974
 4343SOL     OW13927   3.670   7.013   6.143
 4343SOL    HW113928   3.630   6.976   6.226
 4343SOL    HW213929   3.597   0.010   6.076
 4344SOL     OW13930   0.370   2.931   3.358
 4344SOL    HW113931   0.403   2.837   3.370
 4344SOL    HW213932   0.381   2.959   3.263
 4345SOL     OW13933   3.124   3.357   2.742
 4345SOL    HW113934   3.123   3.279   2.805
 4345SOL    HW213935   3.039   3.409   2.752
 4346SOL     OW13936   2.225   2.494   2.601
 4346SOL    HW113937   2.294   2.563   2.577
 4346SOL    HW213938   2.262   2.403   2.581
 4347SOL     OW13939   6.233   6.108   2.207
 4347SOL    HW113940   6.319   6.056   2.212
 4347SOL    HW213941   6.192   6.112   2.298
 4348SOL     OW13942   7.020   5.520   4.148
 4348SOL    HW113943   7.016   5.462   4.229
 4348SOL    HW213944   6.967   5.478   4.074
 4349SOL     OW13945   6.936   3.267   3.453
 4349SOL    HW113946   6.990   3.273   3.537
 4349SOL    HW213947   6.908   3.172   3.439
 4350SOL     OW13948   5.117   2.301   4.960
 4350SOL    HW113949   5.185   2.317   5.031
 4350SOL    HW213950   5.154   2.235   4.893
 4351SOL     OW13951   1.192   6.061   1.593
 4351SOL    HW113952   1.235   6.150   1.579
 4351SOL    HW213953   1.159   6.026   1.506
 4352SOL     OW13954   5.459   3.512   1.081
 4352SOL    HW113955   5.528   3.458   1.130
 4352SOL    HW213956   5.501   3.597   1.048
 4353SOL     OW13957   2.948   3.417   6.678
 4353SOL    HW113958   2.999   3.399   6.594
 4353SOL    HW213959   2.858   3.376   6.672
 4354SOL     OW13960   1.020   0.613   5.390
 4354SOL    HW113961   0.959   0.614   5.469
 4354SOL    HW213962   1.011   0.699   5.340
 4355SOL     OW13963   1.387   6.481   3.280
 4355SOL    HW113964   1.448   6.516   3.351
 4355SOL    HW213965   1.315   6.548   3.263
 4356SOL     OW13966   4.728   3.413   5.902
 4356SOL    HW113967   4.663   3.488   5.912
 4356SOL    HW213968   4.723   3.377   5.808
 4357SOL     OW13969   0.177   1.413   1.966
 4357SOL    HW113970   0.264   1.445   1.930
 4357SOL    HW213971   0.192   1.332   2.023
 4358SOL     OW13972   0.289   1.197   6.622
 4358SOL    HW113973   0.270   1.112   6.671
 4358SOL    HW213974   0.367   1.243   6.665
 4359SOL     OW13975   2.074   0.787   6.807
 4359SOL    HW113976   2.045   0.723   6.879
 4359SOL    HW213977   2.171   0.774   6.788
 4360SOL     OW13978   0.966   2.203   3.733
 4360SOL    HW113979   1.014   2.134   3.786
 4360SOL    HW213980   1.008   2.293   3.749
 4361SOL     OW13981   2.186   2.783   1.127
 4361SOL    HW113982   2.217   2.848   1.197
 4361SOL    HW213983   2.086   2.781   1.126
 4362SOL     OW13984   0.811   6.250   3.968
 4362SOL    HW113985   0.862   6.208   3.893
 4362SOL    HW213986   0.808   6.187   4.047
 4363SOL     OW13987   4.132   0.387   2.048
 4363SOL    HW113988   4.078   0.359   1.968
 4363SOL    HW213989   4.209   0.324   2.059
 4364SOL     OW13990   3.052   3.806   2.543
 4364SOL    HW113991   2.996   3.724   2.540
 4364SOL    HW213992   3.023   3.863   2.620
 4365SOL     OW13993   2.925   1.792   1.816
 4365SOL    HW113994   2.907   1.718   1.881
 4365SOL    HW213995   2.894   1.879   1.854
 4366SOL     OW13996   6.361   5.917   5.842
 4366SOL    HW113997   6.452   5.956   5.828
 4366SOL    HW213998   6.339   5.856   5.766
 4367SOL     OW13999   2.708   5.536   2.834
 4367SOL    HW114000   2.691   5.600   2.908
 4367SOL    HW214001   2.718   5.444   2.872
 4368SOL     OW14002   3.900   5.635   2.841
 4368SOL    HW114003   3.878   5.547   2.885
 4368SOL    HW214004   3.858   5.638   2.750
 4369SOL     OW14005   5.134   5.509   2.707
 4369SOL    HW114006   5.137   5.527   2.805
 4369SOL    HW214007   5.120   5.411   2.691
 4370SOL     OW14008   3.605   3.813   1.438
 4370SOL    HW114009   3.657   3.810   1.353
 4370SOL    HW214010   3.536   3.885   1.432
 4371SOL     OW14011   2.549   0.863   2.211
 4371SOL    HW114012   2.500   0.903   2.289
 4371SOL    HW214013   2.485   0.852   2.135
 4372SOL     OW14014   1.850   3.786   4.525
 4372SOL    HW114015   1.918   3.838   4.577
 4372SOL    HW214016   1.830   3.701   4.572
 4373SOL     OW14017   4.428   1.161   6.034
 4373SOL    HW114018   4.369   1.207   6.100
 4373SOL    HW214019   4.374   1.135   5.954
 4374SOL     OW14020   3.112   2.070   1.510
 4374SOL    HW114021   3.082   2.165   1.499
 4374SOL    HW214022   3.205   2.061   1.477
 4375SOL     OW14023   3.775   6.874   3.302
 4375SOL    HW114024   3.717   6.793   3.294
 4375SOL    HW214025   3.790   6.913   3.211
 4376SOL     OW14026   6.223   0.379   2.172
 4376SOL    HW114027   6.295   0.428   2.221
 4376SOL    HW214028   6.202   0.294   2.220
 4377SOL     OW14029   6.745   5.659   0.352
 4377SOL    HW114030   6.709   5.597   0.421
 4377SOL    HW214031   6.764   5.748   0.392
 4378SOL     OW14032   1.895   4.695   1.948
 4378SOL    HW114033   1.812   4.745   1.923
 4378SOL    HW214034   1.951   4.752   2.008
 4379SOL     OW14035   2.230   0.701   2.228
 4379SOL    HW114036   2.267   0.725   2.138
 4379SOL    HW214037   2.190   0.782   2.270
 4380SOL     OW14038   2.219   5.742   5.147
 4380SOL    HW114039   2.302   5.785   5.182
 4380SOL    HW214040   2.160   5.812   5.105
 4381SOL     OW14041   2.727   4.791   4.491
 4381SOL    HW114042   2.798   4.854   4.459
 4381SOL    HW214043   2.643   4.842   4.507
 4382SOL     OW14044   5.215   4.474   5.068
 4382SOL    HW114045   5.295   4.422   5.097
 4382SOL    HW214046   5.149   4.478   5.143
 4383SOL     OW14047   1.040   1.786   4.875
 4383SOL    HW114048   0.944   1.757   4.871
 4383SOL    HW214049   1.051   1.869   4.821
 4384SOL     OW14050   4.982   0.551   0.446
 4384SOL    HW114051   5.062   0.491   0.442
 4384SOL    HW214052   4.901   0.501   0.416
 4385SOL     OW14053   6.805   2.237   3.703
 4385SOL    HW114054   6.831   2.221   3.608
 4385SOL    HW214055   6.726   2.180   3.726
 4386SOL     OW14056   0.960   4.263   6.219
 4386SOL    HW114057   1.026   4.219   6.158
 4386SOL    HW214058   0.983   4.241   6.314
 4387SOL     OW14059   0.201   1.910   2.176
 4387SOL    HW114060   0.155   1.956   2.099
 4387SOL    HW214061   0.252   1.977   2.229
 4388SOL     OW14062   3.813   1.144   6.434
 4388SOL    HW114063   3.776   1.191   6.514
 4388SOL    HW214064   3.800   1.045   6.444
 4389SOL     OW14065   5.715   2.135   1.290
 4389SOL    HW114066   5.639   2.079   1.257
 4389SOL    HW214067   5.685   2.230   1.296
 4390SOL     OW14068   3.979   2.351   1.496
 4390SOL    HW114069   4.040   2.411   1.547
 4390SOL    HW214070   3.940   2.282   1.557
 4391SOL     OW14071   1.329   6.085   6.472
 4391SOL    HW114072   1.278   6.124   6.396
 4391SOL    HW214073   1.385   6.009   6.438
 4392SOL     OW14074   5.412   4.321   5.163
 4392SOL    HW114075   5.377   4.249   5.224
 4392SOL    HW214076   5.501   4.352   5.197
 4393SOL     OW14077   4.869   6.825   3.034
 4393SOL    HW114078   4.781   6.837   2.990
 4393SOL    HW214079   4.863   6.751   3.101
 4394SOL     OW14080   5.734   5.260   2.405
 4394SOL    HW114081   5.787   5.215   2.477
 4394SOL    HW214082   5.657   5.309   2.446
 4395SOL     OW14083   3.969   2.416   0.734
 4395SOL    HW114084   4.052   2.363   0.718
 4395SOL    HW214085   3.891   2.367   0.695
 4396SOL     OW14086   2.274   2.028   4.065
 4396SOL    HW114087   2.350   2.035   4.130
 4396SOL    HW214088   2.274   2.108   4.005
 4397SOL     OW14089   0.326   1.459   3.967
 4397SOL    HW114090   0.311   1.546   4.014
 4397SOL    HW214091   0.295   1.384   4.025
 4398SOL     OW14092   1.326   4.218   4.303
 4398SOL    HW114093   1.248   4.171   4.345
 4398SOL    HW214094   1.371   4.275   4.371
 4399SOL     OW14095   2.555   0.555   0.801
 4399SOL    HW114096   2.485   0.625   0.788
 4399SOL    HW214097   2.629   0.592   0.858
 4400SOL     OW14098   2.145   6.176   4.842
 4400SOL    HW114099   2.226   6.142   4.890
 4400SOL    HW214100   2.158   6.164   4.743
 4401SOL     OW14101   5.972   5.831   6.136
 4401SOL    HW114102   5.961   5.767   6.212
 4401SOL    HW214103   6.069   5.835   6.110
 4402SOL     OW14104   1.159   6.556   2.761
 4402SOL    HW114105   1.220   6.539   2.839
 4402SOL    HW214106   1.078   6.605   2.793
 4403SOL     OW14107   6.588   6.741   3.673
 4403SOL    HW114108   6.595   6.808   3.747
 4403SOL    HW214109   6.670   6.684   3.672
 4404SOL     OW14110   1.122   3.977   4.693
 4404SOL    HW114111   1.216   3.996   4.721
 4404SOL    HW214112   1.081   3.910   4.755
 4405SOL     OW14113   2.975   4.599   6.183
 4405SOL    HW114114   2.965   4.529   6.254
 4405SOL    HW214115   3.013   4.558   6.100
 4406SOL     OW14116   5.051   4.151   0.705
 4406SOL    HW114117   5.103   4.109   0.780
 4406SOL    HW214118   5.102   4.229   0.669
 4407SOL     OW14119   0.041   5.544   0.992
 4407SOL    HW114120   7.016   5.632   1.000
 4407SOL    HW214121   0.099   5.530   1.072
 4408SOL     OW14122   5.130   0.971   0.583
 4408SOL    HW114123   5.056   1.034   0.559
 4408SOL    HW214124   5.093   0.878   0.588
 4409SOL     OW14125   3.521   0.916   1.692
 4409SOL    HW114126   3.510   0.890   1.596
 4409SOL    HW214127   3.445   0.973   1.721
 4410SOL     OW14128   1.865   4.397   6.906
 4410SOL    HW114129   1.773   4.402   6.943
 4410SOL    HW214130   1.864   4.421   6.809
 4411SOL     OW14131   3.713   3.071   3.359
 4411SOL    HW114132   3.653   3.151   3.369
 4411SOL    HW214133   3.740   3.038   3.449
 4412SOL     OW14134   3.939   1.879   4.959
 4412SOL    HW114135   3.867   1.897   4.893
 4412SOL    HW214136   4.026   1.865   4.911
 4413SOL     OW14137   5.195   6.173   5.242
 4413SOL    HW114138   5.152   6.097   5.194
 4413SOL    HW214139   5.125   6.225   5.292
 4414SOL     OW14140   4.819   4.975   2.095
 4414SOL    HW114141   4.787   5.045   2.158
 4414SOL    HW214142   4.766   4.891   2.108
 4415SOL     OW14143   4.846   3.620   6.506
 4415SOL    HW114144   4.831   3.557   6.429
 4415SOL    HW214145   4.901   3.575   6.575
 4416SOL     OW14146   2.807   1.407   3.766
 4416SOL    HW114147   2.871   1.422   3.841
 4416SOL    HW214148   2.854   1.361   3.690
 4417SOL     OW14149   6.935   4.328   2.515
 4417SOL    HW114150   7.005   4.397   2.531
 4417SOL    HW214151   6.869   4.329   2.590
 4418SOL     OW14152   4.511   6.368   3.947
 4418SOL    HW114153   4.530   6.270   3.953
 4418SOL    HW214154   4.476   6.400   4.035
 4419SOL     OW14155   5.529   5.512   0.624
 4419SOL    HW114156   5.467   5.462   0.564
 4419SOL    HW214157   5.559   5.596   0.579
 4420SOL     OW14158   5.122   1.646   0.654
 4420SOL    HW114159   5.162   1.659   0.563
 4420SOL    HW214160   5.134   1.550   0.682
 4421SOL     OW14161   1.586   1.511   3.811
 4421SOL    HW114162   1.540   1.425   3.790
 4421SOL    HW214163   1.616   1.511   3.907
 4422SOL     OW14164   2.578   3.499   5.694
 4422SOL    HW114165   2.537   3.413   5.665
 4422SOL    HW214166   2.677   3.489   5.699
 4423SOL     OW14167   0.834   2.759   6.260
 4423SOL    HW114168   0.848   2.849   6.218
 4423SOL    HW214169   0.811   2.692   6.190
 4424SOL     OW14170   5.353   7.003   3.289
 4424SOL    HW114171   5.425   0.047   3.311
 4424SOL    HW214172   5.335   6.946   3.369
 4425SOL     OW14173   3.408   5.731   5.913
 4425SOL    HW114174   3.429   5.760   5.819
 4425SOL    HW214175   3.314   5.755   5.935
 4426SOL     OW14176   6.620   1.233   4.956
 4426SOL    HW114177   6.653   1.178   4.879
 4426SOL    HW214178   6.654   1.326   4.948
 4427SOL     OW14179   6.643   0.471   2.593
 4427SOL    HW114180   6.704   0.484   2.515
 4427SOL    HW214181   6.627   0.558   2.638
 4428SOL     OW14182   3.031   4.850   3.330
 4428SOL    HW114183   3.017   4.932   3.274
 4428SOL    HW214184   3.121   4.855   3.373
 4429SOL     OW14185   2.819   0.209   4.249
 4429SOL    HW114186   2.750   0.200   4.178
 4429SOL    HW214187   2.898   0.259   4.213
 4430SOL     OW14188   4.892   2.897   3.507
 4430SOL    HW114189   4.879   2.852   3.419
 4430SOL    HW214190   4.905   2.828   3.578
 4431SOL     OW14191   2.069   1.435   1.992
 4431SOL    HW114192   1.987   1.462   2.041
 4431SOL    HW214193   2.137   1.509   1.998
 4432SOL     OW14194   2.975   3.253   3.598
 4432SOL    HW114195   3.057   3.310   3.605
 4432SOL    HW214196   2.923   3.258   3.684
 4433SOL     OW14197   6.660   6.786   4.716
 4433SOL    HW114198   6.688   6.839   4.795
 4433SOL    HW214199   6.594   6.838   4.662
 4434SOL     OW14200   5.097   1.296   4.051
 4434SOL    HW114201   5.083   1.316   3.954
 4434SOL    HW214202   5.151   1.369   4.093
 4435SOL     OW14203   3.868   3.578   0.898
 4435SOL    HW114204   3.797   3.646   0.918
 4435SOL    HW214205   3.948   3.595   0.956
 4436SOL     OW14206   2.941   2.128   0.441
 4436SOL    HW114207   2.910   2.033   0.432
 4436SOL    HW214208   2.921   2.178   0.357
 4437SOL     OW14209   5.343   0.874   3.801
 4437SOL    HW114210   5.391   0.844   3.718
 4437SOL    HW214211   5.244   0.866   3.786
 4438SOL     OW14212   3.603   2.043   6.418
 4438SOL    HW114213   3.619   2.050   6.516
 4438SOL    HW214214   3.677   2.087   6.368
 4439SOL     OW14215   0.794   5.353   1.249
 4439SOL    HW114216   0.778   5.448   1.275
 4439SOL    HW214217   0.706   5.304   1.248
 4440SOL     OW14218   1.326   4.998   6.917
 4440SOL    HW114219   1.302   5.047   7.001
 4440SOL    HW214220   1.373   5.060   6.854
 4441SOL     OW14221   6.758   1.886   1.979
 4441SOL    HW114222   6.706   1.816   1.930
 4441SOL    HW214223   6.775   1.854   2.072
 4442SOL     OW14224   3.109   6.130   3.945
 4442SOL    HW114225   3.033   6.115   4.008
 4442SOL    HW214226   3.124   6.048   3.890
 4443SOL     OW14227   1.112   2.502   6.906
 4443SOL    HW114228   1.037   2.436   6.916
 4443SOL    HW214229   1.078   2.584   6.860
 4444SOL     OW14230   3.487   6.343   6.415
 4444SOL    HW114231   3.524   6.368   6.504
 4444SOL    HW214232   3.533   6.262   6.381
 4445SOL     OW14233   0.876   0.355   6.912
 4445SOL    HW114234   0.886   0.352   6.812
 4445SOL    HW214235   0.862   0.262   6.947
 4446SOL     OW14236   5.558   1.235   1.534
 4446SOL    HW114237   5.530   1.259   1.626
 4446SOL    HW214238   5.493   1.273   1.468
 4447SOL     OW14239   5.170   3.332   5.170
 4447SOL    HW114240   5.211   3.399   5.233
 4447SOL    HW214241   5.071   3.346   5.167
 4448SOL     OW14242   2.842   3.953   0.671
 4448SOL    HW114243   2.878   3.861   0.682
 4448SOL    HW214244   2.747   3.955   0.701
 4449SOL     OW14245   3.904   0.318   6.134
 4449SOL    HW114246   3.936   0.408   6.104
 4449SOL    HW214247   3.917   0.309   6.232
 4450SOL     OW14248   3.557   3.128   3.731
 4450SOL    HW114249   3.650   3.149   3.761
 4450SOL    HW214250   3.542   3.029   3.733
 4451SOL     OW14251   5.831   4.411   2.514
 4451SOL    HW114252   5.891   4.335   2.541
 4451SOL    HW214253   5.741   4.399   2.556
 4452SOL     OW14254   5.773   6.213   5.202
 4452SOL    HW114255   5.785   6.248   5.109
 4452SOL    HW214256   5.680   6.179   5.212
 4453SOL     OW14257   6.794   2.817   6.961
 4453SOL    HW114258   6.753   2.844   6.874
 4453SOL    HW214259   6.748   2.736   6.996
 4454SOL     OW14260   5.137   2.470   0.715
 4454SOL    HW114261   5.135   2.504   0.620
 4454SOL    HW214262   5.095   2.539   0.775
 4455SOL     OW14263   3.020   6.737   6.953
 4455SOL    HW114264   2.952   6.770   7.018
 4455SOL    HW214265   3.027   6.801   6.877
 4456SOL     OW14266   2.375   4.861   2.597
 4456SOL    HW114267   2.410   4.773   2.564
 4456SOL    HW214268   2.276   4.863   2.587
 4457SOL     OW14269   3.928   2.604   0.021
 4457SOL    HW114270   3.875   2.543   0.079
 4457SOL    HW214271   3.905   2.699   0.043
 4458SOL     OW14272   1.554   3.814   6.482
 4458SOL    HW114273   1.549   3.741   6.550
 4458SOL    HW214274   1.638   3.805   6.429
 4459SOL     OW14275   5.614   0.119   3.899
 4459SOL    HW114276   5.690   0.133   3.835
 4459SOL    HW214277   5.651   0.091   3.988
 4460SOL     OW14278   2.724   2.769   5.770
 4460SOL    HW114279   2.678   2.854   5.797
 4460SOL    HW214280   2.792   2.789   5.699
 4461SOL     OW14281   1.139   0.586   3.001
 4461SOL    HW114282   1.068   0.655   3.007
 4461SOL    HW214283   1.109   0.502   3.048
 4462SOL     OW14284   6.906   3.912   1.282
 4462SOL    HW114285   6.965   3.992   1.291
 4462SOL    HW214286   6.817   3.931   1.322
 4463SOL     OW14287   2.381   2.600   0.058
 4463SOL    HW114288   2.427   2.559   0.137
 4463SOL    HW214289   2.283   2.582   0.064
 4464SOL     OW14290   5.958   5.326   0.735
 4464SOL    HW114291   5.861   5.327   0.758
 4464SOL    HW214292   6.002   5.250   0.782
 4465SOL     OW14293   1.644   6.241   2.892
 4465SOL    HW114294   1.621   6.278   2.802
 4465SOL    HW214295   1.742   6.221   2.896
 4466SOL     OW14296   1.505   0.809   2.990
 4466SOL    HW114297   1.486   0.907   2.987
 4466SOL    HW214298   1.442   0.765   3.053
 4467SOL     OW14299   0.809   6.423   3.502
 4467SOL    HW114300   0.885   6.380   3.551
 4467SOL    HW214301   0.753   6.353   3.458
 4468SOL     OW14302   0.558   1.702   0.679
 4468SOL    HW114303   0.481   1.641   0.699
 4468SOL    HW214304   0.554   1.781   0.740
 4469SOL     OW14305   3.098   7.015   1.252
 4469SOL    HW114306   3.151   0.001   1.336
 4469SOL    HW214307   3.096   6.920   1.222
 4470SOL     OW14308   5.836   3.387   1.789
 4470SOL    HW114309   5.892   3.393   1.872
 4470SOL    HW214310   5.739   3.395   1.815
 4471SOL     OW14311   0.413   2.720   0.349
 4471SOL    HW114312   0.381   2.684   0.262
 4471SOL    HW214313   0.474   2.654   0.392
 4472SOL     OW14314   1.432   3.603   2.694
 4472SOL    HW114315   1.432   3.617   2.793
 4472SOL    HW214316   1.343   3.630   2.657
 4473SOL     OW14317   0.421   1.079   4.262
 4473SOL    HW114318   0.362   1.104   4.340
 4473SOL    HW214319   0.513   1.059   4.295
 4474SOL     OW14320   3.603   0.859   2.286
 4474SOL    HW114321   3.672   0.826   2.350
 4474SOL    HW214322   3.580   0.954   2.308
 4475SOL     OW14323   2.100   4.331   1.775
 4475SOL    HW114324   2.060   4.243   1.748
 4475SOL    HW214325   2.038   4.378   1.838
 4476SOL     OW14326   5.552   6.213   3.942
 4476SOL    HW114327   5.614   6.181   4.014
 4476SOL    HW214328   5.459   6.183   3.961
 4477SOL     OW14329   1.845   0.101   6.586
 4477SOL    HW114330   1.935   0.140   6.568
 4477SOL    HW214331   1.841   0.008   6.549
 4478SOL     OW14332   2.615   6.302   2.531
 4478SOL    HW114333   2.703   6.318   2.486
 4478SOL    HW214334   2.627   6.237   2.606
 4479SOL     OW14335   0.882   1.105   6.720
 4479SOL    HW114336   0.980   1.111   6.701
 4479SOL    HW214337   0.868   1.088   6.818
 4480SOL     OW14338   1.926   3.762   4.899
 4480SOL    HW114339   1.980   3.769   4.983
 4480SOL    HW214340   1.987   3.753   4.821
 4481SOL     OW14341   2.424   0.092   4.283
 4481SOL    HW114342   2.461   0.008   4.242
 4481SOL    HW214343   2.451   0.097   4.379
 4482SOL     OW14344   0.448   3.508   3.855
 4482SOL    HW114345   0.494   3.441   3.913
 4482SOL    HW214346   0.397   3.461   3.783
 4483SOL     OW14347   6.445   3.174   1.641
 4483SOL    HW114348   6.470   3.232   1.718
 4483SOL    HW214349   6.373   3.218   1.587
 4484SOL     OW14350   2.874   1.573   5.358
 4484SOL    HW114351   2.797   1.623   5.397
 4484SOL    HW214352   2.917   1.629   5.286
 4485SOL     OW14353   5.765   2.727   6.147
 4485SOL    HW114354   5.821   2.647   6.170
 4485SOL    HW214355   5.785   2.801   6.212
 4486SOL     OW14356   5.765   3.584   4.126
 4486SOL    HW114357   5.760   3.608   4.029
 4486SOL    HW214358   5.834   3.513   4.139
 4487SOL     OW14359   2.120   3.507   6.911
 4487SOL    HW114360   2.129   3.583   6.847
 4487SOL    HW214361   2.092   3.425   6.861
 4488SOL     OW14362   5.543   2.569   5.733
 4488SOL    HW114363   5.514   2.499   5.798
 4488SOL    HW214364   5.480   2.646   5.737
 4489SOL     OW14365   5.366   6.021   4.342
 4489SOL    HW114366   5.268   6.011   4.325
 4489SOL    HW214367   5.384   6.114   4.374
 4490SOL     OW14368   5.838   2.040   2.038
 4490SOL    HW114369   5.879   2.054   2.129
 4490SOL    HW214370   5.835   1.943   2.018
 4491SOL     OW14371   0.847   2.909   3.091
 4491SOL    HW114372   0.772   2.955   3.043
 4491SOL    HW214373   0.929   2.966   3.089
 4492SOL     OW14374   5.153   3.598   0.825
 4492SOL    HW114375   5.243   3.554   0.814
 4492SOL    HW214376   5.145   3.674   0.761
 4493SOL     OW14377   4.730   5.479   5.241
 4493SOL    HW114378   4.686   5.414   5.304
 4493SOL    HW214379   4.750   5.433   5.155
 4494SOL     OW14380   0.002   2.346   6.420
 4494SOL    HW114381   0.093   2.383   6.404
 4494SOL    HW214382   6.958   2.393   6.362
 4495SOL     OW14383   5.779   6.983   3.402
 4495SOL    HW114384   5.732   6.954   3.485
 4495SOL    HW214385   5.720   0.024   3.351
 4496SOL     OW14386   5.284   5.858   0.461
 4496SOL    HW114387   5.204   5.801   0.477
 4496SOL    HW214388   5.266   5.951   0.492
 4497SOL     OW14389   4.080   6.669   6.773
 4497SOL    HW114390   4.016   6.744   6.754
 4497SOL    HW214391   4.035   6.582   6.753
 4498SOL     OW14392   0.461   3.112   6.391
 4498SOL    HW114393   0.481   3.207   6.367
 4498SOL    HW214394   0.439   3.061   6.308
 4499SOL     OW14395   0.070   3.129   4.172
 4499SOL    HW114396   0.064   3.155   4.075
 4499SOL    HW214397   0.065   3.029   4.180
 4500SOL     OW14398   3.299   3.643   3.537
 4500SOL    HW114399   3.324   3.735   3.508
 4500SOL    HW214400   3.275   3.588   3.457
 4501SOL     OW14401   0.200   3.287   5.953
 4501SOL    HW114402   0.246   3.200   5.971
 4501SOL    HW214403   0.229   3.323   5.865
 4502SOL     OW14404   2.026   3.101   6.354
 4502SOL    HW114405   1.978   3.188   6.346
 4502SOL    HW214406   2.083   3.102   6.436
 4503SOL     OW14407   2.686   0.254   2.654
 4503SOL    HW114408   2.685   0.311   2.737
 4503SOL    HW214409   2.760   0.284   2.594
 4504SOL     OW14410   6.434   1.624   5.110
 4504SOL    HW114411   6.416   1.594   5.016
 4504SOL    HW214412   6.373   1.576   5.173
 4505SOL     OW14413   6.341   5.495   4.411
 4505SOL    HW114414   6.346   5.461   4.317
 4505SOL    HW214415   6.318   5.593   4.410
 4506SOL     OW14416   4.646   2.522   4.755
 4506SOL    HW114417   4.589   2.510   4.836
 4506SOL    HW214418   4.740   2.494   4.776
 4507SOL     OW14419   5.052   4.011   1.371
 4507SOL    HW114420   5.112   3.998   1.291
 4507SOL    HW214421   5.105   4.000   1.454
 4508SOL     OW14422   0.791   4.788   6.379
 4508SOL    HW114423   0.711   4.786   6.440
 4508SOL    HW214424   0.769   4.741   6.294
 4509SOL     OW14425   4.855   2.255   4.371
 4509SOL    HW114426   4.868   2.353   4.357
 4509SOL    HW214427   4.931   2.205   4.331
 4510SOL     OW14428   5.633   6.891   5.132
 4510SOL    HW114429   5.673   6.982   5.129
 4510SOL    HW214430   5.704   6.822   5.113
 4511SOL     OW14431   0.139   2.967   5.872
 4511SOL    HW114432   0.098   2.890   5.823
 4511SOL    HW214433   0.126   3.051   5.819
 4512SOL     OW14434   2.432   6.768   5.948
 4512SOL    HW114435   2.521   6.723   5.953
 4512SOL    HW214436   2.359   6.700   5.956
 4513SOL     OW14437   5.021   6.649   0.514
 4513SOL    HW114438   5.011   6.685   0.420
 4513SOL    HW214439   5.044   6.552   0.510
 4514SOL     OW14440   4.536   0.447   4.583
 4514SOL    HW114441   4.617   0.490   4.623
 4514SOL    HW214442   4.562   0.399   4.499
 4515SOL     OW14443   6.671   4.084   6.061
 4515SOL    HW114444   6.680   3.989   6.030
 4515SOL    HW214445   6.592   4.093   6.121
 4516SOL     OW14446   1.567   1.843   5.913
 4516SOL    HW114447   1.556   1.915   5.982
 4516SOL    HW214448   1.643   1.784   5.939
 4517SOL     OW14449   2.765   6.828   6.252
 4517SOL    HW114450   2.672   6.842   6.217
 4517SOL    HW214451   2.795   6.735   6.231
 4518SOL     OW14452   6.647   1.855   3.403
 4518SOL    HW114453   6.610   1.945   3.381
 4518SOL    HW214454   6.665   1.804   3.319
 4519SOL     OW14455   6.326   0.968   1.851
 4519SOL    HW114456   6.370   0.938   1.767
 4519SOL    HW214457   6.312   1.067   1.848
 4520SOL     OW14458   5.252   5.613   2.451
 4520SOL    HW114459   5.205   5.586   2.367
 4520SOL    HW214460   5.202   5.578   2.530
 4521SOL     OW14461   4.846   1.897   5.607
 4521SOL    HW114462   4.905   1.967   5.566
 4521SOL    HW214463   4.893   1.852   5.682
 4522SOL     OW14464   5.419   0.290   3.825
 4522SOL    HW114465   5.361   0.267   3.902
 4522SOL    HW214466   5.506   0.242   3.833
 4523SOL     OW14467   1.029   4.317   0.261
 4523SOL    HW114468   1.003   4.223   0.241
 4523SOL    HW214469   0.994   4.377   0.189
 4524SOL     OW14470   5.398   2.116   5.939
 4524SOL    HW114471   5.372   2.067   6.022
 4524SOL    HW214472   5.496   2.110   5.925
 4525SOL     OW14473   6.464   1.671   3.499
 4525SOL    HW114474   6.413   1.617   3.432
 4525SOL    HW214475   6.519   1.740   3.451
 4526SOL     OW14476   4.952   0.763   0.617
 4526SOL    HW114477   4.947   0.712   0.703
 4526SOL    HW214478   4.988   0.703   0.545
 4527SOL     OW14479   4.382   1.657   3.929
 4527SOL    HW114480   4.465   1.668   3.984
 4527SOL    HW214481   4.358   1.744   3.887
 4528SOL     OW14482   4.988   6.808   0.256
 4528SOL    HW114483   5.082   6.780   0.233
 4528SOL    HW214484   4.934   6.817   0.173
 4529SOL     OW14485   2.890   1.238   3.538
 4529SOL    HW114486   2.858   1.161   3.482
 4529SOL    HW214487   2.979   1.215   3.577
 4530SOL     OW14488   7.018   3.559   5.377
 4530SOL    HW114489   0.020   3.464   5.398
 4530SOL    HW214490   6.919   3.566   5.364
 4531SOL     OW14491   6.971   2.949   3.443
 4531SOL    HW114492   6.981   2.927   3.346
 4531SOL    HW214493   0.029   2.915   3.493
 4532SOL     OW14494   0.738   1.414   2.307
 4532SOL    HW114495   0.649   1.385   2.342
 4532SOL    HW214496   0.753   1.511   2.331
 4533SOL     OW14497   1.784   0.257   3.582
 4533SOL    HW114498   1.721   0.321   3.538
 4533SOL    HW214499   1.876   0.297   3.585
 4534SOL     OW14500   5.941   3.389   4.184
 4534SOL    HW114501   5.922   3.305   4.236
 4534SOL    HW214502   6.021   3.435   4.222
 4535SOL     OW14503   4.405   2.179   2.373
 4535SOL    HW114504   4.463   2.102   2.397
 4535SOL    HW214505   4.339   2.195   2.447
 4536SOL     OW14506   4.685   1.566   4.664
 4536SOL    HW114507   4.643   1.511   4.737
 4536SOL    HW214508   4.622   1.576   4.588
 4537SOL     OW14509   3.561   3.362   6.445
 4537SOL    HW114510   3.591   3.422   6.371
 4537SOL    HW214511   3.620   3.376   6.525
 4538SOL     OW14512   3.171   2.070   4.091
 4538SOL    HW114513   3.270   2.081   4.101
 4538SOL    HW214514   3.149   2.053   3.995
 4539SOL     OW14515   2.658   1.915   4.242
 4539SOL    HW114516   2.752   1.931   4.212
 4539SOL    HW214517   2.612   2.003   4.255
 4540SOL     OW14518   3.743   3.369   3.796
 4540SOL    HW114519   3.838   3.374   3.829
 4540SOL    HW214520   3.742   3.326   3.706
 4541SOL     OW14521   5.928   1.287   0.148
 4541SOL    HW114522   6.017   1.330   0.164
 4541SOL    HW214523   5.889   1.258   0.235
 4542SOL     OW14524   5.740   6.580   1.789
 4542SOL    HW114525   5.649   6.609   1.818
 4542SOL    HW214526   5.807   6.648   1.816
 4543SOL     OW14527   4.308   1.793   0.006
 4543SOL    HW114528   4.224   1.759   6.986
 4543SOL    HW214529   4.289   1.827   0.098
 4544SOL     OW14530   2.548   5.595   5.917
 4544SOL    HW114531   2.590   5.668   5.970
 4544SOL    HW214532   2.605   5.512   5.924
 4545SOL     OW14533   5.320   2.496   5.190
 4545SOL    HW114534   5.358   2.409   5.158
 4545SOL    HW214535   5.395   2.556   5.220
 4546SOL     OW14536   1.581   0.318   6.227
 4546SOL    HW114537   1.515   0.243   6.224
 4546SOL    HW214538   1.639   0.308   6.308
 4547SOL     OW14539   6.351   2.334   2.402
 4547SOL    HW114540   6.279   2.300   2.462
 4547SOL    HW214541   6.340   2.433   2.389
 4548SOL     OW14542   0.759   4.307   4.574
 4548SOL    HW114543   0.693   4.234   4.559
 4548SOL    HW214544   0.729   4.365   4.649
 4549SOL     OW14545   6.045   3.740   2.611
 4549SOL    HW114546   6.143   3.723   2.609
 4549SOL    HW214547   6.011   3.727   2.704
 4550SOL     OW14548   0.336   6.101   3.290
 4550SOL    HW114549   0.378   6.060   3.371
 4550SOL    HW214550   0.285   6.032   3.240
 4551SOL     OW14551   0.275   1.980   5.248
 4551SOL    HW114552   0.249   2.014   5.158
 4551SOL    HW214553   0.265   2.054   5.315
 4552SOL     OW14554   0.113   2.620   6.378
 4552SOL    HW114555   0.176   2.667   6.315
 4552SOL    HW214556   0.024   2.609   6.334
 4553SOL     OW14557   3.289   4.286   0.349
 4553SOL    HW114558   3.364   4.223   0.328
 4553SOL    HW214559   3.213   4.235   0.388
 4554SOL     OW14560   3.911   0.705   1.682
 4554SOL    HW114561   3.995   0.690   1.629
 4554SOL    HW214562   3.931   0.764   1.760
 4555SOL     OW14563   3.995   1.450   5.786
 4555SOL    HW114564   4.036   1.541   5.783
 4555SOL    HW214565   4.029   1.395   5.709
 4556SOL     OW14566   4.604   2.178   3.686
 4556SOL    HW114567   4.681   2.228   3.725
 4556SOL    HW214568   4.599   2.087   3.728
 4557SOL     OW14569   4.836   6.597   4.690
 4557SOL    HW114570   4.930   6.573   4.714
 4557SOL    HW214571   4.774   6.563   4.760
 4558SOL     OW14572   6.155   3.665   5.635
 4558SOL    HW114573   6.120   3.603   5.705
 4558SOL    HW214574   6.205   3.740   5.678
 4559SOL     OW14575   1.325   6.049   1.845
 4559SOL    HW114576   1.264   6.058   1.767
 4559SOL    HW214577   1.271   6.043   1.929
 4560SOL     OW14578   5.271   4.262   3.154
 4560SOL    HW114579   5.176   4.294   3.152
 4560SOL    HW214580   5.290   4.218   3.241
 4561SOL     OW14581   2.510   0.876   1.437
 4561SOL    HW114582   2.514   0.782   1.469
 4561SOL    HW214583   2.490   0.937   1.514
 4562SOL     OW14584   2.923   5.577   5.201
 4562SOL    HW114585   2.840   5.612   5.242
 4562SOL    HW214586   2.923   5.477   5.206
 4563SOL     OW14587   6.140   3.937   0.024
 4563SOL    HW114588   6.185   3.917   0.111
 4563SOL    HW214589   6.176   4.022   7.009
 4564SOL     OW14590   0.796   5.853   1.152
 4564SOL    HW114591   0.764   5.943   1.122
 4564SOL    HW214592   0.874   5.825   1.096
 4565SOL     OW14593   0.656   1.350   5.186
 4565SOL    HW114594   0.718   1.297   5.128
 4565SOL    HW214595   0.670   1.448   5.170
 4566SOL     OW14596   0.223   0.990   0.323
 4566SOL    HW114597   0.218   1.088   0.304
 4566SOL    HW214598   0.229   0.975   0.421
 4567SOL     OW14599   0.484   0.959   6.957
 4567SOL    HW114600   0.576   0.921   6.960
 4567SOL    HW214601   0.435   0.934   0.019
 4568SOL     OW14602   1.995   4.395   5.128
 4568SOL    HW114603   2.033   4.396   5.220
 4568SOL    HW214604   2.034   4.470   5.074
 4569SOL     OW14605   2.045   1.892   3.749
 4569SOL    HW114606   1.993   1.852   3.674
 4569SOL    HW214607   2.014   1.853   3.836
 4570SOL     OW14608   0.105   5.182   3.732
 4570SOL    HW114609   0.186   5.240   3.739
 4570SOL    HW214610   0.064   5.194   3.641
 4571SOL     OW14611   3.481   3.834   5.315
 4571SOL    HW114612   3.382   3.837   5.299
 4571SOL    HW214613   3.513   3.740   5.307
 4572SOL     OW14614   7.006   6.089   6.853
 4572SOL    HW114615   6.966   6.120   6.940
 4572SOL    HW214616   0.022   6.167   6.804
 4573SOL     OW14617   6.051   6.285   0.730
 4573SOL    HW114618   6.058   6.277   0.830
 4573SOL    HW214619   6.080   6.199   0.688
 4574SOL     OW14620   6.954   4.388   1.139
 4574SOL    HW114621   6.933   4.387   1.236
 4574SOL    HW214622   0.017   4.439   1.124
 4575SOL     OW14623   6.552   2.441   0.635
 4575SOL    HW114624   6.548   2.518   0.698
 4575SOL    HW214625   6.492   2.368   0.668
 4576SOL     OW14626   2.339   5.761   6.478
 4576SOL    HW114627   2.398   5.825   6.529
 4576SOL    HW214628   2.260   5.738   6.535
 4577SOL     OW14629   0.217   2.854   2.900
 4577SOL    HW114630   0.312   2.882   2.913
 4577SOL    HW214631   0.169   2.922   2.844
 4578SOL     OW14632   0.310   3.564   3.331
 4578SOL    HW114633   0.301   3.634   3.259
 4578SOL    HW214634   0.324   3.609   3.419
 4579SOL     OW14635   5.174   1.857   3.150
 4579SOL    HW114636   5.266   1.818   3.148
 4579SOL    HW214637   5.110   1.794   3.105
 4580SOL     OW14638   5.303   5.398   0.111
 4580SOL    HW114639   5.276   5.442   0.025
 4580SOL    HW214640   5.402   5.407   0.123
 4581SOL     OW14641   3.081   5.310   2.931
 4581SOL    HW114642   3.159   5.274   2.879
 4581SOL    HW214643   3.093   5.408   2.943
 4582SOL     OW14644   5.938   6.564   4.855
 4582SOL    HW114645   5.929   6.656   4.816
 4582SOL    HW214646   6.028   6.555   4.898
 4583SOL     OW14647   2.811   1.991   4.451
 4583SOL    HW114648   2.871   1.913   4.434
 4583SOL    HW214649   2.845   2.071   4.401
 4584SOL     OW14650   0.492   6.126   5.843
 4584SOL    HW114651   0.506   6.030   5.869
 4584SOL    HW214652   0.502   6.135   5.744
 4585SOL     OW14653   3.075   6.090   2.898
 4585SOL    HW114654   3.092   6.013   2.837
 4585SOL    HW214655   3.121   6.172   2.862
 4586SOL     OW14656   4.149   4.566   0.859
 4586SOL    HW114657   4.239   4.532   0.829
 4586SOL    HW214658   4.158   4.661   0.890
 4587SOL     OW14659   4.156   3.590   1.847
 4587SOL    HW114660   4.221   3.610   1.773
 4587SOL    HW214661   4.186   3.508   1.897
 4588SOL     OW14662   3.995   3.833   5.021
 4588SOL    HW114663   4.018   3.875   5.108
 4588SOL    HW214664   3.982   3.904   4.952
 4589SOL     OW14665   6.122   1.550   2.344
 4589SOL    HW114666   6.192   1.478   2.339
 4589SOL    HW214667   6.032   1.508   2.351
 4590SOL     OW14668   4.323   5.929   1.528
 4590SOL    HW114669   4.378   5.917   1.446
 4590SOL    HW214670   4.358   6.008   1.579
 4591SOL     OW14671   0.325   6.231   5.456
 4591SOL    HW114672   0.265   6.240   5.376
 4591SOL    HW214673   0.294   6.153   5.511
 4592SOL     OW14674   4.095   2.853   1.743
 4592SOL    HW114675   4.047   2.899   1.817
 4592SOL    HW214676   4.193   2.872   1.750
 4593SOL     OW14677   4.176   5.225   3.724
 4593SOL    HW114678   4.203   5.286   3.650
 4593SOL    HW214679   4.082   5.193   3.707
 4594SOL     OW14680   3.150   2.208   1.184
 4594SOL    HW114681   3.200   2.296   1.182
 4594SOL    HW214682   3.201   2.143   1.240
 4595SOL     OW14683   3.414   2.852   5.959
 4595SOL    HW114684   3.408   2.947   5.988
 4595SOL    HW214685   3.510   2.826   5.948
 4596SOL     OW14686   5.717   6.427   2.032
 4596SOL    HW114687   5.706   6.502   2.097
 4596SOL    HW214688   5.716   6.463   1.939
 4597SOL     OW14689   4.890   4.500   6.846
 4597SOL    HW114690   4.930   4.579   6.892
 4597SOL    HW214691   4.796   4.520   6.821
 4598SOL     OW14692   1.215   5.448   6.803
 4598SOL    HW114693   1.169   5.525   6.846
 4598SOL    HW214694   1.195   5.447   6.705
 4599SOL     OW14695   1.341   4.484   1.235
 4599SOL    HW114696   1.419   4.422   1.235
 4599SOL    HW214697   1.309   4.498   1.141
 4600SOL     OW14698   2.438   5.632   5.669
 4600SOL    HW114699   2.433   5.543   5.625
 4600SOL    HW214700   2.467   5.620   5.764
 4601SOL     OW14701   1.712   0.922   5.349
 4601SOL    HW114702   1.706   0.972   5.262
 4601SOL    HW214703   1.774   0.971   5.411
 4602SOL     OW14704   1.054   6.116   0.394
 4602SOL    HW114705   1.023   6.115   0.489
 4602SOL    HW214706   1.033   6.205   0.353
 4603SOL     OW14707   3.807   6.590   1.424
 4603SOL    HW114708   3.778   6.577   1.328
 4603SOL    HW214709   3.783   6.682   1.454
 4604SOL     OW14710   4.760   0.831   1.166
 4604SOL    HW114711   4.830   0.875   1.222
 4604SOL    HW214712   4.740   0.741   1.203
 4605SOL     OW14713   5.227   0.704   3.515
 4605SOL    HW114714   5.327   0.700   3.518
 4605SOL    HW214715   5.189   0.653   3.593
 4606SOL     OW14716   6.879   0.021   2.324
 4606SOL    HW114717   6.795   0.038   2.375
 4606SOL    HW214718   6.944   6.993   2.383
 4607SOL     OW14719   2.674   2.589   0.498
 4607SOL    HW114720   2.678   2.489   0.506
 4607SOL    HW214721   2.732   2.631   0.568
 4608SOL     OW14722   1.695   5.432   4.439
 4608SOL    HW114723   1.691   5.369   4.516
 4608SOL    HW214724   1.613   5.489   4.438
 4609SOL     OW14725   4.178   5.447   6.122
 4609SOL    HW114726   4.179   5.388   6.203
 4609SOL    HW214727   4.186   5.391   6.040
 4610SOL     OW14728   6.813   2.392   0.333
 4610SOL    HW114729   6.805   2.441   0.420
 4610SOL    HW214730   6.742   2.425   0.270
 4611SOL     OW14731   6.244   4.853   5.584
 4611SOL    HW114732   6.337   4.816   5.581
 4611SOL    HW214733   6.179   4.782   5.559
 4612SOL     OW14734   1.754   6.584   0.176
 4612SOL    HW114735   1.815   6.553   0.103
 4612SOL    HW214736   1.808   6.621   0.252
 4613SOL     OW14737   2.603   5.701   2.459
 4613SOL    HW114738   2.608   5.800   2.472
 4613SOL    HW214739   2.548   5.682   2.377
 4614SOL     OW14740   1.292   4.888   5.834
 4614SOL    HW114741   1.267   4.984   5.849
 4614SOL    HW214742   1.230   4.848   5.767
 4615SOL     OW14743   2.221   0.910   0.094
 4615SOL    HW114744   2.292   0.958   0.043
 4615SOL    HW214745   2.164   0.977   0.142
 4616SOL     OW14746   6.929   0.044   5.772
 4616SOL    HW114747   6.985   0.058   5.690
 4616SOL    HW214748   6.959   0.107   5.844
 4617SOL     OW14749   1.483   2.316   2.673
 4617SOL    HW114750   1.418   2.268   2.614
 4617SOL    HW214751   1.461   2.297   2.769
 4618SOL     OW14752   1.402   2.994   5.297
 4618SOL    HW114753   1.462   2.931   5.346
 4618SOL    HW214754   1.457   3.052   5.237
 4619SOL     OW14755   5.079   6.371   3.661
 4619SOL    HW114756   5.172   6.334   3.665
 4619SOL    HW214757   5.021   6.320   3.725
 4620SOL     OW14758   3.253   3.820   6.783
 4620SOL    HW114759   3.257   3.832   6.684
 4620SOL    HW214760   3.229   3.725   6.804
 4621SOL     OW14761   5.899   2.100   3.520
 4621SOL    HW114762   5.928   2.039   3.446
 4621SOL    HW214763   5.917   2.195   3.493
 4622SOL     OW14764   0.538   3.107   0.995
 4622SOL    HW114765   0.537   3.205   0.976
 4622SOL    HW214766   0.518   3.057   0.911
 4623SOL     OW14767   6.951   5.803   1.029
 4623SOL    HW114768   6.980   5.876   1.090
 4623SOL    HW214769   6.877   5.751   1.072
 4624SOL     OW14770   4.281   0.048   3.132
 4624SOL    HW114771   4.303   0.090   3.044
 4624SOL    HW214772   4.195   0.086   3.166
 4625SOL     OW14773   1.228   4.247   6.979
 4625SOL    HW114774   1.260   4.258   6.885
 4625SOL    HW214775   1.137   4.289   6.988
 4626SOL     OW14776   5.998   4.966   1.138
 4626SOL    HW114777   5.922   4.902   1.130
 4626SOL    HW214778   5.973   5.042   1.198
 4627SOL     OW14779   3.260   5.704   4.881
 4627SOL    HW114780   3.266   5.773   4.953
 4627SOL    HW214781   3.238   5.615   4.921
 4628SOL     OW14782   5.985   4.526   3.149
 4628SOL    HW114783   6.016   4.447   3.203
 4628SOL    HW214784   5.971   4.497   3.054
 4629SOL     OW14785   2.120   4.881   5.994
 4629SOL    HW114786   2.202   4.871   6.051
 4629SOL    HW214787   2.142   4.935   5.913
 4630SOL     OW14788   3.563   5.872   3.426
 4630SOL    HW114789   3.533   5.777   3.415
 4630SOL    HW214790   3.594   5.907   3.337
 4631SOL     OW14791   2.724   6.635   3.509
 4631SOL    HW114792   2.784   6.710   3.539
 4631SOL    HW214793   2.642   6.674   3.466
 4632SOL     OW14794   4.516   4.811   2.810
 4632SOL    HW114795   4.562   4.866   2.741
 4632SOL    HW214796   4.457   4.743   2.766
 4633SOL     OW14797   6.090   1.852   3.866
 4633SOL    HW114798   6.153   1.838   3.790
 4633SOL    HW214799   6.140   1.851   3.953
 4634SOL     OW14800   2.253   4.156   6.642
 4634SOL    HW114801   2.350   4.138   6.627
 4634SOL    HW214802   2.242   4.241   6.694
 4635SOL     OW14803   5.989   4.059   2.360
 4635SOL    HW114804   6.028   4.112   2.285
 4635SOL    HW214805   6.059   4.042   2.429
 4636SOL     OW14806   2.019   4.732   6.884
 4636SOL    HW114807   2.010   4.644   6.836
 4636SOL    HW214808   2.104   4.776   6.857
 4637SOL     OW14809   2.011   0.582   0.351
 4637SOL    HW114810   2.053   0.669   0.376
 4637SOL    HW214811   2.074   0.507   0.371
 4638SOL     OW14812   3.331   2.787   6.213
 4638SOL    HW114813   3.350   2.791   6.115
 4638SOL    HW214814   3.259   2.720   6.231
 4639SOL     OW14815   1.923   4.901   5.598
 4639SOL    HW114816   1.867   4.820   5.615
 4639SOL    HW214817   1.901   4.938   5.507
 4640SOL     OW14818   4.511   5.023   3.343
 4640SOL    HW114819   4.456   5.074   3.278
 4640SOL    HW214820   4.469   5.028   3.434
 4641SOL     OW14821   2.711   5.453   3.962
 4641SOL    HW114822   2.802   5.476   3.998
 4641SOL    HW214823   2.668   5.386   4.022
 4642SOL     OW14824   0.698   6.379   4.997
 4642SOL    HW114825   0.775   6.324   5.028
 4642SOL    HW214826   0.614   6.324   4.999
 4643SOL     OW14827   5.010   2.607   0.927
 4643SOL    HW114828   4.938   2.541   0.949
 4643SOL    HW214829   4.976   2.700   0.943
 4644SOL     OW14830   1.272   4.643   4.481
 4644SOL    HW114831   1.296   4.682   4.392
 4644SOL    HW214832   1.226   4.713   4.537
 4645SOL     OW14833   1.571   0.230   4.374
 4645SOL    HW114834   1.592   0.283   4.292
 4645SOL    HW214835   1.645   0.242   4.441
 4646SOL     OW14836   2.079   6.395   2.752
 4646SOL    HW114837   2.058   6.469   2.689
 4646SOL    HW214838   2.163   6.348   2.722
 4647SOL     OW14839   0.578   6.677   2.967
 4647SOL    HW114840   0.614   6.755   2.916
 4647SOL    HW214841   0.481   6.691   2.986
 4648SOL     OW14842   3.979   0.160   1.152
 4648SOL    HW114843   3.957   0.257   1.147
 4648SOL    HW214844   3.967   0.118   1.062
 4649SOL     OW14845   5.145   6.875   6.017
 4649SOL    HW114846   5.162   6.832   6.105
 4649SOL    HW214847   5.227   6.866   5.959
 4650SOL     OW14848   3.890   6.094   3.445
 4650SOL    HW114849   3.946   6.121   3.367
 4650SOL    HW214850   3.853   6.176   3.489
 4651SOL     OW14851   0.200   1.929   0.925
 4651SOL    HW114852   0.278   1.951   0.867
 4651SOL    HW214853   0.220   1.955   1.019
 4652SOL     OW14854   0.594   0.227   3.562
 4652SOL    HW114855   0.532   0.149   3.556
 4652SOL    HW214856   0.543   0.308   3.590
 4653SOL     OW14857   6.639   5.330   0.200
 4653SOL    HW114858   6.721   5.366   0.155
 4653SOL    HW214859   6.661   5.243   0.244
 4654SOL     OW14860   0.571   0.122   0.130
 4654SOL    HW114861   0.565   0.172   0.217
 4654SOL    HW214862   0.478   0.104   0.096
 4655SOL     OW14863   6.821   5.182   1.537
 4655SOL    HW114864   6.796   5.126   1.616
 4655SOL    HW214865   6.868   5.265   1.569
 4656SOL     OW14866   0.863   6.825   3.310
 4656SOL    HW114867   0.773   6.837   3.269
 4656SOL    HW214868   0.885   6.727   3.313
 4657SOL     OW14869   5.002   0.075   1.586
 4657SOL    HW114870   4.967   0.054   1.495
 4657SOL    HW214871   5.049   7.017   1.623
 4658SOL     OW14872   3.291   0.434   2.663
 4658SOL    HW114873   3.365   0.500   2.658
 4658SOL    HW214874   3.222   0.456   2.594
 4659SOL     OW14875   2.376   3.970   5.726
 4659SOL    HW114876   2.396   3.991   5.631
 4659SOL    HW214877   2.298   3.908   5.731
 4660SOL     OW14878   1.276   2.525   4.920
 4660SOL    HW114879   1.232   2.581   4.991
 4660SOL    HW214880   1.366   2.563   4.899
 4661SOL     OW14881   4.364   4.381   5.629
 4661SOL    HW114882   4.380   4.321   5.551
 4661SOL    HW214883   4.408   4.343   5.710
 4662SOL     OW14884   5.113   0.336   4.748
 4662SOL    HW114885   5.160   0.311   4.664
 4662SOL    HW214886   5.014   0.334   4.734
 4663SOL     OW14887   0.213   0.934   2.496
 4663SOL    HW114888   0.181   0.897   2.584
 4663SOL    HW214889   0.293   0.882   2.466
 4664SOL     OW14890   1.825   2.481   6.725
 4664SOL    HW114891   1.735   2.447   6.700
 4664SOL    HW214892   1.886   2.477   6.645
 4665SOL     OW14893   4.311   0.006   0.145
 4665SOL    HW114894   4.375   0.083   0.137
 4665SOL    HW214895   4.363   6.942   0.148
 4666SOL     OW14896   2.083   1.668   6.803
 4666SOL    HW114897   1.984   1.667   6.791
 4666SOL    HW214898   2.110   1.592   6.862
 4667SOL     OW14899   6.664   5.114   0.390
 4667SOL    HW114900   6.672   5.018   0.416
 4667SOL    HW214901   6.569   5.143   0.396
 4668SOL     OW14902   6.860   1.666   4.064
 4668SOL    HW114903   6.898   1.629   4.150
 4668SOL    HW214904   6.888   1.761   4.055
 4669SOL     OW14905   3.813   6.498   0.829
 4669SOL    HW114906   3.779   6.586   0.796
 4669SOL    HW214907   3.736   6.440   0.855
 4670SOL     OW14908   3.169   1.487   4.801
 4670SOL    HW114909   3.077   1.454   4.777
 4670SOL    HW214910   3.235   1.413   4.788
 4671SOL     OW14911   6.145   2.820   2.051
 4671SOL    HW114912   6.085   2.852   1.977
 4671SOL    HW214913   6.215   2.759   2.014
 4672SOL     OW14914   2.581   4.773   5.999
 4672SOL    HW114915   2.601   4.676   5.982
 4672SOL    HW214916   2.618   4.828   5.924
 4673SOL     OW14917   4.903   6.862   1.168
 4673SOL    HW114918   4.932   6.869   1.073
 4673SOL    HW214919   4.935   6.942   1.219
 4674SOL     OW14920   5.422   6.114   5.922
 4674SOL    HW114921   5.374   6.196   5.953
 4674SOL    HW214922   5.470   6.073   5.998
 4675SOL     OW14923   0.474   3.482   0.402
 4675SOL    HW114924   0.530   3.480   0.320
 4675SOL    HW214925   0.500   3.560   0.459
 4676SOL     OW14926   0.773   6.057   4.184
 4676SOL    HW114927   0.855   6.017   4.226
 4676SOL    HW214928   0.724   5.987   4.133
 4677SOL     OW14929   2.087   2.094   0.789
 4677SOL    HW114930   1.996   2.060   0.811
 4677SOL    HW214931   2.081   2.189   0.758
 4678SOL     OW14932   2.662   4.728   2.733
 4678SOL    HW114933   2.678   4.705   2.829
 4678SOL    HW214934   2.576   4.688   2.703
 4679SOL     OW14935   3.910   0.029   1.815
 4679SOL    HW114936   3.915   6.968   1.760
 4679SOL    HW214937   3.819   0.069   1.808
 4680SOL     OW14938   3.888   1.623   0.118
 4680SOL    HW114939   3.802   1.645   0.163
 4680SOL    HW214940   3.947   1.574   0.183
 4681SOL     OW14941   4.780   4.844   6.786
 4681SOL    HW114942   4.858   4.789   6.757
 4681SOL    HW214943   4.788   4.864   6.883
 4682SOL     OW14944   5.290   3.955   6.181
 4682SOL    HW114945   5.371   3.897   6.186
 4682SOL    HW214946   5.211   3.907   6.219
 4683SOL     OW14947   5.674   5.389   2.172
 4683SOL    HW114948   5.759   5.416   2.126
 4683SOL    HW214949   5.696   5.351   2.262
 4684SOL     OW14950   4.369   6.408   5.743
 4684SOL    HW114951   4.280   6.367   5.764
 4684SOL    HW214952   4.442   6.354   5.785
 4685SOL     OW14953   2.341   4.801   6.157
 4685SOL    HW114954   2.290   4.732   6.209
 4685SOL    HW214955   2.426   4.761   6.122
 4686SOL     OW14956   4.542   5.502   0.617
 4686SOL    HW114957   4.538   5.581   0.555
 4686SOL    HW214958   4.632   5.458   0.609
 4687SOL     OW14959   4.983   2.750   4.480
 4687SOL    HW114960   4.928   2.786   4.556
 4687SOL    HW214961   5.079   2.768   4.498
 4688SOL     OW14962   5.281   2.767   5.468
 4688SOL    HW114963   5.379   2.765   5.487
 4688SOL    HW214964   5.252   2.861   5.452
 4689SOL     OW14965   5.671   1.132   1.180
 4689SOL    HW114966   5.728   1.050   1.166
 4689SOL    HW214967   5.585   1.121   1.131
 4690SOL     OW14968   1.683   1.541   0.790
 4690SOL    HW114969   1.753   1.506   0.728
 4690SOL    HW214970   1.630   1.465   0.827
 4691SOL     OW14971   3.934   4.046   0.064
 4691SOL    HW114972   3.850   3.993   0.053
 4691SOL    HW214973   3.933   4.125   0.003
 4692SOL     OW14974   5.789   5.144   2.976
 4692SOL    HW114975   5.760   5.067   2.919
 4692SOL    HW214976   5.724   5.219   2.966
 4693SOL     OW14977   1.033   0.925   3.682
 4693SOL    HW114978   0.997   0.834   3.661
 4693SOL    HW214979   1.053   0.974   3.598
 4694SOL     OW14980   1.995   2.693   0.612
 4694SOL    HW114981   2.023   2.615   0.555
 4694SOL    HW214982   1.920   2.665   0.671
 4695SOL     OW14983   1.716   5.931   0.669
 4695SOL    HW114984   1.629   5.894   0.638
 4695SOL    HW214985   1.700   5.998   0.742
 4696SOL     OW14986   0.397   5.594   6.430
 4696SOL    HW114987   0.495   5.571   6.434
 4696SOL    HW214988   0.381   5.653   6.350
 4697SOL     OW14989   1.092   3.878   2.320
 4697SOL    HW114990   1.035   3.961   2.322
 4697SOL    HW214991   1.057   3.813   2.388
 4698SOL     OW14992   4.052   6.793   3.226
 4698SOL    HW114993   4.014   6.778   3.318
 4698SOL    HW214994   4.064   6.891   3.211
 4699SOL     OW14995   0.261   6.240   2.813
 4699SOL    HW114996   0.206   6.304   2.759
 4699SOL    HW214997   0.231   6.244   2.908
 4700SOL     OW14998   6.484   1.260   2.158
 4700SOL    HW114999   6.571   1.284   2.115
 4700SOL    HW215000   6.486   1.164   2.187
 4701SOL     OW15001   3.603   1.931   0.573
 4701SOL    HW115002   3.565   1.933   0.666
 4701SOL    HW215003   3.546   1.873   0.515
 4702SOL     OW15004   4.625   4.560   0.690
 4702SOL    HW115005   4.623   4.469   0.731
 4702SOL    HW215006   4.712   4.573   0.641
 4703SOL     OW15007   0.949   6.122   3.053
 4703SOL    HW115008   0.927   6.116   3.151
 4703SOL    HW215009   1.048   6.118   3.041
 4704SOL     OW15010   6.863   5.879   5.973
 4704SOL    HW115011   6.857   5.973   6.008
 4704SOL    HW215012   6.925   5.878   5.894
 4705SOL     OW15013   3.260   2.315   0.736
 4705SOL    HW115014   3.173   2.317   0.784
 4705SOL    HW215015   3.255   2.249   0.661
 4706SOL     OW15016   1.231   0.944   0.410
 4706SOL    HW115017   1.281   0.859   0.391
 4706SOL    HW215018   1.267   1.017   0.352
 4707SOL     OW15019   0.875   5.954   1.473
 4707SOL    HW115020   0.791   5.904   1.453
 4707SOL    HW215021   0.929   5.962   1.389
 4708SOL     OW15022   0.912   1.998   5.723
 4708SOL    HW115023   0.836   2.062   5.710
 4708SOL    HW215024   0.969   2.030   5.798
 4709SOL     OW15025   4.751   5.222   4.594
 4709SOL    HW115026   4.713   5.240   4.504
 4709SOL    HW215027   4.771   5.124   4.604
 4710SOL     OW15028   5.769   0.051   5.998
 4710SOL    HW115029   5.745   0.017   5.907
 4710SOL    HW215030   5.841   7.015   6.037
 4711SOL     OW15031   6.656   1.575   2.461
 4711SOL    HW115032   6.649   1.476   2.454
 4711SOL    HW215033   6.575   1.611   2.508
 4712SOL     OW15034   3.794   4.850   6.652
 4712SOL    HW115035   3.751   4.790   6.719
 4712SOL    HW215036   3.746   4.938   6.650
 4713SOL     OW15037   5.041   5.740   0.594
 4713SOL    HW115038   5.020   5.834   0.568
 4713SOL    HW215039   5.039   5.732   0.694
 4714SOL     OW15040   0.569   1.209   6.241
 4714SOL    HW115041   0.534   1.298   6.213
 4714SOL    HW215042   0.495   1.156   6.284
 4715SOL     OW15043   6.168   2.954   1.588
 4715SOL    HW115044   6.249   2.896   1.598
 4715SOL    HW215045   6.173   3.005   1.502
 4716SOL     OW15046   4.793   6.404   5.593
 4716SOL    HW115047   4.717   6.467   5.611
 4716SOL    HW215048   4.863   6.415   5.663
 4717SOL     OW15049   1.669   5.198   5.252
 4717SOL    HW115050   1.585   5.147   5.233
 4717SOL    HW215051   1.667   5.285   5.203
 4718SOL     OW15052   5.223   2.376   1.358
 4718SOL    HW115053   5.252   2.384   1.453
 4718SOL    HW215054   5.186   2.284   1.343
 4719SOL     OW15055   4.904   3.885   2.622
 4719SOL    HW115056   4.946   3.937   2.548
 4719SOL    HW215057   4.842   3.944   2.675
 4720SOL     OW15058   1.797   4.526   6.327
 4720SOL    HW115059   1.830   4.620   6.334
 4720SOL    HW215060   1.783   4.503   6.231
 4721SOL     OW15061   6.193   2.381   1.950
 4721SOL    HW115062   6.109   2.426   1.981
 4721SOL    HW215063   6.214   2.304   2.011
 4722SOL     OW15064   0.940   6.338   6.831
 4722SOL    HW115065   1.035   6.340   6.801
 4722SOL    HW215066   0.880   6.339   6.751
 4723SOL     OW15067   3.503   3.999   5.061
 4723SOL    HW115068   3.493   3.950   5.148
 4723SOL    HW215069   3.552   4.084   5.076
 4724SOL     OW15070   0.100   0.020   4.249
 4724SOL    HW115071   0.016   0.003   4.197
 4724SOL    HW215072   0.166   6.968   4.231
 4725SOL     OW15073   5.823   4.699   0.289
 4725SOL    HW115074   5.905   4.753   0.269
 4725SOL    HW215075   5.812   4.690   0.388
 4726SOL     OW15076   1.194   3.377   5.989
 4726SOL    HW115077   1.215   3.307   6.058
 4726SOL    HW215078   1.237   3.463   6.015
 4727SOL     OW15079   6.948   6.217   1.143
 4727SOL    HW115080   6.867   6.232   1.200
 4727SOL    HW215081   6.992   6.132   1.170
 4728SOL     OW15082   6.930   0.965   2.931
 4728SOL    HW115083   6.895   1.005   2.847
 4728SOL    HW215084   6.895   1.016   3.010
 4729SOL     OW15085   4.640   0.992   0.475
 4729SOL    HW115086   4.639   1.027   0.381
 4729SOL    HW215087   4.664   0.895   0.474
 4730SOL     OW15088   3.687   5.783   5.896
 4730SOL    HW115089   3.590   5.781   5.921
 4730SOL    HW215090   3.706   5.709   5.832
 4731SOL     OW15091   2.915   0.874   0.807
 4731SOL    HW115092   2.861   0.912   0.882
 4731SOL    HW215093   2.999   0.926   0.797
 4732SOL     OW15094   0.090   2.967   5.224
 4732SOL    HW115095   0.125   2.989   5.133
 4732SOL    HW215096   0.155   2.907   5.271
 4733SOL     OW15097   1.020   4.179   2.951
 4733SOL    HW115098   1.115   4.178   2.918
 4733SOL    HW215099   0.958   4.191   2.874
 4734SOL     OW15100   5.098   3.215   0.267
 4734SOL    HW115101   5.129   3.131   0.312
 4734SOL    HW215102   5.050   3.192   0.182
 4735SOL     OW15103   6.335   5.295   4.218
 4735SOL    HW115104   6.257   5.246   4.180
 4735SOL    HW215105   6.416   5.278   4.163
 4736SOL     OW15106   5.470   1.530   4.523
 4736SOL    HW115107   5.554   1.579   4.547
 4736SOL    HW215108   5.402   1.595   4.489
 4737SOL     OW15109   2.316   4.336   0.607
 4737SOL    HW115110   2.389   4.276   0.575
 4737SOL    HW215111   2.332   4.360   0.703
 4738SOL     OW15112   3.026   6.412   3.655
 4738SOL    HW115113   2.963   6.464   3.712
 4738SOL    HW215114   3.006   6.430   3.559
 4739SOL     OW15115   5.828   1.746   3.797
 4739SOL    HW115116   5.926   1.749   3.819
 4739SOL    HW215117   5.799   1.652   3.783
 4740SOL     OW15118   1.143   0.719   0.605
 4740SOL    HW115119   1.086   0.667   0.543
 4740SOL    HW215120   1.158   0.811   0.568
 4741SOL     OW15121   4.586   3.495   1.162
 4741SOL    HW115122   4.554   3.443   1.240
 4741SOL    HW215123   4.566   3.445   1.078
 4742SOL     OW15124   3.496   6.063   1.894
 4742SOL    HW115125   3.458   6.152   1.917
 4742SOL    HW215126   3.590   6.057   1.927
 4743SOL     OW15127   1.652   2.102   5.764
 4743SOL    HW115128   1.663   2.006   5.791
 4743SOL    HW215129   1.564   2.136   5.797
 4744SOL     OW15130   2.621   3.030   5.841
 4744SOL    HW115131   2.583   3.117   5.874
 4744SOL    HW215132   2.646   3.039   5.745
 4745SOL     OW15133   2.360   5.143   5.097
 4745SOL    HW115134   2.452   5.115   5.069
 4745SOL    HW215135   2.367   5.217   5.164
 4746SOL     OW15136   6.004   6.287   1.620
 4746SOL    HW115137   5.952   6.364   1.583
 4746SOL    HW215138   5.954   6.202   1.605
 4747SOL     OW15139   1.338   3.578   6.121
 4747SOL    HW115140   1.348   3.562   6.219
 4747SOL    HW215141   1.419   3.625   6.086
 4748SOL     OW15142   1.534   5.414   1.242
 4748SOL    HW115143   1.578   5.440   1.156
 4748SOL    HW215144   1.435   5.429   1.234
 4749SOL     OW15145   2.801   6.349   5.926
 4749SOL    HW115146   2.732   6.379   5.992
 4749SOL    HW215147   2.872   6.419   5.918
 4750SOL     OW15148   0.234   2.175   4.132
 4750SOL    HW115149   0.236   2.221   4.043
 4750SOL    HW215150   0.177   2.093   4.127
 4751SOL     OW15151   2.084   3.869   0.294
 4751SOL    HW115152   2.146   3.857   0.216
 4751SOL    HW215153   2.117   3.944   0.352
 4752SOL     OW15154   3.041   0.087   0.570
 4752SOL    HW115155   3.110   0.154   0.544
 4752SOL    HW215156   2.975   0.130   0.632
 4753SOL     OW15157   5.148   0.285   3.928
 4753SOL    HW115158   5.068   0.268   3.870
 4753SOL    HW215159   5.177   0.198   3.969
 4754SOL     OW15160   5.880   0.556   5.482
 4754SOL    HW115161   5.863   0.646   5.523
 4754SOL    HW215162   5.979   0.541   5.475
 4755SOL     OW15163   2.593   0.898   0.035
 4755SOL    HW115164   2.536   0.824   0.071
 4755SOL    HW215165   2.690   0.873   0.043
 4756SOL     OW15166   5.979   2.120   1.334
 4756SOL    HW115167   6.004   2.173   1.415
 4756SOL    HW215168   5.880   2.111   1.329
 4757SOL     OW15169   1.627   1.855   2.417
 4757SOL    HW115170   1.552   1.910   2.380
 4757SOL    HW215171   1.644   1.883   2.512
 4758SOL     OW15172   3.361   5.500   4.697
 4758SOL    HW115173   3.301   5.575   4.726
 4758SOL    HW215174   3.360   5.493   4.597
 4759SOL     OW15175   5.802   5.447   5.319
 4759SOL    HW115176   5.794   5.468   5.221
 4759SOL    HW215177   5.849   5.359   5.330
 4760SOL     OW15178   3.022   2.345   0.919
 4760SOL    HW115179   2.999   2.248   0.908
 4760SOL    HW215180   2.998   2.375   1.012
 4761SOL     OW15181   0.080   0.496   6.637
 4761SOL    HW115182   0.114   0.581   6.597
 4761SOL    HW215183   7.007   0.508   6.665
 4762SOL     OW15184   2.776   5.056   3.076
 4762SOL    HW115185   2.691   5.019   3.114
 4762SOL    HW215186   2.806   4.999   2.999
 4763SOL     OW15187   5.854   6.415   3.553
 4763SOL    HW115188   5.941   6.409   3.602
 4763SOL    HW215189   5.865   6.470   3.471
 4764SOL     OW15190   5.079   3.884   5.805
 4764SOL    HW115191   5.019   3.805   5.820
 4764SOL    HW215192   5.056   3.929   5.719
 4765SOL     OW15193   5.406   6.914   4.146
 4765SOL    HW115194   5.421   6.885   4.240
 4765SOL    HW215195   5.368   6.838   4.093
 4766SOL     OW15196   4.271   0.375   3.553
 4766SOL    HW115197   4.232   0.438   3.620
 4766SOL    HW215198   4.251   0.281   3.580
 4767SOL     OW15199   4.338   5.831   6.148
 4767SOL    HW115200   4.361   5.916   6.100
 4767SOL    HW215201   4.364   5.753   6.091
 4768SOL     OW15202   5.045   2.059   5.498
 4768SOL    HW115203   5.093   2.047   5.585
 4768SOL    HW215204   5.110   2.050   5.423
 4769SOL     OW15205   4.754   5.241   1.123
 4769SOL    HW115206   4.820   5.213   1.052
 4769SOL    HW215207   4.667   5.263   1.080
 4770SOL     OW15208   1.847   7.021   3.784
 4770SOL    HW115209   1.796   0.025   3.702
 4770SOL    HW215210   1.785   6.975   3.848
 4771SOL     OW15211   3.489   5.484   5.859
 4771SOL    HW115212   3.512   5.420   5.933
 4771SOL    HW215213   3.454   5.569   5.898
 4772SOL     OW15214   2.267   5.940   2.440
 4772SOL    HW115215   2.168   5.932   2.456
 4772SOL    HW215216   2.286   6.024   2.389
 4773SOL     OW15217   6.721   4.940   5.142
 4773SOL    HW115218   6.754   4.957   5.235
 4773SOL    HW215219   6.792   4.967   5.077
 4774SOL     OW15220   1.032   2.051   1.723
 4774SOL    HW115221   1.050   1.956   1.748
 4774SOL    HW215222   1.064   2.111   1.795
 4775SOL     OW15223   5.030   0.129   2.901
 4775SOL    HW115224   5.004   0.033   2.907
 4775SOL    HW215225   5.062   0.160   2.991
 4776SOL     OW15226   1.468   6.782   4.123
 4776SOL    HW115227   1.416   6.700   4.149
 4776SOL    HW215228   1.418   6.833   4.054
 4777SOL     OW15229   3.153   4.771   1.455
 4777SOL    HW115230   3.116   4.696   1.509
 4777SOL    HW215231   3.250   4.783   1.476
 4778SOL     OW15232   5.158   2.104   2.160
 4778SOL    HW115233   5.164   2.131   2.064
 4778SOL    HW215234   5.235   2.142   2.210
 4779SOL     OW15235   6.701   6.269   2.300
 4779SOL    HW115236   6.758   6.251   2.381
 4779SOL    HW215237   6.731   6.211   2.225
 4780SOL     OW15238   0.099   0.350   0.063
 4780SOL    HW115239   0.032   0.407   0.016
 4780SOL    HW215240   0.172   0.325   7.022
 4781SOL     OW15241   2.713   6.132   0.879
 4781SOL    HW115242   2.640   6.201   0.877
 4781SOL    HW215243   2.698   6.066   0.806
 4782SOL     OW15244   4.424   6.589   0.075
 4782SOL    HW115245   4.414   6.643   0.159
 4782SOL    HW215246   4.521   6.576   0.055
 4783SOL     OW15247   5.006   3.941   0.162
 4783SOL    HW115248   4.973   4.001   0.236
 4783SOL    HW215249   5.022   3.849   0.198
 4784SOL     OW15250   6.491   3.705   6.988
 4784SOL    HW115251   6.457   3.688   6.896
 4784SOL    HW215252   6.523   3.619   0.006
 4785SOL     OW15253   6.526   5.694   1.566
 4785SOL    HW115254   6.495   5.788   1.552
 4785SOL    HW215255   6.626   5.692   1.570
 4786SOL     OW15256   2.463   2.031   1.988
 4786SOL    HW115257   2.373   2.059   1.954
 4786SOL    HW215258   2.534   2.079   1.938
 4787SOL     OW15259   3.557   1.959   3.496
 4787SOL    HW115260   3.532   1.990   3.588
 4787SOL    HW215261   3.525   1.865   3.484
 4788SOL     OW15262   1.129   5.448   6.248
 4788SOL    HW115263   1.215   5.488   6.279
 4788SOL    HW215264   1.105   5.372   6.308
 4789SOL     OW15265   5.335   0.696   0.436
 4789SOL    HW115266   5.356   0.638   0.515
 4789SOL    HW215267   5.419   0.738   0.403
 4790SOL     OW15268   6.705   3.146   6.077
 4790SOL    HW115269   6.621   3.139   6.023
 4790SOL    HW215270   6.774   3.195   6.023
 4791SOL     OW15271   5.875   2.043   1.775
 4791SOL    HW115272   5.827   1.963   1.739
 4791SOL    HW215273   5.861   2.049   1.874
 4792SOL     OW15274   1.836   3.315   2.703
 4792SOL    HW115275   1.783   3.268   2.773
 4792SOL    HW215276   1.795   3.403   2.683
 4793SOL     OW15277   1.122   2.978   6.260
 4793SOL    HW115278   1.048   3.036   6.294
 4793SOL    HW215279   1.194   2.972   6.328
 4794SOL     OW15280   4.370   0.987   3.574
 4794SOL    HW115281   4.413   1.018   3.659
 4794SOL    HW215282   4.396   0.892   3.556
 4795SOL     OW15283   6.371   1.163   3.332
 4795SOL    HW115284   6.335   1.199   3.418
 4795SOL    HW215285   6.381   1.064   3.339
 4796SOL     OW15286   5.367   2.266   6.365
 4796SOL    HW115287   5.404   2.202   6.433
 4796SOL    HW215288   5.275   2.237   6.340
 4797SOL     OW15289   1.430   6.510   4.919
 4797SOL    HW115290   1.528   6.523   4.905
 4797SOL    HW215291   1.413   6.467   5.007
 4798SOL     OW15292   0.006   3.078   5.472
 4798SOL    HW115293   7.021   2.980   5.489
 4798SOL    HW215294   0.064   3.095   5.392
 4799SOL     OW15295   5.043   2.093   6.344
 4799SOL    HW115296   4.982   2.019   6.314
 4799SOL    HW215297   5.107   2.057   6.412
 4800SOL     OW15298   2.854   3.514   5.694
 4800SOL    HW115299   2.939   3.527   5.642
 4800SOL    HW215300   2.871   3.448   5.767
 4801SOL     OW15301   2.507   2.439   0.244
 4801SOL    HW115302   2.585   2.397   0.291
 4801SOL    HW215303   2.436   2.371   0.229
 4802SOL     OW15304   0.805   6.518   2.276
 4802SOL    HW115305   0.716   6.477   2.257
 4802SOL    HW215306   0.801   6.568   2.362
 4803SOL     OW15307   1.023   6.678   0.571
 4803SOL    HW115308   0.967   6.737   0.514
 4803SOL    HW215309   1.083   6.734   0.628
 4804SOL     OW15310   4.441   5.531   6.488
 4804SOL    HW115311   4.538   5.535   6.514
 4804SOL    HW215312   4.434   5.502   6.393
 4805SOL     OW15313   6.040   6.821   1.299
 4805SOL    HW115314   6.105   6.873   1.354
 4805SOL    HW215315   6.084   6.737   1.267
 4806SOL     OW15316   0.289   4.523   2.954
 4806SOL    HW115317   0.269   4.439   3.005
 4806SOL    HW215318   0.205   4.558   2.912
 4807SOL     OW15319   1.157   5.360   0.647
 4807SOL    HW115320   1.065   5.391   0.624
 4807SOL    HW215321   1.194   5.416   0.720
 4808SOL     OW15322   6.602   3.713   6.604
 4808SOL    HW115323   6.513   3.709   6.650
 4808SOL    HW215324   6.659   3.638   6.635
 4809SOL     OW15325   3.517   4.138   6.671
 4809SOL    HW115326   3.496   4.189   6.755
 4809SOL    HW215327   3.583   4.190   6.616
 4810SOL     OW15328   1.191   5.118   2.453
 4810SOL    HW115329   1.160   5.210   2.477
 4810SOL    HW215330   1.114   5.066   2.417
 4811SOL     OW15331   2.178   4.579   2.176
 4811SOL    HW115332   2.234   4.499   2.154
 4811SOL    HW215333   2.118   4.557   2.253
 4812SOL     OW15334   0.309   5.177   5.404
 4812SOL    HW115335   0.396   5.154   5.447
 4812SOL    HW215336   0.325   5.240   5.328
 4813SOL     OW15337   5.508   1.934   1.169
 4813SOL    HW115338   5.497   1.906   1.264
 4813SOL    HW215339   5.418   1.959   1.132
 4814SOL     OW15340   5.768   4.451   0.690
 4814SOL    HW115341   5.791   4.401   0.774
 4814SOL    HW215342   5.799   4.399   0.611
 4815SOL     OW15343   5.296   4.420   2.758
 4815SOL    HW115344   5.248   4.339   2.726
 4815SOL    HW215345   5.239   4.501   2.744
 4816SOL     OW15346   6.489   5.275   2.824
 4816SOL    HW115347   6.491   5.368   2.861
 4816SOL    HW215348   6.567   5.223   2.861
 4817SOL     OW15349   0.848   1.908   6.358
 4817SOL    HW115350   0.867   1.991   6.410
 4817SOL    HW215351   0.769   1.861   6.398
 4818SOL     OW15352   0.712   0.073   4.424
 4818SOL    HW115353   0.661   0.068   4.338
 4818SOL    HW215354   0.795   0.017   4.416
 4819SOL     OW15355   1.381   2.651   0.570
 4819SOL    HW115356   1.383   2.648   0.670
 4819SOL    HW215357   1.298   2.607   0.537
 4820SOL     OW15358   6.897   2.880   1.821
 4820SOL    HW115359   6.840   2.872   1.739
 4820SOL    HW215360   6.890   2.795   1.874
 4821SOL     OW15361   0.564   6.233   2.791
 4821SOL    HW115362   0.577   6.211   2.888
 4821SOL    HW215363   0.468   6.256   2.775
 4822SOL     OW15364   1.299   3.483   4.796
 4822SOL    HW115365   1.236   3.447   4.727
 4822SOL    HW215366   1.363   3.547   4.753
 4823SOL     OW15367   1.834   1.716   3.648
 4823SOL    HW115368   1.774   1.670   3.713
 4823SOL    HW215369   1.831   1.668   3.560
 4824SOL     OW15370   5.375   2.281   5.604
 4824SOL    HW115371   5.447   2.280   5.534
 4824SOL    HW215372   5.326   2.368   5.599
 4825SOL     OW15373   1.454   2.270   4.327
 4825SOL    HW115374   1.440   2.172   4.336
 4825SOL    HW215375   1.421   2.316   4.410
 4826SOL     OW15376   5.922   0.365   0.644
 4826SOL    HW115377   5.974   0.280   0.638
 4826SOL    HW215378   5.907   0.388   0.740
 4827SOL     OW15379   6.408   2.163   1.059
 4827SOL    HW115380   6.405   2.236   1.128
 4827SOL    HW215381   6.410   2.204   0.968
 4828SOL     OW15382   5.386   0.878   1.104
 4828SOL    HW115383   5.358   0.871   1.008
 4828SOL    HW215384   5.349   0.962   1.144
 4829SOL     OW15385   3.924   0.315   6.412
 4829SOL    HW115386   3.979   0.381   6.464
 4829SOL    HW215387   3.857   0.272   6.473
 4830SOL     OW15388   3.601   5.574   3.906
 4830SOL    HW115389   3.698   5.567   3.881
 4830SOL    HW215390   3.578   5.670   3.923
 4831SOL     OW15391   2.132   4.978   5.183
 4831SOL    HW115392   2.035   4.999   5.166
 4831SOL    HW215393   2.186   5.062   5.174
 4832SOL     OW15394   2.935   3.796   3.714
 4832SOL    HW115395   3.004   3.864   3.740
 4832SOL    HW215396   2.925   3.729   3.788
 4833SOL     OW15397   5.571   1.936   2.642
 4833SOL    HW115398   5.582   1.934   2.543
 4833SOL    HW215399   5.644   1.991   2.683
 4834SOL     OW15400   2.388   6.129   2.273
 4834SOL    HW115401   2.454   6.161   2.205
 4834SOL    HW215402   2.352   6.207   2.323
 4835SOL     OW15403   6.202   2.867   6.112
 4835SOL    HW115404   6.278   2.920   6.148
 4835SOL    HW215405   6.216   2.850   6.015
 4836SOL     OW15406   5.352   1.223   5.074
 4836SOL    HW115407   5.270   1.217   5.131
 4836SOL    HW215408   5.363   1.317   5.041
 4837SOL     OW15409   6.842   3.980   3.090
 4837SOL    HW115410   6.839   3.945   3.184
 4837SOL    HW215411   6.846   4.080   3.092
 4838SOL     OW15412   2.491   5.909   7.012
 4838SOL    HW115413   2.463   5.999   0.023
 4838SOL    HW215414   2.448   5.890   6.924
 4839SOL     OW15415   1.446   3.515   0.366
 4839SOL    HW115416   1.492   3.601   0.386
 4839SOL    HW215417   1.360   3.511   0.416
 4840SOL     OW15418   6.328   3.904   6.017
 4840SOL    HW115419   6.308   3.936   5.925
 4840SOL    HW215420   6.357   3.981   6.074
 4841SOL     OW15421   2.702   5.383   3.249
 4841SOL    HW115422   2.685   5.480   3.232
 4841SOL    HW215423   2.799   5.363   3.237
 4842SOL     OW15424   2.777   5.075   3.494
 4842SOL    HW115425   2.687   5.093   3.454
 4842SOL    HW215426   2.792   4.977   3.500
 4843SOL     OW15427   0.036   2.258   2.093
 4843SOL    HW115428   0.014   2.166   2.063
 4843SOL    HW215429   6.985   2.292   2.153
 4844SOL     OW15430   0.322   3.980   5.258
 4844SOL    HW115431   0.293   3.958   5.164
 4844SOL    HW215432   0.242   4.004   5.312
 4845SOL     OW15433   4.424   4.944   5.757
 4845SOL    HW115434   4.427   5.006   5.679
 4845SOL    HW215435   4.459   4.854   5.729
 4846SOL     OW15436   0.225   1.840   3.416
 4846SOL    HW115437   0.206   1.861   3.320
 4846SOL    HW215438   0.146   1.865   3.472
 4847SOL     OW15439   2.317   1.776   5.434
 4847SOL    HW115440   2.413   1.756   5.411
 4847SOL    HW215441   2.267   1.691   5.445
 4848SOL     OW15442   2.598   1.325   4.418
 4848SOL    HW115443   2.537   1.383   4.472
 4848SOL    HW215444   2.684   1.373   4.402
 4849SOL     OW15445   2.107   6.572   0.394
 4849SOL    HW115446   2.035   6.626   0.351
 4849SOL    HW215447   2.068   6.486   0.428
 4850SOL     OW15448   4.982   0.662   1.056
 4850SOL    HW115449   4.985   0.611   0.970
 4850SOL    HW215450   4.925   0.613   1.122
 4851SOL     OW15451   4.047   5.496   6.473
 4851SOL    HW115452   4.104   5.556   6.530
 4851SOL    HW215453   4.096   5.412   6.454
 4852SOL     OW15454   2.711   5.566   4.743
 4852SOL    HW115455   2.803   5.603   4.729
 4852SOL    HW215456   2.675   5.534   4.656
 4853SOL     OW15457   3.969   1.659   3.690
 4853SOL    HW115458   4.046   1.617   3.643
 4853SOL    HW215459   4.000   1.694   3.779
 4854SOL     OW15460   4.585   6.771   1.906
 4854SOL    HW115461   4.547   6.844   1.848
 4854SOL    HW215462   4.672   6.801   1.944
 4855SOL     OW15463   6.243   3.385   5.169
 4855SOL    HW115464   6.336   3.348   5.170
 4855SOL    HW215465   6.243   3.472   5.120
 4856SOL     OW15466   0.594   2.911   2.881
 4856SOL    HW115467   0.607   2.813   2.896
 4856SOL    HW215468   0.550   2.925   2.792
 4857SOL     OW15469   3.588   1.378   3.140
 4857SOL    HW115470   3.556   1.347   3.229
 4857SOL    HW215471   3.518   1.435   3.097
 4858SOL     OW15472   0.754   0.257   4.943
 4858SOL    HW115473   0.821   0.183   4.935
 4858SOL    HW215474   0.802   0.343   4.959
 4859SOL     OW15475   1.021   5.139   1.899
 4859SOL    HW115476   1.052   5.234   1.895
 4859SOL    HW215477   0.937   5.134   1.953
 4860SOL     OW15478   4.154   4.255   0.324
 4860SOL    HW115479   4.148   4.299   0.414
 4860SOL    HW215480   4.105   4.168   0.327
 4861SOL     OW15481   6.094   5.725   6.530
 4861SOL    HW115482   6.032   5.723   6.451
 4861SOL    HW215483   6.114   5.631   6.558
 4862SOL     OW15484   2.560   4.530   4.276
 4862SOL    HW115485   2.584   4.625   4.295
 4862SOL    HW215486   2.540   4.483   4.361
 4863SOL     OW15487   4.880   3.200   2.821
 4863SOL    HW115488   4.956   3.134   2.828
 4863SOL    HW215489   4.898   3.263   2.746
 4864SOL     OW15490   3.277   1.504   1.667
 4864SOL    HW115491   3.214   1.582   1.667
 4864SOL    HW215492   3.338   1.509   1.746
 4865SOL     OW15493   2.358   5.321   5.307
 4865SOL    HW115494   2.386   5.408   5.266
 4865SOL    HW215495   2.409   5.307   5.392
 4866SOL     OW15496   6.402   5.150   1.441
 4866SOL    HW115497   6.431   5.090   1.366
 4866SOL    HW215498   6.412   5.103   1.528
 4867SOL     OW15499   4.346   5.463   3.870
 4867SOL    HW115500   4.326   5.482   3.966
 4867SOL    HW215501   4.261   5.463   3.818
 4868SOL     OW15502   0.469   5.682   1.707
 4868SOL    HW115503   0.455   5.658   1.611
 4868SOL    HW215504   0.564   5.709   1.721
 4869SOL     OW15505   6.618   2.578   1.103
 4869SOL    HW115506   6.556   2.648   1.139
 4869SOL    HW215507   6.580   2.540   1.019
 4870SOL     OW15508   4.784   4.825   1.665
 4870SOL    HW115509   4.741   4.734   1.666
 4870SOL    HW215510   4.715   4.893   1.641
 4871SOL     OW15511   1.161   0.321   4.013
 4871SOL    HW115512   1.197   0.313   4.106
 4871SOL    HW215513   1.112   0.408   4.005
 4872SOL     OW15514   1.076   6.928   3.108
 4872SOL    HW115515   1.124   7.013   3.127
 4872SOL    HW215516   0.994   6.922   3.166
 4873SOL     OW15517   6.962   4.973   4.183
 4873SOL    HW115518   6.951   5.069   4.159
 4873SOL    HW215519   6.921   4.916   4.113
 4874SOL     OW15520   5.729   4.031   2.444
 4874SOL    HW115521   5.670   4.052   2.366
 4874SOL    HW215522   5.824   4.043   2.419
 4875SOL     OW15523   5.922   2.639   0.981
 4875SOL    HW115524   5.890   2.618   0.889
 4875SOL    HW215525   5.845   2.643   1.044
 4876SOL     OW15526   5.639   0.624   5.270
 4876SOL    HW115527   5.659   0.721   5.263
 4876SOL    HW215528   5.723   0.571   5.256
 4877SOL     OW15529   6.922   1.352   1.066
 4877SOL    HW115530   6.932   1.409   1.148
 4877SOL    HW215531   7.010   1.346   1.019
 4878SOL     OW15532   0.121   1.219   2.413
 4878SOL    HW115533   0.191   1.150   2.432
 4878SOL    HW215534   0.165   1.309   2.402
 4879SOL     OW15535   4.346   4.651   2.667
 4879SOL    HW115536   4.307   4.735   2.629
 4879SOL    HW215537   4.379   4.593   2.592
 4880SOL     OW15538   5.421   2.090   6.632
 4880SOL    HW115539   5.345   2.037   6.595
 4880SOL    HW215540   5.385   2.167   6.685
 4881SOL     OW15541   2.317   5.847   6.819
 4881SOL    HW115542   2.361   5.774   6.766
 4881SOL    HW215543   2.236   5.811   6.864
 4882SOL     OW15544   6.312   1.438   5.715
 4882SOL    HW115545   6.268   1.371   5.656
 4882SOL    HW215546   6.367   1.391   5.784
 4883SOL     OW15547   4.946   4.857   2.386
 4883SOL    HW115548   4.999   4.826   2.307
 4883SOL    HW215549   4.995   4.835   2.470
 4884SOL     OW15550   4.604   0.207   1.333
 4884SOL    HW115551   4.522   0.177   1.285
 4884SOL    HW215552   4.662   0.259   1.271
 4885SOL     OW15553   2.513   6.459   2.298
 4885SOL    HW115554   2.527   6.401   2.378
 4885SOL    HW215555   2.521   6.404   2.215
 4886SOL     OW15556   0.322   6.807   6.236
 4886SOL    HW115557   0.420   6.791   6.251
 4886SOL    HW215558   0.297   6.772   6.146
 4887SOL     OW15559   6.959   1.691   3.183
 4887SOL    HW115560   6.998   1.619   3.126
 4887SOL    HW215561   6.959   1.661   3.279
 4888SOL     OW15562   1.767   6.593   3.663
 4888SOL    HW115563   1.748   6.507   3.614
 4888SOL    HW215564   1.863   6.595   3.690
 4889SOL     OW15565   0.508   1.812   0.452
 4889SOL    HW115566   0.523   1.766   0.539
 4889SOL    HW215567   0.500   1.743   0.379
 4890SOL     OW15568   0.439   1.538   4.279
 4890SOL    HW115569   0.528   1.516   4.239
 4890SOL    HW215570   0.427   1.637   4.280
 4891SOL     OW15571   0.534   5.609   0.094
 4891SOL    HW115572   0.470   5.678   0.127
 4891SOL    HW215573   0.576   5.639   0.009
 4892SOL     OW15574   1.970   5.960   2.826
 4892SOL    HW115575   1.898   5.912   2.877
 4892SOL    HW215576   2.059   5.923   2.852
 4893SOL     OW15577   6.713   4.181   6.389
 4893SOL    HW115578   6.677   4.222   6.473
 4893SOL    HW215579   6.671   4.091   6.376
 4894SOL     OW15580   2.560   6.815   2.824
 4894SOL    HW115581   2.537   6.717   2.826
 4894SOL    HW215582   2.481   6.868   2.853
 4895SOL     OW15583   0.633   4.223   1.150
 4895SOL    HW115584   0.733   4.220   1.151
 4895SOL    HW215585   0.601   4.240   1.057
 4896SOL     OW15586   2.803   5.309   2.956
 4896SOL    HW115587   2.903   5.316   2.948
 4896SOL    HW215588   2.779   5.221   2.996
 4897SOL     OW15589   3.043   5.303   5.828
 4897SOL    HW115590   2.980   5.289   5.752
 4897SOL    HW215591   3.137   5.302   5.795
 4898SOL     OW15592   5.641   2.483   5.094
 4898SOL    HW115593   5.725   2.497   5.146
 4898SOL    HW215594   5.626   2.385   5.081
 4899SOL     OW15595   6.458   4.816   2.981
 4899SOL    HW115596   6.461   4.915   2.964
 4899SOL    HW215597   6.393   4.796   3.054
 4900SOL     OW15598   1.206   6.509   5.470
 4900SOL    HW115599   1.278   6.441   5.479
 4900SOL    HW215600   1.214   6.576   5.543
 4901SOL     OW15601   2.250   6.546   4.475
 4901SOL    HW115602   2.226   6.642   4.486
 4901SOL    HW215603   2.265   6.504   4.565
 4902SOL     OW15604   1.911   2.886   3.420
 4902SOL    HW115605   1.811   2.889   3.423
 4902SOL    HW215606   1.942   2.869   3.327
 4903SOL     OW15607   3.730   6.415   0.121
 4903SOL    HW115608   3.653   6.475   0.103
 4903SOL    HW215609   3.716   6.368   0.209
 4904SOL     OW15610   1.909   6.692   4.255
 4904SOL    HW115611   1.850   6.625   4.300
 4904SOL    HW215612   1.857   6.742   4.186
 4905SOL     OW15613   4.392   2.171   2.088
 4905SOL    HW115614   4.412   2.262   2.051
 4905SOL    HW215615   4.410   2.170   2.186
 4906SOL     OW15616   3.798   6.911   0.158
 4906SOL    HW115617   3.835   6.845   0.093
 4906SOL    HW215618   3.868   6.979   0.181
 4907SOL     OW15619   3.958   6.465   2.596
 4907SOL    HW115620   3.902   6.536   2.638
 4907SOL    HW215621   3.986   6.494   2.504
 4908SOL     OW15622   4.151   5.720   0.176
 4908SOL    HW115623   4.137   5.733   0.274
 4908SOL    HW215624   4.065   5.732   0.127
 4909SOL     OW15625   6.157   0.830   6.627
 4909SOL    HW115626   6.100   0.749   6.616
 4909SOL    HW215627   6.164   0.853   6.724
 4910SOL     OW15628   4.814   0.205   5.496
 4910SOL    HW115629   4.782   0.292   5.458
 4910SOL    HW215630   4.813   0.135   5.425
 4911SOL     OW15631   6.973   1.929   5.592
 4911SOL    HW115632   6.971   2.028   5.577
 4911SOL    HW215633   6.922   1.883   5.520
 4912SOL     OW15634   5.345   1.436   1.635
 4912SOL    HW115635   5.318   1.490   1.715
 4912SOL    HW215636   5.411   1.488   1.581
 4913SOL     OW15637   3.589   3.869   3.859
 4913SOL    HW115638   3.630   3.930   3.791
 4913SOL    HW215639   3.649   3.790   3.872
 4914SOL     OW15640   2.834   0.806   4.645
 4914SOL    HW115641   2.896   0.884   4.641
 4914SOL    HW215642   2.827   0.764   4.555
 4915SOL     OW15643   4.389   6.883   4.294
 4915SOL    HW115644   4.460   6.905   4.361
 4915SOL    HW215645   4.309   6.847   4.342
 4916SOL     OW15646   2.611   1.454   3.004
 4916SOL    HW115647   2.602   1.455   3.103
 4916SOL    HW215648   2.697   1.410   2.978
 4917SOL     OW15649   1.298   3.980   0.709
 4917SOL    HW115650   1.348   4.019   0.786
 4917SOL    HW215651   1.284   3.882   0.723
 4918SOL     OW15652   3.247   6.980   2.645
 4918SOL    HW115653   3.171   6.933   2.690
 4918SOL    HW215654   3.316   7.003   2.714
 4919SOL     OW15655   1.995   2.302   3.059
 4919SOL    HW115656   2.025   2.332   2.969
 4919SOL    HW215657   2.008   2.203   3.067
 4920SOL     OW15658   4.255   0.583   6.864
 4920SOL    HW115659   4.205   0.669   6.857
 4920SOL    HW215660   4.223   0.519   6.794
 4921SOL     OW15661   2.275   4.184   1.517
 4921SOL    HW115662   2.342   4.138   1.575
 4921SOL    HW215663   2.193   4.205   1.570
 4922SOL     OW15664   1.065   3.512   5.138
 4922SOL    HW115665   0.969   3.538   5.147
 4922SOL    HW215666   1.104   3.557   5.057
 4923SOL     OW15667   4.902   0.478   1.410
 4923SOL    HW115668   4.855   0.409   1.465
 4923SOL    HW215669   4.952   0.540   1.470
 4924SOL     OW15670   2.163   3.324   5.266
 4924SOL    HW115671   2.194   3.406   5.314
 4924SOL    HW215672   2.176   3.244   5.324
 4925SOL     OW15673   5.698   6.146   0.892
 4925SOL    HW115674   5.756   6.074   0.854
 4925SOL    HW215675   5.722   6.163   0.987
 4926SOL     OW15676   4.588   2.613   1.594
 4926SOL    HW115677   4.674   2.562   1.588
 4926SOL    HW215678   4.574   2.643   1.688
 4927SOL     OW15679   3.997   3.291   3.325
 4927SOL    HW115680   4.009   3.266   3.229
 4927SOL    HW215681   3.906   3.333   3.337
 4928SOL     OW15682   0.030   0.034   6.228
 4928SOL    HW115683   0.114   0.050   6.278
 4928SOL    HW215684   0.018   0.105   6.159
 4929SOL     OW15685   1.003   4.061   5.354
 4929SOL    HW115686   1.035   4.046   5.448
 4929SOL    HW215687   1.006   4.159   5.333
 4930SOL     OW15688   0.539   1.207   7.014
 4930SOL    HW115689   0.497   1.122   6.983
 4930SOL    HW215690   0.609   1.186   0.060
 4931SOL     OW15691   0.809   0.086   0.012
 4931SOL    HW115692   0.720   0.117   0.047
 4931SOL    HW215693   0.795   0.008   6.973
 4932SOL     OW15694   2.044   3.472   1.789
 4932SOL    HW115695   2.105   3.484   1.868
 4932SOL    HW215696   2.043   3.375   1.762
 4933SOL     OW15697   2.034   0.773   3.998
 4933SOL    HW115698   1.950   0.769   4.053
 4933SOL    HW215699   2.110   0.800   4.056
 4934SOL     OW15700   1.164   4.984   4.306
 4934SOL    HW115701   1.212   5.015   4.388
 4934SOL    HW215702   1.205   5.027   4.225
 4935SOL     OW15703   2.040   1.093   6.899
 4935SOL    HW115704   2.060   0.995   6.895
 4935SOL    HW215705   1.985   1.113   6.980
 4936SOL     OW15706   2.344   6.140   1.825
 4936SOL    HW115707   2.265   6.109   1.878
 4936SOL    HW215708   2.349   6.240   1.828
 4937SOL     OW15709   0.764   3.983   6.072
 4937SOL    HW115710   0.778   4.008   6.168
 4937SOL    HW215711   0.827   4.034   6.015
 4938SOL     OW15712   3.282   4.843   1.874
 4938SOL    HW115713   3.369   4.797   1.894
 4938SOL    HW215714   3.221   4.836   1.953
 4939SOL     OW15715   1.060   2.485   2.262
 4939SOL    HW115716   1.009   2.410   2.304
 4939SOL    HW215717   1.132   2.448   2.204
 4940SOL     OW15718   0.231   1.717   5.230
 4940SOL    HW115719   0.253   1.811   5.256
 4940SOL    HW215720   0.301   1.682   5.168
 4941SOL     OW15721   4.057   2.884   5.311
 4941SOL    HW115722   3.985   2.927   5.256
 4941SOL    HW215723   4.069   2.789   5.281
 4942SOL     OW15724   5.505   3.304   3.382
 4942SOL    HW115725   5.519   3.374   3.452
 4942SOL    HW215726   5.593   3.268   3.353
 4943SOL     OW15727   5.310   4.101   6.533
 4943SOL    HW115728   5.400   4.071   6.564
 4943SOL    HW215729   5.265   4.026   6.483
 4944SOL     OW15730   2.327   4.778   0.993
 4944SOL    HW115731   2.423   4.806   0.994
 4944SOL    HW215732   2.311   4.715   1.069
 4945SOL     OW15733   1.551   0.837   4.573
 4945SOL    HW115734   1.619   0.909   4.557
 4945SOL    HW215735   1.592   0.764   4.627
 4946SOL     OW15736   1.101   5.195   6.919
 4946SOL    HW115737   1.148   5.176   7.005
 4946SOL    HW215738   1.126   5.287   6.888
 4947SOL     OW15739   2.817   0.917   2.157
 4947SOL    HW115740   2.854   1.010   2.160
 4947SOL    HW215741   2.727   0.916   2.199
 4948SOL     OW15742   1.742   2.490   2.784
 4948SOL    HW115743   1.664   2.431   2.764
 4948SOL    HW215744   1.729   2.578   2.738
 4949SOL     OW15745   6.402   3.637   6.045
 4949SOL    HW115746   6.378   3.727   6.011
 4949SOL    HW215747   6.478   3.600   5.991
 4950SOL     OW15748   1.964   3.815   5.334
 4950SOL    HW115749   2.058   3.830   5.366
 4950SOL    HW215750   1.903   3.883   5.375
 4951SOL     OW15751   6.160   6.364   4.662
 4951SOL    HW115752   6.252   6.356   4.700
 4951SOL    HW215753   6.111   6.278   4.675
 4952SOL     OW15754   0.088   0.494   6.217
 4952SOL    HW115755   0.014   0.526   6.277
 4952SOL    HW215756   0.160   0.452   6.272
 4953SOL     OW15757   2.246   1.096   4.042
 4953SOL    HW115758   2.162   1.134   4.080
 4953SOL    HW215759   2.323   1.156   4.064
 4954SOL     OW15760   2.102   3.921   6.235
 4954SOL    HW115761   2.081   3.947   6.141
 4954SOL    HW215762   2.157   3.992   6.278
 4955SOL     OW15763   3.439   5.711   0.179
 4955SOL    HW115764   3.392   5.734   0.094
 4955SOL    HW215765   3.455   5.612   0.183
 4956SOL     OW15766   2.891   0.429   5.699
 4956SOL    HW115767   2.824   0.493   5.734
 4956SOL    HW215768   2.858   0.389   5.613
 4957SOL     OW15769   6.124   3.286   0.193
 4957SOL    HW115770   6.114   3.199   0.242
 4957SOL    HW215771   6.060   3.289   0.117
 4958SOL     OW15772   2.040   6.088   5.756
 4958SOL    HW115773   1.941   6.090   5.772
 4958SOL    HW215774   2.089   6.082   5.843
 4959SOL     OW15775   6.460   1.811   1.603
 4959SOL    HW115776   6.512   1.778   1.525
 4959SOL    HW215777   6.370   1.766   1.605
 4960SOL     OW15778   4.175   4.738   3.477
 4960SOL    HW115779   4.085   4.725   3.435
 4960SOL    HW215780   4.243   4.689   3.423
 4961SOL     OW15781   3.369   0.637   6.363
 4961SOL    HW115782   3.285   0.668   6.407
 4961SOL    HW215783   3.347   0.596   6.274
 4962SOL     OW15784   5.655   2.602   1.081
 4962SOL    HW115785   5.622   2.548   1.004
 4962SOL    HW215786   5.583   2.666   1.110
 4963SOL     OW15787   1.656   5.210   1.380
 4963SOL    HW115788   1.623   5.284   1.321
 4963SOL    HW215789   1.726   5.158   1.331
 4964SOL     OW15790   2.181   6.443   4.712
 4964SOL    HW115791   2.103   6.502   4.734
 4964SOL    HW215792   2.166   6.352   4.748
 4965SOL     OW15793   0.796   6.653   2.524
 4965SOL    HW115794   0.746   6.633   2.608
 4965SOL    HW215795   0.894   6.663   2.544
 4966SOL     OW15796   2.076   6.315   4.412
 4966SOL    HW115797   2.004   6.344   4.349
 4966SOL    HW215798   2.123   6.396   4.447
 4967SOL     OW15799   2.951   5.299   6.099
 4967SOL    HW115800   2.991   5.232   6.163
 4967SOL    HW215801   2.994   5.288   6.009
 4968SOL     OW15802   0.010   1.261   3.650
 4968SOL    HW115803   6.969   1.259   3.728
 4968SOL    HW215804   0.089   1.319   3.673
 4969SOL     OW15805   0.504   5.825   2.736
 4969SOL    HW115806   0.601   5.829   2.713
 4969SOL    HW215807   0.474   5.730   2.742
 4970SOL     OW15808   2.122   0.819   1.074
 4970SOL    HW115809   2.219   0.836   1.089
 4970SOL    HW215810   2.090   0.749   1.138
 4971SOL     OW15811   6.502   6.031   3.247
 4971SOL    HW115812   6.539   6.092   3.178
 4971SOL    HW215813   6.402   6.035   3.245
 4972SOL     OW15814   0.992   4.245   0.672
 4972SOL    HW115815   1.006   4.344   0.672
 4972SOL    HW215816   1.035   4.205   0.591
 4973SOL     OW15817   0.369   0.434   1.874
 4973SOL    HW115818   0.362   0.477   1.784
 4973SOL    HW215819   0.311   0.352   1.876
 4974SOL     OW15820   6.149   4.736   1.027
 4974SOL    HW115821   6.107   4.825   1.046
 4974SOL    HW215822   6.079   4.673   0.993
 4975SOL     OW15823   5.688   4.006   0.603
 4975SOL    HW115824   5.718   3.911   0.596
 4975SOL    HW215825   5.729   4.060   0.530
 4976SOL     OW15826   1.515   0.216   4.746
 4976SOL    HW115827   1.426   0.243   4.708
 4976SOL    HW215828   1.587   0.233   4.679
 4977SOL     OW15829   3.668   4.327   6.539
 4977SOL    HW115830   3.658   4.412   6.488
 4977SOL    HW215831   3.725   4.263   6.489
 4978SOL     OW15832   5.605   4.722   4.420
 4978SOL    HW115833   5.699   4.733   4.451
 4978SOL    HW215834   5.543   4.723   4.498
 4979SOL     OW15835   7.007   6.696   6.617
 4979SOL    HW115836   6.987   6.598   6.619
 4979SOL    HW215837   0.032   6.718   6.531
 4980SOL     OW15838   5.465   5.361   2.463
 4980SOL    HW115839   5.423   5.271   2.448
 4980SOL    HW215840   5.401   5.432   2.437
 4981SOL     OW15841   3.969   5.781   2.007
 4981SOL    HW115842   3.992   5.870   1.967
 4981SOL    HW215843   3.999   5.708   1.946
 4982SOL     OW15844   3.339   1.909   5.809
 4982SOL    HW115845   3.383   1.957   5.733
 4982SOL    HW215846   3.277   1.972   5.856
 4983SOL     OW15847   5.981   4.581   4.866
 4983SOL    HW115848   5.972   4.679   4.852
 4983SOL    HW215849   6.076   4.553   4.850
 4984SOL     OW15850   4.765   4.057   2.824
 4984SOL    HW115851   4.693   4.096   2.882
 4984SOL    HW215852   4.821   4.131   2.786
 4985SOL     OW15853   5.375   6.034   2.918
 4985SOL    HW115854   5.422   6.020   2.831
 4985SOL    HW215855   5.408   5.969   2.986
 4986SOL     OW15856   6.023   4.989   0.329
 4986SOL    HW115857   6.094   5.054   0.302
 4986SOL    HW215858   5.948   5.038   0.374
 4987SOL     OW15859   1.219   6.368   2.070
 4987SOL    HW115860   1.305   6.375   2.020
 4987SOL    HW215861   1.235   6.323   2.158
 4988SOL     OW15862   6.071   1.085   3.517
 4988SOL    HW115863   6.083   0.986   3.528
 4988SOL    HW215864   6.152   1.132   3.553
 4989SOL     OW15865   5.130   0.337   1.705
 4989SOL    HW115866   5.106   0.251   1.661
 4989SOL    HW215867   5.222   0.332   1.742
 4990SOL     OW15868   3.249   2.471   6.410
 4990SOL    HW115869   3.156   2.467   6.373
 4990SOL    HW215870   3.305   2.399   6.368
 4991SOL     OW15871   6.793   4.982   3.779
 4991SOL    HW115872   6.759   5.072   3.751
 4991SOL    HW215873   6.745   4.911   3.727
 4992SOL     OW15874   5.534   0.847   2.621
 4992SOL    HW115875   5.620   0.821   2.576
 4992SOL    HW215876   5.546   0.842   2.720
 4993SOL     OW15877   3.917   5.830   5.053
 4993SOL    HW115878   3.836   5.779   5.080
 4993SOL    HW215879   3.958   5.787   4.972
 4994SOL     OW15880   2.535   5.668   4.920
 4994SOL    HW115881   2.600   5.651   4.847
 4994SOL    HW215882   2.450   5.618   4.901
 4995SOL     OW15883   1.129   1.046   5.368
 4995SOL    HW115884   1.131   1.008   5.461
 4995SOL    HW215885   1.222   1.063   5.337
 4996SOL     OW15886   6.894   0.725   3.440
 4996SOL    HW115887   6.857   0.707   3.348
 4996SOL    HW215888   6.954   0.804   3.437
 4997SOL     OW15889   4.084   2.230   1.240
 4997SOL    HW115890   4.013   2.222   1.171
 4997SOL    HW215891   4.047   2.277   1.321
 4998SOL     OW15892   2.054   3.526   4.468
 4998SOL    HW115893   1.954   3.520   4.467
 4998SOL    HW215894   2.092   3.434   4.483
 4999SOL     OW15895   6.905   3.183   4.436
 4999SOL    HW115896   6.901   3.230   4.524
 4999SOL    HW215897   7.000   3.166   4.411
 5000SOL     OW15898   3.236   6.827   2.876
 5000SOL    HW115899   3.268   6.893   2.943
 5000SOL    HW215900   3.140   6.844   2.855
 5001SOL     OW15901   0.931   6.052   2.439
 5001SOL    HW115902   0.914   6.084   2.532
 5001SOL    HW215903   0.985   5.968   2.442
 5002SOL     OW15904   0.229   4.914   1.890
 5002SOL    HW115905   0.197   4.821   1.908
 5002SOL    HW215906   0.284   4.915   1.806
 5003SOL     OW15907   4.457   6.321   3.029
 5003SOL    HW115908   4.521   6.379   3.079
 5003SOL    HW215909   4.440   6.238   3.082
 5004SOL     OW15910   2.447   4.515   5.716
 5004SOL    HW115911   2.360   4.541   5.675
 5004SOL    HW215912   2.522   4.554   5.662
 5005SOL     OW15913   2.756   2.774   6.468
 5005SOL    HW115914   2.686   2.772   6.396
 5005SOL    HW215915   2.846   2.790   6.427
 5006SOL     OW15916   5.737   0.784   1.839
 5006SOL    HW115917   5.834   0.763   1.852
 5006SOL    HW215918   5.728   0.855   1.770
 5007SOL     OW15919   6.821   0.223   1.137
 5007SOL    HW115920   6.888   0.288   1.172
 5007SOL    HW215921   6.729   0.255   1.159
 5008SOL     OW15922   5.853   5.751   1.624
 5008SOL    HW115923   5.850   5.688   1.701
 5008SOL    HW215924   5.910   5.713   1.552
 5009SOL     OW15925   0.334   2.437   0.357
 5009SOL    HW115926   0.305   2.362   0.417
 5009SOL    HW215927   0.409   2.487   0.401
 5010SOL     OW15928   4.473   2.340   0.633
 5010SOL    HW115929   4.479   2.440   0.630
 5010SOL    HW215930   4.556   2.301   0.592
 5011SOL     OW15931   1.802   4.526   1.226
 5011SOL    HW115932   1.845   4.616   1.235
 5011SOL    HW215933   1.861   4.456   1.265
 5012SOL     OW15934   6.015   2.355   5.188
 5012SOL    HW115935   6.062   2.411   5.119
 5012SOL    HW215936   6.067   2.354   5.272
 5013SOL     OW15937   5.367   0.814   6.503
 5013SOL    HW115938   5.416   0.734   6.538
 5013SOL    HW215939   5.433   0.888   6.487
 5014SOL     OW15940   6.358   4.030   0.311
 5014SOL    HW115941   6.431   4.000   0.373
 5014SOL    HW215942   6.302   4.099   0.357
 5015SOL     OW15943   4.556   0.819   4.695
 5015SOL    HW115944   4.457   0.822   4.679
 5015SOL    HW215945   4.591   0.911   4.709
 5016SOL     OW15946   0.946   2.800   5.202
 5016SOL    HW115947   1.003   2.881   5.189
 5016SOL    HW215948   0.999   2.718   5.182
 5017SOL     OW15949   1.549   2.474   1.107
 5017SOL    HW115950   1.491   2.450   1.185
 5017SOL    HW215951   1.528   2.568   1.078
 5018SOL     OW15952   1.462   5.241   2.950
 5018SOL    HW115953   1.422   5.159   2.992
 5018SOL    HW215954   1.474   5.225   2.852
 5019SOL     OW15955   2.292   6.517   5.901
 5019SOL    HW115956   2.351   6.437   5.914
 5019SOL    HW215957   2.263   6.523   5.806
 5020SOL     OW15958   6.665   0.238   6.194
 5020SOL    HW115959   6.633   0.325   6.155
 5020SOL    HW215960   6.587   0.176   6.204
 5021SOL     OW15961   1.290   1.228   1.118
 5021SOL    HW115962   1.298   1.326   1.098
 5021SOL    HW215963   1.208   1.212   1.173
 5022SOL     OW15964   1.214   2.430   1.851
 5022SOL    HW115965   1.197   2.527   1.839
 5022SOL    HW215966   1.305   2.408   1.817
 5023SOL     OW15967   0.456   4.057   1.618
 5023SOL    HW115968   0.501   4.065   1.530
 5023SOL    HW215969   0.358   4.043   1.605
 5024SOL     OW15970   5.797   5.403   1.180
 5024SOL    HW115971   5.742   5.354   1.112
 5024SOL    HW215972   5.796   5.501   1.161
 5025SOL     OW15973   4.598   2.150   4.086
 5025SOL    HW115974   4.644   2.117   4.168
 5025SOL    HW215975   4.500   2.137   4.094
 5026SOL     OW15976   6.795   5.491   5.685
 5026SOL    HW115977   6.879   5.516   5.733
 5026SOL    HW215978   6.716   5.519   5.739
 5027SOL     OW15979   6.048   0.172   1.615
 5027SOL    HW115980   6.006   0.088   1.579
 5027SOL    HW215981   6.144   0.176   1.587
 5028SOL     OW15982   6.599   1.434   2.802
 5028SOL    HW115983   6.530   1.488   2.754
 5028SOL    HW215984   6.615   1.473   2.893
 5029SOL     OW15985   5.990   1.970   2.634
 5029SOL    HW115986   6.016   1.951   2.539
 5029SOL    HW215987   5.964   2.066   2.643
 5030SOL     OW15988   6.902   6.217   0.056
 5030SOL    HW115989   6.941   6.214   0.148
 5030SOL    HW215990   6.839   6.295   0.049
 5031SOL     OW15991   7.013   1.284   5.833
 5031SOL    HW115992   0.091   1.290   5.827
 5031SOL    HW215993   6.980   1.214   5.769
 5032SOL     OW15994   2.882   1.677   6.104
 5032SOL    HW115995   2.929   1.622   6.034
 5032SOL    HW215996   2.837   1.754   6.061
 5033SOL     OW15997   2.191   7.000   6.620
 5033SOL    HW115998   2.210   0.041   6.695
 5033SOL    HW215999   2.216   6.907   6.647
 5034SOL     OW16000   5.956   0.425   3.742
 5034SOL    HW116001   5.963   0.370   3.825
 5034SOL    HW216002   6.020   0.390   3.673
 5035SOL     OW16003   0.017   3.787   5.498
 5035SOL    HW116004   7.014   3.782   5.595
 5035SOL    HW216005   0.020   3.694   5.460
 5036SOL     OW16006   0.041   4.668   6.841
 5036SOL    HW116007   0.118   4.731   6.833
 5036SOL    HW216008   0.039   4.629   6.933
 5037SOL     OW16009   5.542   4.664   1.923
 5037SOL    HW116010   5.493   4.669   1.836
 5037SOL    HW216011   5.627   4.716   1.916
 5038SOL     OW16012   3.354   3.167   5.286
 5038SOL    HW116013   3.285   3.165   5.214
 5038SOL    HW216014   3.432   3.109   5.260
 5039SOL     OW16015   2.126   3.256   5.644
 5039SOL    HW116016   2.083   3.176   5.603
 5039SOL    HW216017   2.056   3.324   5.666
 5040SOL     OW16018   0.874   6.434   6.032
 5040SOL    HW116019   0.797   6.387   5.990
 5040SOL    HW216020   0.957   6.380   6.017
 5041SOL     OW16021   1.535   1.549   1.967
 5041SOL    HW116022   1.549   1.482   2.039
 5041SOL    HW216023   1.604   1.538   1.896
 5042SOL     OW16024   6.518   3.266   0.567
 5042SOL    HW116025   6.428   3.224   0.575
 5042SOL    HW216026   6.588   3.205   0.604
 5043SOL     OW16027   4.136   0.344   7.004
 5043SOL    HW116028   4.042   0.376   6.991
 5043SOL    HW216029   4.160   0.280   6.931
 5044SOL     OW16030   0.514   6.436   0.891
 5044SOL    HW116031   0.462   6.498   0.949
 5044SOL    HW216032   0.469   6.347   0.888
 5045SOL     OW16033   5.722   6.208   6.563
 5045SOL    HW116034   5.635   6.160   6.555
 5045SOL    HW216035   5.710   6.288   6.623
 5046SOL     OW16036   3.570   4.162   2.856
 5046SOL    HW116037   3.642   4.178   2.789
 5046SOL    HW216038   3.489   4.125   2.811
 5047SOL     OW16039   1.485   4.121   2.792
 5047SOL    HW116040   1.393   4.158   2.783
 5047SOL    HW216041   1.511   4.077   2.705
 5048SOL     OW16042   1.078   1.118   2.940
 5048SOL    HW116043   1.066   1.072   3.028
 5048SOL    HW216044   1.104   1.052   2.871
 5049SOL     OW16045   5.113   1.902   0.064
 5049SOL    HW116046   5.179   1.977   0.060
 5049SOL    HW216047   5.074   1.896   0.156
 5050SOL     OW16048   1.338   0.712   0.340
 5050SOL    HW116049   1.415   0.689   0.280
 5050SOL    HW216050   1.313   0.632   0.395
 5051SOL     OW16051   4.640   4.169   1.234
 5051SOL    HW116052   4.602   4.225   1.307
 5051SOL    HW216053   4.731   4.136   1.261
 5052SOL     OW16054   2.562   1.486   5.602
 5052SOL    HW116055   2.474   1.437   5.604
 5052SOL    HW216056   2.567   1.540   5.518
 5053SOL     OW16057   1.534   4.268   3.556
 5053SOL    HW116058   1.551   4.171   3.540
 5053SOL    HW216059   1.464   4.301   3.493
 5054SOL     OW16060   2.875   4.996   4.362
 5054SOL    HW116061   2.798   5.049   4.397
 5054SOL    HW216062   2.932   5.054   4.304
 5055SOL     OW16063   1.032   2.410   6.189
 5055SOL    HW116064   1.127   2.428   6.213
 5055SOL    HW216065   1.008   2.316   6.214
 5056SOL     OW16066   5.773   4.316   6.304
 5056SOL    HW116067   5.683   4.330   6.264
 5056SOL    HW216068   5.769   4.239   6.368
 5057SOL     OW16069   0.285   0.051   3.553
 5057SOL    HW116070   0.367   7.015   3.547
 5057SOL    HW216071   0.282   0.093   3.644
 5058SOL     OW16072   3.407   4.077   5.495
 5058SOL    HW116073   3.452   4.148   5.442
 5058SOL    HW216074   3.360   4.014   5.434
 5059SOL     OW16075   6.113   0.945   3.239
 5059SOL    HW116076   6.071   1.036   3.237
 5059SOL    HW216077   6.087   0.898   3.324
 5060SOL     OW16078   0.583   2.235   6.244
 5060SOL    HW116079   0.559   2.199   6.334
 5060SOL    HW216080   0.584   2.335   6.247
 5061SOL     OW16081   4.875   2.851   0.944
 5061SOL    HW116082   4.792   2.804   0.976
 5061SOL    HW216083   4.860   2.887   0.852
 5062SOL     OW16084   6.305   6.746   2.931
 5062SOL    HW116085   6.243   6.770   3.006
 5062SOL    HW216086   6.399   6.758   2.961
 5063SOL     OW16087   0.682   0.284   2.633
 5063SOL    HW116088   0.769   0.302   2.679
 5063SOL    HW216089   0.675   0.187   2.611
 5064SOL     OW16090   4.865   3.534   0.825
 5064SOL    HW116091   4.957   3.568   0.841
 5064SOL    HW216092   4.852   3.517   0.727
 5065SOL     OW16093   2.909   0.761   5.603
 5065SOL    HW116094   2.811   0.777   5.587
 5065SOL    HW216095   2.936   0.807   5.687
 5066SOL     OW16096   5.326   4.475   2.352
 5066SOL    HW116097   5.292   4.501   2.262
 5066SOL    HW216098   5.360   4.381   2.349
 5067SOL     OW16099   4.709   1.119   1.636
 5067SOL    HW116100   4.707   1.161   1.727
 5067SOL    HW216101   4.728   1.189   1.567
 5068SOL     OW16102   2.885   4.356   0.829
 5068SOL    HW116103   2.897   4.446   0.872
 5068SOL    HW216104   2.800   4.315   0.863
 5069SOL     OW16105   1.444   3.820   4.177
 5069SOL    HW116106   1.351   3.808   4.210
 5069SOL    HW216107   1.455   3.912   4.138
 5070SOL     OW16108   5.118   3.941   4.024
 5070SOL    HW116109   5.079   3.873   3.961
 5070SOL    HW216110   5.062   3.946   4.106
 5071SOL     OW16111   4.740   2.195   4.943
 5071SOL    HW116112   4.770   2.260   4.872
 5071SOL    HW216113   4.708   2.111   4.899
 5072SOL     OW16114   0.772   6.553   0.305
 5072SOL    HW116115   0.792   6.647   0.335
 5072SOL    HW216116   0.832   6.530   0.228
 5073SOL     OW16117   0.143   6.840   3.064
 5073SOL    HW116118   0.195   6.924   3.077
 5073SOL    HW216119   0.083   6.825   3.143
 5074SOL     OW16120   3.158   3.579   6.850
 5074SOL    HW116121   3.089   3.549   6.783
 5074SOL    HW216122   3.240   3.524   6.840
 5075SOL     OW16123   1.023   1.775   6.164
 5075SOL    HW116124   1.073   1.689   6.172
 5075SOL    HW216125   0.947   1.776   6.228
 5076SOL     OW16126   3.633   0.739   1.202
 5076SOL    HW116127   3.640   0.713   1.106
 5076SOL    HW216128   3.721   0.774   1.234
 5077SOL     OW16129   0.527   2.792   4.838
 5077SOL    HW116130   0.476   2.817   4.756
 5077SOL    HW216131   0.516   2.694   4.856
 5078SOL     OW16132   0.946   1.906   3.575
 5078SOL    HW116133   0.927   1.808   3.575
 5078SOL    HW216134   1.017   1.926   3.507
 5079SOL     OW16135   2.452   4.900   5.660
 5079SOL    HW116136   2.490   4.904   5.567
 5079SOL    HW216137   2.355   4.877   5.655
 5080SOL     OW16138   6.031   6.357   5.872
 5080SOL    HW116139   6.011   6.292   5.946
 5080SOL    HW216140   6.018   6.311   5.784
 5081SOL     OW16141   3.514   2.891   4.489
 5081SOL    HW116142   3.431   2.907   4.435
 5081SOL    HW216143   3.563   2.812   4.453
 5082SOL     OW16144   5.836   5.607   5.545
 5082SOL    HW116145   5.834   5.583   5.448
 5082SOL    HW216146   5.871   5.529   5.598
 5083SOL     OW16147   2.252   6.581   2.936
 5083SOL    HW116148   2.345   6.565   2.902
 5083SOL    HW216149   2.187   6.529   2.880
 5084SOL     OW16150   0.809   4.940   4.558
 5084SOL    HW116151   0.871   5.002   4.510
 5084SOL    HW216152   0.813   4.849   4.516
 5085SOL     OW16153   5.298   2.602   6.677
 5085SOL    HW116154   5.371   2.537   6.652
 5085SOL    HW216155   5.214   2.576   6.630
 5086SOL     OW16156   6.644   5.791   3.582
 5086SOL    HW116157   6.582   5.839   3.520
 5086SOL    HW216158   6.592   5.723   3.634
 5087SOL     OW16159   6.279   5.788   3.671
 5087SOL    HW116160   6.312   5.757   3.760
 5087SOL    HW216161   6.185   5.758   3.658
 5088SOL     OW16162   5.452   1.378   4.748
 5088SOL    HW116163   5.405   1.290   4.732
 5088SOL    HW216164   5.446   1.433   4.665
 5089SOL     OW16165   5.989   2.868   3.383
 5089SOL    HW116166   6.058   2.911   3.324
 5089SOL    HW216167   5.930   2.938   3.422
 5090SOL     OW16168   1.783   3.893   3.034
 5090SOL    HW116169   1.800   3.962   2.965
 5090SOL    HW216170   1.835   3.915   3.117
 5091SOL     OW16171   1.611   6.618   2.665
 5091SOL    HW116172   1.568   6.558   2.597
 5091SOL    HW216173   1.551   6.626   2.744
 5092SOL     OW16174   3.100   2.988   1.269
 5092SOL    HW116175   3.189   3.015   1.304
 5092SOL    HW216176   3.047   2.944   1.341
 5093SOL     OW16177   2.960   1.425   1.667
 5093SOL    HW116178   3.015   1.371   1.603
 5093SOL    HW216179   2.954   1.519   1.635
 5094SOL     OW16180   0.797   6.586   4.352
 5094SOL    HW116181   0.754   6.575   4.263
 5094SOL    HW216182   0.733   6.555   4.423
 5095SOL     OW16183   0.864   1.800   4.271
 5095SOL    HW116184   0.895   1.807   4.366
 5095SOL    HW216185   0.789   1.865   4.256
 5096SOL     OW16186   4.353   3.753   0.364
 5096SOL    HW116187   4.300   3.695   0.301
 5096SOL    HW216188   4.302   3.767   0.448
 5097SOL     OW16189   1.764   0.272   6.784
 5097SOL    HW116190   1.738   0.363   6.750
 5097SOL    HW216191   1.788   0.213   6.707
 5098SOL     OW16192   0.812   0.720   1.264
 5098SOL    HW116193   0.740   0.705   1.333
 5098SOL    HW216194   0.889   0.660   1.284
 5099SOL     OW16195   0.589   0.167   6.302
 5099SOL    HW116196   0.671   0.154   6.246
 5099SOL    HW216197   0.587   0.261   6.335
 5100SOL     OW16198   4.517   6.775   5.366
 5100SOL    HW116199   4.523   6.824   5.278
 5100SOL    HW216200   4.427   6.732   5.374
 5101SOL     OW16201   4.517   6.807   0.261
 5101SOL    HW116202   4.479   6.856   0.339
 5101SOL    HW216203   4.553   6.873   0.195
 5102SOL     OW16204   5.623   0.384   5.852
 5102SOL    HW116205   5.706   0.394   5.798
 5102SOL    HW216206   5.573   0.303   5.822
 5103SOL     OW16207   0.607   0.936   3.920
 5103SOL    HW116208   0.665   0.998   3.972
 5103SOL    HW216209   0.516   0.975   3.910
 5104SOL     OW16210   2.097   6.355   2.145
 5104SOL    HW116211   2.160   6.388   2.215
 5104SOL    HW216212   2.107   6.409   2.062
 5105SOL     OW16213   4.224   3.376   0.047
 5105SOL    HW116214   4.277   3.310   7.015
 5105SOL    HW216215   4.152   3.415   7.011
 5106SOL     OW16216   3.711   0.316   1.428
 5106SOL    HW116217   3.784   0.383   1.437
 5106SOL    HW216218   3.632   0.345   1.481
 5107SOL     OW16219   3.764   1.355   0.513
 5107SOL    HW116220   3.705   1.356   0.433
 5107SOL    HW216221   3.780   1.449   0.544
 5108SOL     OW16222   3.077   3.323   3.223
 5108SOL    HW116223   3.146   3.393   3.238
 5108SOL    HW216224   3.017   3.318   3.303
 5109SOL     OW16225   1.018   1.318   0.995
 5109SOL    HW116226   0.958   1.282   0.924
 5109SOL    HW216227   1.043   1.244   1.058
 5110SOL     OW16228   0.604   0.243   6.650
 5110SOL    HW116229   0.630   0.147   6.659
 5110SOL    HW216230   0.685   0.300   6.661
 5111SOL     OW16231   0.928   1.027   5.836
 5111SOL    HW116232   0.987   1.068   5.767
 5111SOL    HW216233   0.854   1.092   5.859
 5112SOL     OW16234   0.439   0.481   2.887
 5112SOL    HW116235   0.442   0.382   2.900
 5112SOL    HW216236   0.491   0.506   2.806
 5113SOL     OW16237   1.859   6.704   1.245
 5113SOL    HW116238   1.873   6.803   1.243
 5113SOL    HW216239   1.921   6.663   1.312
 5114SOL     OW16240   3.632   2.814   0.571
 5114SOL    HW116241   3.632   2.764   0.658
 5114SOL    HW216242   3.543   2.859   0.558
 5115SOL     OW16243   2.163   4.590   5.527
 5115SOL    HW116244   2.196   4.654   5.458
 5115SOL    HW216245   2.171   4.631   5.617
 5116SOL     OW16246   5.581   6.484   6.133
 5116SOL    HW116247   5.590   6.565   6.074
 5116SOL    HW216248   5.493   6.440   6.116
 5117SOL     OW16249   1.913   4.874   4.302
 5117SOL    HW116250   1.848   4.915   4.239
 5117SOL    HW216251   1.947   4.944   4.366
 5118SOL     OW16252   4.689   6.121   0.830
 5118SOL    HW116253   4.655   6.165   0.748
 5118SOL    HW216254   4.771   6.068   0.808
 5119SOL     OW16255   5.458   0.500   1.646
 5119SOL    HW116256   5.384   0.546   1.597
 5119SOL    HW216257   5.419   0.431   1.707
 5120SOL     OW16258   5.329   1.387   3.391
 5120SOL    HW116259   5.421   1.366   3.422
 5120SOL    HW216260   5.332   1.421   3.297
 5121SOL     OW16261   1.990   2.301   6.870
 5121SOL    HW116262   1.917   2.354   6.826
 5121SOL    HW216263   1.973   2.297   6.968
 5122SOL     OW16264   3.192   0.769   4.368
 5122SOL    HW116265   3.263   0.722   4.315
 5122SOL    HW216266   3.105   0.766   4.318
 5123SOL     OW16267   6.162   3.406   4.773
 5123SOL    HW116268   6.081   3.420   4.716
 5123SOL    HW216269   6.226   3.481   4.759
 5124SOL     OW16270   2.345   5.394   6.000
 5124SOL    HW116271   2.389   5.375   6.088
 5124SOL    HW216272   2.399   5.461   5.950
 5125SOL     OW16273   6.587   3.436   4.672
 5125SOL    HW116274   6.682   3.407   4.679
 5125SOL    HW216275   6.538   3.377   4.608
 5126SOL     OW16276   6.306   4.619   5.842
 5126SOL    HW116277   6.230   4.684   5.835
 5126SOL    HW216278   6.319   4.573   5.754
 5127SOL     OW16279   6.153   3.598   0.019
 5127SOL    HW116280   6.191   3.686   0.047
 5127SOL    HW216281   6.137   3.598   6.942
 5128SOL     OW16282   0.859   0.509   0.214
 5128SOL    HW116283   0.792   0.511   0.139
 5128SOL    HW216284   0.950   0.531   0.178
 5129SOL     OW16285   4.856   0.842   2.474
 5129SOL    HW116286   4.816   0.760   2.433
 5129SOL    HW216287   4.826   0.922   2.423
 5130SOL     OW16288   1.532   5.684   4.695
 5130SOL    HW116289   1.435   5.667   4.681
 5130SOL    HW216290   1.558   5.655   4.787
 5131SOL     OW16291   2.846   4.806   3.525
 5131SOL    HW116292   2.788   4.727   3.541
 5131SOL    HW216293   2.920   4.781   3.463
 5132SOL     OW16294   3.146   1.058   5.950
 5132SOL    HW116295   3.180   0.977   5.998
 5132SOL    HW216296   3.131   1.132   6.015
 5133SOL     OW16297   2.876   5.855   6.389
 5133SOL    HW116298   2.909   5.845   6.295
 5133SOL    HW216299   2.930   5.925   6.436
 5134SOL     OW16300   6.910   6.953   2.793
 5134SOL    HW116301   6.910   0.004   2.725
 5134SOL    HW216302   6.994   6.958   2.847
 5135SOL     OW16303   6.173   4.030   3.151
 5135SOL    HW116304   6.242   3.964   3.125
 5135SOL    HW216305   6.213   4.122   3.151
 5136SOL     OW16306   6.591   1.557   6.073
 5136SOL    HW116307   6.688   1.552   6.052
 5136SOL    HW216308   6.544   1.479   6.031
 5137SOL     OW16309   5.033   3.246   5.417
 5137SOL    HW116310   4.998   3.335   5.445
 5137SOL    HW216311   4.957   3.189   5.385
 5138SOL     OW16312   3.721   4.055   3.717
 5138SOL    HW116313   3.756   4.044   3.810
 5138SOL    HW216314   3.792   4.027   3.652
 5139SOL     OW16315   0.992   0.159   4.814
 5139SOL    HW116316   1.040   0.237   4.852
 5139SOL    HW216317   1.051   0.112   4.748
 5140SOL     OW16318   3.815   2.079   5.946
 5140SOL    HW116319   3.803   1.981   5.936
 5140SOL    HW216320   3.912   2.100   5.956
 5141SOL     OW16321   6.427   2.905   1.799
 5141SOL    HW116322   6.433   2.984   1.739
 5141SOL    HW216323   6.349   2.915   1.861
 5142SOL     OW16324   5.587   0.092   5.385
 5142SOL    HW116325   5.509   0.030   5.396
 5142SOL    HW216326   5.621   0.086   5.291
 5143SOL     OW16327   1.333   3.962   5.373
 5143SOL    HW116328   1.336   3.879   5.428
 5143SOL    HW216329   1.241   4.000   5.376
 5144SOL     OW16330   1.672   3.671   6.257
 5144SOL    HW116331   1.640   3.657   6.164
 5144SOL    HW216332   1.751   3.733   6.256
 5145SOL     OW16333   3.637   6.104   6.384
 5145SOL    HW116334   3.718   6.104   6.442
 5145SOL    HW216335   3.570   6.040   6.422
 5146SOL     OW16336   3.578   4.245   5.164
 5146SOL    HW116337   3.651   4.250   5.233
 5146SOL    HW216338   3.600   4.304   5.087
 5147SOL     OW16339   5.910   4.986   3.388
 5147SOL    HW116340   5.961   4.972   3.472
 5147SOL    HW216341   5.954   4.936   3.313
 5148SOL     OW16342   0.678   0.484   2.450
 5148SOL    HW116343   0.692   0.403   2.507
 5148SOL    HW216344   0.766   0.526   2.429
 5149SOL     OW16345   5.516   4.915   4.220
 5149SOL    HW116346   5.538   4.849   4.292
 5149SOL    HW216347   5.457   4.987   4.257
 5150SOL     OW16348   2.296   4.496   3.904
 5150SOL    HW116349   2.315   4.419   3.844
 5150SOL    HW216350   2.296   4.581   3.851
 5151SOL     OW16351   5.751   3.843   1.820
 5151SOL    HW116352   5.734   3.813   1.914
 5151SOL    HW216353   5.803   3.928   1.821
 5152SOL     OW16354   1.048   6.066   6.583
 5152SOL    HW116355   1.059   6.165   6.577
 5152SOL    HW216356   1.111   6.021   6.519
 5153SOL     OW16357   1.346   1.508   1.129
 5153SOL    HW116358   1.424   1.569   1.113
 5153SOL    HW216359   1.302   1.533   1.215
 5154SOL     OW16360   1.471   3.093   6.692
 5154SOL    HW116361   1.461   3.170   6.629
 5154SOL    HW216362   1.505   3.013   6.642
 5155SOL     OW16363   3.312   1.489   1.097
 5155SOL    HW116364   3.364   1.470   1.180
 5155SOL    HW216365   3.310   1.587   1.080
 5156SOL     OW16366   5.526   4.352   4.664
 5156SOL    HW116367   5.445   4.329   4.718
 5156SOL    HW216368   5.583   4.416   4.715
 5157SOL     OW16369   3.300   1.850   2.098
 5157SOL    HW116370   3.292   1.855   1.998
 5157SOL    HW216371   3.270   1.937   2.138
 5158SOL     OW16372   3.099   2.511   1.313
 5158SOL    HW116373   3.179   2.467   1.272
 5158SOL    HW216374   3.083   2.599   1.269
 5159SOL     OW16375   6.150   4.161   6.286
 5159SOL    HW116376   6.117   4.253   6.265
 5159SOL    HW216377   6.080   4.094   6.261
 5160SOL     OW16378   6.434   6.202   3.507
 5160SOL    HW116379   6.524   6.160   3.518
 5160SOL    HW216380   6.363   6.137   3.536
 5161SOL     OW16381   1.221   3.447   0.515
 5161SOL    HW116382   1.153   3.378   0.542
 5161SOL    HW216383   1.198   3.535   0.557
 5162SOL     OW16384   0.630   5.678   2.376
 5162SOL    HW116385   0.633   5.778   2.381
 5162SOL    HW216386   0.699   5.639   2.436
 5163SOL     OW16387   3.939   7.020   0.902
 5163SOL    HW116388   3.987   7.006   0.815
 5163SOL    HW216389   3.846   6.986   0.895
 5164SOL     OW16390   2.607   3.216   6.959
 5164SOL    HW116391   2.689   3.160   6.945
 5164SOL    HW216392   2.626   3.310   6.932
 5165SOL     OW16393   0.990   4.147   6.485
 5165SOL    HW116394   0.932   4.199   6.548
 5165SOL    HW216395   1.069   4.202   6.459
 5166SOL     OW16396   1.732   4.803   2.499
 5166SOL    HW116397   1.641   4.768   2.521
 5166SOL    HW216398   1.798   4.727   2.502
 5167SOL     OW16399   6.389   4.074   4.918
 5167SOL    HW116400   6.312   4.131   4.948
 5167SOL    HW216401   6.448   4.127   4.858
 5168SOL     OW16402   4.782   2.361   2.364
 5168SOL    HW116403   4.711   2.424   2.331
 5168SOL    HW216404   4.796   2.288   2.297
 5169SOL     OW16405   4.942   2.237   3.777
 5169SOL    HW116406   5.009   2.251   3.704
 5169SOL    HW216407   4.876   2.312   3.776
 5170SOL     OW16408   1.066   3.490   5.562
 5170SOL    HW116409   1.049   3.394   5.542
 5170SOL    HW216410   1.091   3.538   5.478
 5171SOL     OW16411   0.566   4.927   5.299
 5171SOL    HW116412   0.620   4.861   5.247
 5171SOL    HW216413   0.607   5.017   5.292
 5172SOL     OW16414   1.482   4.946   3.633
 5172SOL    HW116415   1.562   4.889   3.615
 5172SOL    HW216416   1.510   5.042   3.637
 5173SOL     OW16417   4.294   4.068   6.445
 5173SOL    HW116418   4.316   4.076   6.348
 5173SOL    HW216419   4.261   3.976   6.464
 5174SOL     OW16420   2.231   6.504   3.924
 5174SOL    HW116421   2.323   6.487   3.888
 5174SOL    HW216422   2.238   6.532   4.020
 5175SOL     OW16423   2.263   3.857   6.601
 5175SOL    HW116424   2.362   3.847   6.589
 5175SOL    HW216425   2.239   3.954   6.602
 5176SOL     OW16426   5.110   5.096   6.530
 5176SOL    HW116427   5.064   5.105   6.441
 5176SOL    HW216428   5.089   5.007   6.569
 5177SOL     OW16429   5.219   6.439   1.215
 5177SOL    HW116430   5.136   6.480   1.178
 5177SOL    HW216431   5.205   6.417   1.312
 5178SOL     OW16432   0.850   4.569   1.724
 5178SOL    HW116433   0.856   4.533   1.631
 5178SOL    HW216434   0.937   4.609   1.750
 5179SOL     OW16435   5.022   4.345   3.199
 5179SOL    HW116436   5.012   4.431   3.249
 5179SOL    HW216437   4.973   4.352   3.112
 5180SOL     OW16438   3.594   0.328   1.176
 5180SOL    HW116439   3.656   0.310   1.253
 5180SOL    HW216440   3.507   0.281   1.192
 5181SOL     OW16441   0.433   0.594   6.953
 5181SOL    HW116442   0.387   0.646   0.003
 5181SOL    HW216443   0.379   0.513   6.931
 5182SOL     OW16444   4.382   4.537   1.754
 5182SOL    HW116445   4.420   4.547   1.662
 5182SOL    HW216446   4.398   4.444   1.787
 5183SOL     OW16447   3.620   1.642   2.842
 5183SOL    HW116448   3.659   1.550   2.847
 5183SOL    HW216449   3.621   1.684   2.932
 5184SOL     OW16450   2.253   2.129   3.154
 5184SOL    HW116451   2.317   2.089   3.219
 5184SOL    HW216452   2.257   2.229   3.160
 5185SOL     OW16453   4.650   0.365   2.765
 5185SOL    HW116454   4.691   0.307   2.834
 5185SOL    HW216455   4.715   0.380   2.690
 5186SOL     OW16456   6.038   2.653   5.134
 5186SOL    HW116457   5.968   2.603   5.185
 5186SOL    HW216458   6.002   2.742   5.107
 5187SOL     OW16459   1.902   5.354   4.870
 5187SOL    HW116460   1.970   5.406   4.922
 5187SOL    HW216461   1.893   5.393   4.778
 5188SOL     OW16462   6.628   6.394   1.620
 5188SOL    HW116463   6.587   6.484   1.606
 5188SOL    HW216464   6.705   6.381   1.558
 5189SOL     OW16465   5.243   5.961   6.882
 5189SOL    HW116466   5.212   6.010   6.800
 5189SOL    HW216467   5.341   5.941   6.874
 5190SOL     OW16468   1.688   3.002   2.719
 5190SOL    HW116469   1.775   3.026   2.763
 5190SOL    HW216470   1.627   2.961   2.785
 5191SOL     OW16471   3.203   5.759   3.229
 5191SOL    HW116472   3.153   5.675   3.251
 5191SOL    HW216473   3.140   5.827   3.194
 5192SOL     OW16474   1.967   5.907   1.631
 5192SOL    HW116475   1.876   5.865   1.640
 5192SOL    HW216476   2.037   5.836   1.638
 5193SOL     OW16477   4.427   6.553   6.083
 5193SOL    HW116478   4.463   6.595   6.166
 5193SOL    HW216479   4.496   6.559   6.011
 5194SOL     OW16480   2.673   2.260   6.749
 5194SOL    HW116481   2.652   2.188   6.682
 5194SOL    HW216482   2.665   2.349   6.706
 5195SOL     OW16483   0.432   0.249   3.844
 5195SOL    HW116484   0.382   0.279   3.925
 5195SOL    HW216485   0.427   0.319   3.773
 5196SOL     OW16486   4.325   6.533   2.262
 5196SOL    HW116487   4.393   6.556   2.331
 5196SOL    HW216488   4.273   6.616   2.238
 5197SOL     OW16489   1.509   4.048   6.604
 5197SOL    HW116490   1.530   3.963   6.555
 5197SOL    HW216491   1.516   4.032   6.703
 5198SOL     OW16492   4.277   5.557   3.190
 5198SOL    HW116493   4.335   5.526   3.265
 5198SOL    HW216494   4.311   5.520   3.104
 5199SOL     OW16495   6.834   5.467   0.859
 5199SOL    HW116496   6.801   5.382   0.900
 5199SOL    HW216497   6.923   5.491   0.899
 5200SOL     OW16498   6.689   3.131   5.378
 5200SOL    HW116499   6.770   3.073   5.367
 5200SOL    HW216500   6.653   3.122   5.471
 5201SOL     OW16501   0.607   6.833   3.197
 5201SOL    HW116502   0.620   6.925   3.159
 5201SOL    HW216503   0.594   6.768   3.122
 5202SOL     OW16504   6.428   2.730   6.468
 5202SOL    HW116505   6.341   2.758   6.509
 5202SOL    HW216506   6.432   2.630   6.462
 5203SOL     OW16507   2.172   2.545   6.702
 5203SOL    HW116508   2.184   2.589   6.613
 5203SOL    HW216509   2.262   2.530   6.744
 5204SOL     OW16510   3.822   5.135   0.548
 5204SOL    HW116511   3.788   5.229   0.546
 5204SOL    HW216512   3.856   5.113   0.639
 5205SOL     OW16513   1.580   0.040   0.612
 5205SOL    HW116514   1.530   0.096   0.547
 5205SOL    HW216515   1.627   0.098   0.678
 5206SOL     OW16516   0.289   3.531   6.411
 5206SOL    HW116517   0.294   3.631   6.409
 5206SOL    HW216518   0.264   3.497   6.321
 5207SOL     OW16519   1.157   5.125   4.057
 5207SOL    HW116520   1.199   5.215   4.070
 5207SOL    HW216521   1.107   5.123   3.971
 5208SOL     OW16522   3.300   1.441   0.360
 5208SOL    HW116523   3.391   1.447   0.320
 5208SOL    HW216524   3.307   1.411   0.455
 5209SOL     OW16525   5.807   5.761   4.200
 5209SOL    HW116526   5.727   5.788   4.254
 5209SOL    HW216527   5.779   5.694   4.131
 5210SOL     OW16528   5.987   2.829   5.646
 5210SOL    HW116529   5.955   2.909   5.596
 5210SOL    HW216530   5.913   2.795   5.705
 5211SOL     OW16531   4.012   3.268   4.573
 5211SOL    HW116532   4.055   3.353   4.604
 5211SOL    HW216533   3.927   3.290   4.525
 5212SOL     OW16534   0.010   2.317   1.140
 5212SOL    HW116535   0.068   2.241   1.166
 5212SOL    HW216536   0.025   2.394   1.202
 5213SOL     OW16537   5.002   2.726   6.844
 5213SOL    HW116538   5.058   2.786   6.901
 5213SOL    HW216539   4.981   2.773   6.758
 5214SOL     OW16540   5.467   1.376   6.690
 5214SOL    HW116541   5.537   1.326   6.639
 5214SOL    HW216542   5.448   1.329   6.776
 5215SOL     OW16543   5.152   5.493   3.262
 5215SOL    HW116544   5.180   5.502   3.358
 5215SOL    HW216545   5.057   5.464   3.257
 5216SOL     OW16546   4.752   6.079   1.444
 5216SOL    HW116547   4.818   6.139   1.490
 5216SOL    HW216548   4.749   5.991   1.491
 5217SOL     OW16549   3.513   4.963   4.066
 5217SOL    HW116550   3.421   4.970   4.029
 5217SOL    HW216551   3.509   4.964   4.166
 5218SOL     OW16552   1.742   0.488   3.150
 5218SOL    HW116553   1.754   0.425   3.073
 5218SOL    HW216554   1.801   0.460   3.225
 5219SOL     OW16555   3.675   0.701   6.774
 5219SOL    HW116556   3.663   0.652   6.687
 5219SOL    HW216557   3.769   0.689   6.806
 5220SOL     OW16558   1.608   5.424   3.082
 5220SOL    HW116559   1.543   5.376   3.024
 5220SOL    HW216560   1.675   5.472   3.025
 5221SOL     OW16561   5.645   2.414   4.416
 5221SOL    HW116562   5.573   2.413   4.346
 5221SOL    HW216563   5.630   2.490   4.479
 5222SOL     OW16564   2.500   0.327   3.777
 5222SOL    HW116565   2.503   0.284   3.867
 5222SOL    HW216566   2.516   0.426   3.787
 5223SOL     OW16567   5.252   0.590   1.503
 5223SOL    HW116568   5.163   0.575   1.547
 5223SOL    HW216569   5.240   0.593   1.404
 5224SOL     OW16570   0.519   1.476   3.214
 5224SOL    HW116571   0.443   1.520   3.260
 5224SOL    HW216572   0.585   1.443   3.282
 5225SOL     OW16573   6.530   0.731   3.218
 5225SOL    HW116574   6.499   0.806   3.276
 5225SOL    HW216575   6.473   0.726   3.137
 5226SOL     OW16576   0.237   5.980   5.546
 5226SOL    HW116577   0.235   5.881   5.532
 5226SOL    HW216578   0.174   6.004   5.621
 5227SOL     OW16579   1.940   4.419   3.951
 5227SOL    HW116580   2.012   4.485   3.975
 5227SOL    HW216581   1.853   4.466   3.943
 5228SOL     OW16582   6.541   3.166   1.351
 5228SOL    HW116583   6.486   3.235   1.304
 5228SOL    HW216584   6.536   3.180   1.450
 5229SOL     OW16585   1.195   4.383   6.724
 5229SOL    HW116586   1.251   4.462   6.751
 5229SOL    HW216587   1.192   4.377   6.624
 5230SOL     OW16588   0.174   0.078   0.840
 5230SOL    HW116589   0.250   0.013   0.840
 5230SOL    HW216590   0.209   0.171   0.844
 5231SOL     OW16591   2.968   3.799   4.178
 5231SOL    HW116592   2.942   3.880   4.230
 5231SOL    HW216593   2.960   3.718   4.236
 5232SOL     OW16594   2.788   2.044   6.297
 5232SOL    HW116595   2.717   2.026   6.228
 5232SOL    HW216596   2.877   2.017   6.261
 5233SOL     OW16597   6.550   0.355   1.649
 5233SOL    HW116598   6.600   0.280   1.692
 5233SOL    HW216599   6.527   0.331   1.555
 5234SOL     OW16600   3.036   0.435   6.456
 5234SOL    HW116601   2.941   0.419   6.429
 5234SOL    HW216602   3.097   0.383   6.397
 5235SOL     OW16603   1.451   2.953   1.343
 5235SOL    HW116604   1.513   3.019   1.384
 5235SOL    HW216605   1.490   2.861   1.350
 5236SOL     OW16606   5.702   3.313   2.054
 5236SOL    HW116607   5.679   3.223   2.090
 5236SOL    HW216608   5.801   3.324   2.053
 5237SOL     OW16609   2.616   1.296   5.203
 5237SOL    HW116610   2.682   1.360   5.164
 5237SOL    HW216611   2.638   1.203   5.173
 5238SOL     OW16612   2.014   5.350   0.740
 5238SOL    HW116613   2.097   5.396   0.710
 5238SOL    HW216614   2.032   5.299   0.824
 5239SOL     OW16615   3.798   3.683   3.922
 5239SOL    HW116616   3.800   3.595   3.874
 5239SOL    HW216617   3.847   3.674   4.009
 5240SOL     OW16618   3.030   1.926   5.525
 5240SOL    HW116619   3.075   1.840   5.551
 5240SOL    HW216620   3.099   1.998   5.514
 5241SOL     OW16621   1.133   5.691   6.638
 5241SOL    HW116622   1.068   5.752   6.682
 5241SOL    HW216623   1.082   5.621   6.587
 5242SOL     OW16624   6.582   6.392   5.640
 5242SOL    HW116625   6.641   6.432   5.570
 5242SOL    HW216626   6.545   6.306   5.607
 5243SOL     OW16627   1.842   6.177   1.712
 5243SOL    HW116628   1.878   6.234   1.638
 5243SOL    HW216629   1.851   6.081   1.688
 5244SOL     OW16630   4.001   3.765   6.518
 5244SOL    HW116631   4.075   3.725   6.572
 5244SOL    HW216632   4.038   3.835   6.457
 5245SOL     OW16633   4.498   4.569   0.006
 5245SOL    HW116634   4.441   4.647   7.002
 5245SOL    HW216635   4.552   4.540   6.949
 5246SOL     OW16636   5.717   4.523   2.916
 5246SOL    HW116637   5.667   4.507   2.831
 5246SOL    HW216638   5.655   4.561   2.985
 5247SOL     OW16639   1.564   6.023   0.313
 5247SOL    HW116640   1.479   6.039   0.363
 5247SOL    HW216641   1.640   6.064   0.363
 5248SOL     OW16642   5.853   0.784   5.625
 5248SOL    HW116643   5.804   0.766   5.710
 5248SOL    HW216644   5.869   0.882   5.616
 5249SOL     OW16645   0.456   5.338   5.240
 5249SOL    HW116646   0.532   5.398   5.263
 5249SOL    HW216647   0.398   5.381   5.171
 5250SOL     OW16648   0.246   1.382   5.829
 5250SOL    HW116649   0.236   1.441   5.910
 5250SOL    HW216650   0.238   1.438   5.747
 5251SOL     OW16651   0.530   2.814   1.581
 5251SOL    HW116652   0.541   2.747   1.654
 5251SOL    HW216653   0.445   2.795   1.531
 5252SOL     OW16654   1.960   5.900   0.857
 5252SOL    HW116655   2.037   5.851   0.815
 5252SOL    HW216656   1.879   5.889   0.799
 5253SOL     OW16657   5.162   3.585   5.654
 5253SOL    HW116658   5.155   3.685   5.653
 5253SOL    HW216659   5.125   3.551   5.741
 5254SOL     OW16660   5.537   1.510   3.901
 5254SOL    HW116661   5.479   1.581   3.941
 5254SOL    HW216662   5.483   1.455   3.837
 5255SOL     OW16663   4.390   0.453   5.406
 5255SOL    HW116664   4.368   0.543   5.367
 5255SOL    HW216665   4.444   0.400   5.341
 5256SOL     OW16666   4.637   1.367   2.814
 5256SOL    HW116667   4.572   1.411   2.877
 5256SOL    HW216668   4.594   1.355   2.725
 5257SOL     OW16669   4.187   0.668   1.987
 5257SOL    HW116670   4.095   0.705   1.999
 5257SOL    HW216671   4.193   0.581   2.036
 5258SOL     OW16672   5.129   3.959   1.674
 5258SOL    HW116673   5.183   3.875   1.674
 5258SOL    HW216674   5.086   3.970   1.764
 5259SOL     OW16675   4.450   6.275   1.220
 5259SOL    HW116676   4.475   6.197   1.277
 5259SOL    HW216677   4.504   6.355   1.248
 5260SOL     OW16678   5.744   3.284   0.832
 5260SOL    HW116679   5.681   3.209   0.849
 5260SOL    HW216680   5.764   3.332   0.917
 5261SOL     OW16681   1.342   2.897   6.105
 5261SOL    HW116682   1.386   2.809   6.122
 5261SOL    HW216683   1.260   2.905   6.162
 5262SOL     OW16684   3.002   6.695   2.297
 5262SOL    HW116685   3.074   6.750   2.255
 5262SOL    HW216686   2.965   6.631   2.230
 5263SOL     OW16687   1.028   0.624   5.822
 5263SOL    HW116688   0.990   0.644   5.912
 5263SOL    HW216689   0.962   0.650   5.751
 5264SOL     OW16690   5.711   0.565   1.672
 5264SOL    HW116691   5.615   0.540   1.661
 5264SOL    HW216692   5.723   0.611   1.761
 5265SOL     OW16693   4.953   4.260   2.734
 5265SOL    HW116694   4.917   4.276   2.642
 5265SOL    HW216695   5.044   4.219   2.728
 5266SOL     OW16696   2.628   6.849   1.612
 5266SOL    HW116697   2.533   6.825   1.593
 5266SOL    HW216698   2.638   6.875   1.708
 5267SOL     OW16699   4.663   4.768   5.953
 5267SOL    HW116700   4.715   4.803   6.031
 5267SOL    HW216701   4.566   4.762   5.978
 5268SOL     OW16702   6.572   5.653   6.172
 5268SOL    HW116703   6.521   5.618   6.094
 5268SOL    HW216704   6.559   5.752   6.179
 5269SOL     OW16705   2.924   6.167   4.216
 5269SOL    HW116706   2.929   6.266   4.202
 5269SOL    HW216707   2.928   6.147   4.314
 5270SOL     OW16708   4.252   2.163   1.689
 5270SOL    HW116709   4.230   2.130   1.597
 5270SOL    HW216710   4.198   2.112   1.756
 5271SOL     OW16711   4.534   5.372   4.742
 5271SOL    HW116712   4.608   5.306   4.728
 5271SOL    HW216713   4.496   5.398   4.653
 5272SOL     OW16714   1.911   5.469   3.469
 5272SOL    HW116715   1.814   5.486   3.451
 5272SOL    HW216716   1.930   5.486   3.565
 5273SOL     OW16717   0.447   3.612   3.043
 5273SOL    HW116718   0.524   3.597   2.982
 5273SOL    HW216719   0.376   3.544   3.025
 5274SOL     OW16720   6.057   4.894   2.399
 5274SOL    HW116721   6.144   4.890   2.351
 5274SOL    HW216722   6.015   4.984   2.385
 5275SOL     OW16723   3.441   1.524   6.382
 5275SOL    HW116724   3.389   1.578   6.316
 5275SOL    HW216725   3.461   1.579   6.463
 5276SOL     OW16726   0.965   6.144   0.682
 5276SOL    HW116727   1.034   6.106   0.742
 5276SOL    HW216728   0.969   6.244   0.686
 5277SOL     OW16729   1.346   2.520   2.865
 5277SOL    HW116730   1.312   2.431   2.836
 5277SOL    HW216731   1.381   2.513   2.958
 5278SOL     OW16732   5.111   6.599   4.884
 5278SOL    HW116733   5.047   6.580   4.958
 5278SOL    HW216734   5.204   6.595   4.919
 5279SOL     OW16735   1.285   6.283   0.077
 5279SOL    HW116736   1.327   6.260   7.011
 5279SOL    HW216737   1.356   6.294   0.146
 5280SOL     OW16738   3.027   5.326   5.305
 5280SOL    HW116739   2.950   5.262   5.300
 5280SOL    HW216740   3.113   5.276   5.304
 5281SOL     OW16741   1.690   1.080   3.718
 5281SOL    HW116742   1.668   1.018   3.793
 5281SOL    HW216743   1.761   1.144   3.748
 5282SOL     OW16744   1.721   0.486   1.929
 5282SOL    HW116745   1.635   0.434   1.937
 5282SOL    HW216746   1.785   0.453   1.998
 5283SOL     OW16747   2.312   0.270   3.070
 5283SOL    HW116748   2.286   0.362   3.042
 5283SOL    HW216749   2.274   0.252   3.161
 5284SOL     OW16750   4.885   3.193   3.499
 5284SOL    HW116751   4.887   3.093   3.499
 5284SOL    HW216752   4.909   3.227   3.407
 5285SOL     OW16753   0.475   3.710   4.300
 5285SOL    HW116754   0.542   3.640   4.324
 5285SOL    HW216755   0.469   3.778   4.373
 5286SOL     OW16756   6.601   3.681   1.392
 5286SOL    HW116757   6.508   3.648   1.375
 5286SOL    HW216758   6.642   3.711   1.306
 5287SOL     OW16759   2.913   5.733   1.445
 5287SOL    HW116760   3.009   5.764   1.450
 5287SOL    HW216761   2.853   5.807   1.476
 5288SOL     OW16762   3.773   0.820   2.470
 5288SOL    HW116763   3.821   0.736   2.444
 5288SOL    HW216764   3.823   0.866   2.543
 5289SOL     OW16765   1.763   6.073   5.349
 5289SOL    HW116766   1.710   6.143   5.396
 5289SOL    HW216767   1.834   6.038   5.410
 5290SOL     OW16768   1.309   3.872   5.881
 5290SOL    HW116769   1.294   3.782   5.840
 5290SOL    HW216770   1.271   3.943   5.822
 5291SOL     OW16771   2.954   4.678   6.632
 5291SOL    HW116772   3.020   4.737   6.584
 5291SOL    HW216773   2.861   4.703   6.605
 5292SOL     OW16774   5.606   4.999   6.170
 5292SOL    HW116775   5.600   4.984   6.071
 5292SOL    HW216776   5.688   5.053   6.190
 5293SOL     OW16777   1.938   6.787   4.905
 5293SOL    HW116778   2.001   6.849   4.858
 5293SOL    HW216779   1.932   6.701   4.855
 5294SOL     OW16780   5.646   2.506   5.498
 5294SOL    HW116781   5.595   2.546   5.574
 5294SOL    HW216782   5.644   2.407   5.504
 5295SOL     OW16783   4.053   1.343   2.964
 5295SOL    HW116784   3.971   1.368   3.015
 5295SOL    HW216785   4.057   1.396   2.879
 5296SOL     OW16786   3.170   4.866   6.611
 5296SOL    HW116787   3.118   4.945   6.645
 5296SOL    HW216788   3.214   4.890   6.525
 5297SOL     OW16789   1.678   3.755   0.688
 5297SOL    HW116790   1.630   3.725   0.771
 5297SOL    HW216791   1.756   3.813   0.713
 5298SOL     OW16792   0.873   6.112   7.005
 5298SOL    HW116793   0.947   6.086   0.045
 5298SOL    HW216794   0.901   6.190   6.949
 5299SOL     OW16795   2.501   3.181   0.847
 5299SOL    HW116796   2.586   3.156   0.894
 5299SOL    HW216797   2.433   3.212   0.914
 5300SOL     OW16798   0.531   5.766   1.088
 5300SOL    HW116799   0.473   5.835   1.131
 5300SOL    HW216800   0.625   5.777   1.120
 5301SOL     OW16801   3.466   1.835   6.376
 5301SOL    HW116802   3.495   1.797   6.288
 5301SOL    HW216803   3.520   1.917   6.396
 5302SOL     OW16804   5.804   5.594   3.785
 5302SOL    HW116805   5.782   5.497   3.780
 5302SOL    HW216806   5.841   5.624   3.697
 5303SOL     OW16807   6.752   5.145   4.639
 5303SOL    HW116808   6.754   5.083   4.561
 5303SOL    HW216809   6.797   5.231   4.614
 5304SOL     OW16810   5.740   0.804   0.830
 5304SOL    HW116811   5.682   0.861   0.889
 5304SOL    HW216812   5.833   0.801   0.867
 5305SOL     OW16813   0.691   4.477   3.510
 5305SOL    HW116814   0.619   4.543   3.530
 5305SOL    HW216815   0.664   4.386   3.541
 5306SOL     OW16816   0.718   4.306   4.940
 5306SOL    HW116817   0.716   4.394   4.893
 5306SOL    HW216818   0.761   4.238   4.881
 5307SOL     OW16819   4.229   1.889   0.268
 5307SOL    HW116820   4.138   1.892   0.309
 5307SOL    HW216821   4.287   1.826   0.319
 5308SOL     OW16822   1.121   4.580   3.258
 5308SOL    HW116823   1.184   4.612   3.188
 5308SOL    HW216824   1.104   4.482   3.246
 5309SOL     OW16825   3.856   4.786   1.807
 5309SOL    HW116826   3.786   4.766   1.739
 5309SOL    HW216827   3.915   4.706   1.819
 5310SOL     OW16828   5.952   3.420   2.041
 5310SOL    HW116829   5.915   3.466   2.122
 5310SOL    HW216830   6.038   3.375   2.064
 5311SOL     OW16831   6.323   6.482   6.668
 5311SOL    HW116832   6.323   6.526   6.757
 5311SOL    HW216833   6.360   6.389   6.676
 5312SOL     OW16834   0.469   5.587   1.414
 5312SOL    HW116835   0.437   5.493   1.430
 5312SOL    HW216836   0.390   5.646   1.399
 5313SOL     OW16837   1.305   2.919   5.831
 5313SOL    HW116838   1.321   2.896   5.927
 5313SOL    HW216839   1.392   2.913   5.781
 5314SOL     OW16840   3.560   6.763   0.209
 5314SOL    HW116841   3.647   6.801   0.176
 5314SOL    HW216842   3.485   6.797   0.152
 5315SOL     OW16843   4.749   3.436   1.732
 5315SOL    HW116844   4.798   3.399   1.653
 5315SOL    HW216845   4.654   3.457   1.707
 5316SOL     OW16846   0.797   3.562   5.143
 5316SOL    HW116847   0.768   3.648   5.101
 5316SOL    HW216848   0.756   3.554   5.234
 5317SOL     OW16849   5.926   0.971   5.014
 5317SOL    HW116850   5.843   0.964   4.958
 5317SOL    HW216851   5.970   0.881   5.018
 5318SOL     OW16852   0.760   3.043   0.090
 5318SOL    HW116853   0.804   3.049   0.180
 5318SOL    HW216854   0.662   3.024   0.102
 5319SOL     OW16855   3.627   6.300   0.356
 5319SOL    HW116856   3.602   6.392   0.387
 5319SOL    HW216857   3.692   6.260   0.421
 5320SOL     OW16858   4.939   4.875   0.495
 5320SOL    HW116859   5.014   4.854   0.432
 5320SOL    HW216860   4.970   4.863   0.589
 5321SOL     OW16861   1.922   4.818   4.707
 5321SOL    HW116862   1.950   4.911   4.727
 5321SOL    HW216863   1.824   4.816   4.687
 5322SOL     OW16864   5.494   6.415   6.401
 5322SOL    HW116865   5.489   6.415   6.501
 5322SOL    HW216866   5.584   6.447   6.372
 5323SOL     OW16867   4.024   2.127   0.009
 5323SOL    HW116868   4.008   2.126   6.932
 5323SOL    HW216869   4.080   2.048   0.034
 5324SOL     OW16870   3.265   1.932   0.721
 5324SOL    HW116871   3.338   1.968   0.779
 5324SOL    HW216872   3.204   2.007   0.695
 5325SOL     OW16873   4.350   0.651   4.270
 5325SOL    HW116874   4.342   0.551   4.270
 5325SOL    HW216875   4.294   0.689   4.344
 5326SOL     OW16876   6.345   5.085   3.014
 5326SOL    HW116877   6.249   5.111   3.023
 5326SOL    HW216878   6.387   5.138   2.940
 5327SOL     OW16879   5.557   2.823   5.521
 5327SOL    HW116880   5.544   2.900   5.459
 5327SOL    HW216881   5.635   2.842   5.581
 5328SOL     OW16882   3.872   2.987   5.129
 5328SOL    HW116883   3.947   3.015   5.069
 5328SOL    HW216884   3.786   3.025   5.095
 5329SOL     OW16885   0.283   4.685   0.170
 5329SOL    HW116886   0.260   4.605   0.224
 5329SOL    HW216887   0.347   4.659   0.097
 5330SOL     OW16888   4.098   4.113   5.932
 5330SOL    HW116889   4.069   4.209   5.922
 5330SOL    HW216890   4.019   4.053   5.922
 5331SOL     OW16891   5.740   1.196   0.733
 5331SOL    HW116892   5.666   1.203   0.667
 5331SOL    HW216893   5.703   1.178   0.824
 5332SOL     OW16894   0.936   3.070   1.296
 5332SOL    HW116895   0.898   3.163   1.299
 5332SOL    HW216896   0.899   3.017   1.372
 5333SOL     OW16897   0.567   0.467   3.213
 5333SOL    HW116898   0.491   0.425   3.163
 5333SOL    HW216899   0.595   0.551   3.167
 5334SOL     OW16900   3.225   0.313   4.426
 5334SOL    HW116901   3.130   0.343   4.435
 5334SOL    HW216902   3.286   0.381   4.466
 5335SOL     OW16903   6.815   6.127   2.102
 5335SOL    HW116904   6.914   6.124   2.106
 5335SOL    HW216905   6.783   6.081   2.019
 5336SOL     OW16906   2.076   2.477   3.396
 5336SOL    HW116907   2.132   2.438   3.323
 5336SOL    HW216908   2.063   2.410   3.469
 5337SOL     OW16909   4.896   4.239   1.384
 5337SOL    HW116910   4.928   4.145   1.384
 5337SOL    HW216911   4.974   4.301   1.376
 5338SOL     OW16912   6.270   2.021   6.776
 5338SOL    HW116913   6.246   2.079   6.855
 5338SOL    HW216914   6.217   1.937   6.779
 5339SOL     OW16915   6.778   2.091   3.982
 5339SOL    HW116916   6.798   2.183   3.946
 5339SOL    HW216917   6.709   2.047   3.924
 5340SOL     OW16918   4.822   3.328   0.971
 5340SOL    HW116919   4.728   3.298   0.952
 5340SOL    HW216920   4.836   3.419   0.931
 5341SOL     OW16921   3.133   2.857   6.516
 5341SOL    HW116922   3.082   2.866   6.431
 5341SOL    HW216923   3.222   2.816   6.498
 5342SOL     OW16924   3.026   0.260   4.065
 5342SOL    HW116925   3.001   0.232   3.973
 5342SOL    HW216926   3.114   0.219   4.089
 5343SOL     OW16927   3.581   3.493   4.372
 5343SOL    HW116928   3.551   3.529   4.283
 5343SOL    HW216929   3.538   3.404   4.388
 5344SOL     OW16930   2.385   2.736   2.611
 5344SOL    HW116931   2.434   2.680   2.678
 5344SOL    HW216932   2.338   2.811   2.658
 5345SOL     OW16933   3.402   6.747   1.454
 5345SOL    HW116934   3.440   6.723   1.543
 5345SOL    HW216935   3.353   6.669   1.416
 5346SOL     OW16936   3.563   5.972   4.448
 5346SOL    HW116937   3.470   6.004   4.429
 5346SOL    HW216938   3.599   6.020   4.528
 5347SOL     OW16939   0.939   2.491   1.777
 5347SOL    HW116940   0.889   2.474   1.862
 5347SOL    HW216941   1.028   2.445   1.780
 5348SOL     OW16942   0.176   2.335   0.921
 5348SOL    HW116943   0.105   2.345   0.990
 5348SOL    HW216944   0.166   2.247   0.875
 5349SOL     OW16945   2.106   2.851   0.251
 5349SOL    HW116946   2.118   2.785   0.177
 5349SOL    HW216947   2.172   2.926   0.240
 5350SOL     OW16948   2.306   0.181   5.652
 5350SOL    HW116949   2.343   0.095   5.687
 5350SOL    HW216950   2.243   0.220   5.720
 5351SOL     OW16951   6.538   5.670   2.523
 5351SOL    HW116952   6.492   5.589   2.559
 5351SOL    HW216953   6.630   5.645   2.492
 5352SOL     OW16954   2.642   4.651   3.259
 5352SOL    HW116955   2.552   4.688   3.235
 5352SOL    HW216956   2.656   4.659   3.358
 5353SOL     OW16957   4.091   4.995   3.270
 5353SOL    HW116958   4.174   5.047   3.291
 5353SOL    HW216959   4.106   4.940   3.187
 5354SOL     OW16960   2.595   5.485   2.164
 5354SOL    HW116961   2.595   5.424   2.242
 5354SOL    HW216962   2.640   5.441   2.086
 5355SOL     OW16963   6.450   3.763   3.821
 5355SOL    HW116964   6.427   3.856   3.851
 5355SOL    HW216965   6.549   3.751   3.822
 5356SOL     OW16966   5.848   4.378   1.661
 5356SOL    HW116967   5.815   4.366   1.568
 5356SOL    HW216968   5.841   4.474   1.687
 5357SOL     OW16969   4.339   6.790   1.174
 5357SOL    HW116970   4.359   6.742   1.260
 5357SOL    HW216971   4.264   6.854   1.189
 5358SOL     OW16972   4.728   1.599   0.064
 5358SOL    HW116973   4.702   1.612   6.990
 5358SOL    HW216974   4.826   1.613   0.073
 5359SOL     OW16975   1.263   1.600   6.030
 5359SOL    HW116976   1.297   1.691   6.007
 5359SOL    HW216977   1.322   1.559   6.100
 5360SOL     OW16978   4.300   6.400   5.338
 5360SOL    HW116979   4.211   6.372   5.373
 5360SOL    HW216980   4.370   6.382   5.407
 5361SOL     OW16981   2.636   1.014   5.107
 5361SOL    HW116982   2.542   1.026   5.140
 5361SOL    HW216983   2.635   0.956   5.025
 5362SOL     OW16984   6.239   5.318   3.374
 5362SOL    HW116985   6.294   5.387   3.327
 5362SOL    HW216986   6.156   5.300   3.321
 5363SOL     OW16987   0.328   0.082   6.762
 5363SOL    HW116988   0.422   0.054   6.742
 5363SOL    HW216989   0.267   0.049   6.690
 5364SOL     OW16990   6.335   6.678   1.997
 5364SOL    HW116991   6.248   6.681   1.946
 5364SOL    HW216992   6.316   6.664   2.094
 5365SOL     OW16993   3.414   3.460   6.813
 5365SOL    HW116994   3.506   3.449   6.850
 5365SOL    HW216995   3.371   3.370   6.802
 5366SOL     OW16996   5.093   6.321   2.132
 5366SOL    HW116997   5.146   6.403   2.109
 5366SOL    HW216998   4.996   6.341   2.128
 5367SOL     OW16999   0.879   6.460   0.565
 5367SOL    HW117000   0.899   6.427   0.472
 5367SOL    HW217001   0.923   6.549   0.578
 5368SOL     OW17002   5.124   0.170   3.159
 5368SOL    HW117003   5.123   0.261   3.200
 5368SOL    HW217004   5.154   0.103   3.227
 5369SOL     OW17005   3.037   6.425   2.216
 5369SOL    HW117006   3.131   6.423   2.251
 5369SOL    HW217007   3.038   6.456   2.121
 5370SOL     OW17008   4.384   3.148   1.711
 5370SOL    HW117009   4.351   3.054   1.702
 5370SOL    HW217010   4.449   3.154   1.786
 5371SOL     OW17011   1.153   4.034   5.077
 5371SOL    HW117012   1.207   3.959   5.038
 5371SOL    HW217013   1.105   4.002   5.159
 5372SOL     OW17014   2.645   6.209   4.203
 5372SOL    HW117015   2.731   6.158   4.199
 5372SOL    HW217016   2.640   6.258   4.290
 5373SOL     OW17017   3.720   7.020   4.338
 5373SOL    HW117018   3.783   6.945   4.357
 5373SOL    HW217019   3.626   6.988   4.345
 5374SOL     OW17020   1.327   4.084   0.145
 5374SOL    HW117021   1.319   4.130   0.233
 5374SOL    HW217022   1.291   4.144   0.073
 5375SOL     OW17023   1.660   4.861   4.717
 5375SOL    HW117024   1.613   4.821   4.638
 5375SOL    HW217025   1.611   4.837   4.800
 5376SOL     OW17026   1.234   3.020   1.040
 5376SOL    HW117027   1.228   2.964   0.957
 5376SOL    HW217028   1.217   2.963   1.120
 5377SOL     OW17029   0.361   0.155   2.270
 5377SOL    HW117030   0.400   0.087   2.208
 5377SOL    HW217031   0.428   0.228   2.284
 5378SOL     OW17032   6.826   0.808   1.607
 5378SOL    HW117033   6.736   0.848   1.589
 5378SOL    HW217034   6.824   0.711   1.582
 5379SOL     OW17035   1.530   4.857   4.976
 5379SOL    HW117036   1.463   4.870   5.049
 5379SOL    HW217037   1.592   4.783   5.001
 5380SOL     OW17038   2.221   1.949   2.955
 5380SOL    HW117039   2.311   1.952   2.911
 5380SOL    HW217040   2.217   2.016   3.029
 5381SOL     OW17041   6.682   4.071   1.695
 5381SOL    HW117042   6.663   3.988   1.747
 5381SOL    HW217043   6.597   4.120   1.677
 5382SOL     OW17044   3.043   0.763   2.126
 5382SOL    HW117045   3.108   0.793   2.057
 5382SOL    HW217046   2.968   0.829   2.132
 5383SOL     OW17047   2.535   2.448   5.501
 5383SOL    HW117048   2.559   2.422   5.408
 5383SOL    HW217049   2.474   2.379   5.540
 5384SOL     OW17050   6.251   6.931   5.069
 5384SOL    HW117051   6.186   6.923   4.993
 5384SOL    HW217052   6.203   6.960   5.151
 5385SOL     OW17053   2.926   3.337   3.901
 5385SOL    HW117054   2.971   3.423   3.924
 5385SOL    HW217055   2.828   3.345   3.919
 5386SOL     OW17056   4.809   0.085   4.232
 5386SOL    HW117057   4.801   0.008   4.169
 5386SOL    HW217058   4.717   0.115   4.260
 5387SOL     OW17059   2.395   6.560   3.544
 5387SOL    HW117060   2.434   6.642   3.501
 5387SOL    HW217061   2.298   6.555   3.522
 5388SOL     OW17062   0.037   0.565   4.181
 5388SOL    HW117063   0.056   0.568   4.279
 5388SOL    HW217064   0.116   0.600   4.131
 5389SOL     OW17065   4.514   1.110   2.327
 5389SOL    HW117066   4.484   1.205   2.329
 5389SOL    HW217067   4.614   1.107   2.318
 5390SOL     OW17068   4.612   4.317   2.996
 5390SOL    HW117069   4.514   4.331   3.002
 5390SOL    HW217070   4.656   4.400   2.963
 5391SOL     OW17071   1.837   2.514   1.135
 5391SOL    HW117072   1.739   2.532   1.143
 5391SOL    HW217073   1.851   2.432   1.080
 5392SOL     OW17074   5.478   2.973   1.549
 5392SOL    HW117075   5.527   2.888   1.527
 5392SOL    HW217076   5.391   2.976   1.499
 5393SOL     OW17077   4.938   6.926   6.368
 5393SOL    HW117078   5.032   6.907   6.339
 5393SOL    HW217079   4.876   6.861   6.323
 5394SOL     OW17080   6.928   4.874   6.617
 5394SOL    HW117081   6.862   4.827   6.559
 5394SOL    HW217082   6.995   4.809   6.653
 5395SOL     OW17083   5.178   0.941   1.832
 5395SOL    HW117084   5.252   0.881   1.864
 5395SOL    HW217085   5.117   0.888   1.772
 5396SOL     OW17086   4.524   4.748   2.159
 5396SOL    HW117087   4.538   4.768   2.062
 5396SOL    HW217088   4.430   4.717   2.174
 5397SOL     OW17089   0.477   2.182   1.658
 5397SOL    HW117090   0.421   2.192   1.740
 5397SOL    HW217091   0.528   2.266   1.642
 5398SOL     OW17092   3.500   2.001   3.230
 5398SOL    HW117093   3.402   2.021   3.237
 5398SOL    HW217094   3.537   1.984   3.321
 5399SOL     OW17095   2.639   5.696   0.416
 5399SOL    HW117096   2.663   5.746   0.333
 5399SOL    HW217097   2.717   5.642   0.447
 5400SOL     OW17098   2.558   3.957   0.715
 5400SOL    HW117099   2.483   3.891   0.707
 5400SOL    HW217100   2.552   4.003   0.804
 5401SOL     OW17101   5.696   3.368   1.108
 5401SOL    HW117102   5.675   3.276   1.142
 5401SOL    HW217103   5.784   3.397   1.145
 5402SOL     OW17104   2.467   5.170   1.689
 5402SOL    HW117105   2.484   5.217   1.777
 5402SOL    HW217106   2.464   5.071   1.704
 5403SOL     OW17107   5.988   2.546   6.291
 5403SOL    HW117108   6.059   2.569   6.225
 5403SOL    HW217109   6.029   2.497   6.368
 5404SOL     OW17110   0.836   0.884   2.561
 5404SOL    HW117111   0.901   0.821   2.603
 5404SOL    HW217112   0.865   0.978   2.577
 5405SOL     OW17113   5.905   6.045   0.534
 5405SOL    HW117114   5.857   6.101   0.467
 5405SOL    HW217115   6.003   6.067   0.532
 5406SOL     OW17116   2.677   0.149   6.455
 5406SOL    HW117117   2.604   0.180   6.394
 5406SOL    HW217118   2.638   0.122   6.543
 5407SOL     OW17119   4.624   2.709   1.342
 5407SOL    HW117120   4.603   2.674   1.433
 5407SOL    HW217121   4.715   2.679   1.315
 5408SOL     OW17122   3.372   1.314   5.992
 5408SOL    HW117123   3.334   1.365   5.915
 5408SOL    HW217124   3.298   1.281   6.050
 5409SOL     OW17125   6.128   1.287   4.419
 5409SOL    HW117126   6.028   1.281   4.412
 5409SOL    HW217127   6.153   1.371   4.467
 5410SOL     OW17128   1.686   3.114   1.378
 5410SOL    HW117129   1.706   3.116   1.280
 5410SOL    HW217130   1.678   3.208   1.412
 5411SOL     OW17131   6.741   4.690   5.917
 5411SOL    HW117132   6.650   4.723   5.944
 5411SOL    HW217133   6.760   4.605   5.967
 5412SOL     OW17134   4.184   0.839   6.780
 5412SOL    HW117135   4.256   0.899   6.815
 5412SOL    HW217136   4.109   0.895   6.744
 5413SOL     OW17137   1.536   0.272   1.011
 5413SOL    HW117138   1.552   0.255   1.108
 5413SOL    HW217139   1.494   0.362   0.999
 5414SOL     OW17140   6.223   3.139   4.731
 5414SOL    HW117141   6.197   3.229   4.766
 5414SOL    HW217142   6.284   3.150   4.653
 5415SOL     OW17143   1.341   6.307   1.481
 5415SOL    HW117144   1.336   6.405   1.461
 5415SOL    HW217145   1.430   6.287   1.523
 5416SOL     OW17146   3.818   4.747   6.344
 5416SOL    HW117147   3.765   4.790   6.417
 5416SOL    HW217148   3.804   4.796   6.258
 5417SOL     OW17149   3.837   6.515   4.964
 5417SOL    HW117150   3.866   6.607   4.992
 5417SOL    HW217151   3.814   6.461   5.044
 5418SOL     OW17152   4.181   6.756   4.391
 5418SOL    HW117153   4.141   6.668   4.364
 5418SOL    HW217154   4.248   6.741   4.464
 5419SOL     OW17155   3.187   5.421   0.407
 5419SOL    HW117156   3.204   5.325   0.430
 5419SOL    HW217157   3.205   5.478   0.488
 5420SOL     OW17158   1.468   2.353   1.770
 5420SOL    HW117159   1.535   2.384   1.837
 5420SOL    HW217160   1.479   2.254   1.755
 5421SOL     OW17161   2.115   3.780   2.357
 5421SOL    HW117162   2.137   3.717   2.432
 5421SOL    HW217163   2.065   3.731   2.286
 5422SOL     OW17164   0.585   6.185   6.133
 5422SOL    HW117165   0.502   6.147   6.173
 5422SOL    HW217166   0.572   6.283   6.116
 5423SOL     OW17167   5.316   2.805   6.842
 5423SOL    HW117168   5.304   2.738   6.769
 5423SOL    HW217169   5.255   2.883   6.825
 5424SOL     OW17170   5.372   2.938   4.271
 5424SOL    HW117171   5.431   2.991   4.209
 5424SOL    HW217172   5.383   2.972   4.364
 5425SOL     OW17173   4.635   1.890   4.325
 5425SOL    HW117174   4.657   1.819   4.392
 5425SOL    HW217175   4.551   1.937   4.353
 5426SOL     OW17176   6.585   5.360   3.877
 5426SOL    HW117177   6.527   5.423   3.929
 5426SOL    HW217178   6.664   5.334   3.932
 5427SOL     OW17179   5.275   5.001   0.887
 5427SOL    HW117180   5.351   5.007   0.952
 5427SOL    HW217181   5.189   5.016   0.935
 5428SOL     OW17182   0.018   0.583   1.748
 5428SOL    HW117183   7.007   0.666   1.792
 5428SOL    HW217184   6.965   0.539   1.699
 5429SOL     OW17185   1.108   1.768   5.797
 5429SOL    HW117186   1.119   1.670   5.813
 5429SOL    HW217187   1.095   1.784   5.699
 5430SOL     OW17188   0.800   3.359   5.476
 5430SOL    HW117189   0.755   3.429   5.421
 5430SOL    HW217190   0.825   3.282   5.417
 5431SOL     OW17191   3.391   5.657   6.592
 5431SOL    HW117192   3.299   5.696   6.599
 5431SOL    HW217193   3.387   5.575   6.535
 5432SOL     OW17194   3.862   6.365   6.499
 5432SOL    HW117195   3.860   6.457   6.462
 5432SOL    HW217196   3.772   6.340   6.534
 5433SOL     OW17197   0.420   1.570   3.746
 5433SOL    HW117198   0.497   1.630   3.770
 5433SOL    HW217199   0.380   1.532   3.829
 5434SOL     OW17200   4.072   1.179   4.416
 5434SOL    HW117201   4.028   1.228   4.340
 5434SOL    HW217202   4.053   1.226   4.502
 5435SOL     OW17203   5.749   1.678   1.726
 5435SOL    HW117204   5.816   1.723   1.666
 5435SOL    HW217205   5.779   1.584   1.743
 5436SOL     OW17206   4.966   4.298   4.308
 5436SOL    HW117207   4.941   4.330   4.399
 5436SOL    HW217208   5.051   4.246   4.312
 5437SOL     OW17209   2.513   5.159   5.753
 5437SOL    HW117210   2.592   5.165   5.814
 5437SOL    HW217211   2.498   5.063   5.728
 5438SOL     OW17212   5.596   3.784   2.729
 5438SOL    HW117213   5.652   3.702   2.734
 5438SOL    HW217214   5.623   3.848   2.801
 5439SOL     OW17215   0.770   2.362   0.945
 5439SOL    HW117216   0.835   2.418   0.894
 5439SOL    HW217217   0.737   2.413   1.024
 5440SOL     OW17218   0.586   0.176   1.899
 5440SOL    HW117219   0.626   0.242   1.835
 5440SOL    HW217220   0.500   0.142   1.862
 5441SOL     OW17221   5.124   2.802   3.238
 5441SOL    HW117222   5.216   2.798   3.276
 5441SOL    HW217223   5.128   2.788   3.139
 5442SOL     OW17224   3.594   6.208   3.464
 5442SOL    HW117225   3.538   6.239   3.387
 5442SOL    HW217226   3.535   6.166   3.533
 5443SOL     OW17227   2.472   0.770   3.525
 5443SOL    HW117228   2.472   0.704   3.449
 5443SOL    HW217229   2.452   0.861   3.490
 5444SOL     OW17230   1.528   0.625   3.807
 5444SOL    HW117231   1.431   0.604   3.794
 5444SOL    HW217232   1.546   0.719   3.777
 5445SOL     OW17233   5.906   4.169   4.161
 5445SOL    HW117234   5.959   4.085   4.156
 5445SOL    HW217235   5.921   4.213   4.249
 5446SOL     OW17236   6.498   5.276   5.546
 5446SOL    HW117237   6.519   5.229   5.631
 5446SOL    HW217238   6.565   5.250   5.476
 5447SOL     OW17239   1.628   2.072   6.902
 5447SOL    HW117240   1.726   2.052   6.909
 5447SOL    HW217241   1.594   2.102   6.991
 5448SOL     OW17242   5.639   3.383   4.723
 5448SOL    HW117243   5.653   3.479   4.696
 5448SOL    HW217244   5.558   3.347   4.676
 5449SOL     OW17245   1.650   2.255   6.711
 5449SOL    HW117246   1.655   2.191   6.788
 5449SOL    HW217247   1.601   2.212   6.635
 5450SOL     OW17248   1.899   0.344   2.095
 5450SOL    HW117249   1.808   0.309   2.113
 5450SOL    HW217250   1.962   0.312   2.165
 5451SOL     OW17251   1.364   5.605   3.950
 5451SOL    HW117252   1.341   5.668   3.875
 5451SOL    HW217253   1.452   5.632   3.990
 5452SOL     OW17254   2.008   4.470   0.115
 5452SOL    HW117255   1.949   4.458   0.035
 5452SOL    HW217256   2.029   4.381   0.155
 5453SOL     OW17257   5.444   4.194   1.771
 5453SOL    HW117258   5.389   4.266   1.727
 5453SOL    HW217259   5.541   4.209   1.750
 5454SOL     OW17260   6.611   3.826   5.791
 5454SOL    HW117261   6.520   3.845   5.756
 5454SOL    HW217262   6.648   3.744   5.745
 5455SOL     OW17263   5.882   2.978   1.531
 5455SOL    HW117264   5.978   2.953   1.543
 5455SOL    HW217265   5.824   2.902   1.559
 5456SOL     OW17266   2.693   0.572   6.581
 5456SOL    HW117267   2.715   0.615   6.669
 5456SOL    HW217268   2.633   0.493   6.596
 5457SOL     OW17269   6.713   2.742   0.626
 5457SOL    HW117270   6.685   2.744   0.530
 5457SOL    HW217271   6.744   2.650   0.650
 5458SOL     OW17272   0.404   4.123   0.562
 5458SOL    HW117273   0.408   4.222   0.546
 5458SOL    HW217274   0.311   4.098   0.589
 5459SOL     OW17275   1.966   4.073   6.923
 5459SOL    HW117276   2.064   4.071   6.942
 5459SOL    HW217277   1.950   4.110   6.831
 5460SOL     OW17278   3.961   0.386   3.095
 5460SOL    HW117279   3.911   0.348   3.018
 5460SOL    HW217280   4.060   0.375   3.079
 5461SOL     OW17281   6.296   0.118   5.680
 5461SOL    HW117282   6.364   0.145   5.749
 5461SOL    HW217283   6.244   0.040   5.714
 5462SOL     OW17284   0.308   0.136   0.581
 5462SOL    HW117285   0.215   0.171   0.588
 5462SOL    HW217286   0.372   0.213   0.584
 5463SOL     OW17287   6.940   1.679   0.720
 5463SOL    HW117288   6.931   1.710   0.815
 5463SOL    HW217289   6.897   1.745   0.659
 5464SOL     OW17290   0.891   1.213   4.562
 5464SOL    HW117291   0.849   1.304   4.567
 5464SOL    HW217292   0.882   1.167   4.650
 5465SOL     OW17293   4.100   0.148   3.801
 5465SOL    HW117294   4.006   0.175   3.781
 5465SOL    HW217295   4.107   0.121   3.897
 5466SOL     OW17296   5.373   2.901   4.872
 5466SOL    HW117297   5.369   2.938   4.965
 5466SOL    HW217298   5.321   2.816   4.867
 5467SOL     OW17299   5.282   3.471   3.319
 5467SOL    HW117300   5.233   3.502   3.400
 5467SOL    HW217301   5.352   3.404   3.345
 5468SOL     OW17302   5.785   2.950   4.178
 5468SOL    HW117303   5.797   2.942   4.079
 5468SOL    HW217304   5.789   2.858   4.219
 5469SOL     OW17305   3.443   6.237   6.165
 5469SOL    HW117306   3.450   6.300   6.242
 5469SOL    HW217307   3.388   6.279   6.093
 5470SOL     OW17308   3.431   5.650   3.297
 5470SOL    HW117309   3.405   5.556   3.318
 5470SOL    HW217310   3.349   5.708   3.298
 5471SOL     OW17311   5.294   6.942   3.032
 5471SOL    HW117312   5.322   6.943   3.127
 5471SOL    HW217313   5.324   0.005   2.987
 5472SOL     OW17314   4.201   3.784   6.019
 5472SOL    HW117315   4.254   3.868   6.007
 5472SOL    HW217316   4.148   3.790   6.103
 5473SOL     OW17317   0.272   2.771   2.291
 5473SOL    HW117318   0.357   2.816   2.320
 5473SOL    HW217319   0.261   2.783   2.193
 5474SOL     OW17320   0.989   4.840   4.136
 5474SOL    HW117321   1.049   4.879   4.206
 5474SOL    HW217322   0.996   4.740   4.139
 5475SOL     OW17323   2.291   3.032   1.672
 5475SOL    HW117324   2.325   3.121   1.700
 5475SOL    HW217325   2.205   3.043   1.622
 5476SOL     OW17326   2.173   4.697   5.779
 5476SOL    HW117327   2.080   4.662   5.788
 5476SOL    HW217328   2.184   4.777   5.838
 5477SOL     OW17329   2.487   4.535   3.009
 5477SOL    HW117330   2.561   4.529   3.077
 5477SOL    HW217331   2.461   4.631   2.997
 5478SOL     OW17332   3.674   5.143   4.788
 5478SOL    HW117333   3.586   5.146   4.836
 5478SOL    HW217334   3.738   5.086   4.840
 5479SOL     OW17335   5.481   1.545   6.367
 5479SOL    HW117336   5.511   1.542   6.272
 5479SOL    HW217337   5.483   1.452   6.405
 5480SOL     OW17338   6.144   4.547   2.598
 5480SOL    HW117339   6.132   4.457   2.556
 5480SOL    HW217340   6.194   4.536   2.685
 5481SOL     OW17341   4.516   1.539   4.440
 5481SOL    HW117342   4.477   1.447   4.430
 5481SOL    HW217343   4.585   1.553   4.370
 5482SOL     OW17344   3.346   4.570   1.638
 5482SOL    HW117345   3.424   4.583   1.699
 5482SOL    HW217346   3.264   4.610   1.679
 5483SOL     OW17347   0.737   1.801   5.681
 5483SOL    HW117348   0.732   1.861   5.601
 5483SOL    HW217349   0.805   1.837   5.745
 5484SOL     OW17350   4.256   1.383   4.232
 5484SOL    HW117351   4.249   1.481   4.248
 5484SOL    HW217352   4.328   1.344   4.289
 5485SOL     OW17353   3.753   6.834   5.405
 5485SOL    HW117354   3.807   6.767   5.354
 5485SOL    HW217355   3.668   6.853   5.356
 5486SOL     OW17356   2.738   5.695   5.362
 5486SOL    HW117357   2.719   5.598   5.374
 5486SOL    HW217358   2.719   5.744   5.447
 5487SOL     OW17359   4.270   2.851   6.883
 5487SOL    HW117360   4.204   2.901   6.940
 5487SOL    HW217361   4.321   2.916   6.827
 5488SOL     OW17362   6.529   0.212   1.123
 5488SOL    HW117363   6.452   0.201   1.060
 5488SOL    HW217364   6.544   0.127   1.173
 5489SOL     OW17365   0.667   4.398   1.912
 5489SOL    HW117366   0.747   4.451   1.881
 5489SOL    HW217367   0.693   4.342   1.990
 5490SOL     OW17368   3.097   0.632   2.761
 5490SOL    HW117369   3.169   0.570   2.729
 5490SOL    HW217370   3.018   0.578   2.789
 5491SOL     OW17371   0.895   3.128   0.323
 5491SOL    HW117372   0.905   3.119   0.422
 5491SOL    HW217373   0.915   3.222   0.295
 5492SOL     OW17374   0.713   4.032   6.777
 5492SOL    HW117375   0.749   3.964   6.714
 5492SOL    HW217376   0.672   4.107   6.725
 5493SOL     OW17377   3.085   3.118   3.994
 5493SOL    HW117378   3.025   3.191   3.961
 5493SOL    HW217379   3.093   3.048   3.923
 5494SOL     OW17380   0.300   3.381   5.695
 5494SOL    HW117381   0.344   3.299   5.659
 5494SOL    HW217382   0.362   3.458   5.689
 5495SOL     OW17383   6.117   0.999   0.912
 5495SOL    HW117384   6.040   0.989   0.849
 5495SOL    HW217385   6.199   1.022   0.860
 5496SOL     OW17386   3.886   0.312   3.354
 5496SOL    HW117387   3.912   0.364   3.273
 5496SOL    HW217388   3.961   0.252   3.381
 5497SOL     OW17389   1.075   0.935   5.012
 5497SOL    HW117390   1.088   1.030   4.984
 5497SOL    HW217391   1.081   0.875   4.932
 5498SOL     OW17392   7.006   5.298   2.092
 5498SOL    HW117393   0.024   5.303   2.183
 5498SOL    HW217394   6.956   5.382   2.073
 5499SOL     OW17395   1.340   0.396   4.583
 5499SOL    HW117396   1.365   0.463   4.512
 5499SOL    HW217397   1.298   0.316   4.540
 5500SOL     OW17398   0.968   0.806   6.896
 5500SOL    HW117399   0.990   0.888   6.843
 5500SOL    HW217400   1.018   0.728   6.858
 5501SOL     OW17401   3.691   2.155   0.111
 5501SOL    HW117402   3.791   2.153   0.114
 5501SOL    HW217403   3.662   2.223   0.043
 5502SOL     OW17404   5.397   3.846   6.808
 5502SOL    HW117405   5.304   3.809   6.811
 5502SOL    HW217406   5.432   3.854   6.901
 5503SOL     OW17407   6.770   4.716   0.944
 5503SOL    HW117408   6.838   4.756   1.006
 5503SOL    HW217409   6.724   4.641   0.990
 5504SOL     OW17410   4.502   0.977   5.101
 5504SOL    HW117411   4.462   0.894   5.139
 5504SOL    HW217412   4.568   1.015   5.165
 5505SOL     OW17413   1.974   4.310   3.524
 5505SOL    HW117414   2.047   4.300   3.591
 5505SOL    HW217415   1.897   4.252   3.549
 5506SOL     OW17416   0.087   3.512   1.183
 5506SOL    HW117417   0.104   3.423   1.225
 5506SOL    HW217418   0.107   3.507   1.085
 5507SOL     OW17419   3.920   1.002   4.754
 5507SOL    HW117420   3.935   0.906   4.779
 5507SOL    HW217421   3.932   1.012   4.655
 5508SOL     OW17422   1.106   1.762   0.386
 5508SOL    HW117423   1.112   1.861   0.377
 5508SOL    HW217424   1.142   1.733   0.474
 5509SOL     OW17425   0.749   5.873   0.061
 5509SOL    HW117426   0.782   5.956   0.015
 5509SOL    HW217427   0.777   5.793   0.008
 5510SOL     OW17428   4.215   5.400   6.756
 5510SOL    HW117429   4.297   5.348   6.777
 5510SOL    HW217430   4.237   5.475   6.693
 5511SOL     OW17431   1.397   0.931   4.275
 5511SOL    HW117432   1.491   0.901   4.289
 5511SOL    HW217433   1.371   0.917   4.179
 5512SOL     OW17434   4.554   1.943   0.646
 5512SOL    HW117435   4.499   1.987   0.717
 5512SOL    HW217436   4.520   1.851   0.630
 5513SOL     OW17437   3.920   5.193   5.972
 5513SOL    HW117438   3.897   5.169   5.878
 5513SOL    HW217439   3.839   5.229   6.019
 5514SOL     OW17440   3.372   1.002   4.605
 5514SOL    HW117441   3.384   1.082   4.665
 5514SOL    HW217442   3.346   1.033   4.514
 5515SOL     OW17443   0.871   5.439   1.749
 5515SOL    HW117444   0.946   5.415   1.811
 5515SOL    HW217445   0.903   5.505   1.682
 5516SOL     OW17446   1.744   2.496   4.481
 5516SOL    HW117447   1.693   2.582   4.485
 5516SOL    HW217448   1.842   2.515   4.479
 5517SOL     OW17449   2.032   3.387   2.285
 5517SOL    HW117450   2.016   3.294   2.318
 5517SOL    HW217451   2.110   3.387   2.223
 5518SOL     OW17452   5.943   5.332   6.430
 5518SOL    HW117453   5.876   5.288   6.488
 5518SOL    HW217454   6.028   5.280   6.431
 5519SOL     OW17455   5.601   2.807   3.111
 5519SOL    HW117456   5.535   2.854   3.052
 5519SOL    HW217457   5.648   2.874   3.169
 5520SOL     OW17458   5.595   6.956   2.412
 5520SOL    HW117459   5.662   7.014   2.366
 5520SOL    HW217460   5.562   7.002   2.494
 5521SOL     OW17461   5.310   6.643   2.022
 5521SOL    HW117462   5.290   6.602   2.111
 5521SOL    HW217463   5.247   6.605   1.954
 5522SOL     OW17464   6.428   5.415   1.167
 5522SOL    HW117465   6.477   5.336   1.204
 5522SOL    HW217466   6.459   5.499   1.212
 5523SOL     OW17467   4.388   0.682   1.820
 5523SOL    HW117468   4.345   0.733   1.746
 5523SOL    HW217469   4.322   0.668   1.894
 5524SOL     OW17470   3.730   6.874   4.903
 5524SOL    HW117471   3.672   6.894   4.825
 5524SOL    HW217472   3.748   6.959   4.954
 5525SOL     OW17473   1.474   2.452   0.299
 5525SOL    HW117474   1.553   2.464   0.239
 5525SOL    HW217475   1.480   2.516   0.375
 5526SOL     OW17476   4.871   4.727   2.644
 5526SOL    HW117477   4.800   4.668   2.607
 5526SOL    HW217478   4.830   4.792   2.708
 5527SOL     OW17479   4.972   3.752   3.624
 5527SOL    HW117480   4.905   3.790   3.561
 5527SOL    HW217481   4.947   3.776   3.718
 5528SOL     OW17482   1.532   0.961   0.682
 5528SOL    HW117483   1.615   0.908   0.693
 5528SOL    HW217484   1.509   1.006   0.769
 5529SOL     OW17485   3.119   0.028   4.618
 5529SOL    HW117486   3.215   0.020   4.592
 5529SOL    HW217487   3.097   6.980   4.686
 5530SOL     OW17488   6.369   2.081   1.379
 5530SOL    HW117489   6.433   2.087   1.456
 5530SOL    HW217490   6.384   1.995   1.330
 5531SOL     OW17491   3.591   3.515   1.313
 5531SOL    HW117492   3.592   3.528   1.413
 5531SOL    HW217493   3.586   3.417   1.292
 5532SOL     OW17494   1.204   3.295   1.142
 5532SOL    HW117495   1.215   3.199   1.117
 5532SOL    HW217496   1.187   3.349   1.059
 5533SOL     OW17497   4.626   1.395   3.629
 5533SOL    HW117498   4.561   1.406   3.553
 5533SOL    HW217499   4.701   1.335   3.600
 5534SOL     OW17500   1.106   1.644   0.111
 5534SOL    HW117501   1.113   1.688   0.201
 5534SOL    HW217502   1.041   1.695   0.054
 5535SOL     OW17503   1.163   1.594   2.935
 5535SOL    HW117504   1.258   1.626   2.928
 5535SOL    HW217505   1.136   1.592   3.032
 5536SOL     OW17506   3.828   0.467   3.948
 5536SOL    HW117507   3.754   0.411   3.911
 5536SOL    HW217508   3.830   0.556   3.901
 5537SOL     OW17509   3.269   1.373   2.244
 5537SOL    HW117510   3.225   1.300   2.296
 5537SOL    HW217511   3.288   1.451   2.304
 5538SOL     OW17512   4.027   5.380   5.277
 5538SOL    HW117513   3.932   5.368   5.247
 5538SOL    HW217514   4.084   5.404   5.198
 5539SOL     OW17515   1.451   3.994   1.667
 5539SOL    HW117516   1.395   4.054   1.610
 5539SOL    HW217517   1.392   3.934   1.720
 5540SOL     OW17518   4.687   4.637   3.848
 5540SOL    HW117519   4.697   4.721   3.901
 5540SOL    HW217520   4.743   4.644   3.765
 5541SOL     OW17521   4.911   0.176   6.349
 5541SOL    HW117522   4.840   0.219   6.405
 5541SOL    HW217523   4.896   0.077   6.345
 5542SOL     OW17524   4.283   3.560   6.323
 5542SOL    HW117525   4.206   3.525   6.376
 5542SOL    HW217526   4.272   3.533   6.227
 5543SOL     OW17527   5.029   3.858   6.448
 5543SOL    HW117528   5.048   3.863   6.350
 5543SOL    HW217529   4.977   3.775   6.467
 5544SOL     OW17530   4.758   5.993   6.688
 5544SOL    HW117531   4.760   5.905   6.736
 5544SOL    HW217532   4.665   6.011   6.657
 5545SOL     OW17533   4.759   1.124   2.904
 5545SOL    HW117534   4.757   1.134   3.004
 5545SOL    HW217535   4.723   1.207   2.862
 5546SOL     OW17536   0.778   4.970   4.834
 5546SOL    HW117537   0.688   5.012   4.835
 5546SOL    HW217538   0.807   4.954   4.740
 5547SOL     OW17539   2.538   6.632   5.296
 5547SOL    HW117540   2.525   6.731   5.296
 5547SOL    HW217541   2.475   6.590   5.361
 5548SOL     OW17542   6.076   3.834   5.422
 5548SOL    HW117543   6.038   3.774   5.352
 5548SOL    HW217544   6.098   3.781   5.503
 5549SOL     OW17545   3.740   4.822   0.226
 5549SOL    HW117546   3.773   4.770   0.147
 5549SOL    HW217547   3.758   4.919   0.210
 5550SOL     OW17548   2.938   5.656   1.931
 5550SOL    HW117549   2.911   5.686   2.022
 5550SOL    HW217550   3.020   5.705   1.902
 5551SOL     OW17551   1.747   0.877   2.883
 5551SOL    HW117552   1.649   0.862   2.879
 5551SOL    HW217553   1.772   0.910   2.975
 5552SOL     OW17554   0.161   1.782   0.165
 5552SOL    HW117555   0.066   1.772   0.134
 5552SOL    HW217556   0.192   1.696   0.204
 5553SOL     OW17557   3.550   6.545   0.417
 5553SOL    HW117558   3.538   6.594   0.331
 5553SOL    HW217559   3.477   6.569   0.480
 5554SOL     OW17560   2.837   2.013   5.732
 5554SOL    HW117561   2.838   2.113   5.728
 5554SOL    HW217562   2.908   1.976   5.672
 5555SOL     OW17563   0.721   5.727   3.680
 5555SOL    HW117564   0.718   5.636   3.637
 5555SOL    HW217565   0.650   5.733   3.750
 5556SOL     OW17566   0.018   2.269   4.564
 5556SOL    HW117567   0.049   2.344   4.621
 5556SOL    HW217568   0.057   2.279   4.472
 5557SOL     OW17569   2.937   5.838   4.275
 5557SOL    HW117570   2.844   5.824   4.242
 5557SOL    HW217571   3.001   5.831   4.198
 5558SOL     OW17572   4.892   3.324   5.104
 5558SOL    HW117573   4.829   3.397   5.133
 5558SOL    HW217574   4.882   3.309   5.005
 5559SOL     OW17575   2.471   6.814   1.934
 5559SOL    HW117576   2.527   6.743   1.891
 5559SOL    HW217577   2.531   6.878   1.983
 5560SOL     OW17578   6.731   6.837   3.335
 5560SOL    HW117579   6.670   6.759   3.347
 5560SOL    HW217580   6.677   6.917   3.306
 5561SOL     OW17581   1.208   2.670   4.446
 5561SOL    HW117582   1.279   2.683   4.515
 5561SOL    HW217583   1.250   2.645   4.359
 5562SOL     OW17584   1.603   2.150   6.447
 5562SOL    HW117585   1.692   2.149   6.402
 5562SOL    HW217586   1.573   2.056   6.464
 5563SOL     OW17587   4.815   6.354   2.019
 5563SOL    HW117588   4.808   6.403   2.106
 5563SOL    HW217589   4.770   6.265   2.026
 5564SOL     OW17590   4.885   2.897   1.588
 5564SOL    HW117591   4.928   2.875   1.676
 5564SOL    HW217592   4.788   2.918   1.603
 5565SOL     OW17593   4.251   2.782   5.840
 5565SOL    HW117594   4.316   2.803   5.767
 5565SOL    HW217595   4.256   2.684   5.862
 5566SOL     OW17596   1.497   5.688   1.118
 5566SOL    HW117597   1.495   5.653   1.212
 5566SOL    HW217598   1.573   5.646   1.068
 5567SOL     OW17599   1.359   5.285   0.959
 5567SOL    HW117600   1.291   5.211   0.958
 5567SOL    HW217601   1.450   5.247   0.975
 5568SOL     OW17602   4.531   2.427   0.979
 5568SOL    HW117603   4.531   2.518   0.939
 5568SOL    HW217604   4.440   2.408   1.018
 5569SOL     OW17605   4.282   1.585   1.832
 5569SOL    HW117606   4.319   1.627   1.749
 5569SOL    HW217607   4.253   1.491   1.812
 5570SOL     OW17608   6.233   4.516   4.870
 5570SOL    HW117609   6.303   4.535   4.801
 5570SOL    HW217610   6.261   4.553   4.958
 5571SOL     OW17611   0.226   6.023   0.795
 5571SOL    HW117612   0.177   6.108   0.777
 5571SOL    HW217613   0.160   5.949   0.809
 5572SOL     OW17614   3.718   2.114   6.701
 5572SOL    HW117615   3.712   2.211   6.723
 5572SOL    HW217616   3.812   2.082   6.713
 5573SOL     OW17617   1.363   3.231   0.553
 5573SOL    HW117618   1.459   3.225   0.526
 5573SOL    HW217619   1.326   3.319   0.525
 5574SOL     OW17620   0.245   0.195   4.536
 5574SOL    HW117621   0.317   0.176   4.469
 5574SOL    HW217622   0.156   0.179   4.493
 5575SOL     OW17623   1.492   0.851   1.298
 5575SOL    HW117624   1.564   0.920   1.285
 5575SOL    HW217625   1.447   0.835   1.211
 5576SOL     OW17626   6.169   5.312   1.415
 5576SOL    HW117627   6.246   5.248   1.416
 5576SOL    HW217628   6.203   5.404   1.395
 5577SOL     OW17629   2.250   3.514   5.475
 5577SOL    HW117630   2.257   3.454   5.556
 5577SOL    HW217631   2.314   3.590   5.484
 5578SOL     OW17632   3.055   2.621   0.160
 5578SOL    HW117633   3.119   2.554   0.122
 5578SOL    HW217634   2.970   2.620   0.107
 5579SOL     OW17635   5.185   3.699   6.754
 5579SOL    HW117636   5.129   3.655   6.824
 5579SOL    HW217637   5.178   3.650   6.668
 5580SOL     OW17638   5.036   2.231   0.468
 5580SOL    HW117639   4.956   2.226   0.410
 5580SOL    HW217640   5.021   2.175   0.550
 5581SOL     OW17641   2.285   0.474   6.651
 5581SOL    HW117642   2.286   0.569   6.618
 5581SOL    HW217643   2.229   0.469   6.734
 5582SOL     OW17644   3.318   3.864   3.904
 5582SOL    HW117645   3.417   3.882   3.898
 5582SOL    HW217646   3.276   3.933   3.963
 5583SOL     OW17647   3.714   6.356   2.457
 5583SOL    HW117648   3.752   6.380   2.547
 5583SOL    HW217649   3.615   6.365   2.460
 5584SOL     OW17650   5.594   4.135   3.096
 5584SOL    HW117651   5.544   4.137   3.009
 5584SOL    HW217652   5.531   4.108   3.169
 5585SOL     OW17653   5.813   0.829   3.732
 5585SOL    HW117654   5.759   0.750   3.706
 5585SOL    HW217655   5.755   0.897   3.776
 5586SOL     OW17656   1.768   1.664   6.033
 5586SOL    HW117657   1.844   1.721   6.001
 5586SOL    HW217658   1.796   1.568   6.035
 5587SOL     OW17659   3.376   0.699   3.393
 5587SOL    HW117660   3.330   0.768   3.450
 5587SOL    HW217661   3.376   0.612   3.440
 5588SOL     OW17662   2.482   6.912   5.223
 5588SOL    HW117663   2.424   6.860   5.161
 5588SOL    HW217664   2.425   6.974   5.278
 5589SOL     OW17665   4.925   2.777   5.938
 5589SOL    HW117666   4.956   2.869   5.961
 5589SOL    HW217667   4.925   2.720   6.020
 5590SOL     OW17668   6.273   5.712   4.193
 5590SOL    HW117669   6.183   5.669   4.192
 5590SOL    HW217670   6.285   5.762   4.279
 5591SOL     OW17671   6.009   0.490   0.298
 5591SOL    HW117672   6.060   0.555   0.242
 5591SOL    HW217673   5.977   0.535   0.381
 5592SOL     OW17674   1.966   3.773   3.995
 5592SOL    HW117675   1.950   3.681   3.959
 5592SOL    HW217676   1.911   3.787   4.077
 5593SOL     OW17677   0.489   2.587   5.802
 5593SOL    HW117678   0.570   2.616   5.752
 5593SOL    HW217679   0.494   2.617   5.897
 5594SOL     OW17680   2.336   0.976   0.466
 5594SOL    HW117681   2.356   1.057   0.412
 5594SOL    HW217682   2.420   0.923   0.481
 5595SOL     OW17683   6.017   1.059   5.946
 5595SOL    HW117684   5.985   1.076   5.852
 5595SOL    HW217685   5.971   0.979   5.984
 5596SOL     OW17686   5.717   0.533   2.692
 5596SOL    HW117687   5.757   0.616   2.653
 5596SOL    HW217688   5.783   0.489   2.752
 5597SOL     OW17689   5.734   1.756   6.489
 5597SOL    HW117690   5.824   1.720   6.465
 5597SOL    HW217691   5.705   1.717   6.576
 5598SOL     OW17692   5.374   1.680   4.070
 5598SOL    HW117693   5.382   1.725   4.159
 5598SOL    HW217694   5.352   1.748   4.000
 5599SOL     OW17695   5.441   3.726   1.414
 5599SOL    HW117696   5.440   3.629   1.439
 5599SOL    HW217697   5.475   3.780   1.491
 5600SOL     OW17698   1.968   0.692   3.136
 5600SOL    HW117699   1.988   0.736   3.224
 5600SOL    HW217700   1.880   0.645   3.142
 5601SOL     OW17701   5.554   3.278   5.773
 5601SOL    HW117702   5.515   3.336   5.700
 5601SOL    HW217703   5.522   3.312   5.862
 5602SOL     OW17704   0.662   2.227   2.768
 5602SOL    HW117705   0.756   2.243   2.797
 5602SOL    HW217706   0.624   2.148   2.817
 5603SOL     OW17707   4.543   3.047   5.341
 5603SOL    HW117708   4.548   2.948   5.327
 5603SOL    HW217709   4.456   3.082   5.306
 5604SOL     OW17710   1.385   0.030   4.291
 5604SOL    HW117711   1.447   0.104   4.265
 5604SOL    HW217712   1.413   6.968   4.244
 5605SOL     OW17713   1.719   6.765   4.057
 5605SOL    HW117714   1.629   6.733   4.086
 5605SOL    HW217715   1.722   6.772   3.958
 5606SOL     OW17716   5.397   1.482   0.581
 5606SOL    HW117717   5.437   1.500   0.671
 5606SOL    HW217718   5.318   1.423   0.591
 5607SOL     OW17719   6.039   2.236   3.230
 5607SOL    HW117720   6.107   2.307   3.247
 5607SOL    HW217721   5.950   2.265   3.265
 5608SOL     OW17722   5.700   0.593   3.958
 5608SOL    HW117723   5.636   0.647   4.013
 5608SOL    HW217724   5.667   0.588   3.864
 5609SOL     OW17725   5.238   6.688   0.201
 5609SOL    HW117726   5.281   6.600   0.224
 5609SOL    HW217727   5.296   6.763   0.231
 5610SOL     OW17728   5.416   3.574   0.115
 5610SOL    HW117729   5.396   3.547   0.021
 5610SOL    HW217730   5.369   3.511   0.178
 5611SOL     OW17731   0.724   4.862   1.593
 5611SOL    HW117732   0.630   4.842   1.566
 5611SOL    HW217733   0.732   4.859   1.692
 5612SOL     OW17734   2.485   2.034   0.370
 5612SOL    HW117735   2.430   2.117   0.378
 5612SOL    HW217736   2.471   1.977   0.451
 5613SOL     OW17737   6.987   5.307   5.000
 5613SOL    HW117738   0.008   5.297   4.910
 5613SOL    HW217739   6.908   5.369   4.993
 5614SOL     OW17740   5.599   1.948   4.966
 5614SOL    HW117741   5.550   2.024   4.925
 5614SOL    HW217742   5.697   1.962   4.957
 5615SOL     OW17743   0.456   2.450   2.415
 5615SOL    HW117744   0.372   2.439   2.362
 5615SOL    HW217745   0.499   2.537   2.392
 5616SOL     OW17746   1.646   2.862   4.261
 5616SOL    HW117747   1.695   2.790   4.212
 5616SOL    HW217748   1.659   2.949   4.212
 5617SOL     OW17749   1.659   4.992   5.936
 5617SOL    HW117750   1.661   5.034   5.845
 5617SOL    HW217751   1.564   4.975   5.963
 5618SOL     OW17752   6.699   5.057   4.208
 5618SOL    HW117753   6.626   5.057   4.139
 5618SOL    HW217754   6.689   5.138   4.266
 5619SOL     OW17755   3.447   2.844   3.556
 5619SOL    HW117756   3.386   2.834   3.478
 5619SOL    HW217757   3.541   2.827   3.528
 5620SOL     OW17758   4.333   4.020   6.172
 5620SOL    HW117759   4.321   4.117   6.195
 5620SOL    HW217760   4.409   4.011   6.107
 5621SOL     OW17761   1.560   2.946   5.699
 5621SOL    HW117762   1.539   2.855   5.664
 5621SOL    HW217763   1.626   2.939   5.773
 5622SOL     OW17764   4.620   5.614   4.881
 5622SOL    HW117765   4.590   5.523   4.853
 5622SOL    HW217766   4.712   5.607   4.921
 5623SOL     OW17767   4.925   6.242   4.113
 5623SOL    HW117768   4.862   6.240   4.035
 5623SOL    HW217769   4.983   6.160   4.109
 5624SOL     OW17770   6.923   5.480   3.815
 5624SOL    HW117771   6.885   5.445   3.729
 5624SOL    HW217772   6.877   5.436   3.892
 5625SOL     OW17773   1.402   5.017   4.461
 5625SOL    HW117774   1.402   5.023   4.561
 5625SOL    HW217775   1.476   4.955   4.433
 5626SOL     OW17776   2.147   4.258   4.445
 5626SOL    HW117777   2.164   4.165   4.413
 5626SOL    HW217778   2.108   4.312   4.371
 5627SOL     OW17779   0.881   5.938   6.772
 5627SOL    HW117780   0.939   5.987   6.708
 5627SOL    HW217781   0.898   5.972   6.865
 5628SOL     OW17782   2.813   3.031   0.564
 5628SOL    HW117783   2.859   3.120   0.569
 5628SOL    HW217784   2.741   3.035   0.495
 5629SOL     OW17785   4.000   3.903   1.031
 5629SOL    HW117786   4.028   3.978   1.091
 5629SOL    HW217787   4.007   3.816   1.081
 5630SOL     OW17788   1.417   4.203   6.380
 5630SOL    HW117789   1.428   4.139   6.456
 5630SOL    HW217790   1.506   4.229   6.345
 5631SOL     OW17791   4.998   0.836   1.596
 5631SOL    HW117792   5.019   0.739   1.611
 5631SOL    HW217793   4.902   0.853   1.618
 5632SOL     OW17794   5.284   0.595   6.090
 5632SOL    HW117795   5.279   0.586   5.991
 5632SOL    HW217796   5.319   0.686   6.113
 5633SOL     OW17797   0.527   4.543   5.409
 5633SOL    HW117798   0.578   4.539   5.323
 5633SOL    HW217799   0.500   4.637   5.428
 5634SOL     OW17800   2.918   5.598   5.715
 5634SOL    HW117801   2.889   5.528   5.779
 5634SOL    HW217802   2.959   5.555   5.634
 5635SOL     OW17803   2.870   0.168   6.807
 5635SOL    HW117804   2.933   0.245   6.818
 5635SOL    HW217805   2.776   0.200   6.821
 5636SOL     OW17806   5.992   1.032   5.664
 5636SOL    HW117807   6.014   1.108   5.602
 5636SOL    HW217808   6.071   0.971   5.671
 5637SOL     OW17809   5.676   5.609   4.819
 5637SOL    HW117810   5.705   5.668   4.743
 5637SOL    HW217811   5.594   5.648   4.861
 5638SOL     OW17812   5.324   5.678   1.259
 5638SOL    HW117813   5.391   5.609   1.232
 5638SOL    HW217814   5.369   5.767   1.267
 5639SOL     OW17815   1.656   0.122   1.645
 5639SOL    HW117816   1.612   0.133   1.557
 5639SOL    HW217817   1.756   0.120   1.633
 5640SOL     OW17818   2.403   6.584   3.171
 5640SOL    HW117819   2.459   6.504   3.152
 5640SOL    HW217820   2.316   6.576   3.123
 5641SOL     OW17821   1.454   4.513   5.328
 5641SOL    HW117822   1.551   4.535   5.340
 5641SOL    HW217823   1.446   4.425   5.280
 5642SOL     OW17824   0.805   4.701   5.805
 5642SOL    HW117825   0.732   4.735   5.863
 5642SOL    HW217826   0.858   4.779   5.769
 5643SOL     OW17827   3.735   2.088   4.766
 5643SOL    HW117828   3.811   2.063   4.705
 5643SOL    HW217829   3.734   2.187   4.778
 5644SOL     OW17830   5.169   1.508   4.690
 5644SOL    HW117831   5.144   1.461   4.775
 5644SOL    HW217832   5.152   1.448   4.612
 5645SOL     OW17833   5.311   4.719   2.533
 5645SOL    HW117834   5.351   4.636   2.493
 5645SOL    HW217835   5.382   4.789   2.543
 5646SOL     OW17836   0.690   5.489   3.595
 5646SOL    HW117837   0.726   5.431   3.668
 5646SOL    HW217838   0.595   5.464   3.576
 5647SOL     OW17839   0.165   5.887   6.985
 5647SOL    HW117840   0.100   5.915   6.914
 5647SOL    HW217841   0.146   5.938   0.048
 5648SOL     OW17842   1.861   1.340   3.544
 5648SOL    HW117843   1.785   1.333   3.479
 5648SOL    HW217844   1.913   1.424   3.525
 5649SOL     OW17845   1.898   0.367   5.010
 5649SOL    HW117846   1.900   0.448   5.069
 5649SOL    HW217847   1.805   0.332   5.005
 5650SOL     OW17848   0.223   4.893   0.927
 5650SOL    HW117849   0.255   4.870   1.019
 5650SOL    HW217850   0.211   4.992   0.920
 5651SOL     OW17851   0.679   2.002   1.766
 5651SOL    HW117852   0.749   2.002   1.694
 5651SOL    HW217853   0.599   2.054   1.735
 5652SOL     OW17854   5.272   5.911   1.920
 5652SOL    HW117855   5.323   5.993   1.894
 5652SOL    HW217856   5.174   5.927   1.908
 5653SOL     OW17857   6.881   6.218   6.029
 5653SOL    HW117858   6.944   6.224   6.107
 5653SOL    HW217859   6.903   6.291   5.964
 5654SOL     OW17860   0.383   0.440   5.802
 5654SOL    HW117861   0.361   0.380   5.726
 5654SOL    HW217862   0.299   0.463   5.852
 5655SOL     OW17863   0.959   3.142   4.320
 5655SOL    HW117864   1.033   3.114   4.259
 5655SOL    HW217865   0.933   3.065   4.379
 5656SOL     OW17866   3.051   4.148   0.738
 5656SOL    HW117867   2.980   4.095   0.692
 5656SOL    HW217868   3.010   4.227   0.784
 5657SOL     OW17869   5.220   6.255   1.491
 5657SOL    HW117870   5.275   6.177   1.522
 5657SOL    HW217871   5.126   6.245   1.522
 5658SOL     OW17872   3.216   6.960   5.824
 5658SOL    HW117873   3.307   6.928   5.849
 5658SOL    HW217874   3.155   6.957   5.904
 5659SOL     OW17875   3.258   2.887   2.669
 5659SOL    HW117876   3.246   2.983   2.641
 5659SOL    HW217877   3.177   2.835   2.643
 5660SOL     OW17878   5.336   0.308   0.277
 5660SOL    HW117879   5.397   0.272   0.347
 5660SOL    HW217880   5.381   0.304   0.188
 5661SOL     OW17881   6.957   5.697   5.486
 5661SOL    HW117882   6.861   5.723   5.472
 5661SOL    HW217883   6.969   5.600   5.465
 5662SOL     OW17884   2.617   5.118   4.380
 5662SOL    HW117885   2.573   5.183   4.317
 5662SOL    HW217886   2.589   5.140   4.474
 5663SOL     OW17887   0.704   4.228   0.645
 5663SOL    HW117888   0.803   4.229   0.659
 5663SOL    HW217889   0.682   4.279   0.562
 5664SOL     OW17890   0.612   4.196   3.555
 5664SOL    HW117891   0.555   4.223   3.633
 5664SOL    HW217892   0.563   4.128   3.500
 5665SOL     OW17893   1.650   1.775   6.581
 5665SOL    HW117894   1.598   1.822   6.652
 5665SOL    HW217895   1.595   1.770   6.497
 5666SOL     OW17896   4.988   5.735   0.894
 5666SOL    HW117897   4.920   5.665   0.916
 5666SOL    HW217898   5.067   5.723   0.954
 5667SOL     OW17899   0.882   4.743   3.214
 5667SOL    HW117900   0.797   4.690   3.225
 5667SOL    HW217901   0.961   4.682   3.226
 5668SOL     OW17902   5.779   1.561   6.839
 5668SOL    HW117903   5.874   1.547   6.866
 5668SOL    HW217904   5.719   1.504   6.894
 5669SOL     OW17905   0.179   4.718   6.041
 5669SOL    HW117906   0.145   4.778   5.969
 5669SOL    HW217907   0.163   4.761   6.130
 5670SOL     OW17908   6.820   3.132   3.782
 5670SOL    HW117909   6.862   3.222   3.797
 5670SOL    HW217910   6.814   3.083   3.869
 5671SOL     OW17911   1.279   6.922   6.417
 5671SOL    HW117912   1.198   6.975   6.392
 5671SOL    HW217913   1.270   6.889   6.511
 5672SOL     OW17914   4.626   4.019   6.083
 5672SOL    HW117915   4.636   3.926   6.118
 5672SOL    HW217916   4.604   4.016   5.986
 5673SOL     OW17917   0.077   0.127   2.151
 5673SOL    HW117918   0.003   0.084   2.203
 5673SOL    HW217919   0.162   0.077   2.165
 5674SOL     OW17920   6.964   4.081   1.907
 5674SOL    HW117921   6.932   4.016   1.838
 5674SOL    HW217922   6.981   4.033   1.993
 5675SOL     OW17923   4.260   2.462   5.558
 5675SOL    HW117924   4.321   2.498   5.628
 5675SOL    HW217925   4.165   2.476   5.586
 5676SOL     OW17926   2.353   1.152   1.150
 5676SOL    HW117927   2.356   1.234   1.207
 5676SOL    HW217928   2.270   1.153   1.094
 5677SOL     OW17929   0.263   1.561   3.308
 5677SOL    HW117930   0.227   1.650   3.334
 5677SOL    HW217931   0.225   1.534   3.220
 5678SOL     OW17932   3.440   6.057   3.243
 5678SOL    HW117933   3.352   6.092   3.275
 5678SOL    HW217934   3.448   5.960   3.269
 5679SOL     OW17935   1.786   6.278   4.725
 5679SOL    HW117936   1.836   6.195   4.702
 5679SOL    HW217937   1.728   6.305   4.648
 5680SOL     OW17938   1.478   5.659   6.993
 5680SOL    HW117939   1.577   5.649   6.999
 5680SOL    HW217940   1.434   5.587   0.025
 5681SOL     OW17941   1.188   3.322   6.615
 5681SOL    HW117942   1.225   3.313   6.707
 5681SOL    HW217943   1.089   3.336   6.619
 5682SOL     OW17944   2.012   3.479   5.772
 5682SOL    HW117945   1.946   3.552   5.753
 5682SOL    HW217946   2.102   3.520   5.790
 5683SOL     OW17947   3.974   2.604   6.173
 5683SOL    HW117948   4.022   2.691   6.175
 5683SOL    HW217949   3.915   2.600   6.093
 5684SOL     OW17950   4.143   3.513   4.632
 5684SOL    HW117951   4.104   3.605   4.641
 5684SOL    HW217952   4.239   3.514   4.659
 5685SOL     OW17953   0.811   4.810   1.955
 5685SOL    HW117954   0.771   4.745   1.891
 5685SOL    HW217955   0.908   4.788   1.968
 5686SOL     OW17956   3.338   0.741   0.362
 5686SOL    HW117957   3.245   0.703   0.359
 5686SOL    HW217958   3.361   0.763   0.457
 5687SOL     OW17959   6.356   4.184   4.543
 5687SOL    HW117960   6.280   4.230   4.497
 5687SOL    HW217961   6.388   4.108   4.486
 5688SOL     OW17962   6.690   1.888   0.955
 5688SOL    HW117963   6.643   1.947   0.889
 5688SOL    HW217964   6.655   1.795   0.947
 5689SOL     OW17965   3.759   1.591   0.699
 5689SOL    HW117966   3.791   1.670   0.646
 5689SOL    HW217967   3.835   1.553   0.751
 5690SOL     OW17968   3.415   5.976   0.803
 5690SOL    HW117969   3.403   5.880   0.776
 5690SOL    HW217970   3.448   6.029   0.725
 5691SOL     OW17971   2.984   6.084   2.055
 5691SOL    HW117972   2.951   6.009   1.997
 5691SOL    HW217973   3.067   6.055   2.103
 5692SOL     OW17974   6.738   1.957   6.626
 5692SOL    HW117975   6.786   2.025   6.570
 5692SOL    HW217976   6.790   1.940   6.710
 5693SOL     OW17977   5.006   2.673   2.209
 5693SOL    HW117978   4.943   2.743   2.174
 5693SOL    HW217979   4.980   2.584   2.172
 5694SOL     OW17980   0.851   1.638   3.563
 5694SOL    HW117981   0.824   1.626   3.467
 5694SOL    HW217982   0.876   1.549   3.601
 5695SOL     OW17983   1.153   2.412   3.335
 5695SOL    HW117984   1.245   2.386   3.308
 5695SOL    HW217985   1.091   2.335   3.325
 5696SOL     OW17986   2.573   0.970   4.269
 5696SOL    HW117987   2.574   0.941   4.173
 5696SOL    HW217988   2.556   0.890   4.328
 5697SOL     OW17989   6.584   2.188   1.608
 5697SOL    HW117990   6.527   2.262   1.645
 5697SOL    HW217991   6.631   2.142   1.683
 5698SOL     OW17992   0.345   2.130   2.288
 5698SOL    HW117993   0.358   2.101   2.382
 5698SOL    HW217994   0.337   2.230   2.285
 5699SOL     OW17995   6.227   1.537   3.884
 5699SOL    HW117996   6.239   1.627   3.842
 5699SOL    HW217997   6.263   1.540   3.977
 5700SOL     OW17998   6.897   5.941   4.924
 5700SOL    HW117999   6.940   5.990   4.848
 5700SOL    HW218000   6.927   5.982   5.010
 5701SOL     OW18001   1.093   5.445   3.232
 5701SOL    HW118002   1.047   5.529   3.200
 5701SOL    HW218003   1.161   5.417   3.164
 5702SOL     OW18004   1.983   0.291   6.130
 5702SOL    HW118005   2.019   0.340   6.209
 5702SOL    HW218006   2.059   0.250   6.079
 5703SOL     OW18007   4.732   4.720   0.310
 5703SOL    HW118008   4.701   4.792   0.372
 5703SOL    HW218009   4.654   4.669   0.275
 5704SOL     OW18010   4.399   5.709   2.538
 5704SOL    HW118011   4.359   5.788   2.491
 5704SOL    HW218012   4.464   5.741   2.607
 5705SOL     OW18013   6.175   1.176   0.649
 5705SOL    HW118014   6.096   1.120   0.673
 5705SOL    HW218015   6.149   1.272   0.647
 5706SOL     OW18016   1.638   1.709   0.215
 5706SOL    HW118017   1.654   1.758   0.301
 5706SOL    HW218018   1.544   1.672   0.215
 5707SOL     OW18019   1.181   6.888   0.075
 5707SOL    HW118020   1.146   6.807   0.029
 5707SOL    HW218021   1.238   6.941   0.013
 5708SOL     OW18022   5.485   0.102   2.188
 5708SOL    HW118023   5.390   0.130   2.173
 5708SOL    HW218024   5.491   0.002   2.182
 5709SOL     OW18025   0.667   5.968   3.507
 5709SOL    HW118026   0.569   5.963   3.527
 5709SOL    HW218027   0.711   5.883   3.535
 5710SOL     OW18028   2.574   3.485   5.332
 5710SOL    HW118029   2.666   3.522   5.320
 5710SOL    HW218030   2.510   3.561   5.345
 5711SOL     OW18031   4.700   0.259   3.347
 5711SOL    HW118032   4.751   0.175   3.333
 5711SOL    HW218033   4.604   0.244   3.321
 5712SOL     OW18034   1.167   6.796   5.343
 5712SOL    HW118035   1.263   6.796   5.315
 5712SOL    HW218036   1.113   6.849   5.279
 5713SOL     OW18037   0.779   2.306   1.334
 5713SOL    HW118038   0.727   2.245   1.274
 5713SOL    HW218039   0.848   2.254   1.383
 5714SOL     OW18040   1.467   6.580   6.772
 5714SOL    HW118041   1.435   6.485   6.772
 5714SOL    HW218042   1.536   6.592   6.843
 5715SOL     OW18043   0.929   5.665   3.141
 5715SOL    HW118044   0.857   5.692   3.205
 5715SOL    HW218045   0.889   5.639   3.054
 5716SOL     OW18046   0.559   4.097   5.432
 5716SOL    HW118047   0.534   4.083   5.336
 5716SOL    HW218048   0.480   4.078   5.490
 5717SOL     OW18049   1.864   5.061   0.148
 5717SOL    HW118050   1.777   5.039   0.105
 5717SOL    HW218051   1.894   4.984   0.205
 5718SOL     OW18052   1.650   4.343   6.663
 5718SOL    HW118053   1.627   4.431   6.706
 5718SOL    HW218054   1.571   4.283   6.665
 5719SOL     OW18055   2.966   0.963   5.776
 5719SOL    HW118056   3.043   0.993   5.833
 5719SOL    HW218057   2.902   1.039   5.764
 5720SOL     OW18058   0.324   5.252   4.685
 5720SOL    HW118059   0.322   5.231   4.783
 5720SOL    HW218060   0.413   5.290   4.660
 5721SOL     OW18061   0.714   3.639   0.321
 5721SOL    HW118062   0.706   3.565   0.254
 5721SOL    HW218063   0.754   3.720   0.278
 5722SOL     OW18064   5.414   1.507   4.983
 5722SOL    HW118065   5.420   1.516   4.883
 5722SOL    HW218066   5.405   1.597   5.024
 5723SOL     OW18067   4.427   4.275   0.577
 5723SOL    HW118068   4.384   4.361   0.549
 5723SOL    HW218069   4.505   4.255   0.518
 5724SOL     OW18070   3.914   2.481   5.353
 5724SOL    HW118071   3.991   2.526   5.307
 5724SOL    HW218072   3.834   2.540   5.347
 5725SOL     OW18073   4.948   5.636   3.547
 5725SOL    HW118074   4.870   5.599   3.597
 5725SOL    HW218075   4.937   5.735   3.538
 5726SOL     OW18076   6.518   3.166   4.018
 5726SOL    HW118077   6.436   3.190   4.069
 5726SOL    HW218078   6.511   3.202   3.925
 5727SOL     OW18079   5.919   3.361   2.847
 5727SOL    HW118080   5.979   3.300   2.796
 5727SOL    HW218081   5.952   3.369   2.941
 5728SOL     OW18082   5.101   1.741   6.637
 5728SOL    HW118083   5.110   1.814   6.705
 5728SOL    HW218084   5.188   1.691   6.632
 5729SOL     OW18085   1.228   1.835   1.372
 5729SOL    HW118086   1.222   1.876   1.281
 5729SOL    HW218087   1.263   1.742   1.365
 5730SOL     OW18088   4.351   5.445   5.326
 5730SOL    HW118089   4.443   5.421   5.358
 5730SOL    HW218090   4.284   5.422   5.397
 5731SOL     OW18091   1.886   6.622   3.369
 5731SOL    HW118092   1.836   6.537   3.385
 5731SOL    HW218093   1.980   6.611   3.400
 5732SOL     OW18094   5.824   5.121   5.133
 5732SOL    HW118095   5.866   5.137   5.222
 5732SOL    HW218096   5.815   5.022   5.117
 5733SOL     OW18097   3.596   1.251   5.757
 5733SOL    HW118098   3.686   1.210   5.743
 5733SOL    HW218099   3.602   1.350   5.747
 5734SOL     OW18100   0.813   6.596   5.669
 5734SOL    HW118101   0.863   6.672   5.626
 5734SOL    HW218102   0.747   6.633   5.734
 5735SOL     OW18103   4.068   0.872   2.182
 5735SOL    HW118104   4.164   0.898   2.192
 5735SOL    HW218105   4.053   0.783   2.226
 5736SOL     OW18106   5.460   4.365   6.885
 5736SOL    HW118107   5.454   4.284   6.944
 5736SOL    HW218108   5.483   4.337   6.792
 5737SOL     OW18109   5.435   6.097   1.148
 5737SOL    HW118110   5.455   6.195   1.149
 5737SOL    HW218111   5.440   6.062   1.054
 5738SOL     OW18112   3.794   1.547   6.678
 5738SOL    HW118113   3.759   1.453   6.675
 5738SOL    HW218114   3.718   1.611   6.664
 5739SOL     OW18115   1.904   6.822   5.540
 5739SOL    HW118116   1.876   6.872   5.623
 5739SOL    HW218117   1.824   6.778   5.500
 5740SOL     OW18118   4.581   3.225   0.891
 5740SOL    HW118119   4.515   3.245   0.964
 5740SOL    HW218120   4.568   3.132   0.858
 5741SOL     OW18121   6.853   3.485   4.068
 5741SOL    HW118122   6.813   3.440   4.149
 5741SOL    HW218123   6.806   3.572   4.052
 5742SOL     OW18124   4.038   0.049   3.260
 5742SOL    HW118125   3.963   0.068   3.197
 5742SOL    HW218126   4.002   0.025   3.350
 5743SOL     OW18127   3.325   5.301   5.742
 5743SOL    HW118128   3.373   5.215   5.729
 5743SOL    HW218129   3.378   5.360   5.802
 5744SOL     OW18130   5.871   1.111   2.637
 5744SOL    HW118131   5.842   1.151   2.550
 5744SOL    HW218132   5.969   1.093   2.635
 5745SOL     OW18133   2.624   1.629   4.056
 5745SOL    HW118134   2.549   1.664   4.112
 5745SOL    HW218135   2.706   1.617   4.113
 5746SOL     OW18136   4.550   0.015   2.788
 5746SOL    HW118137   4.575   0.104   2.826
 5746SOL    HW218138   4.579   0.011   2.692
 5747SOL     OW18139   0.015   6.322   1.759
 5747SOL    HW118140   0.089   6.387   1.747
 5747SOL    HW218141   6.963   6.364   1.812
 5748SOL     OW18142   1.189   0.270   0.847
 5748SOL    HW118143   1.239   0.353   0.822
 5748SOL    HW218144   1.166   0.273   0.944
 5749SOL     OW18145   1.499   5.954   4.716
 5749SOL    HW118146   1.425   5.930   4.778
 5749SOL    HW218147   1.528   5.872   4.665
 5750SOL     OW18148   5.925   5.388   5.715
 5750SOL    HW118149   6.014   5.343   5.713
 5750SOL    HW218150   5.904   5.416   5.809
 5751SOL     OW18151   1.481   3.638   4.682
 5751SOL    HW118152   1.573   3.646   4.720
 5751SOL    HW218153   1.457   3.722   4.633
 5752SOL     OW18154   5.724   6.897   1.036
 5752SOL    HW118155   5.811   6.933   1.067
 5752SOL    HW218156   5.649   6.949   1.077
 5753SOL     OW18157   3.308   3.366   4.729
 5753SOL    HW118158   3.258   3.328   4.652
 5753SOL    HW218159   3.406   3.362   4.710
 5754SOL     OW18160   0.892   5.670   1.609
 5754SOL    HW118161   0.846   5.723   1.680
 5754SOL    HW218162   0.852   5.691   1.520
 5755SOL     OW18163   1.803   2.235   5.584
 5755SOL    HW118164   1.746   2.213   5.504
 5755SOL    HW218165   1.764   2.191   5.665
 5756SOL     OW18166   6.522   0.354   3.412
 5756SOL    HW118167   6.528   0.282   3.481
 5756SOL    HW218168   6.613   0.371   3.374
 5757SOL     OW18169   0.538   5.507   3.859
 5757SOL    HW118170   0.618   5.472   3.909
 5757SOL    HW218171   0.503   5.437   3.798
 5758SOL     OW18172   2.464   0.734   3.063
 5758SOL    HW118173   2.469   0.834   3.060
 5758SOL    HW218174   2.555   0.697   3.081
 5759SOL     OW18175   4.626   0.597   0.734
 5759SOL    HW118176   4.645   0.572   0.639
 5759SOL    HW218177   4.592   0.518   0.784
 5760SOL     OW18178   6.507   2.543   2.167
 5760SOL    HW118179   6.416   2.571   2.195
 5760SOL    HW218180   6.562   2.624   2.144
 5761SOL     OW18181   5.480   5.185   5.412
 5761SOL    HW118182   5.522   5.269   5.447
 5761SOL    HW218183   5.489   5.181   5.313
 5762SOL     OW18184   4.635   4.272   0.396
 5762SOL    HW118185   4.711   4.214   0.427
 5762SOL    HW218186   4.638   4.282   0.297
 5763SOL     OW18187   5.649   6.351   0.703
 5763SOL    HW118188   5.592   6.416   0.755
 5763SOL    HW218189   5.652   6.264   0.752
 5764SOL     OW18190   4.322   5.490   4.138
 5764SOL    HW118191   4.309   5.396   4.108
 5764SOL    HW218192   4.406   5.496   4.192
 5765SOL     OW18193   6.523   3.680   0.759
 5765SOL    HW118194   6.597   3.618   0.786
 5765SOL    HW218195   6.463   3.634   0.694
 5766SOL     OW18196   2.117   1.577   4.942
 5766SOL    HW118197   2.192   1.574   4.876
 5766SOL    HW218198   2.087   1.672   4.954
 5767SOL     OW18199   2.451   0.302   0.035
 5767SOL    HW118200   2.366   0.250   0.025
 5767SOL    HW218201   2.444   0.363   0.114
 5768SOL     OW18202   0.541   6.919   3.521
 5768SOL    HW118203   0.600   6.939   3.442
 5768SOL    HW218204   0.596   6.883   3.596
 5769SOL     OW18205   3.017   5.851   5.262
 5769SOL    HW118206   2.968   5.904   5.193
 5769SOL    HW218207   2.991   5.755   5.255
 5770SOL     OW18208   6.939   6.618   6.875
 5770SOL    HW118209   6.966   6.691   6.812
 5770SOL    HW218210   7.003   6.616   6.952
 5771SOL     OW18211   2.015   0.052   4.171
 5771SOL    HW118212   2.060   6.991   4.138
 5771SOL    HW218213   2.020   0.124   4.101
 5772SOL     OW18214   5.166   1.262   1.506
 5772SOL    HW118215   5.104   1.226   1.575
 5772SOL    HW218216   5.212   1.343   1.541
 5773SOL     OW18217   4.160   1.002   2.858
 5773SOL    HW118218   4.213   1.084   2.836
 5773SOL    HW218219   4.084   1.026   2.918
 5774SOL     OW18220   2.237   0.076   4.604
 5774SOL    HW118221   2.328   0.070   4.563
 5774SOL    HW218222   2.168   0.050   4.537
 5775SOL     OW18223   1.118   6.688   2.524
 5775SOL    HW118224   1.088   6.639   2.443
 5775SOL    HW218225   1.144   6.622   2.595
 5776SOL     OW18226   1.358   6.941   3.512
 5776SOL    HW118227   1.369   6.902   3.421
 5776SOL    HW218228   1.448   6.967   3.548
 5777SOL     OW18229   0.787   6.684   3.597
 5777SOL    HW118230   0.720   6.690   3.671
 5777SOL    HW218231   0.799   6.588   3.570
 5778SOL     OW18232   1.405   0.446   0.504
 5778SOL    HW118233   1.502   0.444   0.529
 5778SOL    HW218234   1.390   0.390   0.423
 5779SOL     OW18235   3.951   2.558   0.354
 5779SOL    HW118236   3.902   2.515   0.279
 5779SOL    HW218237   3.898   2.549   0.438
 5780SOL     OW18238   5.994   6.121   4.608
 5780SOL    HW118239   5.997   6.071   4.695
 5780SOL    HW218240   5.980   6.056   4.533
 5781SOL     OW18241   6.425   4.575   4.682
 5781SOL    HW118242   6.488   4.639   4.725
 5781SOL    HW218243   6.370   4.623   4.614
 5782SOL     OW18244   1.726   1.808   0.435
 5782SOL    HW118245   1.678   1.885   0.478
 5782SOL    HW218246   1.699   1.723   0.480
 5783SOL     OW18247   0.908   0.689   2.183
 5783SOL    HW118248   0.970   0.664   2.109
 5783SOL    HW218249   0.941   0.773   2.227
 5784SOL     OW18250   0.804   6.730   5.225
 5784SOL    HW118251   0.781   6.827   5.231
 5784SOL    HW218252   0.727   6.679   5.187
 5785SOL     OW18253   1.776   2.507   0.384
 5785SOL    HW118254   1.824   2.458   0.456
 5785SOL    HW218255   1.760   2.601   0.412
 5786SOL     OW18256   6.873   4.003   0.608
 5786SOL    HW118257   6.847   4.008   0.704
 5786SOL    HW218258   6.972   4.016   0.599
 5787SOL     OW18259   2.240   2.637   5.029
 5787SOL    HW118260   2.174   2.611   5.099
 5787SOL    HW218261   2.311   2.694   5.070
 5788SOL     OW18262   2.899   1.174   2.154
 5788SOL    HW118263   2.980   1.164   2.212
 5788SOL    HW218264   2.897   1.266   2.115
 5789SOL     OW18265   3.502   4.927   0.316
 5789SOL    HW118266   3.421   4.951   0.261
 5789SOL    HW218267   3.562   4.867   0.262
 5790SOL     OW18268   1.691   4.455   4.543
 5790SOL    HW118269   1.751   4.461   4.463
 5790SOL    HW218270   1.722   4.519   4.613
 5791SOL     OW18271   4.578   1.087   2.039
 5791SOL    HW118272   4.594   0.989   2.039
 5791SOL    HW218273   4.568   1.119   2.134
 5792SOL     OW18274   6.835   2.734   2.922
 5792SOL    HW118275   6.842   2.834   2.926
 5792SOL    HW218276   6.844   2.705   2.827
 5793SOL     OW18277   5.085   0.595   3.758
 5793SOL    HW118278   5.170   0.568   3.802
 5793SOL    HW218279   5.027   0.514   3.745
 5794SOL     OW18280   3.725   1.759   0.316
 5794SOL    HW118281   3.692   1.782   0.224
 5794SOL    HW218282   3.647   1.730   0.373
 5795SOL     OW18283   6.433   6.334   0.063
 5795SOL    HW118284   6.440   6.368   0.157
 5795SOL    HW218285   6.339   6.305   0.045
 5796SOL     OW18286   3.873   1.208   0.088
 5796SOL    HW118287   3.821   1.123   0.094
 5796SOL    HW218288   3.905   1.235   0.179
 5797SOL     OW18289   4.594   1.978   5.810
 5797SOL    HW118290   4.578   2.067   5.767
 5797SOL    HW218291   4.691   1.967   5.831
 5798SOL     OW18292   0.938   4.541   5.078
 5798SOL    HW118293   1.007   4.495   5.022
 5798SOL    HW218294   0.977   4.563   5.167
 5799SOL     OW18295   5.592   1.315   3.396
 5799SOL    HW118296   5.682   1.299   3.436
 5799SOL    HW218297   5.567   1.239   3.336
 5800SOL     OW18298   5.861   6.297   1.269
 5800SOL    HW118299   5.950   6.337   1.292
 5800SOL    HW218300   5.804   6.367   1.225
 5801SOL     OW18301   2.026   2.179   3.787
 5801SOL    HW118302   2.034   2.079   3.785
 5801SOL    HW218303   1.930   2.204   3.799
 5802SOL     OW18304   1.525   4.787   1.023
 5802SOL    HW118305   1.521   4.790   1.123
 5802SOL    HW218306   1.549   4.694   0.994
 5803SOL     OW18307   1.769   4.989   2.097
 5803SOL    HW118308   1.829   4.933   2.154
 5803SOL    HW218309   1.733   4.933   2.023
 5804SOL     OW18310   0.249   5.335   4.184
 5804SOL    HW118311   0.263   5.418   4.130
 5804SOL    HW218312   0.325   5.323   4.248
 5805SOL     OW18313   2.570   3.729   5.993
 5805SOL    HW118314   2.544   3.826   5.993
 5805SOL    HW218315   2.571   3.695   5.899
 5806SOL     OW18316   0.016   6.091   5.718
 5806SOL    HW118317   0.062   6.145   5.789
 5806SOL    HW218318   7.000   6.152   5.649
 5807SOL     OW18319   0.610   3.860   1.917
 5807SOL    HW118320   0.639   3.953   1.893
 5807SOL    HW218321   0.572   3.816   1.836
 5808SOL     OW18322   5.844   4.690   4.560
 5808SOL    HW118323   5.927   4.638   4.536
 5808SOL    HW218324   5.817   4.668   4.654
 5809SOL     OW18325   6.173   1.946   4.677
 5809SOL    HW118326   6.230   1.864   4.669
 5809SOL    HW218327   6.165   1.989   4.587
 5810SOL     OW18328   3.752   1.689   4.014
 5810SOL    HW118329   3.850   1.683   3.993
 5810SOL    HW218330   3.699   1.684   3.930
 5811SOL     OW18331   3.167   0.352   5.721
 5811SOL    HW118332   3.172   0.265   5.671
 5811SOL    HW218333   3.075   0.391   5.711
 5812SOL     OW18334   6.485   1.883   3.976
 5812SOL    HW118335   6.409   1.883   4.041
 5812SOL    HW218336   6.515   1.789   3.961
 5813SOL     OW18337   1.757   1.761   0.924
 5813SOL    HW118338   1.745   1.713   1.011
 5813SOL    HW218339   1.737   1.698   0.848
 5814SOL     OW18340   6.265   4.427   1.239
 5814SOL    HW118341   6.206   4.348   1.221
 5814SOL    HW218342   6.342   4.426   1.175
 5815SOL     OW18343   4.360   2.419   3.960
 5815SOL    HW118344   4.402   2.371   3.883
 5815SOL    HW218345   4.401   2.510   3.969
 5816SOL     OW18346   4.349   6.104   0.278
 5816SOL    HW118347   4.317   6.199   0.285
 5816SOL    HW218348   4.353   6.077   0.182
 5817SOL     OW18349   5.514   3.819   6.172
 5817SOL    HW118350   5.566   3.760   6.233
 5817SOL    HW218351   5.500   3.774   6.084
 5818SOL     OW18352   6.762   5.474   4.948
 5818SOL    HW118353   6.807   5.558   4.918
 5818SOL    HW218354   6.685   5.454   4.887
 5819SOL     OW18355   4.026   6.502   0.184
 5819SOL    HW118356   3.936   6.486   0.143
 5819SOL    HW218357   4.020   6.488   0.283
 5820SOL     OW18358   4.142   5.660   4.233
 5820SOL    HW118359   4.086   5.683   4.154
 5820SOL    HW218360   4.211   5.593   4.206
 5821SOL     OW18361   0.076   0.264   2.423
 5821SOL    HW118362   0.038   0.322   2.351
 5821SOL    HW218363   0.167   0.233   2.397
 5822SOL     OW18364   0.900   2.688   2.262
 5822SOL    HW118365   0.943   2.760   2.316
 5822SOL    HW218366   0.954   2.604   2.269
 5823SOL     OW18367   1.414   1.221   5.346
 5823SOL    HW118368   1.489   1.187   5.403
 5823SOL    HW218369   1.359   1.285   5.400
 5824SOL     OW18370   6.181   4.938   2.679
 5824SOL    HW118371   6.127   4.914   2.599
 5824SOL    HW218372   6.176   5.037   2.695
 5825SOL     OW18373   2.357   2.295   5.189
 5825SOL    HW118374   2.286   2.350   5.232
 5825SOL    HW218375   2.339   2.286   5.092
 5826SOL     OW18376   0.185   5.292   5.636
 5826SOL    HW118377   0.114   5.255   5.696
 5826SOL    HW218378   0.208   5.224   5.566
 5827SOL     OW18379   2.215   4.460   4.765
 5827SOL    HW118380   2.151   4.383   4.763
 5827SOL    HW218381   2.165   4.545   4.749
 5828SOL     OW18382   0.024   3.002   2.111
 5828SOL    HW118383   6.992   2.958   2.183
 5828SOL    HW218384   0.079   2.934   2.064
 5829SOL     OW18385   2.093   1.292   3.119
 5829SOL    HW118386   2.054   1.364   3.061
 5829SOL    HW218387   2.035   1.211   3.115
 5830SOL     OW18388   4.828   0.085   5.245
 5830SOL    HW118389   4.782   7.018   5.239
 5830SOL    HW218390   4.857   0.113   5.153
 5831SOL     OW18391   0.262   0.645   4.496
 5831SOL    HW118392   0.175   0.597   4.485
 5831SOL    HW218393   0.337   0.589   4.461
 5832SOL     OW18394   4.067   4.389   6.009
 5832SOL    HW118395   3.996   4.360   6.074
 5832SOL    HW218396   4.083   4.487   6.021
 5833SOL     OW18397   4.254   3.496   5.236
 5833SOL    HW118398   4.177   3.435   5.218
 5833SOL    HW218399   4.325   3.446   5.287
 5834SOL     OW18400   6.504   3.058   0.145
 5834SOL    HW118401   6.568   3.134   0.139
 5834SOL    HW218402   6.480   3.028   0.053
 5835SOL     OW18403   4.896   3.442   3.935
 5835SOL    HW118404   4.985   3.458   3.978
 5835SOL    HW218405   4.827   3.501   3.976
 5836SOL     OW18406   3.169   6.242   2.530
 5836SOL    HW118407   3.149   6.325   2.478
 5836SOL    HW218408   3.234   6.186   2.479
 5837SOL     OW18409   4.109   5.084   6.115
 5837SOL    HW118410   4.081   5.083   6.211
 5837SOL    HW218411   4.035   5.121   6.059
 5838SOL     OW18412   2.750   1.863   6.520
 5838SOL    HW118413   2.756   1.789   6.453
 5838SOL    HW218414   2.773   1.950   6.477
 5839SOL     OW18415   0.110   2.240   2.568
 5839SOL    HW118416   0.090   2.328   2.610
 5839SOL    HW218417   0.195   2.203   2.605
 5840SOL     OW18418   0.709   5.790   6.651
 5840SOL    HW118419   0.681   5.711   6.705
 5840SOL    HW218420   0.774   5.845   6.704
 5841SOL     OW18421   4.840   1.895   2.396
 5841SOL    HW118422   4.834   1.916   2.493
 5841SOL    HW218423   4.862   1.798   2.385
 5842SOL     OW18424   4.546   2.945   0.805
 5842SOL    HW118425   4.513   2.889   0.881
 5842SOL    HW218426   4.469   2.967   0.745
 5843SOL     OW18427   2.078   3.693   2.869
 5843SOL    HW118428   2.146   3.619   2.868
 5843SOL    HW218429   1.988   3.655   2.890
 5844SOL     OW18430   0.957   6.831   5.892
 5844SOL    HW118431   1.044   6.842   5.940
 5844SOL    HW218432   0.897   6.770   5.945
 5845SOL     OW18433   1.121   0.426   2.710
 5845SOL    HW118434   1.145   0.415   2.614
 5845SOL    HW218435   1.201   0.407   2.767
 5846SOL     OW18436   0.066   2.561   3.466
 5846SOL    HW118437   6.992   2.589   3.477
 5846SOL    HW218438   0.125   2.642   3.474
 5847SOL     OW18439   2.204   2.114   1.891
 5847SOL    HW118440   2.238   2.208   1.892
 5847SOL    HW218441   2.118   2.109   1.940
 5848SOL     OW18442   2.576   5.108   2.768
 5848SOL    HW118443   2.510   5.068   2.704
 5848SOL    HW218444   2.663   5.059   2.761
 5849SOL     OW18445   0.118   0.024   6.569
 5849SOL    HW118446   0.103   0.116   6.533
 5849SOL    HW218447   0.038   6.989   6.551
 5850SOL     OW18448   0.280   4.260   2.330
 5850SOL    HW118449   0.295   4.195   2.256
 5850SOL    HW218450   0.193   4.307   2.316
 5851SOL     OW18451   5.799   3.791   3.177
 5851SOL    HW118452   5.743   3.844   3.241
 5851SOL    HW218453   5.755   3.702   3.161
 5852SOL     OW18454   5.924   6.361   3.103
 5852SOL    HW118455   5.918   6.325   3.010
 5852SOL    HW218456   5.874   6.301   3.166
 5853SOL     OW18457   3.482   5.343   4.225
 5853SOL    HW118458   3.475   5.385   4.135
 5853SOL    HW218459   3.577   5.345   4.257
 5854SOL     OW18460   6.058   4.665   5.495
 5854SOL    HW118461   5.978   4.657   5.435
 5854SOL    HW218462   6.111   4.581   5.490
 5855SOL     OW18463   0.795   0.790   4.873
 5855SOL    HW118464   0.821   0.886   4.864
 5855SOL    HW218465   0.757   0.774   4.965
 5856SOL     OW18466   2.176   6.101   4.142
 5856SOL    HW118467   2.173   6.105   4.042
 5856SOL    HW218468   2.087   6.072   4.177
 5857SOL     OW18469   6.501   2.416   5.710
 5857SOL    HW118470   6.537   2.458   5.627
 5857SOL    HW218471   6.534   2.321   5.716
 5858SOL     OW18472   2.375   2.352   1.903
 5858SOL    HW118473   2.424   2.400   1.829
 5858SOL    HW218474   2.421   2.369   1.989
 5859SOL     OW18475   5.682   6.364   1.578
 5859SOL    HW118476   5.708   6.435   1.644
 5859SOL    HW218477   5.673   6.277   1.625
 5860SOL     OW18478   1.875   3.822   2.194
 5860SOL    HW118479   1.937   3.771   2.134
 5860SOL    HW218480   1.784   3.779   2.191
 5861SOL     OW18481   4.755   1.250   4.442
 5861SOL    HW118482   4.814   1.249   4.362
 5861SOL    HW218483   4.659   1.256   4.413
 5862SOL     OW18484   4.627   4.987   2.611
 5862SOL    HW118485   4.644   5.083   2.633
 5862SOL    HW218486   4.663   4.966   2.520
 5863SOL     OW18487   2.704   0.494   4.851
 5863SOL    HW118488   2.761   0.538   4.921
 5863SOL    HW218489   2.613   0.534   4.852
 5864SOL     OW18490   3.572   3.550   1.588
 5864SOL    HW118491   3.555   3.648   1.580
 5864SOL    HW218492   3.595   3.527   1.682
 5865SOL     OW18493   5.832   0.147   5.503
 5865SOL    HW118494   5.824   0.217   5.574
 5865SOL    HW218495   5.745   0.138   5.455
 5866SOL     OW18496   4.368   5.290   0.529
 5866SOL    HW118497   4.428   5.349   0.583
 5866SOL    HW218498   4.412   5.267   0.442
 5867SOL     OW18499   0.521   4.034   1.347
 5867SOL    HW118500   0.575   4.087   1.281
 5867SOL    HW218501   0.530   3.937   1.327
 5868SOL     OW18502   0.134   0.877   5.243
 5868SOL    HW118503   0.081   0.860   5.160
 5868SOL    HW218504   0.096   0.955   5.292
 5869SOL     OW18505   3.167   6.194   3.560
 5869SOL    HW118506   3.108   6.267   3.594
 5869SOL    HW218507   3.263   6.216   3.580
 5870SOL     OW18508   5.186   6.086   4.830
 5870SOL    HW118509   5.216   6.105   4.923
 5870SOL    HW218510   5.259   6.039   4.781
 5871SOL     OW18511   4.239   3.130   0.320
 5871SOL    HW118512   4.187   3.068   0.379
 5871SOL    HW218513   4.203   3.223   0.328
 5872SOL     OW18514   4.330   4.844   0.652
 5872SOL    HW118515   4.301   4.935   0.684
 5872SOL    HW218516   4.373   4.795   0.727
 5873SOL     OW18517   2.544   2.540   1.361
 5873SOL    HW118518   2.489   2.529   1.444
 5873SOL    HW218519   2.483   2.541   1.282
 5874SOL     OW18520   2.869   3.454   0.432
 5874SOL    HW118521   2.897   3.542   0.469
 5874SOL    HW218522   2.933   3.383   0.462
 5875SOL     OW18523   3.992   1.483   0.318
 5875SOL    HW118524   4.010   1.385   0.330
 5875SOL    HW218525   4.041   1.534   0.389
 5876SOL     OW18526   2.974   3.290   6.916
 5876SOL    HW118527   2.980   3.339   6.829
 5876SOL    HW218528   2.944   3.196   6.900
 5877SOL     OW18529   0.564   6.757   0.968
 5877SOL    HW118530   0.658   6.733   0.943
 5877SOL    HW218531   0.556   6.856   0.977
 5878SOL     OW18532   5.271   5.112   3.212
 5878SOL    HW118533   5.282   5.070   3.122
 5878SOL    HW218534   5.174   5.126   3.232
 5879SOL     OW18535   1.830   3.362   6.181
 5879SOL    HW118536   1.756   3.365   6.248
 5879SOL    HW218537   1.855   3.455   6.156
 5880SOL     OW18538   4.705   4.359   6.611
 5880SOL    HW118539   4.627   4.330   6.556
 5880SOL    HW218540   4.733   4.285   6.672
 5881SOL     OW18541   1.035   0.072   1.529
 5881SOL    HW118542   1.118   0.125   1.549
 5881SOL    HW218543   0.971   0.081   1.605
 5882SOL     OW18544   1.154   6.863   6.066
 5882SOL    HW118545   1.243   6.829   6.034
 5882SOL    HW218546   1.163   6.895   6.160
 5883SOL     OW18547   0.714   1.464   0.690
 5883SOL    HW118548   0.763   1.453   0.603
 5883SOL    HW218549   0.650   1.540   0.683
 5884SOL     OW18550   5.401   0.729   4.802
 5884SOL    HW118551   5.371   0.633   4.800
 5884SOL    HW218552   5.321   0.789   4.794
 5885SOL     OW18553   0.300   5.510   1.836
 5885SOL    HW118554   0.358   5.588   1.813
 5885SOL    HW218555   0.357   5.437   1.874
 5886SOL     OW18556   1.122   2.443   3.774
 5886SOL    HW118557   1.218   2.452   3.749
 5886SOL    HW218558   1.069   2.515   3.729
 5887SOL     OW18559   2.698   2.155   1.904
 5887SOL    HW118560   2.742   2.136   1.816
 5887SOL    HW218561   2.760   2.208   1.961
 5888SOL     OW18562   2.042   6.560   1.404
 5888SOL    HW118563   1.979   6.498   1.449
 5888SOL    HW218564   2.071   6.521   1.316
 5889SOL     OW18565   6.715   1.306   0.112
 5889SOL    HW118566   6.687   1.358   0.193
 5889SOL    HW218567   6.814   1.295   0.111
 5890SOL     OW18568   1.879   0.009   2.945
 5890SOL    HW118569   1.804   0.064   2.982
 5890SOL    HW218570   1.963   0.063   2.945
 5891SOL     OW18571   2.235   4.488   0.356
 5891SOL    HW118572   2.213   4.415   0.291
 5891SOL    HW218573   2.256   4.447   0.445
 5892SOL     OW18574   6.643   5.208   2.211
 5892SOL    HW118575   6.670   5.207   2.307
 5892SOL    HW218576   6.588   5.289   2.192
 5893SOL     OW18577   2.487   4.904   1.800
 5893SOL    HW118578   2.580   4.889   1.834
 5893SOL    HW218579   2.421   4.888   1.874
 5894SOL     OW18580   0.994   5.805   5.513
 5894SOL    HW118581   1.085   5.767   5.525
 5894SOL    HW218582   0.950   5.818   5.602
 5895SOL     OW18583   5.742   4.018   3.409
 5895SOL    HW118584   5.710   4.060   3.493
 5895SOL    HW218585   5.839   4.038   3.396
 5896SOL     OW18586   5.294   1.829   0.756
 5896SOL    HW118587   5.212   1.771   0.763
 5896SOL    HW218588   5.350   1.817   0.838
 5897SOL     OW18589   3.747   1.081   1.725
 5897SOL    HW118590   3.683   1.005   1.715
 5897SOL    HW218591   3.825   1.051   1.781
 5898SOL     OW18592   2.176   1.578   5.549
 5898SOL    HW118593   2.105   1.519   5.511
 5898SOL    HW218594   2.152   1.604   5.642
 5899SOL     OW18595   6.470   6.102   6.533
 5899SOL    HW118596   6.447   6.167   6.605
 5899SOL    HW218597   6.459   6.009   6.568
 5900SOL     OW18598   6.896   5.176   2.751
 5900SOL    HW118599   6.930   5.268   2.770
 5900SOL    HW218600   6.972   5.111   2.755
 5901SOL     OW18601   2.732   1.399   0.567
 5901SOL    HW118602   2.752   1.432   0.660
 5901SOL    HW218603   2.722   1.477   0.506
 5902SOL     OW18604   5.538   3.561   5.171
 5902SOL    HW118605   5.495   3.509   5.098
 5902SOL    HW218606   5.553   3.655   5.141
 5903SOL     OW18607   4.999   3.415   6.649
 5903SOL    HW118608   4.995   3.461   6.738
 5903SOL    HW218609   5.003   3.316   6.664
 5904SOL     OW18610   0.945   4.561   1.258
 5904SOL    HW118611   0.944   4.520   1.349
 5904SOL    HW218612   0.857   4.603   1.239
 5905SOL     OW18613   5.883   0.980   4.400
 5905SOL    HW118614   5.908   1.075   4.419
 5905SOL    HW218615   5.950   0.940   4.337
 5906SOL     OW18616   4.695   1.849   5.361
 5906SOL    HW118617   4.765   1.891   5.305
 5906SOL    HW218618   4.711   1.872   5.457
 5907SOL     OW18619   1.666   6.849   0.246
 5907SOL    HW118620   1.668   6.883   0.152
 5907SOL    HW218621   1.743   6.788   0.261
 5908SOL     OW18622   6.271   4.136   6.892
 5908SOL    HW118623   6.338   4.150   6.965
 5908SOL    HW218624   6.317   4.137   6.803
 5909SOL     OW18625   0.106   5.460   6.526
 5909SOL    HW118626   0.193   5.411   6.530
 5909SOL    HW218627   0.062   5.442   6.438
 5910SOL     OW18628   0.614   5.167   0.323
 5910SOL    HW118629   0.592   5.082   0.371
 5910SOL    HW218630   0.647   5.146   0.231
 5911SOL     OW18631   6.987   5.499   5.885
 5911SOL    HW118632   6.939   5.532   5.966
 5911SOL    HW218633   0.064   5.508   5.897
 5912SOL     OW18634   6.031   3.211   6.762
 5912SOL    HW118635   6.003   3.115   6.760
 5912SOL    HW218636   6.105   3.226   6.696
 5913SOL     OW18637   2.657   2.864   6.059
 5913SOL    HW118638   2.643   2.933   5.987
 5913SOL    HW218639   2.573   2.851   6.110
 5914SOL     OW18640   2.490   5.645   6.751
 5914SOL    HW118641   2.538   5.682   6.672
 5914SOL    HW218642   2.447   5.558   6.726
 5915SOL     OW18643   6.229   3.907   1.710
 5915SOL    HW118644   6.296   3.848   1.665
 5915SOL    HW218645   6.263   4.001   1.713
 5916SOL     OW18646   4.286   6.890   5.796
 5916SOL    HW118647   4.260   6.935   5.710
 5916SOL    HW218648   4.250   6.942   5.873
 5917SOL     OW18649   4.092   3.467   4.352
 5917SOL    HW118650   3.995   3.468   4.375
 5917SOL    HW218651   4.146   3.472   4.436
 5918SOL     OW18652   2.404   3.725   5.340
 5918SOL    HW118653   2.317   3.699   5.299
 5918SOL    HW218654   2.446   3.798   5.286
 5919SOL     OW18655   2.897   2.397   0.278
 5919SOL    HW118656   2.872   2.457   0.202
 5919SOL    HW218657   2.814   2.361   0.321
 5920SOL     OW18658   3.599   0.089   0.110
 5920SOL    HW118659   3.684   0.040   0.129
 5920SOL    HW218660   3.524   0.024   0.098
 5921SOL     OW18661   3.749   5.291   5.229
 5921SOL    HW118662   3.748   5.323   5.134
 5921SOL    HW218663   3.685   5.346   5.283
 5922SOL     OW18664   5.945   5.102   4.162
 5922SOL    HW118665   5.878   5.143   4.224
 5922SOL    HW218666   5.994   5.029   4.209
 5923SOL     OW18667   5.433   0.728   2.173
 5923SOL    HW118668   5.472   0.675   2.248
 5923SOL    HW218669   5.370   0.797   2.209
 5924SOL     OW18670   6.208   2.391   5.446
 5924SOL    HW118671   6.259   2.310   5.475
 5924SOL    HW218672   6.217   2.462   5.515
 5925SOL     OW18673   3.952   5.864   3.000
 5925SOL    HW118674   3.957   5.953   2.955
 5925SOL    HW218675   3.899   5.801   2.943
 5926SOL     OW18676   4.031   5.288   1.727
 5926SOL    HW118677   3.994   5.197   1.748
 5926SOL    HW218678   3.974   5.331   1.657
 5927SOL     OW18679   1.741   4.528   2.950
 5927SOL    HW118680   1.835   4.548   2.976
 5927SOL    HW218681   1.678   4.570   3.016
 5928SOL     OW18682   3.385   0.309   1.814
 5928SOL    HW118683   3.389   0.397   1.860
 5928SOL    HW218684   3.421   0.319   1.721
 5929SOL     OW18685   0.903   7.005   5.696
 5929SOL    HW118686   0.924   6.942   5.770
 5929SOL    HW218687   0.919   6.959   5.608
 5930SOL     OW18688   6.923   1.244   3.401
 5930SOL    HW118689   6.941   1.262   3.498
 5930SOL    HW218690   6.828   1.215   3.390
 5931SOL     OW18691   5.645   5.319   2.802
 5931SOL    HW118692   5.660   5.368   2.717
 5931SOL    HW218693   5.585   5.240   2.785
 5932SOL     OW18694   2.505   6.399   0.697
 5932SOL    HW118695   2.442   6.360   0.631
 5932SOL    HW218696   2.546   6.482   0.659
 5933SOL     OW18697   0.394   4.964   3.098
 5933SOL    HW118698   0.414   4.866   3.106
 5933SOL    HW218699   0.328   4.991   3.168
 5934SOL     OW18700   3.867   3.955   3.953
 5934SOL    HW118701   3.879   3.862   3.918
 5934SOL    HW218702   3.809   3.953   4.035
 5935SOL     OW18703   4.053   3.763   4.693
 5935SOL    HW118704   3.978   3.828   4.701
 5935SOL    HW218705   4.092   3.745   4.784
 5936SOL     OW18706   3.908   3.311   0.104
 5936SOL    HW118707   3.856   3.303   0.189
 5936SOL    HW218708   3.953   3.400   0.101
 5937SOL     OW18709   0.949   4.551   2.090
 5937SOL    HW118710   1.036   4.518   2.127
 5937SOL    HW218711   0.880   4.552   2.162
 5938SOL     OW18712   1.454   5.613   4.307
 5938SOL    HW118713   1.391   5.552   4.354
 5938SOL    HW218714   1.410   5.702   4.293
 5939SOL     OW18715   3.247   0.500   3.546
 5939SOL    HW118716   3.179   0.433   3.577
 5939SOL    HW218717   3.247   0.578   3.608
 5940SOL     OW18718   4.387   6.218   2.493
 5940SOL    HW118719   4.427   6.237   2.583
 5940SOL    HW218720   4.288   6.232   2.497
 5941SOL     OW18721   6.429   3.913   2.148
 5941SOL    HW118722   6.383   3.870   2.225
 5941SOL    HW218723   6.466   3.842   2.088
 5942SOL     OW18724   4.592   2.392   0.006
 5942SOL    HW118725   4.595   2.398   6.928
 5942SOL    HW218726   4.561   2.479   0.044
 5943SOL     OW18727   4.129   4.844   0.903
 5943SOL    HW118728   4.105   4.821   0.997
 5943SOL    HW218729   4.216   4.893   0.901
 5944SOL     OW18730   5.450   1.831   1.416
 5944SOL    HW118731   5.373   1.789   1.368
 5944SOL    HW218732   5.416   1.897   1.483
 5945SOL     OW18733   6.669   5.542   5.373
 5945SOL    HW118734   6.712   5.537   5.464
 5945SOL    HW218735   6.638   5.451   5.346
 5946SOL     OW18736   3.236   3.085   5.685
 5946SOL    HW118737   3.317   3.097   5.628
 5946SOL    HW218738   3.262   3.049   5.774
 5947SOL     OW18739   3.930   3.009   1.925
 5947SOL    HW118740   3.918   3.108   1.918
 5947SOL    HW218741   3.861   2.972   1.987
 5948SOL     OW18742   3.963   5.076   3.645
 5948SOL    HW118743   3.905   5.035   3.715
 5948SOL    HW218744   3.989   5.006   3.578
 5949SOL     OW18745   3.767   3.727   1.228
 5949SOL    HW118746   3.852   3.706   1.274
 5949SOL    HW218747   3.693   3.671   1.265
 5950SOL     OW18748   5.222   3.099   5.049
 5950SOL    HW118749   5.188   3.131   4.961
 5950SOL    HW218750   5.216   3.173   5.116
 5951SOL     OW18751   0.655   5.746   4.799
 5951SOL    HW118752   0.583   5.764   4.866
 5951SOL    HW218753   0.743   5.779   4.834
 5952SOL     OW18754   5.360   5.492   4.032
 5952SOL    HW118755   5.391   5.445   3.949
 5952SOL    HW218756   5.274   5.538   4.014
 5953SOL     OW18757   0.074   2.730   5.388
 5953SOL    HW118758   0.012   2.765   5.458
 5953SOL    HW218759   0.156   2.787   5.386
 5954SOL     OW18760   0.099   4.951   5.899
 5954SOL    HW118761   0.144   5.018   5.959
 5954SOL    HW218762   0.005   4.937   5.929
 5955SOL     OW18763   5.486   6.025   2.270
 5955SOL    HW118764   5.575   6.040   2.225
 5955SOL    HW218765   5.494   5.947   2.333
 5956SOL     OW18766   3.530   2.096   0.347
 5956SOL    HW118767   3.570   2.087   0.439
 5956SOL    HW218768   3.603   2.095   0.279
 5957SOL     OW18769   4.820   0.460   5.150
 5957SOL    HW118770   4.775   0.412   5.075
 5957SOL    HW218771   4.918   0.466   5.131
 5958SOL     OW18772   6.114   6.552   2.864
 5958SOL    HW118773   6.071   6.547   2.774
 5958SOL    HW218774   6.187   6.621   2.863
 5959SOL     OW18775   3.806   1.461   5.535
 5959SOL    HW118776   3.710   1.435   5.535
 5959SOL    HW218777   3.817   1.551   5.578
 5960SOL     OW18778   3.669   6.312   4.894
 5960SOL    HW118779   3.733   6.386   4.915
 5960SOL    HW218780   3.662   6.251   4.973
 5961SOL     OW18781   4.951   0.743   3.948
 5961SOL    HW118782   5.009   0.700   3.879
 5961SOL    HW218783   4.872   0.684   3.967
 5962SOL     OW18784   4.944   6.002   1.956
 5962SOL    HW118785   4.942   5.903   1.945
 5962SOL    HW218786   4.888   6.044   1.884
 5963SOL     OW18787   3.311   2.843   5.038
 5963SOL    HW118788   3.324   2.862   5.135
 5963SOL    HW218789   3.309   2.744   5.024
 5964SOL     OW18790   0.612   4.886   5.921
 5964SOL    HW118791   0.630   4.962   5.859
 5964SOL    HW218792   0.677   4.889   5.997
 5965SOL     OW18793   1.913   2.121   5.892
 5965SOL    HW118794   1.936   2.211   5.928
 5965SOL    HW218795   1.815   2.116   5.872
 5966SOL     OW18796   3.454   5.543   5.137
 5966SOL    HW118797   3.467   5.513   5.231
 5966SOL    HW218798   3.356   5.551   5.118
 5967SOL     OW18799   4.304   6.295   1.622
 5967SOL    HW118800   4.222   6.257   1.665
 5967SOL    HW218801   4.279   6.341   1.537
 5968SOL     OW18802   5.246   1.250   2.604
 5968SOL    HW118803   5.215   1.168   2.555
 5968SOL    HW218804   5.345   1.247   2.614
 5969SOL     OW18805   0.032   1.451   5.595
 5969SOL    HW118806   6.987   1.513   5.554
 5969SOL    HW218807   7.010   1.400   5.669
 5970SOL     OW18808   0.434   4.890   2.498
 5970SOL    HW118809   0.405   4.956   2.568
 5970SOL    HW218810   0.521   4.919   2.459
 5971SOL     OW18811   2.440   0.599   3.316
 5971SOL    HW118812   2.413   0.649   3.234
 5971SOL    HW218813   2.467   0.506   3.291
 5972SOL     OW18814   4.716   6.352   0.332
 5972SOL    HW118815   4.701   6.450   0.344
 5972SOL    HW218816   4.802   6.336   0.285
 5973SOL     OW18817   2.051   5.290   2.751
 5973SOL    HW118818   2.045   5.382   2.789
 5973SOL    HW218819   2.132   5.284   2.693
 5974SOL     OW18820   5.708   4.498   6.667
 5974SOL    HW118821   5.608   4.497   6.677
 5974SOL    HW218822   5.746   4.576   6.716
 5975SOL     OW18823   3.199   2.138   0.544
 5975SOL    HW118824   3.231   2.057   0.494
 5975SOL    HW218825   3.101   2.150   0.527
 5976SOL     OW18826   2.927   3.619   4.574
 5976SOL    HW118827   2.830   3.601   4.561
 5976SOL    HW218828   2.940   3.682   4.650
 5977SOL     OW18829   1.828   5.022   1.569
 5977SOL    HW118830   1.799   4.974   1.486
 5977SOL    HW218831   1.775   5.106   1.580
 5978SOL     OW18832   5.130   4.844   3.197
 5978SOL    HW118833   5.130   4.754   3.240
 5978SOL    HW218834   5.214   4.855   3.144
 5979SOL     OW18835   6.231   0.601   3.293
 5979SOL    HW118836   6.242   0.653   3.378
 5979SOL    HW218837   6.263   0.508   3.307
 5980SOL     OW18838   4.001   3.558   7.019
 5980SOL    HW118839   3.946   3.619   6.963
 5980SOL    HW218840   4.060   3.612   0.058
 5981SOL     OW18841   6.250   0.824   2.341
 5981SOL    HW118842   6.161   0.792   2.309
 5981SOL    HW218843   6.313   0.829   2.263
 5982SOL     OW18844   6.629   2.562   0.212
 5982SOL    HW118845   6.629   2.581   0.114
 5982SOL    HW218846   6.653   2.645   0.262
 5983SOL     OW18847   2.011   1.410   4.653
 5983SOL    HW118848   2.082   1.348   4.621
 5983SOL    HW218849   2.017   1.496   4.602
 5984SOL     OW18850   6.719   6.820   5.189
 5984SOL    HW118851   6.724   6.913   5.227
 5984SOL    HW218852   6.633   6.809   5.140
 5985SOL     OW18853   5.579   3.285   3.782
 5985SOL    HW118854   5.501   3.228   3.807
 5985SOL    HW218855   5.663   3.235   3.799
 5986SOL     OW18856   2.895   3.419   3.053
 5986SOL    HW118857   2.982   3.380   3.083
 5986SOL    HW218858   2.822   3.350   3.066
 5987SOL     OW18859   4.083   1.299   4.667
 5987SOL    HW118860   4.097   1.393   4.697
 5987SOL    HW218861   4.075   1.239   4.747
 5988SOL     OW18862   4.333   6.197   4.988
 5988SOL    HW118863   4.258   6.225   4.928
 5988SOL    HW218864   4.379   6.279   5.024
 5989SOL     OW18865   2.687   5.690   6.558
 5989SOL    HW118866   2.724   5.751   6.488
 5989SOL    HW218867   2.740   5.699   6.642
 5990SOL     OW18868   4.108   4.203   0.767
 5990SOL    HW118869   4.145   4.257   0.691
 5990SOL    HW218870   4.070   4.118   0.732
 5991SOL     OW18871   4.591   4.928   5.405
 5991SOL    HW118872   4.562   4.845   5.359
 5991SOL    HW218873   4.514   4.966   5.457
 5992SOL     OW18874   3.680   0.717   4.181
 5992SOL    HW118875   3.652   0.756   4.269
 5992SOL    HW218876   3.728   0.631   4.196
 5993SOL     OW18877   3.358   6.935   6.168
 5993SOL    HW118878   3.372   0.012   6.172
 5993SOL    HW218879   3.441   6.890   6.135
 5994SOL     OW18880   6.470   1.577   2.215
 5994SOL    HW118881   6.547   1.563   2.277
 5994SOL    HW218882   6.457   1.496   2.158
 5995SOL     OW18883   6.184   4.315   2.451
 5995SOL    HW118884   6.135   4.275   2.374
 5995SOL    HW218885   6.279   4.331   2.426
 5996SOL     OW18886   0.735   5.973   0.656
 5996SOL    HW118887   0.781   5.926   0.580
 5996SOL    HW218888   0.795   6.045   0.692
 5997SOL     OW18889   0.474   6.587   2.415
 5997SOL    HW118890   0.542   6.622   2.479
 5997SOL    HW218891   0.470   6.646   2.335
 5998SOL     OW18892   5.677   2.822   1.743
 5998SOL    HW118893   5.756   2.827   1.804
 5998SOL    HW218894   5.655   2.914   1.710
 5999SOL     OW18895   1.052   2.039   2.339
 5999SOL    HW118896   0.984   2.112   2.332
 5999SOL    HW218897   1.070   2.001   2.248
 6000SOL     OW18898   4.034   6.373   1.778
 6000SOL    HW118899   3.937   6.347   1.781
 6000SOL    HW218900   4.045   6.449   1.714
 6001SOL     OW18901   0.398   3.994   6.187
 6001SOL    HW118902   0.324   3.932   6.160
 6001SOL    HW218903   0.437   4.037   6.105
 6002SOL     OW18904   0.165   6.962   1.335
 6002SOL    HW118905   0.180   6.961   1.237
 6002SOL    HW218906   0.225   6.894   1.379
 6003SOL     OW18907   6.592   1.942   4.505
 6003SOL    HW118908   6.632   1.871   4.446
 6003SOL    HW218909   6.636   1.939   4.595
 6004SOL     OW18910   0.063   4.641   2.867
 6004SOL    HW118911   7.005   4.621   2.924
 6004SOL    HW218912   0.104   4.727   2.896
 6005SOL     OW18913   4.479   4.900   4.846
 6005SOL    HW118914   4.428   4.820   4.878
 6005SOL    HW218915   4.448   4.981   4.897
 6006SOL     OW18916   3.375   6.932   0.029
 6006SOL    HW118917   3.294   6.903   0.080
 6006SOL    HW218918   3.348   6.994   6.977
 6007SOL     OW18919   4.893   3.478   4.299
 6007SOL    HW118920   4.886   3.398   4.359
 6007SOL    HW218921   4.937   3.553   4.348
 6008SOL     OW18922   2.036   5.513   6.443
 6008SOL    HW118923   2.076   5.499   6.352
 6008SOL    HW218924   2.084   5.588   6.489
 6009SOL     OW18925   2.979   1.038   4.593
 6009SOL    HW118926   3.045   1.042   4.518
 6009SOL    HW218927   2.893   1.081   4.565
 6010SOL     OW18928   1.786   4.081   2.271
 6010SOL    HW118929   1.831   4.093   2.360
 6010SOL    HW218930   1.822   3.999   2.227
 6011SOL     OW18931   4.491   2.436   2.875
 6011SOL    HW118932   4.550   2.375   2.822
 6011SOL    HW218933   4.540   2.520   2.897
 6012SOL     OW18934   6.448   1.806   0.554
 6012SOL    HW118935   6.390   1.782   0.633
 6012SOL    HW218936   6.410   1.886   0.509
 6013SOL     OW18937   4.850   2.059   2.891
 6013SOL    HW118938   4.815   2.062   2.985
 6013SOL    HW218939   4.950   2.062   2.893
 6014SOL     OW18940   4.400   1.664   0.378
 6014SOL    HW118941   4.421   1.598   0.306
 6014SOL    HW218942   4.452   1.642   0.461
 6015SOL     OW18943   5.707   2.094   5.923
 6015SOL    HW118944   5.743   2.165   5.984
 6015SOL    HW218945   5.717   2.123   5.828
 6016SOL     OW18946   0.229   1.386   0.048
 6016SOL    HW118947   0.274   1.419   6.987
 6016SOL    HW218948   0.204   1.464   0.105
 6017SOL     OW18949   6.395   4.743   2.716
 6017SOL    HW118950   6.442   4.769   2.800
 6017SOL    HW218951   6.309   4.793   2.709
 6018SOL     OW18952   3.645   1.839   0.068
 6018SOL    HW118953   3.626   1.937   0.069
 6018SOL    HW218954   3.567   1.790   0.030
 6019SOL     OW18955   5.255   1.436   4.209
 6019SOL    HW118956   5.315   1.515   4.199
 6019SOL    HW218957   5.302   1.364   4.260
 6020SOL     OW18958   1.745   6.381   2.440
 6020SOL    HW118959   1.815   6.446   2.410
 6020SOL    HW218960   1.712   6.330   2.361
 6021SOL     OW18961   3.965   0.211   2.302
 6021SOL    HW118962   4.008   0.174   2.219
 6021SOL    HW218963   3.969   0.311   2.300
 6022SOL     OW18964   4.301   0.888   4.678
 6022SOL    HW118965   4.307   0.987   4.685
 6022SOL    HW218966   4.251   0.864   4.595
 6023SOL     OW18967   6.323   1.277   2.609
 6023SOL    HW118968   6.320   1.281   2.510
 6023SOL    HW218969   6.243   1.229   2.644
 6024SOL     OW18970   0.518   4.154   3.101
 6024SOL    HW118971   0.505   4.107   3.188
 6024SOL    HW218972   0.463   4.109   3.030
 6025SOL     OW18973   3.747   0.565   2.285
 6025SOL    HW118974   3.681   0.585   2.213
 6025SOL    HW218975   3.698   0.552   2.372
 6026SOL     OW18976   0.023   3.704   4.117
 6026SOL    HW118977   6.972   3.757   4.160
 6026SOL    HW218978   0.047   3.627   4.176
 6027SOL     OW18979   2.180   3.961   5.441
 6027SOL    HW118980   2.128   4.044   5.457
 6027SOL    HW218981   2.275   3.984   5.422
 6028SOL     OW18982   1.062   3.596   0.257
 6028SOL    HW118983   1.061   3.634   0.349
 6028SOL    HW218984   1.013   3.658   0.195
 6029SOL     OW18985   2.487   6.108   6.142
 6029SOL    HW118986   2.456   6.096   6.236
 6029SOL    HW218987   2.500   6.018   6.099
 6030SOL     OW18988   3.408   6.928   2.406
 6030SOL    HW118989   3.347   6.951   2.481
 6030SOL    HW218990   3.355   6.896   2.328
 6031SOL     OW18991   4.116   4.797   4.197
 6031SOL    HW118992   4.053   4.849   4.138
 6031SOL    HW218993   4.076   4.709   4.219
 6032SOL     OW18994   1.861   3.359   3.041
 6032SOL    HW118995   1.854   3.447   2.993
 6032SOL    HW218996   1.916   3.370   3.123
 6033SOL     OW18997   2.651   2.408   2.507
 6033SOL    HW118998   2.716   2.382   2.435
 6033SOL    HW218999   2.598   2.487   2.477
 6034SOL     OW19000   1.595   5.899   5.073
 6034SOL    HW119001   1.623   5.971   5.009
 6034SOL    HW219002   1.547   5.939   5.151
 6035SOL     OW19003   5.782   1.477   3.798
 6035SOL    HW119004   5.841   1.434   3.867
 6035SOL    HW219005   5.695   1.503   3.841
 6036SOL     OW19006   0.164   6.219   4.490
 6036SOL    HW119007   0.259   6.196   4.515
 6036SOL    HW219008   0.148   6.192   4.395
 6037SOL     OW19009   4.561   5.243   6.498
 6037SOL    HW119010   4.535   5.157   6.541
 6037SOL    HW219011   4.627   5.226   6.425
 6038SOL     OW19012   0.773   3.674   6.327
 6038SOL    HW119013   0.851   3.696   6.268
 6038SOL    HW219014   0.689   3.708   6.285
 6039SOL     OW19015   3.398   3.241   3.202
 6039SOL    HW119016   3.423   3.335   3.178
 6039SOL    HW219017   3.303   3.239   3.232
 6040SOL     OW19018   0.295   2.002   6.798
 6040SOL    HW119019   0.370   1.953   6.753
 6040SOL    HW219020   0.209   1.979   6.752
 6041SOL     OW19021   2.016   1.716   5.326
 6041SOL    HW119022   1.931   1.709   5.272
 6041SOL    HW219023   1.993   1.725   5.423
 6042SOL     OW19024   5.399   5.291   1.764
 6042SOL    HW119025   5.338   5.288   1.843
 6042SOL    HW219026   5.426   5.198   1.739
 6043SOL     OW19027   1.177   4.934   5.263
 6043SOL    HW119028   1.263   4.886   5.281
 6043SOL    HW219029   1.146   4.912   5.171
 6044SOL     OW19030   1.147   2.291   1.360
 6044SOL    HW119031   1.118   2.368   1.303
 6044SOL    HW219032   1.078   2.273   1.430
 6045SOL     OW19033   5.797   6.051   1.140
 6045SOL    HW119034   5.798   6.107   1.223
 6045SOL    HW219035   5.809   5.955   1.164
 6046SOL     OW19036   3.007   2.076   0.922
 6046SOL    HW119037   2.936   2.017   0.959
 6046SOL    HW219038   3.075   2.094   0.993
 6047SOL     OW19039   6.544   1.113   2.588
 6047SOL    HW119040   6.464   1.163   2.622
 6047SOL    HW219041   6.515   1.023   2.556
 6048SOL     OW19042   4.701   6.294   3.375
 6048SOL    HW119043   4.660   6.247   3.453
 6048SOL    HW219044   4.705   6.393   3.393
 6049SOL     OW19045   5.331   3.956   5.905
 6049SOL    HW119046   5.332   3.960   6.005
 6049SOL    HW219047   5.239   3.935   5.872
 6050SOL     OW19048   3.654   4.102   5.761
 6050SOL    HW119049   3.598   4.038   5.709
 6050SOL    HW219050   3.718   4.148   5.698
 6051SOL     OW19051   2.969   1.769   3.762
 6051SOL    HW119052   2.914   1.848   3.785
 6051SOL    HW219053   3.060   1.778   3.803
 6052SOL     OW19054   6.325   6.645   6.904
 6052SOL    HW119055   6.325   6.617   7.001
 6052SOL    HW219056   6.242   6.697   6.885
 6053SOL     OW19057   3.653   1.034   0.045
 6053SOL    HW119058   3.651   0.938   0.074
 6053SOL    HW219059   3.563   1.075   0.060
 6054SOL     OW19060   2.457   4.107   0.521
 6054SOL    HW119061   2.513   4.076   0.444
 6054SOL    HW219062   2.479   4.053   0.602
 6055SOL     OW19063   5.606   1.173   6.225
 6055SOL    HW119064   5.697   1.180   6.266
 6055SOL    HW219065   5.544   1.125   6.287
 6056SOL     OW19066   5.128   3.180   4.804
 6056SOL    HW119067   5.043   3.232   4.819
 6056SOL    HW219068   5.196   3.240   4.761
 6057SOL     OW19069   5.527   2.878   4.621
 6057SOL    HW119070   5.470   2.875   4.703
 6057SOL    HW219071   5.483   2.935   4.552
 6058SOL     OW19072   5.388   2.834   2.506
 6058SOL    HW119073   5.305   2.811   2.454
 6058SOL    HW219074   5.430   2.750   2.540
 6059SOL     OW19075   4.615   5.944   5.614
 6059SOL    HW119076   4.625   6.034   5.573
 6059SOL    HW219077   4.596   5.876   5.543
 6060SOL     OW19078   2.744   4.221   5.908
 6060SOL    HW119079   2.788   4.196   5.994
 6060SOL    HW219080   2.807   4.201   5.832
 6061SOL     OW19081   4.333   2.237   0.022
 6061SOL    HW119082   4.420   2.285   0.036
 6061SOL    HW219083   4.261   2.304   0.001
 6062SOL     OW19084   2.232   0.517   4.434
 6062SOL    HW119085   2.297   0.471   4.374
 6062SOL    HW219086   2.232   0.615   4.413
 6063SOL     OW19087   4.053   1.437   6.725
 6063SOL    HW119088   3.959   1.465   6.708
 6063SOL    HW219089   4.056   1.377   6.805
 6064SOL     OW19090   2.728   5.940   2.161
 6064SOL    HW119091   2.770   5.976   2.245
 6064SOL    HW219092   2.762   5.992   2.083
 6065SOL     OW19093   5.589   0.307   2.612
 6065SOL    HW119094   5.622   0.393   2.651
 6065SOL    HW219095   5.608   0.304   2.514
 6066SOL     OW19096   4.494   1.491   0.169
 6066SOL    HW119097   4.430   1.462   0.098
 6066SOL    HW219098   4.579   1.520   0.127
 6067SOL     OW19099   5.637   2.029   6.801
 6067SOL    HW119100   5.580   2.067   6.728
 6067SOL    HW219101   5.606   1.937   6.823
 6068SOL     OW19102   5.923   2.704   4.722
 6068SOL    HW119103   5.839   2.688   4.774
 6068SOL    HW219104   5.983   2.765   4.774
 6069SOL     OW19105   0.351   3.492   5.328
 6069SOL    HW119106   0.357   3.531   5.419
 6069SOL    HW219107   0.326   3.563   5.262
 6070SOL     OW19108   2.240   1.660   5.944
 6070SOL    HW119109   2.288   1.675   6.031
 6070SOL    HW219110   2.298   1.692   5.869
 6071SOL     OW19111   4.870   6.091   5.108
 6071SOL    HW119112   4.787   6.121   5.156
 6071SOL    HW219113   4.870   5.991   5.103
 6072SOL     OW19114   0.473   0.875   1.852
 6072SOL    HW119115   0.443   0.892   1.758
 6072SOL    HW219116   0.535   0.947   1.881
 6073SOL     OW19117   6.549   3.917   0.454
 6073SOL    HW119118   6.525   3.823   0.428
 6073SOL    HW219119   6.528   3.931   0.551
 6074SOL     OW19120   1.039   6.686   4.314
 6074SOL    HW119121   1.098   6.680   4.395
 6074SOL    HW219122   0.950   6.646   4.335
 6075SOL     OW19123   0.314   2.344   6.471
 6075SOL    HW119124   0.263   2.393   6.543
 6075SOL    HW219125   0.369   2.410   6.420
 6076SOL     OW19126   2.707   6.201   5.384
 6076SOL    HW119127   2.801   6.228   5.408
 6076SOL    HW219128   2.695   6.104   5.403
 6077SOL     OW19129   5.162   5.480   1.817
 6077SOL    HW119130   5.193   5.457   1.909
 6077SOL    HW219131   5.077   5.429   1.797
 6078SOL     OW19132   3.919   5.051   1.868
 6078SOL    HW119133   3.878   5.082   1.953
 6078SOL    HW219134   3.903   4.953   1.857
 6079SOL     OW19135   3.050   3.775   5.903
 6079SOL    HW119136   3.079   3.813   5.816
 6079SOL    HW219137   3.031   3.677   5.892
 6080SOL     OW19138   0.459   1.169   2.188
 6080SOL    HW119139   0.371   1.203   2.155
 6080SOL    HW219140   0.474   1.204   2.281
 6081SOL     OW19141   6.021   3.871   4.686
 6081SOL    HW119142   6.082   3.836   4.757
 6081SOL    HW219143   6.057   3.847   4.596
 6082SOL     OW19144   3.704   1.626   3.703
 6082SOL    HW119145   3.800   1.657   3.707
 6082SOL    HW219146   3.681   1.605   3.608
 6083SOL     OW19147   0.704   6.027   6.318
 6083SOL    HW119148   0.680   6.097   6.250
 6083SOL    HW219149   0.686   6.062   6.410
 6084SOL     OW19150   0.242   5.590   4.060
 6084SOL    HW119151   0.298   5.648   4.119
 6084SOL    HW219152   0.147   5.593   4.090
 6085SOL     OW19153   0.008   4.310   0.288
 6085SOL    HW119154   6.944   4.340   0.245
 6085SOL    HW219155   0.022   4.213   0.269
 6086SOL     OW19156   2.948   1.362   5.580
 6086SOL    HW119157   2.917   1.326   5.492
 6086SOL    HW219158   3.046   1.382   5.575
 6087SOL     OW19159   5.265   6.369   6.654
 6087SOL    HW119160   5.260   6.447   6.716
 6087SOL    HW219161   5.220   6.391   6.568
 6088SOL     OW19162   6.367   5.864   4.700
 6088SOL    HW119163   6.443   5.828   4.754
 6088SOL    HW219164   6.386   5.959   4.674
 6089SOL     OW19165   0.545   3.593   1.484
 6089SOL    HW119166   0.552   3.501   1.446
 6089SOL    HW219167   0.620   3.649   1.450
 6090SOL     OW19168   1.511   6.354   5.981
 6090SOL    HW119169   1.594   6.351   5.925
 6090SOL    HW219170   1.430   6.352   5.922
 6091SOL     OW19171   1.317   1.734   2.500
 6091SOL    HW119172   1.390   1.799   2.520
 6091SOL    HW219173   1.239   1.783   2.461
 6092SOL     OW19174   2.934   0.178   2.874
 6092SOL    HW119175   3.001   0.188   2.948
 6092SOL    HW219176   2.863   0.113   2.903
 6093SOL     OW19177   1.550   2.534   2.513
 6093SOL    HW119178   1.514   2.466   2.577
 6093SOL    HW219179   1.561   2.621   2.560
 6094SOL     OW19180   3.510   1.089   1.240
 6094SOL    HW119181   3.586   1.153   1.233
 6094SOL    HW219182   3.505   1.033   1.157
 6095SOL     OW19183   4.857   2.487   6.820
 6095SOL    HW119184   4.899   2.577   6.833
 6095SOL    HW219185   4.759   2.498   6.802
 6096SOL     OW19186   6.005   0.232   4.301
 6096SOL    HW119187   6.059   0.229   4.385
 6096SOL    HW219188   5.970   0.325   4.287
 6097SOL     OW19189   1.355   0.487   2.171
 6097SOL    HW119190   1.447   0.490   2.210
 6097SOL    HW219191   1.323   0.392   2.170
 6098SOL     OW19192   1.407   2.209   5.833
 6098SOL    HW119193   1.368   2.237   5.745
 6098SOL    HW219194   1.356   2.131   5.868
 6099SOL     OW19195   6.273   5.804   6.908
 6099SOL    HW119196   6.358   5.763   6.875
 6099SOL    HW219197   6.216   5.831   6.830
 6100SOL     OW19198   5.795   2.762   6.841
 6100SOL    HW119199   5.843   2.676   6.822
 6100SOL    HW219200   5.710   2.742   6.891
 6101SOL     OW19201   6.458   1.606   5.528
 6101SOL    HW119202   6.389   1.671   5.498
 6101SOL    HW219203   6.417   1.541   5.593
 6102SOL     OW19204   4.326   0.784   3.865
 6102SOL    HW119205   4.259   0.856   3.885
 6102SOL    HW219206   4.279   0.706   3.824
 6103SOL     OW19207   0.172   1.142   3.401
 6103SOL    HW119208   0.190   1.136   3.303
 6103SOL    HW219209   0.092   1.199   3.417
 6104SOL     OW19210   6.677   2.294   6.292
 6104SOL    HW119211   6.681   2.334   6.200
 6104SOL    HW219212   6.582   2.277   6.316
 6105SOL     OW19213   2.994   7.015   5.996
 6105SOL    HW119214   2.916   6.992   5.937
 6105SOL    HW219215   3.014   0.091   5.988
 6106SOL     OW19216   1.479   4.689   5.738
 6106SOL    HW119217   1.462   4.604   5.787
 6106SOL    HW219218   1.425   4.763   5.778
 6107SOL     OW19219   2.546   5.293   4.633
 6107SOL    HW119220   2.496   5.233   4.695
 6107SOL    HW219221   2.493   5.376   4.617
 6108SOL     OW19222   0.640   2.521   3.199
 6108SOL    HW119223   0.642   2.441   3.138
 6108SOL    HW219224   0.726   2.571   3.190
 6109SOL     OW19225   5.394   2.845   6.489
 6109SOL    HW119226   5.479   2.882   6.451
 6109SOL    HW219227   5.408   2.750   6.517
 6110SOL     OW19228   3.545   3.142   6.995
 6110SOL    HW119229   3.456   3.161   6.954
 6110SOL    HW219230   3.596   3.228   7.006
 6111SOL     OW19231   2.108   4.883   2.586
 6111SOL    HW119232   2.023   4.829   2.586
 6111SOL    HW219233   2.115   4.934   2.501
 6112SOL     OW19234   3.257   1.029   3.264
 6112SOL    HW119235   3.337   1.089   3.274
 6112SOL    HW219236   3.277   0.959   3.196
 6113SOL     OW19237   0.261   0.717   5.922
 6113SOL    HW119238   0.218   0.628   5.938
 6113SOL    HW219239   0.301   0.719   5.830
 6114SOL     OW19240   5.111   4.322   1.132
 6114SOL    HW119241   5.038   4.253   1.127
 6114SOL    HW219242   5.182   4.301   1.065
 6115SOL     OW19243   5.464   6.036   2.647
 6115SOL    HW119244   5.427   5.976   2.577
 6115SOL    HW219245   5.532   6.098   2.607
 6116SOL     OW19246   2.757   1.377   1.480
 6116SOL    HW119247   2.804   1.363   1.393
 6116SOL    HW219248   2.797   1.455   1.527
 6117SOL     OW19249   0.220   0.570   5.421
 6117SOL    HW119250   0.228   0.593   5.324
 6117SOL    HW219251   0.228   0.471   5.433
 6118SOL     OW19252   6.793   1.332   1.752
 6118SOL    HW119253   6.720   1.299   1.691
 6118SOL    HW219254   6.775   1.300   1.845
 6119SOL     OW19255   0.310   3.820   4.114
 6119SOL    HW119256   0.217   3.783   4.109
 6119SOL    HW219257   0.366   3.762   4.173
 6120SOL     OW19258   3.340   6.952   3.152
 6120SOL    HW119259   3.331   6.995   3.242
 6120SOL    HW219260   3.373   6.858   3.163
 6121SOL     OW19261   0.016   2.637   4.368
 6121SOL    HW119262   6.964   2.583   4.409
 6121SOL    HW219263   0.052   2.589   4.288
 6122SOL     OW19264   3.252   6.478   1.710
 6122SOL    HW119265   3.188   6.555   1.707
 6122SOL    HW219266   3.203   6.394   1.731
 6123SOL     OW19267   6.494   0.403   0.259
 6123SOL    HW119268   6.568   0.451   0.306
 6123SOL    HW219269   6.533   0.331   0.202
 6124SOL     OW19270   3.607   0.415   5.416
 6124SOL    HW119271   3.582   0.389   5.510
 6124SOL    HW219272   3.524   0.435   5.364
 6125SOL     OW19273   2.620   5.780   0.864
 6125SOL    HW119274   2.522   5.759   0.860
 6125SOL    HW219275   2.646   5.834   0.784
 6126SOL     OW19276   5.958   6.215   4.228
 6126SOL    HW119277   6.034   6.254   4.280
 6126SOL    HW219278   5.962   6.248   4.133
 6127SOL     OW19279   2.024   7.004   1.968
 6127SOL    HW119280   2.098   0.034   2.011
 6127SOL    HW219281   1.969   0.044   1.912
 6128SOL     OW19282   6.727   3.468   0.530
 6128SOL    HW119283   6.670   3.388   0.514
 6128SOL    HW219284   6.725   3.527   0.450
 6129SOL     OW19285   6.164   4.439   3.567
 6129SOL    HW119286   6.123   4.434   3.658
 6129SOL    HW219287   6.102   4.396   3.501
 6130SOL     OW19288   5.923   2.050   3.826
 6130SOL    HW119289   5.928   2.070   3.728
 6130SOL    HW219290   5.981   1.971   3.847
 6131SOL     OW19291   0.239   1.794   5.538
 6131SOL    HW119292   0.139   1.785   5.538
 6131SOL    HW219293   0.278   1.723   5.478
 6132SOL     OW19294   4.617   1.000   0.758
 6132SOL    HW119295   4.655   0.984   0.668
 6132SOL    HW219296   4.654   0.934   0.823
 6133SOL     OW19297   0.808   2.882   2.576
 6133SOL    HW119298   0.820   2.956   2.641
 6133SOL    HW219299   0.736   2.820   2.610
 6134SOL     OW19300   3.702   3.892   6.984
 6134SOL    HW119301   3.623   3.836   7.006
 6134SOL    HW219302   3.772   3.835   6.940
 6135SOL     OW19303   6.872   6.620   2.392
 6135SOL    HW119304   6.792   6.625   2.332
 6135SOL    HW219305   6.890   6.709   2.432
 6136SOL     OW19306   0.574   2.030   2.165
 6136SOL    HW119307   0.485   2.055   2.202
 6136SOL    HW219308   0.625   2.113   2.143
 6137SOL     OW19309   4.372   1.344   5.216
 6137SOL    HW119310   4.339   1.259   5.258
 6137SOL    HW219311   4.471   1.351   5.229
 6138SOL     OW19312   3.741   6.670   2.643
 6138SOL    HW119313   3.678   6.600   2.676
 6138SOL    HW219314   3.733   6.678   2.544
 6139SOL     OW19315   2.185   3.131   4.734
 6139SOL    HW119316   2.204   3.196   4.808
 6139SOL    HW219317   2.233   3.045   4.751
 6140SOL     OW19318   0.519   6.314   1.453
 6140SOL    HW119319   0.442   6.344   1.397
 6140SOL    HW219320   0.503   6.221   1.486
 6141SOL     OW19321   6.062   6.281   5.144
 6141SOL    HW119322   5.967   6.251   5.135
 6141SOL    HW219323   6.115   6.243   5.068
 6142SOL     OW19324   6.962   5.156   1.010
 6142SOL    HW119325   6.923   5.155   1.103
 6142SOL    HW219326   6.986   5.250   0.986
 6143SOL     OW19327   6.304   5.091   6.753
 6143SOL    HW119328   6.221   5.085   6.697
 6143SOL    HW219329   6.341   5.183   6.748
 6144SOL     OW19330   6.757   4.832   2.540
 6144SOL    HW119331   6.694   4.900   2.503
 6144SOL    HW219332   6.706   4.750   2.567
 6145SOL     OW19333   4.733   6.137   3.827
 6145SOL    HW119334   4.833   6.134   3.829
 6145SOL    HW219335   4.702   6.156   3.734
 6146SOL     OW19336   4.283   1.011   3.326
 6146SOL    HW119337   4.314   0.996   3.420
 6146SOL    HW219338   4.208   0.949   3.306
 6147SOL     OW19339   1.904   4.012   3.844
 6147SOL    HW119340   1.994   4.055   3.842
 6147SOL    HW219341   1.909   3.927   3.896
 6148SOL     OW19342   6.979   0.294   4.948
 6148SOL    HW119343   6.990   0.368   5.015
 6148SOL    HW219344   7.015   0.209   4.986
 6149SOL     OW19345   3.547   4.871   2.838
 6149SOL    HW119346   3.512   4.829   2.754
 6149SOL    HW219347   3.482   4.858   2.912
 6150SOL     OW19348   4.106   5.079   0.025
 6150SOL    HW119349   4.184   5.108   0.080
 6150SOL    HW219350   4.041   5.029   0.082
 6151SOL     OW19351   6.097   4.297   4.447
 6151SOL    HW119352   6.010   4.251   4.463
 6151SOL    HW219353   6.151   4.245   4.381
 6152SOL     OW19354   5.566   4.548   5.085
 6152SOL    HW119355   5.498   4.611   5.123
 6152SOL    HW219356   5.608   4.496   5.159
 6153SOL     OW19357   4.558   3.918   1.542
 6153SOL    HW119358   4.588   3.847   1.477
 6153SOL    HW219359   4.601   3.901   1.631
 6154SOL     OW19360   5.191   1.614   2.265
 6154SOL    HW119361   5.113   1.593   2.206
 6154SOL    HW219362   5.211   1.712   2.259
 6155SOL     OW19363   1.598   2.461   4.171
 6155SOL    HW119364   1.545   2.440   4.089
 6155SOL    HW219365   1.571   2.399   4.245
 6156SOL     OW19366   4.394   5.075   2.443
 6156SOL    HW119367   4.464   5.100   2.378
 6156SOL    HW219368   4.399   4.977   2.461
 6157SOL     OW19369   0.997   1.555   4.057
 6157SOL    HW119370   0.907   1.567   4.016
 6157SOL    HW219371   0.990   1.496   4.138
 6158SOL     OW19372   4.414   0.644   6.492
 6158SOL    HW119373   4.316   0.626   6.484
 6158SOL    HW219374   4.439   0.721   6.434
 6159SOL     OW19375   4.687   2.171   0.583
 6159SOL    HW119376   4.718   2.136   0.494
 6159SOL    HW219377   4.641   2.098   0.633
 6160SOL     OW19378   5.576   5.898   0.673
 6160SOL    HW119379   5.581   5.857   0.582
 6160SOL    HW219380   5.668   5.904   0.712
 6161SOL     OW19381   6.098   1.901   6.152
 6161SOL    HW119382   6.035   1.954   6.094
 6161SOL    HW219383   6.134   1.824   6.099
 6162SOL     OW19384   0.946   5.144   4.414
 6162SOL    HW119385   0.997   5.220   4.453
 6162SOL    HW219386   0.999   5.102   4.340
 6163SOL     OW19387   5.539   5.769   1.823
 6163SOL    HW119388   5.466   5.727   1.769
 6163SOL    HW219389   5.500   5.806   1.908
 6164SOL     OW19390   1.883   3.546   1.568
 6164SOL    HW119391   1.913   3.512   1.657
 6164SOL    HW219392   1.961   3.585   1.519
 6165SOL     OW19393   3.385   0.130   6.443
 6165SOL    HW119394   3.323   0.051   6.447
 6165SOL    HW219395   3.445   0.129   6.522
 6166SOL     OW19396   3.747   0.985   4.970
 6166SOL    HW119397   3.825   0.958   5.028
 6166SOL    HW219398   3.781   1.022   4.883
 6167SOL     OW19399   6.993   4.608   2.136
 6167SOL    HW119400   6.961   4.520   2.169
 6167SOL    HW219401   6.931   4.681   2.167
 6168SOL     OW19402   0.375   3.853   1.133
 6168SOL    HW119403   0.396   3.911   1.054
 6168SOL    HW219404   0.281   3.820   1.127
 6169SOL     OW19405   0.842   3.323   2.699
 6169SOL    HW119406   0.816   3.367   2.613
 6169SOL    HW219407   0.768   3.334   2.765
 6170SOL     OW19408   0.693   3.379   4.993
 6170SOL    HW119409   0.745   3.430   5.061
 6170SOL    HW219410   0.710   3.281   5.004
 6171SOL     OW19411   0.576   1.610   0.274
 6171SOL    HW119412   0.615   1.651   0.192
 6171SOL    HW219413   0.648   1.561   0.323
 6172SOL     OW19414   1.203   2.732   2.347
 6172SOL    HW119415   1.162   2.646   2.315
 6172SOL    HW219416   1.302   2.728   2.335
 6173SOL     OW19417   6.541   5.542   3.692
 6173SOL    HW119418   6.551   5.453   3.738
 6173SOL    HW219419   6.447   5.552   3.660
 6174SOL     OW19420   4.576   5.316   3.796
 6174SOL    HW119421   4.487   5.362   3.803
 6174SOL    HW219422   4.595   5.294   3.700
 6175SOL     OW19423   3.574   0.857   4.384
 6175SOL    HW119424   3.613   0.948   4.402
 6175SOL    HW219425   3.515   0.830   4.459
 6176SOL     OW19426   4.562   3.869   5.292
 6176SOL    HW119427   4.613   3.785   5.310
 6176SOL    HW219428   4.470   3.845   5.260
 6177SOL     OW19429   4.853   2.137   1.628
 6177SOL    HW119430   4.939   2.087   1.626
 6177SOL    HW219431   4.778   2.075   1.603
 6178SOL     OW19432   4.823   3.674   1.820
 6178SOL    HW119433   4.826   3.665   1.920
 6178SOL    HW219434   4.809   3.584   1.779
 6179SOL     OW19435   6.462   4.949   1.913
 6179SOL    HW119436   6.459   4.888   1.833
 6179SOL    HW219437   6.489   4.897   1.994
 6180SOL     OW19438   3.676   4.781   0.742
 6180SOL    HW119439   3.629   4.859   0.701
 6180SOL    HW219440   3.775   4.795   0.736
 6181SOL     OW19441   4.572   6.286   5.900
 6181SOL    HW119442   4.601   6.381   5.908
 6181SOL    HW219443   4.652   6.226   5.909
 6182SOL     OW19444   4.745   2.584   6.493
 6182SOL    HW119445   4.671   2.629   6.543
 6182SOL    HW219446   4.739   2.608   6.396
 6183SOL     OW19447   2.039   2.076   1.541
 6183SOL    HW119448   1.950   2.084   1.495
 6183SOL    HW219449   2.035   2.123   1.629
 6184SOL     OW19450   3.175   0.212   6.002
 6184SOL    HW119451   3.213   0.185   5.914
 6184SOL    HW219452   3.142   0.306   5.998
 6185SOL     OW19453   2.050   4.165   5.552
 6185SOL    HW119454   2.024   4.254   5.514
 6185SOL    HW219455   2.099   4.180   5.638
 6186SOL     OW19456   6.615   0.970   1.710
 6186SOL    HW119457   6.613   0.966   1.810
 6186SOL    HW219458   6.530   0.932   1.673
 6187SOL     OW19459   4.785   2.948   5.027
 6187SOL    HW119460   4.742   2.858   5.026
 6187SOL    HW219461   4.764   2.995   4.941
 6188SOL     OW19462   1.814   1.923   5.484
 6188SOL    HW119463   1.897   1.972   5.510
 6188SOL    HW219464   1.758   1.981   5.425
 6189SOL     OW19465   3.813   5.521   2.565
 6189SOL    HW119466   3.829   5.492   2.471
 6189SOL    HW219467   3.779   5.443   2.619
 6190SOL     OW19468   5.827   2.535   5.274
 6190SOL    HW119469   5.880   2.451   5.276
 6190SOL    HW219470   5.768   2.540   5.354
 6191SOL     OW19471   2.415   3.277   5.600
 6191SOL    HW119472   2.322   3.241   5.602
 6191SOL    HW219473   2.462   3.244   5.519
 6192SOL     OW19474   2.623   2.144   6.488
 6192SOL    HW119475   2.686   2.124   6.413
 6192SOL    HW219476   2.624   2.243   6.507
 6193SOL     OW19477   4.935   5.970   0.769
 6193SOL    HW119478   5.022   6.015   0.746
 6193SOL    HW219479   4.954   5.879   0.806
 6194SOL     OW19480   6.397   0.312   6.377
 6194SOL    HW119481   6.416   0.409   6.384
 6194SOL    HW219482   6.329   0.286   6.447
 6195SOL     OW19483   5.805   6.358   4.974
 6195SOL    HW119484   5.711   6.389   4.987
 6195SOL    HW219485   5.856   6.426   4.921
 6196SOL     OW19486   4.689   4.540   2.514
 6196SOL    HW119487   4.712   4.604   2.441
 6196SOL    HW219488   4.593   4.512   2.504
 6197SOL     OW19489   2.544   5.060   2.494
 6197SOL    HW119490   2.477   4.986   2.503
 6197SOL    HW219491   2.622   5.042   2.553
 6198SOL     OW19492   5.081   6.197   0.078
 6198SOL    HW119493   5.160   6.152   0.119
 6198SOL    HW219494   5.080   6.181   7.001
 6199SOL     OW19495   0.287   1.278   0.309
 6199SOL    HW119496   0.360   1.309   0.370
 6199SOL    HW219497   0.313   1.297   0.214
 6200SOL     OW19498   0.843   1.616   3.273
 6200SOL    HW119499   0.841   1.517   3.263
 6200SOL    HW219500   0.778   1.657   3.209
 6201SOL     OW19501   0.646   3.669   3.809
 6201SOL    HW119502   0.696   3.678   3.895
 6201SOL    HW219503   0.565   3.612   3.823
 6202SOL     OW19504   5.755   1.531   2.809
 6202SOL    HW119505   5.836   1.541   2.867
 6202SOL    HW219506   5.758   1.598   2.735
 6203SOL     OW19507   5.891   5.474   2.043
 6203SOL    HW119508   5.889   5.483   1.944
 6203SOL    HW219509   5.984   5.453   2.073
 6204SOL     OW19510   0.952   6.332   5.089
 6204SOL    HW119511   0.952   6.390   5.171
 6204SOL    HW219512   0.965   6.390   5.008
 6205SOL     OW19513   5.313   4.471   1.718
 6205SOL    HW119514   5.252   4.488   1.794
 6205SOL    HW219515   5.279   4.518   1.636
 6206SOL     OW19516   5.543   1.717   3.398
 6206SOL    HW119517   5.610   1.649   3.367
 6206SOL    HW219518   5.558   1.738   3.494
 6207SOL     OW19519   1.953   5.858   4.922
 6207SOL    HW119520   1.938   5.769   4.965
 6207SOL    HW219521   1.925   5.931   4.985
 6208SOL     OW19522   3.183   2.337   5.697
 6208SOL    HW119523   3.124   2.415   5.676
 6208SOL    HW219524   3.265   2.370   5.744
 6209SOL     OW19525   3.125   4.931   0.845
 6209SOL    HW119526   3.030   4.905   0.825
 6209SOL    HW219527   3.180   4.918   0.763
 6210SOL     OW19528   5.348   3.664   2.679
 6210SOL    HW119529   5.299   3.627   2.758
 6210SOL    HW219530   5.441   3.688   2.707
 6211SOL     OW19531   4.466   6.062   6.086
 6211SOL    HW119532   4.451   6.029   5.993
 6211SOL    HW219533   4.475   6.162   6.084
 6212SOL     OW19534   2.452   4.863   4.498
 6212SOL    HW119535   2.463   4.869   4.399
 6212SOL    HW219536   2.392   4.786   4.521
 6213SOL     OW19537   4.715   6.635   0.367
 6213SOL    HW119538   4.643   6.695   0.333
 6213SOL    HW219539   4.803   6.683   0.366
 6214SOL     OW19540   5.485   5.735   5.924
 6214SOL    HW119541   5.477   5.778   5.834
 6214SOL    HW219542   5.564   5.772   5.972
 6215SOL     OW19543   4.295   3.202   6.459
 6215SOL    HW119544   4.329   3.172   6.370
 6215SOL    HW219545   4.362   3.261   6.503
 6216SOL     OW19546   5.918   2.624   3.431
 6216SOL    HW119547   5.966   2.710   3.416
 6216SOL    HW219548   5.823   2.633   3.401
 6217SOL     OW19549   1.028   4.887   2.418
 6217SOL    HW119550   1.031   4.869   2.319
 6217SOL    HW219551   0.938   4.923   2.442
 6218SOL     OW19552   4.036   6.511   0.466
 6218SOL    HW119553   4.114   6.540   0.521
 6218SOL    HW219554   3.963   6.579   0.473
 6219SOL     OW19555   1.936   0.561   5.488
 6219SOL    HW119556   1.928   0.617   5.570
 6219SOL    HW219557   1.990   0.610   5.419
 6220SOL     OW19558   3.287   1.298   6.905
 6220SOL    HW119559   3.281   1.205   6.868
 6220SOL    HW219560   3.199   1.343   6.893
 6221SOL     OW19561   6.083   6.785   6.911
 6221SOL    HW119562   6.005   6.732   6.944
 6221SOL    HW219563   6.115   6.846   6.984
 6222SOL     OW19564   5.822   0.492   2.261
 6222SOL    HW119565   5.734   0.507   2.307
 6222SOL    HW219566   5.888   0.457   2.327
 6223SOL     OW19567   0.822   5.288   3.737
 6223SOL    HW119568   0.796   5.209   3.682
 6223SOL    HW219569   0.914   5.275   3.773
 6224SOL     OW19570   4.337   1.186   5.775
 6224SOL    HW119571   4.401   1.139   5.714
 6224SOL    HW219572   4.276   1.244   5.722
 6225SOL     OW19573   4.135   1.740   6.406
 6225SOL    HW119574   4.199   1.798   6.457
 6225SOL    HW219575   4.061   1.796   6.370
 6226SOL     OW19576   1.226   1.626   3.896
 6226SOL    HW119577   1.159   1.606   3.968
 6226SOL    HW219578   1.211   1.719   3.862
 6227SOL     OW19579   3.012   4.683   5.323
 6227SOL    HW119580   2.950   4.632   5.263
 6227SOL    HW219581   3.073   4.619   5.370
 6228SOL     OW19582   0.664   2.387   4.314
 6228SOL    HW119583   0.670   2.455   4.386
 6228SOL    HW219584   0.696   2.299   4.349
 6229SOL     OW19585   0.090   2.677   5.109
 6229SOL    HW119586   0.178   2.637   5.082
 6229SOL    HW219587   0.079   2.669   5.208
 6230SOL     OW19588   1.020   2.205   3.234
 6230SOL    HW119589   0.951   2.157   3.289
 6230SOL    HW219590   1.074   2.139   3.182
 6231SOL     OW19591   5.330   5.055   0.486
 6231SOL    HW119592   5.365   5.007   0.405
 6231SOL    HW219593   5.311   5.150   0.461
 6232SOL     OW19594   5.937   1.021   0.684
 6232SOL    HW119595   5.853   1.066   0.716
 6232SOL    HW219596   5.915   0.959   0.609
 6233SOL     OW19597   0.429   3.487   1.967
 6233SOL    HW119598   0.357   3.507   1.900
 6233SOL    HW219599   0.483   3.409   1.935
 6234SOL     OW19600   0.447   0.113   5.322
 6234SOL    HW119601   0.484   0.158   5.404
 6234SOL    HW219602   0.467   0.168   5.242
 6235SOL     OW19603   6.934   0.792   1.846
 6235SOL    HW119604   6.887   0.783   1.758
 6235SOL    HW219605   6.985   0.877   1.848
 6236SOL     OW19606   6.768   4.281   0.671
 6236SOL    HW119607   6.687   4.237   0.631
 6236SOL    HW219608   6.746   4.312   0.763
 6237SOL     OW19609   3.861   6.772   0.455
 6237SOL    HW119610   3.800   6.799   0.380
 6237SOL    HW219611   3.955   6.794   0.430
 6238SOL     OW19612   3.431   6.688   3.248
 6238SOL    HW119613   3.515   6.673   3.196
 6238SOL    HW219614   3.453   6.693   3.346
 6239SOL     OW19615   3.546   6.944   1.628
 6239SOL    HW119616   3.588   0.002   1.673
 6239SOL    HW219617   3.457   6.926   1.669
 6240SOL     OW19618   3.233   4.108   4.771
 6240SOL    HW119619   3.172   4.156   4.708
 6240SOL    HW219620   3.213   4.010   4.768
 6241SOL     OW19621   3.849   0.232   3.703
 6241SOL    HW119622   3.787   0.310   3.706
 6241SOL    HW219623   3.824   0.173   3.627
 6242SOL     OW19624   2.257   1.614   3.465
 6242SOL    HW119625   2.269   1.713   3.470
 6242SOL    HW219626   2.261   1.575   3.557
 6243SOL     OW19627   6.623   0.939   5.610
 6243SOL    HW119628   6.606   0.902   5.519
 6243SOL    HW219629   6.579   0.880   5.678
 6244SOL     OW19630   5.180   3.887   2.710
 6244SOL    HW119631   5.240   3.810   2.692
 6244SOL    HW219632   5.088   3.868   2.676
 6245SOL     OW19633   0.793   5.082   2.028
 6245SOL    HW119634   0.804   4.985   2.006
 6245SOL    HW219635   0.746   5.091   2.116
 6246SOL     OW19636   0.912   6.940   4.327
 6246SOL    HW119637   0.953   6.849   4.317
 6246SOL    HW219638   0.951   7.002   4.259
 6247SOL     OW19639   1.399   5.627   3.174
 6247SOL    HW119640   1.402   5.666   3.266
 6247SOL    HW219641   1.471   5.558   3.165
 6248SOL     OW19642   3.651   3.467   6.982
 6248SOL    HW119643   3.625   3.478   0.056
 6248SOL    HW219644   3.750   3.479   6.972
 6249SOL     OW19645   0.107   2.653   1.591
 6249SOL    HW119646   0.143   2.745   1.579
 6249SOL    HW219647   0.008   2.655   1.582
 6250SOL     OW19648   0.201   6.730   0.758
 6250SOL    HW119649   0.142   6.775   0.692
 6250SOL    HW219650   0.237   6.645   0.719
 6251SOL     OW19651   3.877   5.775   4.450
 6251SOL    HW119652   3.800   5.747   4.393
 6251SOL    HW219653   3.843   5.812   4.537
 6252SOL     OW19654   2.688   5.081   0.155
 6252SOL    HW119655   2.605   5.126   0.185
 6252SOL    HW219656   2.767   5.122   0.201
 6253SOL     OW19657   2.544   4.893   4.757
 6253SOL    HW119658   2.549   4.802   4.799
 6253SOL    HW219659   2.509   4.885   4.664
 6254SOL     OW19660   1.115   5.991   1.332
 6254SOL    HW119661   1.121   5.902   1.287
 6254SOL    HW219662   1.169   6.058   1.281
 6255SOL     OW19663   1.579   2.878   0.731
 6255SOL    HW119664   1.616   2.953   0.677
 6255SOL    HW219665   1.566   2.908   0.826
 6256SOL     OW19666   4.795   5.327   2.472
 6256SOL    HW119667   4.757   5.292   2.557
 6256SOL    HW219668   4.895   5.330   2.480
 6257SOL     OW19669   4.104   3.354   0.404
 6257SOL    HW119670   4.056   3.274   0.368
 6257SOL    HW219671   4.042   3.406   0.464
 6258SOL     OW19672   3.550   6.925   5.221
 6258SOL    HW119673   3.475   6.979   5.259
 6258SOL    HW219674   3.615   6.986   5.176
 6259SOL     OW19675   1.663   1.674   5.571
 6259SOL    HW119676   1.705   1.752   5.525
 6259SOL    HW219677   1.567   1.693   5.590
 6260SOL     OW19678   1.819   0.653   0.705
 6260SOL    HW119679   1.800   0.671   0.801
 6260SOL    HW219680   1.777   0.566   0.678
 6261SOL     OW19681   5.185   0.182   1.193
 6261SOL    HW119682   5.233   0.181   1.105
 6261SOL    HW219683   5.235   0.239   1.258
 6262SOL     OW19684   0.244   6.480   3.205
 6262SOL    HW119685   0.310   6.523   3.267
 6262SOL    HW219686   0.244   6.529   3.118
 6263SOL     OW19687   0.101   6.684   4.628
 6263SOL    HW119688   0.163   6.702   4.704
 6263SOL    HW219689   0.011   6.659   4.665
 6264SOL     OW19690   0.872   6.958   1.280
 6264SOL    HW119691   0.897   7.020   1.354
 6264SOL    HW219692   0.773   6.944   1.280
 6265SOL     OW19693   3.897   2.640   0.615
 6265SOL    HW119694   3.932   2.553   0.649
 6265SOL    HW219695   3.827   2.675   0.678
 6266SOL     OW19696   3.688   6.619   3.190
 6266SOL    HW119697   3.722   6.634   3.097
 6266SOL    HW219698   3.705   6.525   3.217
 6267SOL     OW19699   1.024   6.579   4.835
 6267SOL    HW119700   0.929   6.602   4.817
 6267SOL    HW219701   1.060   6.640   4.906
 6268SOL     OW19702   3.600   0.028   2.099
 6268SOL    HW119703   3.587   6.951   2.100
 6268SOL    HW219704   3.625   0.059   2.191
 6269SOL     OW19705   5.660   6.117   1.397
 6269SOL    HW119706   5.585   6.112   1.331
 6269SOL    HW219707   5.705   6.206   1.389
 6270SOL     OW19708   0.555   6.572   0.084
 6270SOL    HW119709   0.563   6.491   0.026
 6270SOL    HW219710   0.562   6.544   0.180
 6271SOL     OW19711   5.747   2.467   6.403
 6271SOL    HW119712   5.838   2.476   6.362
 6271SOL    HW219713   5.688   2.414   6.342
 6272SOL     OW19714   0.085   0.283   6.471
 6272SOL    HW119715   0.082   0.349   6.546
 6272SOL    HW219716   0.172   0.291   6.422
 6273SOL     OW19717   0.655   6.162   3.032
 6273SOL    HW119718   0.751   6.161   3.058
 6273SOL    HW219719   0.603   6.221   3.095
 6274SOL     OW19720   2.807   6.420   4.671
 6274SOL    HW119721   2.848   6.480   4.602
 6274SOL    HW219722   2.714   6.450   4.690
 6275SOL     OW19723   2.628   6.039   0.410
 6275SOL    HW119724   2.584   6.126   0.387
 6275SOL    HW219725   2.656   5.993   0.326
 6276SOL     OW19726   3.643   5.910   3.681
 6276SOL    HW119727   3.733   5.873   3.706
 6276SOL    HW219728   3.624   5.888   3.585
 6277SOL     OW19729   5.108   1.955   1.589
 6277SOL    HW119730   5.089   1.866   1.549
 6277SOL    HW219731   5.116   1.946   1.688
 6278SOL     OW19732   3.506   0.337   5.654
 6278SOL    HW119733   3.408   0.319   5.658
 6278SOL    HW219734   3.556   0.254   5.680
 6279SOL     OW19735   3.560   5.573   0.408
 6279SOL    HW119736   3.516   5.554   0.320
 6279SOL    HW219737   3.616   5.655   0.400
 6280SOL     OW19738   0.100   1.405   6.653
 6280SOL    HW119739   0.134   1.327   6.601
 6280SOL    HW219740   0.016   1.380   6.701
 6281SOL     OW19741   5.598   4.546   4.031
 6281SOL    HW119742   5.644   4.462   4.002
 6281SOL    HW219743   5.666   4.613   4.059
 6282SOL     OW19744   5.866   3.369   4.906
 6282SOL    HW119745   5.808   3.389   4.828
 6282SOL    HW219746   5.960   3.352   4.875
 6283SOL     OW19747   0.829   5.388   4.942
 6283SOL    HW119748   0.829   5.440   4.856
 6283SOL    HW219749   0.738   5.349   4.957
 6284SOL     OW19750   0.873   5.016   6.549
 6284SOL    HW119751   0.842   4.932   6.505
 6284SOL    HW219752   0.965   5.003   6.584
 6285SOL     OW19753   1.924   3.537   3.901
 6285SOL    HW119754   2.012   3.492   3.885
 6285SOL    HW219755   1.851   3.470   3.896
 6286SOL     OW19756   6.932   3.662   4.946
 6286SOL    HW119757   6.916   3.738   5.009
 6286SOL    HW219758   6.844   3.625   4.915
 6287SOL     OW19759   4.222   4.587   5.757
 6287SOL    HW119760   4.254   4.505   5.710
 6287SOL    HW219761   4.140   4.621   5.711
 6288SOL     OW19762   4.204   3.736   0.599
 6288SOL    HW119763   4.142   3.809   0.629
 6288SOL    HW219764   4.158   3.648   0.607
 6289SOL     OW19765   2.282   3.993   6.891
 6289SOL    HW119766   2.369   3.945   6.889
 6289SOL    HW219767   2.264   4.032   6.801
 6290SOL     OW19768   6.510   5.206   6.569
 6290SOL    HW119769   6.519   5.189   6.470
 6290SOL    HW219770   6.580   5.155   6.618
 6291SOL     OW19771   3.808   2.954   3.117
 6291SOL    HW119772   3.902   2.979   3.097
 6291SOL    HW219773   3.783   2.986   3.208
 6292SOL     OW19774   1.809   2.583   4.828
 6292SOL    HW119775   1.896   2.631   4.841
 6292SOL    HW219776   1.773   2.601   4.736
 6293SOL     OW19777   4.847   1.943   0.493
 6293SOL    HW119778   4.919   1.980   0.553
 6293SOL    HW219779   4.830   1.848   0.517
 6294SOL     OW19780   3.611   0.348   3.244
 6294SOL    HW119781   3.699   0.303   3.230
 6294SOL    HW219782   3.625   0.445   3.262
 6295SOL     OW19783   5.345   4.953   4.530
 6295SOL    HW119784   5.383   4.875   4.579
 6295SOL    HW219785   5.393   5.037   4.557
 6296SOL     OW19786   0.550   3.973   5.932
 6296SOL    HW119787   0.615   3.965   6.008
 6296SOL    HW219788   0.581   3.916   5.856
 6297SOL     OW19789   6.068   0.019   5.274
 6297SOL    HW119790   6.004   0.035   5.199
 6297SOL    HW219791   6.084   0.105   5.323
 6298SOL     OW19792   6.337   4.631   6.699
 6298SOL    HW119793   6.313   4.547   6.651
 6298SOL    HW219794   6.433   4.652   6.683
 6299SOL     OW19795   5.389   2.544   2.573
 6299SOL    HW119796   5.342   2.456   2.560
 6299SOL    HW219797   5.484   2.527   2.598
 6300SOL     OW19798   4.291   1.249   6.325
 6300SOL    HW119799   4.274   1.348   6.324
 6300SOL    HW219800   4.205   1.200   6.313
 6301SOL     OW19801   3.247   6.922   6.422
 6301SOL    HW119802   3.269   6.909   6.325
 6301SOL    HW219803   3.151   6.896   6.438
 6302SOL     OW19804   2.390   1.830   4.989
 6302SOL    HW119805   2.461   1.778   5.037
 6302SOL    HW219806   2.332   1.876   5.056
 6303SOL     OW19807   1.309   6.724   5.649
 6303SOL    HW119808   1.304   6.812   5.601
 6303SOL    HW219809   1.322   6.739   5.747
 6304SOL     OW19810   4.137   1.855   3.540
 6304SOL    HW119811   4.154   1.806   3.455
 6304SOL    HW219812   4.053   1.820   3.582
 6305SOL     OW19813   6.092   5.911   6.716
 6305SOL    HW119814   6.110   6.001   6.676
 6305SOL    HW219815   6.072   5.845   6.643
 6306SOL     OW19816   0.291   3.400   3.620
 6306SOL    HW119817   0.282   3.489   3.575
 6306SOL    HW219818   0.334   3.335   3.558
 6307SOL     OW19819   3.638   3.445   4.049
 6307SOL    HW119820   3.668   3.416   3.958
 6307SOL    HW219821   3.604   3.538   4.044
 6308SOL     OW19822   0.521   1.952   5.856
 6308SOL    HW119823   0.435   1.922   5.814
 6308SOL    HW219824   0.503   2.029   5.916
 6309SOL     OW19825   0.646   6.795   4.081
 6309SOL    HW119826   0.686   6.707   4.106
 6309SOL    HW219827   0.718   6.859   4.054
 6310SOL     OW19828   1.723   6.967   3.217
 6310SOL    HW119829   1.735   6.938   3.122
 6310SOL    HW219830   1.746   0.042   3.225
 6311SOL     OW19831   5.234   1.061   6.759
 6311SOL    HW119832   5.188   1.117   6.690
 6311SOL    HW219833   5.177   0.982   6.782
 6312SOL     OW19834   2.496   6.890   6.469
 6312SOL    HW119835   2.581   6.838   6.473
 6312SOL    HW219836   2.482   6.924   6.376
 6313SOL     OW19837   5.706   6.929   3.661
 6313SOL    HW119838   5.744   6.850   3.709
 6313SOL    HW219839   5.606   6.927   3.666
 6314SOL     OW19840   3.478   6.908   1.199
 6314SOL    HW119841   3.475   6.840   1.273
 6314SOL    HW219842   3.571   6.912   1.162
 6315SOL     OW19843   2.070   2.683   4.828
 6315SOL    HW119844   2.121   2.661   4.911
 6315SOL    HW219845   2.108   2.766   4.787
 6316SOL     OW19846   4.969   2.232   5.856
 6316SOL    HW119847   5.046   2.191   5.807
 6316SOL    HW219848   4.883   2.201   5.816
 6317SOL     OW19849   5.411   4.111   2.887
 6317SOL    HW119850   5.474   4.084   2.813
 6317SOL    HW219851   5.353   4.186   2.855
 6318SOL     OW19852   6.093   0.579   6.867
 6318SOL    HW119853   6.032   0.611   6.794
 6318SOL    HW219854   6.060   0.613   6.955
 6319SOL     OW19855   4.964   2.257   5.174
 6319SOL    HW119856   5.019   2.272   5.091
 6319SOL    HW219857   4.944   2.345   5.217
 6320SOL     OW19858   0.089   0.309   3.825
 6320SOL    HW119859   0.051   0.219   3.804
 6320SOL    HW219860   0.112   0.357   3.740
 6321SOL     OW19861   5.469   3.726   0.723
 6321SOL    HW119862   5.482   3.742   0.625
 6321SOL    HW219863   5.448   3.813   0.768
 6322SOL     OW19864   2.612   1.742   0.856
 6322SOL    HW119865   2.649   1.823   0.903
 6322SOL    HW219866   2.687   1.678   0.838
 6323SOL     OW19867   2.138   3.260   1.296
 6323SOL    HW119868   2.105   3.241   1.203
 6323SOL    HW219869   2.185   3.348   1.298
 6324SOL     OW19870   4.480   1.666   0.668
 6324SOL    HW119871   4.533   1.581   0.669
 6324SOL    HW219872   4.456   1.691   0.762
 6325SOL     OW19873   1.620   2.735   2.681
 6325SOL    HW119874   1.575   2.736   2.770
 6325SOL    HW219875   1.650   2.828   2.658
 6326SOL     OW19876   4.808   5.303   5.628
 6326SOL    HW119877   4.895   5.349   5.611
 6326SOL    HW219878   4.825   5.208   5.656
 6327SOL     OW19879   0.463   1.966   3.340
 6327SOL    HW119880   0.390   1.908   3.375
 6327SOL    HW219881   0.429   2.019   3.262
 6328SOL     OW19882   5.121   4.097   6.996
 6328SOL    HW119883   5.099   4.020   0.034
 6328SOL    HW219884   5.113   4.069   6.900
 6329SOL     OW19885   1.338   2.788   4.721
 6329SOL    HW119886   1.249   2.765   4.759
 6329SOL    HW219887   1.404   2.716   4.742
 6330SOL     OW19888   5.508   0.690   3.198
 6330SOL    HW119889   5.504   0.627   3.120
 6330SOL    HW219890   5.421   0.738   3.206
 6331SOL     OW19891   6.539   2.990   4.712
 6331SOL    HW119892   6.529   2.917   4.780
 6331SOL    HW219893   6.461   2.987   4.649
 6332SOL     OW19894   1.530   2.099   1.668
 6332SOL    HW119895   1.613   2.120   1.617
 6332SOL    HW219896   1.454   2.085   1.604
 6333SOL     OW19897   4.505   0.191   0.150
 6333SOL    HW119898   4.570   0.124   0.184
 6333SOL    HW219899   4.529   0.216   0.056
 6334SOL     OW19900   2.256   1.648   1.984
 6334SOL    HW119901   2.169   1.698   1.985
 6334SOL    HW219902   2.311   1.678   1.907
 6335SOL     OW19903   4.860   1.374   0.829
 6335SOL    HW119904   4.819   1.291   0.864
 6335SOL    HW219905   4.914   1.418   0.901
 6336SOL     OW19906   6.992   4.685   6.354
 6336SOL    HW119907   7.020   4.635   6.436
 6336SOL    HW219908   6.899   4.658   6.329
 6337SOL     OW19909   4.238   5.444   5.071
 6337SOL    HW119910   4.250   5.518   5.004
 6337SOL    HW219911   4.287   5.468   5.155
 6338SOL     OW19912   2.967   1.750   4.449
 6338SOL    HW119913   3.015   1.723   4.533
 6338SOL    HW219914   3.032   1.788   4.384
 6339SOL     OW19915   1.118   3.468   2.832
 6339SOL    HW119916   1.181   3.481   2.909
 6339SOL    HW219917   1.123   3.374   2.800
 6340SOL     OW19918   2.455   3.674   1.534
 6340SOL    HW119919   2.374   3.668   1.591
 6340SOL    HW219920   2.432   3.720   1.448
 6341SOL     OW19921   0.714   3.329   3.341
 6341SOL    HW119922   0.809   3.330   3.313
 6341SOL    HW219923   0.700   3.254   3.406
 6342SOL     OW19924   3.168   1.324   1.493
 6342SOL    HW119925   3.223   1.383   1.552
 6342SOL    HW219926   3.226   1.249   1.459
 6343SOL     OW19927   3.653   6.647   6.800
 6343SOL    HW119928   3.587   6.705   6.752
 6343SOL    HW219929   3.614   6.618   6.887
 6344SOL     OW19930   6.196   2.585   3.731
 6344SOL    HW119931   6.168   2.674   3.768
 6344SOL    HW219932   6.115   2.536   3.699
 6345SOL     OW19933   4.739   3.161   1.335
 6345SOL    HW119934   4.795   3.122   1.261
 6345SOL    HW219935   4.712   3.088   1.398
 6346SOL     OW19936   7.002   4.133   5.186
 6346SOL    HW119937   0.016   4.188   5.111
 6346SOL    HW219938   6.998   4.037   5.159
 6347SOL     OW19939   2.574   2.053   2.242
 6347SOL    HW119940   2.515   2.104   2.305
 6347SOL    HW219941   2.532   2.052   2.151
 6348SOL     OW19942   0.846   1.751   5.963
 6348SOL    HW119943   0.922   1.746   5.898
 6348SOL    HW219944   0.881   1.781   6.052
 6349SOL     OW19945   1.387   0.336   0.153
 6349SOL    HW119946   1.345   0.332   0.062
 6349SOL    HW219947   1.404   0.243   0.186
 6350SOL     OW19948   0.927   5.436   2.623
 6350SOL    HW119949   0.879   5.401   2.703
 6350SOL    HW219950   1.025   5.422   2.634
 6351SOL     OW19951   6.322   4.750   3.622
 6351SOL    HW119952   6.250   4.682   3.634
 6351SOL    HW219953   6.362   4.771   3.712
 6352SOL     OW19954   2.909   0.877   3.855
 6352SOL    HW119955   2.815   0.895   3.883
 6352SOL    HW219956   2.922   0.909   3.761
 6353SOL     OW19957   2.260   4.958   0.116
 6353SOL    HW119958   2.243   4.861   0.132
 6353SOL    HW219959   2.178   5.000   0.078
 6354SOL     OW19960   4.651   5.251   2.681
 6354SOL    HW119961   4.652   5.245   2.781
 6354SOL    HW219962   4.561   5.282   2.650
 6355SOL     OW19963   3.244   5.586   0.612
 6355SOL    HW119964   3.330   5.637   0.626
 6355SOL    HW219965   3.236   5.516   0.682
 6356SOL     OW19966   5.191   4.794   0.323
 6356SOL    HW119967   5.133   4.791   0.242
 6356SOL    HW219968   5.277   4.839   0.301
 6357SOL     OW19969   5.720   2.763   1.441
 6357SOL    HW119970   5.786   2.748   1.367
 6357SOL    HW219971   5.742   2.703   1.518
 6358SOL     OW19972   1.182   2.030   6.989
 6358SOL    HW119973   1.109   1.962   6.992
 6358SOL    HW219974   1.265   1.991   0.005
 6359SOL     OW19975   5.844   6.821   0.601
 6359SOL    HW119976   5.918   6.831   0.534
 6359SOL    HW219977   5.880   6.783   0.686
 6360SOL     OW19978   0.155   3.042   3.698
 6360SOL    HW119979   0.138   3.088   3.785
 6360SOL    HW219980   0.228   3.090   3.649
 6361SOL     OW19981   0.584   0.826   0.597
 6361SOL    HW119982   0.503   0.824   0.656
 6361SOL    HW219983   0.562   0.878   0.514
 6362SOL     OW19984   1.440   6.349   6.558
 6362SOL    HW119985   1.418   6.261   6.517
 6362SOL    HW219986   1.503   6.399   6.499
 6363SOL     OW19987   2.578   4.808   3.743
 6363SOL    HW119988   2.651   4.876   3.741
 6363SOL    HW219989   2.500   4.844   3.794
 6364SOL     OW19990   2.222   2.258   4.947
 6364SOL    HW119991   2.220   2.357   4.939
 6364SOL    HW219992   2.278   2.220   4.873
 6365SOL     OW19993   6.201   5.363   5.365
 6365SOL    HW119994   6.269   5.428   5.397
 6365SOL    HW219995   6.238   5.270   5.371
 6366SOL     OW19996   6.547   6.546   4.711
 6366SOL    HW119997   6.539   6.516   4.616
 6366SOL    HW219998   6.616   6.619   4.717
 6367SOL     OW19999   3.027   1.718   2.860
 6367SOL    HW120000   3.101   1.770   2.904
 6367SOL    HW220001   3.031   1.733   2.761
 6368SOL     OW20002   4.602   4.457   4.345
 6368SOL    HW120003   4.613   4.389   4.273
 6368SOL    HW220004   4.604   4.413   4.435
 6369SOL     OW20005   2.222   6.279   5.628
 6369SOL    HW120006   2.162   6.251   5.703
 6369SOL    HW220007   2.297   6.214   5.621
 6370SOL     OW20008   4.856   3.883   3.408
 6370SOL    HW120009   4.873   3.954   3.340
 6370SOL    HW220010   4.866   3.793   3.366
 6371SOL     OW20011   5.607   3.544   1.849
 6371SOL    HW120012   5.577   3.603   1.775
 6371SOL    HW220013   5.635   3.599   1.927
 6372SOL     OW20014   0.656   0.987   3.033
 6372SOL    HW120015   0.571   1.002   3.084
 6372SOL    HW220016   0.669   1.061   2.967
 6373SOL     OW20017   5.919   4.035   1.890
 6373SOL    HW120018   6.006   3.987   1.904
 6373SOL    HW220019   5.894   4.084   1.973
 6374SOL     OW20020   4.456   3.097   0.144
 6374SOL    HW120021   4.440   3.164   0.071
 6374SOL    HW220022   4.393   3.114   0.219
 6375SOL     OW20023   1.090   3.076   2.151
 6375SOL    HW120024   1.180   3.051   2.116
 6375SOL    HW220025   1.067   3.017   2.229
 6376SOL     OW20026   4.505   1.402   5.847
 6376SOL    HW120027   4.454   1.474   5.799
 6376SOL    HW220028   4.451   1.318   5.848
 6377SOL     OW20029   6.947   0.875   5.761
 6377SOL    HW120030   6.976   0.802   5.699
 6377SOL    HW220031   6.925   0.957   5.709
 6378SOL     OW20032   4.824   5.844   3.233
 6378SOL    HW120033   4.811   5.919   3.168
 6378SOL    HW220034   4.919   5.813   3.229
 6379SOL     OW20035   1.377   4.775   5.346
 6379SOL    HW120036   1.405   4.680   5.329
 6379SOL    HW220037   1.453   4.826   5.385
 6380SOL     OW20038   1.095   2.778   4.870
 6380SOL    HW120039   1.070   2.873   4.891
 6380SOL    HW220040   1.017   2.718   4.887
 6381SOL     OW20041   4.104   2.982   0.509
 6381SOL    HW120042   4.143   2.891   0.495
 6381SOL    HW220043   4.007   2.981   0.485
 6382SOL     OW20044   2.421   1.723   1.780
 6382SOL    HW120045   2.390   1.671   1.701
 6382SOL    HW220046   2.430   1.820   1.755
 6383SOL     OW20047   1.509   2.725   2.202
 6383SOL    HW120048   1.472   2.714   2.110
 6383SOL    HW220049   1.555   2.641   2.230
 6384SOL     OW20050   6.006   2.207   2.268
 6384SOL    HW120051   6.091   2.204   2.215
 6384SOL    HW220052   5.975   2.302   2.276
 6385SOL     OW20053   0.031   4.113   1.160
 6385SOL    HW120054   7.005   4.200   1.149
 6385SOL    HW220055   0.121   4.119   1.117
 6386SOL     OW20056   1.763   4.178   0.646
 6386SOL    HW120057   1.802   4.270   0.639
 6386SOL    HW220058   1.753   4.139   0.554
 6387SOL     OW20059   6.214   1.501   0.630
 6387SOL    HW120060   6.242   1.593   0.658
 6387SOL    HW220061   6.120   1.504   0.596
 6388SOL     OW20062   6.724   4.800   2.949
 6388SOL    HW120063   6.625   4.794   2.965
 6388SOL    HW220064   6.759   4.709   2.927
 6389SOL     OW20065   1.894   6.749   0.360
 6389SOL    HW120066   1.955   6.821   0.327
 6389SOL    HW220067   1.853   6.777   0.446
 6390SOL     OW20068   6.379   0.330   6.838
 6390SOL    HW120069   6.341   0.420   6.856
 6390SOL    HW220070   6.358   0.269   6.915
 6391SOL     OW20071   1.303   1.462   5.772
 6391SOL    HW120072   1.402   1.454   5.776
 6391SOL    HW220073   1.264   1.445   5.862
 6392SOL     OW20074   3.355   5.858   3.718
 6392SOL    HW120075   3.372   5.865   3.817
 6392SOL    HW220076   3.438   5.880   3.668
 6393SOL     OW20077   5.513   6.710   1.877
 6393SOL    HW120078   5.429   6.693   1.929
 6393SOL    HW220079   5.561   6.789   1.916
 6394SOL     OW20080   1.106   4.850   1.050
 6394SOL    HW120081   1.009   4.838   1.030
 6394SOL    HW220082   1.133   4.789   1.125
 6395SOL     OW20083   0.102   3.660   2.544
 6395SOL    HW120084   0.159   3.687   2.621
 6395SOL    HW220085   0.007   3.685   2.561
 6396SOL     OW20086   6.734   3.348   6.307
 6396SOL    HW120087   6.831   3.335   6.327
 6396SOL    HW220088   6.711   3.302   6.222
 6397SOL     OW20089   6.083   1.050   2.369
 6397SOL    HW120090   6.128   0.967   2.400
 6397SOL    HW220091   5.996   1.027   2.325
 6398SOL     OW20092   1.680   6.481   1.267
 6398SOL    HW120093   1.743   6.553   1.239
 6398SOL    HW220094   1.637   6.505   1.354
 6399SOL     OW20095   1.507   0.158   6.759
 6399SOL    HW120096   1.597   0.186   6.792
 6399SOL    HW220097   1.517   0.103   6.676
 6400SOL     OW20098   1.997   5.443   3.021
 6400SOL    HW120099   2.094   5.423   3.008
 6400SOL    HW220100   1.981   5.541   3.010
 6401SOL     OW20101   4.465   4.684   3.053
 6401SOL    HW120102   4.493   4.750   2.984
 6401SOL    HW220103   4.466   4.592   3.014
 6402SOL     OW20104   1.187   3.163   3.294
 6402SOL    HW120105   1.138   3.108   3.361
 6402SOL    HW220106   1.285   3.151   3.306
 6403SOL     OW20107   5.502   5.979   4.899
 6403SOL    HW120108   5.600   5.975   4.877
 6403SOL    HW220109   5.469   5.887   4.920
 6404SOL     OW20110   3.692   1.273   2.483
 6404SOL    HW120111   3.774   1.216   2.479
 6404SOL    HW220112   3.651   1.265   2.574
 6405SOL     OW20113   4.818   1.646   3.944
 6405SOL    HW120114   4.894   1.711   3.943
 6405SOL    HW220115   4.779   1.639   3.852
 6406SOL     OW20116   0.998   2.934   2.380
 6406SOL    HW120117   0.923   2.919   2.445
 6406SOL    HW220118   1.078   2.881   2.408
 6407SOL     OW20119   1.903   6.210   3.366
 6407SOL    HW120120   1.900   6.256   3.277
 6407SOL    HW220121   1.997   6.203   3.397
 6408SOL     OW20122   6.780   0.717   1.046
 6408SOL    HW120123   6.716   0.692   1.119
 6408SOL    HW220124   6.767   0.655   0.968
 6409SOL     OW20125   6.394   5.101   3.723
 6409SOL    HW120126   6.362   5.092   3.628
 6409SOL    HW220127   6.376   5.016   3.772
 6410SOL     OW20128   2.493   1.265   6.002
 6410SOL    HW120129   2.477   1.343   6.062
 6410SOL    HW220130   2.439   1.274   5.919
 6411SOL     OW20131   0.131   3.041   1.861
 6411SOL    HW120132   0.085   3.060   1.948
 6411SOL    HW220133   0.070   2.991   1.801
 6412SOL     OW20134   3.125   0.967   6.556
 6412SOL    HW120135   3.100   1.035   6.486
 6412SOL    HW220136   3.135   0.877   6.513
 6413SOL     OW20137   4.145   4.790   4.482
 6413SOL    HW120138   4.056   4.786   4.528
 6413SOL    HW220139   4.131   4.813   4.386
 6414SOL     OW20140   0.520   6.498   6.502
 6414SOL    HW120141   0.539   6.522   6.407
 6414SOL    HW220142   0.606   6.482   6.550
 6415SOL     OW20143   1.408   3.580   2.978
 6415SOL    HW120144   1.370   3.499   3.023
 6415SOL    HW220145   1.485   3.614   3.032
 6416SOL     OW20146   3.118   0.122   6.687
 6416SOL    HW120147   3.127   0.127   6.587
 6416SOL    HW220148   3.022   0.116   6.712
 6417SOL     OW20149   5.405   2.276   1.100
 6417SOL    HW120150   5.418   2.301   1.196
 6417SOL    HW220151   5.494   2.255   1.059
 6418SOL     OW20152   4.938   4.380   2.159
 6418SOL    HW120153   4.887   4.297   2.137
 6418SOL    HW220154   4.920   4.407   2.253
 6419SOL     OW20155   0.695   6.455   5.391
 6419SOL    HW120156   0.643   6.372   5.372
 6419SOL    HW220157   0.782   6.431   5.434
 6420SOL     OW20158   1.172   2.242   3.969
 6420SOL    HW120159   1.174   2.309   3.895
 6420SOL    HW220160   1.265   2.226   4.002
 6421SOL     OW20161   5.490   0.319   0.944
 6421SOL    HW120162   5.484   0.268   0.859
 6421SOL    HW220163   5.474   0.416   0.926
 6422SOL     OW20164   6.957   1.842   5.834
 6422SOL    HW120165   0.031   1.815   5.845
 6422SOL    HW220166   6.947   1.895   5.750
 6423SOL     OW20167   3.673   6.129   4.642
 6423SOL    HW120168   3.652   6.177   4.727
 6423SOL    HW220169   3.747   6.175   4.595
 6424SOL     OW20170   0.767   3.103   4.999
 6424SOL    HW120171   0.715   3.052   4.930
 6424SOL    HW220172   0.864   3.097   4.978
 6425SOL     OW20173   0.255   5.265   2.869
 6425SOL    HW120174   0.302   5.308   2.946
 6425SOL    HW220175   0.169   5.314   2.852
 6426SOL     OW20176   5.358   5.218   4.195
 6426SOL    HW120177   5.370   5.247   4.290
 6426SOL    HW220178   5.387   5.293   4.135
 6427SOL     OW20179   3.131   3.974   2.852
 6427SOL    HW120180   3.193   3.895   2.843
 6427SOL    HW220181   3.164   4.033   2.925
 6428SOL     OW20182   5.284   2.693   0.116
 6428SOL    HW120183   5.253   2.754   0.043
 6428SOL    HW220184   5.302   2.745   0.199
 6429SOL     OW20185   1.668   0.645   5.319
 6429SOL    HW120186   1.692   0.740   5.342
 6429SOL    HW220187   1.574   0.642   5.286
 6430SOL     OW20188   6.834   0.548   5.579
 6430SOL    HW120189   6.900   0.622   5.594
 6430SOL    HW220190   6.786   0.528   5.665
 6431SOL     OW20191   4.382   5.468   2.966
 6431SOL    HW120192   4.316   5.447   2.894
 6431SOL    HW220193   4.464   5.413   2.953
 6432SOL     OW20194   3.655   3.861   6.339
 6432SOL    HW120195   3.707   3.935   6.296
 6432SOL    HW220196   3.584   3.829   6.277
 6433SOL     OW20197   2.904   5.360   6.999
 6433SOL    HW120198   2.972   5.408   0.033
 6433SOL    HW220199   2.812   5.384   0.010
 6434SOL     OW20200   2.683   6.691   6.495
 6434SOL    HW120201   2.608   6.625   6.494
 6434SOL    HW220202   2.750   6.666   6.425
 6435SOL     OW20203   6.415   0.072   0.693
 6435SOL    HW120204   6.498   0.108   0.735
 6435SOL    HW220205   6.430   6.998   0.667
 6436SOL     OW20206   0.666   3.118   3.502
 6436SOL    HW120207   0.706   3.057   3.433
 6436SOL    HW220208   0.577   3.082   3.531
 6437SOL     OW20209   0.725   1.656   5.208
 6437SOL    HW120210   0.680   1.626   5.292
 6437SOL    HW220211   0.819   1.623   5.208
 6438SOL     OW20212   1.096   5.217   6.436
 6438SOL    HW120213   1.047   5.131   6.424
 6438SOL    HW220214   1.193   5.198   6.454
 6439SOL     OW20215   6.432   0.930   3.435
 6439SOL    HW120216   6.364   0.943   3.507
 6439SOL    HW220217   6.509   0.877   3.472
 6440SOL     OW20218   2.455   0.978   6.738
 6440SOL    HW120219   2.435   1.059   6.683
 6440SOL    HW220220   2.484   1.006   6.829
 6441SOL     OW20221   0.116   0.853   2.779
 6441SOL    HW120222   0.066   0.923   2.830
 6441SOL    HW220223   0.151   0.784   2.842
 6442SOL     OW20224   2.677   2.421   4.570
 6442SOL    HW120225   2.770   2.413   4.533
 6442SOL    HW220226   2.681   2.421   4.670
 6443SOL     OW20227   3.533   2.107   6.063
 6443SOL    HW120228   3.601   2.180   6.063
 6443SOL    HW220229   3.541   2.053   5.979
 6444SOL     OW20230   0.513   2.532   4.898
 6444SOL    HW120231   0.562   2.519   4.984
 6444SOL    HW220232   0.552   2.472   4.828
 6445SOL     OW20233   3.703   3.488   3.104
 6445SOL    HW120234   3.734   3.464   3.196
 6445SOL    HW220235   3.775   3.539   3.057
 6446SOL     OW20236   1.291   1.699   6.890
 6446SOL    HW120237   1.243   1.701   6.978
 6446SOL    HW220238   1.371   1.639   6.898
 6447SOL     OW20239   0.086   4.258   1.772
 6447SOL    HW120240   0.033   4.213   1.844
 6447SOL    HW220241   0.183   4.237   1.783
 6448SOL     OW20242   4.943   5.049   1.563
 6448SOL    HW120243   4.913   5.095   1.480
 6448SOL    HW220244   4.868   5.047   1.629
 6449SOL     OW20245   1.816   5.699   1.363
 6449SOL    HW120246   1.882   5.676   1.292
 6449SOL    HW220247   1.838   5.647   1.446
 6450SOL     OW20248   0.801   4.496   0.519
 6450SOL    HW120249   0.734   4.445   0.465
 6450SOL    HW220250   0.753   4.563   0.577
 6451SOL     OW20251   3.229   1.787   6.490
 6451SOL    HW120252   3.318   1.805   6.448
 6451SOL    HW220253   3.160   1.774   6.418
 6452SOL     OW20254   5.190   3.531   2.495
 6452SOL    HW120255   5.091   3.538   2.511
 6452SOL    HW220256   5.238   3.597   2.553
 6453SOL     OW20257   3.674   6.692   0.701
 6453SOL    HW120258   3.706   6.697   0.607
 6453SOL    HW220259   3.704   6.774   0.751
 6454SOL     OW20260   6.954   1.503   2.495
 6454SOL    HW120261   6.938   1.472   2.402
 6454SOL    HW220262   6.914   1.437   2.559
 6455SOL     OW20263   6.465   4.079   3.267
 6455SOL    HW120264   6.456   4.103   3.364
 6455SOL    HW220265   6.448   4.160   3.211
 6456SOL     OW20266   0.837   0.135   3.089
 6456SOL    HW120267   0.832   0.201   3.014
 6456SOL    HW220268   0.777   0.163   3.163
 6457SOL     OW20269   4.782   0.165   1.746
 6457SOL    HW120270   4.745   0.241   1.692
 6457SOL    HW220271   4.861   0.126   1.698
 6458SOL     OW20272   1.402   5.258   4.325
 6458SOL    HW120273   1.498   5.258   4.297
 6458SOL    HW220274   1.383   5.177   4.379
 6459SOL     OW20275   6.096   2.400   2.799
 6459SOL    HW120276   6.109   2.384   2.897
 6459SOL    HW220277   6.184   2.425   2.758
 6460SOL     OW20278   6.266   5.743   5.646
 6460SOL    HW120279   6.185   5.771   5.596
 6460SOL    HW220280   6.320   5.680   5.591
 6461SOL     OW20281   3.632   4.604   0.357
 6461SOL    HW120282   3.660   4.686   0.308
 6461SOL    HW220283   3.623   4.528   0.293
 6462SOL     OW20284   1.273   3.487   4.238
 6462SOL    HW120285   1.268   3.427   4.158
 6462SOL    HW220286   1.302   3.434   4.318
 6463SOL     OW20287   5.482   0.220   0.689
 6463SOL    HW120288   5.427   0.145   0.650
 6463SOL    HW220289   5.554   0.245   0.624
 6464SOL     OW20290   0.752   6.080   4.956
 6464SOL    HW120291   0.778   5.984   4.969
 6464SOL    HW220292   0.834   6.135   4.940
 6465SOL     OW20293   5.946   2.498   2.235
 6465SOL    HW120294   5.904   2.481   2.146
 6465SOL    HW220295   5.970   2.595   2.243
 6466SOL     OW20296   6.934   2.936   6.678
 6466SOL    HW120297   6.979   2.884   6.751
 6466SOL    HW220298   6.942   2.886   6.592
 6467SOL     OW20299   4.010   1.425   0.833
 6467SOL    HW120300   4.076   1.418   0.757
 6467SOL    HW220301   4.052   1.475   0.909
 6468SOL     OW20302   4.052   6.351   0.871
 6468SOL    HW120303   4.138   6.401   0.858
 6468SOL    HW220304   3.976   6.416   0.875
 6469SOL     OW20305   2.794   2.049   3.951
 6469SOL    HW120306   2.851   2.070   3.872
 6469SOL    HW220307   2.726   1.980   3.926
 6470SOL     OW20308   5.832   2.489   0.755
 6470SOL    HW120309   5.879   2.409   0.718
 6470SOL    HW220310   5.750   2.460   0.805
 6471SOL     OW20311   0.662   6.493   4.631
 6471SOL    HW120312   0.665   6.393   4.619
 6471SOL    HW220313   0.583   6.529   4.581
 6472SOL     OW20314   6.555   6.109   2.487
 6472SOL    HW120315   6.572   6.182   2.420
 6472SOL    HW220316   6.573   6.020   2.445
 6473SOL     OW20317   1.910   1.782   4.713
 6473SOL    HW120318   1.903   1.847   4.638
 6473SOL    HW220319   1.981   1.814   4.777
 6474SOL     OW20320   3.826   5.253   5.707
 6474SOL    HW120321   3.833   5.249   5.607
 6474SOL    HW220322   3.841   5.347   5.737
 6475SOL     OW20323   5.101   5.203   3.506
 6475SOL    HW120324   5.194   5.164   3.506
 6475SOL    HW220325   5.036   5.133   3.478
 6476SOL     OW20326   3.576   2.590   6.599
 6476SOL    HW120327   3.523   2.569   6.681
 6476SOL    HW220328   3.521   2.645   6.537
 6477SOL     OW20329   6.762   5.239   0.656
 6477SOL    HW120330   6.728   5.184   0.579
 6477SOL    HW220331   6.693   5.243   0.728
 6478SOL     OW20332   2.765   5.980   1.549
 6478SOL    HW120333   2.699   5.959   1.476
 6478SOL    HW220334   2.717   5.990   1.636
 6479SOL     OW20335   3.077   5.345   4.517
 6479SOL    HW120336   3.165   5.382   4.489
 6479SOL    HW220337   3.008   5.368   4.448
 6480SOL     OW20338   2.195   1.593   0.243
 6480SOL    HW120339   2.179   1.543   0.328
 6480SOL    HW220340   2.124   1.663   0.232
 6481SOL     OW20341   3.310   2.319   1.570
 6481SOL    HW120342   3.211   2.331   1.581
 6481SOL    HW220343   3.355   2.408   1.576
 6482SOL     OW20344   6.360   2.143   5.481
 6482SOL    HW120345   6.448   2.162   5.526
 6482SOL    HW220346   6.346   2.044   5.478
 6483SOL     OW20347   1.104   5.772   4.077
 6483SOL    HW120348   1.064   5.812   3.995
 6483SOL    HW220349   1.088   5.673   4.078
 6484SOL     OW20350   2.469   1.689   2.503
 6484SOL    HW120351   2.532   1.755   2.543
 6484SOL    HW220352   2.477   1.692   2.403
 6485SOL     OW20353   2.307   5.931   4.422
 6485SOL    HW120354   2.406   5.932   4.438
 6485SOL    HW220355   2.289   5.921   4.324
 6486SOL     OW20356   1.108   4.870   2.997
 6486SOL    HW120357   1.130   4.859   2.900
 6486SOL    HW220358   1.020   4.826   3.016
 6487SOL     OW20359   1.148   5.640   4.422
 6487SOL    HW120360   1.164   5.549   4.384
 6487SOL    HW220361   1.179   5.710   4.358
 6488SOL     OW20362   4.586   5.814   5.348
 6488SOL    HW120363   4.659   5.745   5.354
 6488SOL    HW220364   4.507   5.775   5.301
 6489SOL     OW20365   2.983   2.856   6.308
 6489SOL    HW120366   2.998   2.799   6.227
 6489SOL    HW220367   2.920   2.930   6.286
 6490SOL     OW20368   2.493   1.656   6.504
 6490SOL    HW120369   2.539   1.616   6.424
 6490SOL    HW220370   2.485   1.755   6.492
 6491SOL     OW20371   2.097   0.639   1.274
 6491SOL    HW120372   2.104   0.567   1.206
 6491SOL    HW220373   2.166   0.626   1.345
 6492SOL     OW20374   3.696   3.876   4.194
 6492SOL    HW120375   3.636   3.808   4.151
 6492SOL    HW220376   3.751   3.832   4.265
 6493SOL     OW20377   1.540   4.489   6.384
 6493SOL    HW120378   1.520   4.400   6.423
 6493SOL    HW220379   1.639   4.500   6.376
 6494SOL     OW20380   6.354   6.225   2.616
 6494SOL    HW120381   6.411   6.181   2.547
 6494SOL    HW220382   6.347   6.166   2.696
 6495SOL     OW20383   6.804   6.961   4.887
 6495SOL    HW120384   6.780   0.022   4.937
 6495SOL    HW220385   6.859   6.901   4.946
 6496SOL     OW20386   4.946   6.621   1.416
 6496SOL    HW120387   4.948   6.689   1.342
 6496SOL    HW220388   4.914   6.664   1.500
 6497SOL     OW20389   1.059   1.183   1.254
 6497SOL    HW120390   0.971   1.137   1.240
 6497SOL    HW220391   1.055   1.238   1.338
 6498SOL     OW20392   0.576   3.942   4.101
 6498SOL    HW120393   0.665   3.903   4.126
 6498SOL    HW220394   0.505   3.872   4.114
 6499SOL     OW20395   5.404   3.767   4.291
 6499SOL    HW120396   5.395   3.829   4.214
 6499SOL    HW220397   5.447   3.814   4.368
 6500SOL     OW20398   0.663   3.826   2.340
 6500SOL    HW120399   0.699   3.792   2.253
 6500SOL    HW220400   0.640   3.923   2.332
 6501SOL     OW20401   0.104   1.474   0.925
 6501SOL    HW120402   0.110   1.555   0.984
 6501SOL    HW220403   0.038   1.490   0.852
 6502SOL     OW20404   6.488   3.840   1.587
 6502SOL    HW120405   6.506   3.765   1.652
 6502SOL    HW220406   6.506   3.808   1.494
 6503SOL     OW20407   6.301   1.049   5.195
 6503SOL    HW120408   6.259   1.102   5.121
 6503SOL    HW220409   6.400   1.046   5.182
 6504SOL     OW20410   4.761   6.613   6.648
 6504SOL    HW120411   4.732   6.539   6.587
 6504SOL    HW220412   4.764   6.578   6.742
 6505SOL     OW20413   5.315   6.608   6.796
 6505SOL    HW120414   5.261   6.665   6.858
 6505SOL    HW220415   5.392   6.661   6.760
 6506SOL     OW20416   0.041   3.332   3.705
 6506SOL    HW120417   0.044   3.312   3.803
 6506SOL    HW220418   0.132   3.359   3.674
 6507SOL     OW20419   2.737   5.526   6.360
 6507SOL    HW120420   2.707   5.584   6.435
 6507SOL    HW220421   2.786   5.581   6.292
 6508SOL     OW20422   1.865   6.985   2.632
 6508SOL    HW120423   1.907   7.003   2.720
 6508SOL    HW220424   1.876   0.042   2.572
 6509SOL     OW20425   5.026   1.389   5.450
 6509SOL    HW120426   4.946   1.443   5.478
 6509SOL    HW220427   5.004   1.338   5.367
 6510SOL     OW20428   4.498   5.969   6.599
 6510SOL    HW120429   4.439   6.011   6.529
 6510SOL    HW220430   4.463   5.993   6.689
 6511SOL     OW20431   4.146   0.646   5.716
 6511SOL    HW120432   4.147   0.569   5.653
 6511SOL    HW220433   4.193   0.621   5.801
 6512SOL     OW20434   2.921   6.307   2.663
 6512SOL    HW120435   2.912   6.403   2.690
 6512SOL    HW220436   3.017   6.281   2.665
 6513SOL     OW20437   2.731   6.201   4.531
 6513SOL    HW120438   2.805   6.136   4.511
 6513SOL    HW220439   2.768   6.280   4.579
 6514SOL     OW20440   5.764   0.516   4.842
 6514SOL    HW120441   5.696   0.589   4.837
 6514SOL    HW220442   5.848   0.551   4.883
 6515SOL     OW20443   2.052   4.406   2.404
 6515SOL    HW120444   1.985   4.430   2.334
 6515SOL    HW220445   2.006   4.359   2.480
 6516SOL     OW20446   6.760   3.125   1.926
 6516SOL    HW120447   6.818   3.201   1.954
 6516SOL    HW220448   6.812   3.039   1.934
 6517SOL     OW20449   0.378   2.084   0.790
 6517SOL    HW120450   0.442   2.159   0.807
 6517SOL    HW220451   0.382   2.058   0.694
 6518SOL     OW20452   6.657   0.697   2.344
 6518SOL    HW120453   6.734   0.635   2.361
 6518SOL    HW220454   6.641   0.704   2.246
 6519SOL     OW20455   0.641   0.728   3.166
 6519SOL    HW120456   0.654   0.767   3.257
 6519SOL    HW220457   0.593   0.794   3.108
 6520SOL     OW20458   6.910   5.765   6.430
 6520SOL    HW120459   6.957   5.700   6.490
 6520SOL    HW220460   6.940   5.751   6.335
 6521SOL     OW20461   1.519   2.823   2.923
 6521SOL    HW120462   1.538   2.829   3.021
 6521SOL    HW220463   1.420   2.818   2.908
 6522SOL     OW20464   2.611   4.491   5.271
 6522SOL    HW120465   2.599   4.392   5.280
 6522SOL    HW220466   2.702   4.510   5.234
 6523SOL     OW20467   4.642   6.798   6.884
 6523SOL    HW120468   4.544   6.811   6.898
 6523SOL    HW220469   4.659   6.706   6.850
 6524SOL     OW20470   3.023   2.559   1.683
 6524SOL    HW120471   3.020   2.508   1.769
 6524SOL    HW220472   2.936   2.548   1.634
 6525SOL     OW20473   2.530   5.427   3.578
 6525SOL    HW120474   2.581   5.351   3.617
 6525SOL    HW220475   2.591   5.505   3.563
 6526SOL     OW20476   0.552   0.033   0.956
 6526SOL    HW120477   0.462   0.027   0.999
 6526SOL    HW220478   0.542   0.023   0.857
 6527SOL     OW20479   0.452   2.089   0.490
 6527SOL    HW120480   0.454   1.991   0.469
 6527SOL    HW220481   0.498   2.140   0.417
 6528SOL     OW20482   6.970   1.524   6.129
 6528SOL    HW120483   6.902   1.510   6.057
 6528SOL    HW220484   6.943   1.601   6.186
 6529SOL     OW20485   0.929   0.342   2.919
 6529SOL    HW120486   0.889   0.433   2.913
 6529SOL    HW220487   1.008   0.336   2.857
 6530SOL     OW20488   0.444   2.022   1.445
 6530SOL    HW120489   0.438   2.097   1.511
 6530SOL    HW220490   0.444   1.934   1.494
 6531SOL     OW20491   4.333   3.426   5.551
 6531SOL    HW120492   4.404   3.454   5.485
 6531SOL    HW220493   4.338   3.483   5.632
 6532SOL     OW20494   1.891   1.425   0.661
 6532SOL    HW120495   1.988   1.409   0.683
 6532SOL    HW220496   1.880   1.428   0.562
 6533SOL     OW20497   4.080   5.967   0.442
 6533SOL    HW120498   4.156   5.990   0.503
 6533SOL    HW220499   4.100   6.002   0.350
 6534SOL     OW20500   5.279   4.764   1.669
 6534SOL    HW120501   5.242   4.702   1.599
 6534SOL    HW220502   5.346   4.824   1.627
 6535SOL     OW20503   5.816   4.490   4.261
 6535SOL    HW120504   5.874   4.536   4.329
 6535SOL    HW220505   5.740   4.445   4.308
 6536SOL     OW20506   0.631   1.884   5.439
 6536SOL    HW120507   0.594   1.791   5.441
 6536SOL    HW220508   0.620   1.923   5.348
 6537SOL     OW20509   6.835   4.708   4.595
 6537SOL    HW120510   6.908   4.761   4.552
 6537SOL    HW220511   6.834   4.616   4.555
 6538SOL     OW20512   1.669   3.785   5.773
 6538SOL    HW120513   1.755   3.746   5.739
 6538SOL    HW220514   1.636   3.854   5.708
 6539SOL     OW20515   4.931   0.608   6.702
 6539SOL    HW120516   4.958   0.513   6.685
 6539SOL    HW220517   4.832   0.614   6.710
 6540SOL     OW20518   2.213   2.797   6.090
 6540SOL    HW120519   2.219   2.858   6.170
 6540SOL    HW220520   2.234   2.703   6.118
 6541SOL     OW20521   5.373   2.404   5.898
 6541SOL    HW120522   5.371   2.306   5.918
 6541SOL    HW220523   5.281   2.434   5.871
 6542SOL     OW20524   1.481   3.236   4.664
 6542SOL    HW120525   1.547   3.162   4.659
 6542SOL    HW220526   1.524   3.322   4.636
 6543SOL     OW20527   3.693   2.460   5.664
 6543SOL    HW120528   3.746   2.532   5.619
 6543SOL    HW220529   3.660   2.395   5.595
 6544SOL     OW20530   0.045   6.432   2.342
 6544SOL    HW120531   0.085   6.455   2.253
 6544SOL    HW220532   7.010   6.509   2.373
 6545SOL     OW20533   4.123   6.884   0.383
 6545SOL    HW120534   4.220   6.908   0.382
 6545SOL    HW220535   4.072   6.953   0.433
 6546SOL     OW20536   4.493   4.108   6.755
 6546SOL    HW120537   4.496   4.008   6.754
 6546SOL    HW220538   4.584   4.144   6.734
 6547SOL     OW20539   4.711   0.442   5.632
 6547SOL    HW120540   4.749   0.363   5.680
 6547SOL    HW220541   4.617   0.458   5.662
 6548SOL     OW20542   1.219   3.284   6.880
 6548SOL    HW120543   1.178   3.263   6.969
 6548SOL    HW220544   1.276   3.365   6.888
 6549SOL     OW20545   4.732   0.316   1.992
 6549SOL    HW120546   4.697   0.247   1.928
 6549SOL    HW220547   4.825   0.293   2.019
 6550SOL     OW20548   0.212   6.866   3.950
 6550SOL    HW120549   0.233   6.851   4.046
 6550SOL    HW220550   0.219   6.780   3.900
 6551SOL     OW20551   2.690   3.385   1.724
 6551SOL    HW120552   2.691   3.483   1.744
 6551SOL    HW220553   2.782   3.347   1.740
 6552SOL     OW20554   2.475   0.368   0.630
 6552SOL    HW120555   2.500   0.443   0.691
 6552SOL    HW220556   2.528   0.287   0.655
 6553SOL     OW20557   1.078   1.798   3.249
 6553SOL    HW120558   1.136   1.717   3.242
 6553SOL    HW220559   0.987   1.771   3.282
 6554SOL     OW20560   2.796   0.871   5.303
 6554SOL    HW120561   2.771   0.858   5.398
 6554SOL    HW220562   2.723   0.919   5.254
 6555SOL     OW20563   6.211   1.799   4.104
 6555SOL    HW120564   6.140   1.815   4.172
 6555SOL    HW220565   6.263   1.717   4.129
 6556SOL     OW20566   6.289   3.375   2.435
 6556SOL    HW120567   6.259   3.460   2.392
 6556SOL    HW220568   6.210   3.317   2.454
 6557SOL     OW20569   2.575   0.640   2.366
 6557SOL    HW120570   2.499   0.579   2.346
 6557SOL    HW220571   2.566   0.724   2.314
 6558SOL     OW20572   5.647   5.494   0.149
 6558SOL    HW120573   5.683   5.432   0.218
 6558SOL    HW220574   5.657   5.588   0.179
 6559SOL     OW20575   6.999   3.632   6.110
 6559SOL    HW120576   6.906   3.597   6.122
 6559SOL    HW220577   7.011   3.714   6.165
 6560SOL     OW20578   3.877   4.567   0.809
 6560SOL    HW120579   3.970   4.603   0.818
 6560SOL    HW220580   3.849   4.573   0.713
 6561SOL     OW20581   3.762   4.648   1.077
 6561SOL    HW120582   3.769   4.634   0.978
 6561SOL    HW220583   3.739   4.561   1.121
 6562SOL     OW20584   5.622   2.382   1.278
 6562SOL    HW120585   5.629   2.407   1.375
 6562SOL    HW220586   5.619   2.465   1.223
 6563SOL     OW20587   5.022   0.615   6.203
 6563SOL    HW120588   5.112   0.614   6.158
 6563SOL    HW220589   5.033   0.642   6.298
 6564SOL     OW20590   6.330   3.580   2.107
 6564SOL    HW120591   6.260   3.610   2.172
 6564SOL    HW220592   6.288   3.557   2.020
 6565SOL     OW20593   6.418   6.374   3.076
 6565SOL    HW120594   6.398   6.406   3.169
 6565SOL    HW220595   6.507   6.409   3.047
 6566SOL     OW20596   3.178   5.129   1.949
 6566SOL    HW120597   3.223   5.121   2.038
 6566SOL    HW220598   3.217   5.061   1.886
 6567SOL     OW20599   4.726   0.850   1.684
 6567SOL    HW120600   4.668   0.805   1.616
 6567SOL    HW220601   4.724   0.949   1.670
 6568SOL     OW20602   3.890   2.130   3.007
 6568SOL    HW120603   3.945   2.144   3.089
 6568SOL    HW220604   3.949   2.112   2.929
 6569SOL     OW20605   1.120   3.608   6.488
 6569SOL    HW120606   1.062   3.537   6.528
 6569SOL    HW220607   1.216   3.585   6.505
 6570SOL     OW20608   3.628   0.948   2.762
 6570SOL    HW120609   3.667   0.864   2.726
 6570SOL    HW220610   3.530   0.935   2.779
 6571SOL     OW20611   2.855   4.769   2.539
 6571SOL    HW120612   2.832   4.755   2.443
 6571SOL    HW220613   2.773   4.757   2.596
 6572SOL     OW20614   0.298   3.366   4.109
 6572SOL    HW120615   0.285   3.398   4.203
 6572SOL    HW220616   0.351   3.434   4.058
 6573SOL     OW20617   1.448   1.392   3.217
 6573SOL    HW120618   1.393   1.335   3.156
 6573SOL    HW220619   1.478   1.337   3.296
 6574SOL     OW20620   2.432   6.314   3.425
 6574SOL    HW120621   2.457   6.336   3.331
 6574SOL    HW220622   2.448   6.393   3.484
 6575SOL     OW20623   0.457   6.610   3.330
 6575SOL    HW120624   0.421   6.640   3.418
 6575SOL    HW220625   0.513   6.682   3.289
 6576SOL     OW20626   3.222   5.337   0.740
 6576SOL    HW120627   3.161   5.297   0.672
 6576SOL    HW220628   3.186   5.321   0.832
 6577SOL     OW20629   1.709   1.978   3.583
 6577SOL    HW120630   1.759   1.900   3.621
 6577SOL    HW220631   1.723   1.982   3.485
 6578SOL     OW20632   0.733   5.940   2.107
 6578SOL    HW120633   0.689   5.994   2.179
 6578SOL    HW220634   0.823   5.978   2.086
 6579SOL     OW20635   6.882   2.399   4.309
 6579SOL    HW120636   6.882   2.447   4.221
 6579SOL    HW220637   6.871   2.301   4.293
 6580SOL     OW20638   0.997   1.538   0.736
 6580SOL    HW120639   0.919   1.498   0.785
 6580SOL    HW220640   1.070   1.470   0.727
 6581SOL     OW20641   1.331   0.807   0.800
 6581SOL    HW120642   1.265   0.781   0.729
 6581SOL    HW220643   1.409   0.853   0.759
 6582SOL     OW20644   6.487   0.516   2.894
 6582SOL    HW120645   6.547   0.457   2.947
 6582SOL    HW220646   6.426   0.461   2.837
 6583SOL     OW20647   5.148   6.586   5.307
 6583SOL    HW120648   5.113   6.651   5.376
 6583SOL    HW220649   5.194   6.510   5.353
 6584SOL     OW20650   3.542   2.385   0.761
 6584SOL    HW120651   3.447   2.356   0.770
 6584SOL    HW220652   3.546   2.485   0.757
 6585SOL     OW20653   6.755   6.543   0.057
 6585SOL    HW120654   6.657   6.563   0.056
 6585SOL    HW220655   6.797   6.581   6.996
 6586SOL     OW20656   6.565   2.046   6.028
 6586SOL    HW120657   6.519   1.966   6.067
 6586SOL    HW220658   6.561   2.121   6.093
 6587SOL     OW20659   1.183   4.699   6.632
 6587SOL    HW120660   1.280   4.723   6.642
 6587SOL    HW220661   1.136   4.771   6.581
 6588SOL     OW20662   0.327   3.272   1.255
 6588SOL    HW120663   0.321   3.226   1.166
 6588SOL    HW220664   0.419   3.310   1.267
 6589SOL     OW20665   4.786   1.058   2.303
 6589SOL    HW120666   4.832   1.147   2.305
 6589SOL    HW220667   4.833   0.998   2.238
 6590SOL     OW20668   0.734   6.973   5.298
 6590SOL    HW120669   0.769   0.019   5.363
 6590SOL    HW220670   0.657   6.925   5.340
 6591SOL     OW20671   5.607   6.585   3.552
 6591SOL    HW120672   5.581   6.610   3.646
 6591SOL    HW220673   5.703   6.555   3.551
 6592SOL     OW20674   4.716   0.402   2.459
 6592SOL    HW120675   4.757   0.471   2.399
 6592SOL    HW220676   4.785   0.332   2.479
 6593SOL     OW20677   2.748   2.244   2.294
 6593SOL    HW120678   2.794   2.281   2.213
 6593SOL    HW220679   2.690   2.167   2.267
 6594SOL     OW20680   3.786   1.696   5.713
 6594SOL    HW120681   3.752   1.741   5.631
 6594SOL    HW220682   3.870   1.740   5.743
 6595SOL     OW20683   1.045   3.219   5.534
 6595SOL    HW120684   1.019   3.158   5.608
 6595SOL    HW220685   1.140   3.201   5.508
 6596SOL     OW20686   3.802   6.285   3.615
 6596SOL    HW120687   3.795   6.384   3.625
 6596SOL    HW220688   3.717   6.250   3.576
 6597SOL     OW20689   1.615   5.214   2.083
 6597SOL    HW120690   1.609   5.211   1.984
 6597SOL    HW220691   1.654   5.128   2.117
 6598SOL     OW20692   2.015   4.647   4.104
 6598SOL    HW120693   2.042   4.572   4.165
 6598SOL    HW220694   1.956   4.710   4.154
 6599SOL     OW20695   4.618   6.214   6.890
 6599SOL    HW120696   4.528   6.182   6.859
 6599SOL    HW220697   4.664   6.141   6.940
 6600SOL     OW20698   3.905   6.833   4.403
 6600SOL    HW120699   4.002   6.818   4.383
 6600SOL    HW220700   3.892   6.839   4.502
 6601SOL     OW20701   0.370   2.281   3.304
 6601SOL    HW120702   0.465   2.284   3.335
 6601SOL    HW220703   0.365   2.237   3.215
 6602SOL     OW20704   1.981   0.323   1.439
 6602SOL    HW120705   1.943   0.381   1.511
 6602SOL    HW220706   2.041   0.254   1.480
 6603SOL     OW20707   0.909   2.790   4.138
 6603SOL    HW120708   0.942   2.711   4.088
 6603SOL    HW220709   0.820   2.819   4.101
 6604SOL     OW20710   1.641   0.480   1.243
 6604SOL    HW120711   1.543   0.491   1.257
 6604SOL    HW220712   1.690   0.499   1.327
 6605SOL     OW20713   5.866   5.970   2.615
 6605SOL    HW120714   5.944   5.936   2.668
 6605SOL    HW220715   5.822   6.045   2.664
 6606SOL     OW20716   6.787   4.565   2.823
 6606SOL    HW120717   6.739   4.593   2.740
 6606SOL    HW220718   6.779   4.466   2.834
 6607SOL     OW20719   6.640   5.153   3.630
 6607SOL    HW120720   6.555   5.145   3.682
 6607SOL    HW220721   6.667   5.249   3.624
 6608SOL     OW20722   0.091   0.287   0.556
 6608SOL    HW120723   0.031   0.301   0.636
 6608SOL    HW220724   0.037   0.249   0.481
 6609SOL     OW20725   5.290   1.149   6.379
 6609SOL    HW120726   5.210   1.171   6.434
 6609SOL    HW220727   5.271   1.070   6.321
 6610SOL     OW20728   2.668   6.603   0.293
 6610SOL    HW120729   2.623   6.637   0.210
 6610SOL    HW220730   2.751   6.554   0.268
 6611SOL     OW20731   5.424   3.040   3.238
 6611SOL    HW120732   5.348   3.060   3.175
 6611SOL    HW220733   5.441   3.118   3.297
 6612SOL     OW20734   6.834   2.150   6.466
 6612SOL    HW120735   6.910   2.214   6.476
 6612SOL    HW220736   6.764   2.190   6.406
 6613SOL     OW20737   5.275   0.226   5.737
 6613SOL    HW120738   5.220   0.278   5.802
 6613SOL    HW220739   5.321   0.151   5.785
 6614SOL     OW20740   4.678   6.975   0.558
 6614SOL    HW120741   4.672   0.050   0.532
 6614SOL    HW220742   4.770   6.955   0.591
 6615SOL     OW20743   2.231   5.702   0.628
 6615SOL    HW120744   2.242   5.609   0.594
 6615SOL    HW220745   2.282   5.765   0.570
 6616SOL     OW20746   4.620   0.076   6.008
 6616SOL    HW120747   4.685   0.002   5.997
 6616SOL    HW220748   4.567   0.087   5.924
 6617SOL     OW20749   4.417   6.582   3.289
 6617SOL    HW120750   4.372   6.501   3.326
 6617SOL    HW220751   4.411   6.657   3.356
 6618SOL     OW20752   1.064   1.509   2.712
 6618SOL    HW120753   1.102   1.545   2.797
 6618SOL    HW220754   1.139   1.476   2.654
 6619SOL     OW20755   4.520   0.013   3.612
 6619SOL    HW120756   4.573   6.998   3.689
 6619SOL    HW220757   4.572   7.021   3.527
 6620SOL     OW20758   2.084   3.737   4.671
 6620SOL    HW120759   2.144   3.813   4.698
 6620SOL    HW220760   2.122   3.693   4.590
 6621SOL     OW20761   3.743   2.719   5.245
 6621SOL    HW120762   3.725   2.697   5.149
 6621SOL    HW220763   3.784   2.810   5.252
 6622SOL     OW20764   6.475   5.949   2.172
 6622SOL    HW120765   6.422   5.869   2.200
 6622SOL    HW220766   6.569   5.939   2.205
 6623SOL     OW20767   3.527   4.055   4.793
 6623SOL    HW120768   3.518   4.020   4.887
 6623SOL    HW220769   3.441   4.096   4.764
 6624SOL     OW20770   0.521   3.613   5.729
 6624SOL    HW120771   0.585   3.553   5.778
 6624SOL    HW220772   0.565   3.702   5.712
 6625SOL     OW20773   5.172   2.051   5.267
 6625SOL    HW120774   5.167   1.976   5.201
 6625SOL    HW220775   5.114   2.127   5.236
 6626SOL     OW20776   3.518   6.770   5.811
 6626SOL    HW120777   3.508   6.709   5.732
 6626SOL    HW220778   3.574   6.724   5.881
 6627SOL     OW20779   1.932   6.404   4.191
 6627SOL    HW120780   1.929   6.503   4.174
 6627SOL    HW220781   1.988   6.360   4.121
 6628SOL     OW20782   5.056   4.864   3.716
 6628SOL    HW120783   4.996   4.907   3.784
 6628SOL    HW220784   5.151   4.870   3.747
 6629SOL     OW20785   4.605   5.650   6.160
 6629SOL    HW120786   4.619   5.699   6.247
 6629SOL    HW220787   4.521   5.595   6.166
 6630SOL     OW20788   3.496   1.506   1.823
 6630SOL    HW120789   3.555   1.429   1.801
 6630SOL    HW220790   3.539   1.562   1.894
 6631SOL     OW20791   2.221   5.526   4.308
 6631SOL    HW120792   2.196   5.495   4.400
 6631SOL    HW220793   2.315   5.498   4.289
 6632SOL     OW20794   1.440   1.064   0.945
 6632SOL    HW120795   1.445   0.969   0.977
 6632SOL    HW220796   1.371   1.113   0.998
 6633SOL     OW20797   2.711   4.854   5.760
 6633SOL    HW120798   2.775   4.838   5.684
 6633SOL    HW220799   2.617   4.841   5.728
 6634SOL     OW20800   4.450   1.809   5.002
 6634SOL    HW120801   4.546   1.798   5.025
 6634SOL    HW220802   4.407   1.719   4.995
 6635SOL     OW20803   4.872   4.095   3.256
 6635SOL    HW120804   4.888   4.033   3.179
 6635SOL    HW220805   4.922   4.180   3.242
 6636SOL     OW20806   3.291   1.316   0.610
 6636SOL    HW120807   3.221   1.346   0.675
 6636SOL    HW220808   3.380   1.355   0.638
 6637SOL     OW20809   2.826   0.335   6.120
 6637SOL    HW120810   2.812   0.364   6.215
 6637SOL    HW220811   2.905   0.273   6.116
 6638SOL     OW20812   3.129   3.791   3.135
 6638SOL    HW120813   3.033   3.772   3.155
 6638SOL    HW220814   3.163   3.728   3.065
 6639SOL     OW20815   3.590   3.883   6.594
 6639SOL    HW120816   3.594   3.981   6.610
 6639SOL    HW220817   3.629   3.862   6.504
 6640SOL     OW20818   6.816   2.399   4.843
 6640SOL    HW120819   6.782   2.493   4.835
 6640SOL    HW220820   6.819   2.357   4.753
 6641SOL     OW20821   3.541   1.638   6.622
 6641SOL    HW120822   3.500   1.563   6.675
 6641SOL    HW220823   3.485   1.720   6.630
 6642SOL     OW20824   2.141   5.461   6.204
 6642SOL    HW120825   2.062   5.476   6.144
 6642SOL    HW220826   2.225   5.489   6.157
 6643SOL     OW20827   6.553   6.819   0.583
 6643SOL    HW120828   6.614   6.882   0.631
 6643SOL    HW220829   6.591   6.798   0.492
 6644SOL     OW20830   2.257   5.974   3.230
 6644SOL    HW120831   2.208   5.921   3.300
 6644SOL    HW220832   2.234   6.071   3.240
 6645SOL     OW20833   5.926   3.217   0.581
 6645SOL    HW120834   5.879   3.166   0.509
 6645SOL    HW220835   5.865   3.285   0.620
 6646SOL     OW20836   4.482   1.065   5.558
 6646SOL    HW120837   4.493   0.966   5.551
 6646SOL    HW220838   4.571   1.108   5.567
 6647SOL     OW20839   4.564   6.592   0.801
 6647SOL    HW120840   4.618   6.621   0.879
 6647SOL    HW220841   4.625   6.565   0.727
 6648SOL     OW20842   3.285   6.014   4.456
 6648SOL    HW120843   3.265   5.977   4.546
 6648SOL    HW220844   3.285   6.114   4.460
 6649SOL     OW20845   5.892   2.973   6.529
 6649SOL    HW120846   5.829   2.895   6.523
 6649SOL    HW220847   5.934   2.975   6.620
 6650SOL     OW20848   3.365   1.664   4.972
 6650SOL    HW120849   3.285   1.618   4.933
 6650SOL    HW220850   3.405   1.607   5.042
 6651SOL     OW20851   1.882   2.072   6.431
 6651SOL    HW120852   1.870   2.019   6.347
 6651SOL    HW220853   1.895   2.011   6.508
 6652SOL     OW20854   0.450   4.916   0.123
 6652SOL    HW120855   0.408   4.834   0.163
 6652SOL    HW220856   0.379   4.978   0.091
 6653SOL     OW20857   4.799   2.972   0.715
 6653SOL    HW120858   4.699   2.965   0.727
 6653SOL    HW220859   4.819   2.997   0.621
 6654SOL     OW20860   0.388   5.530   2.506
 6654SOL    HW120861   0.451   5.590   2.456
 6654SOL    HW220862   0.392   5.438   2.467
 6655SOL     OW20863   0.082   6.173   2.053
 6655SOL    HW120864   0.156   6.124   2.099
 6655SOL    HW220865   0.096   6.169   1.954
 6656SOL     OW20866   5.381   2.120   3.143
 6656SOL    HW120867   5.414   2.099   3.051
 6656SOL    HW220868   5.433   2.068   3.210
 6657SOL     OW20869   5.956   2.913   5.059
 6657SOL    HW120870   5.873   2.965   5.040
 6657SOL    HW220871   5.994   2.942   5.147
 6658SOL     OW20872   6.344   6.964   6.011
 6658SOL    HW120873   6.403   7.007   6.080
 6658SOL    HW220874   6.399   6.943   5.930
 6659SOL     OW20875   1.014   3.684   1.453
 6659SOL    HW120876   1.081   3.735   1.507
 6659SOL    HW220877   0.922   3.704   1.487
 6660SOL     OW20878   1.835   5.305   1.658
 6660SOL    HW120879   1.903   5.259   1.715
 6660SOL    HW220880   1.873   5.392   1.626
 6661SOL     OW20881   2.736   0.679   5.048
 6661SOL    HW120882   2.768   0.719   5.134
 6661SOL    HW220883   2.743   0.747   4.976
 6662SOL     OW20884   1.714   0.821   0.487
 6662SOL    HW120885   1.722   0.917   0.513
 6662SOL    HW220886   1.752   0.763   0.559
 6663SOL     OW20887   0.726   6.619   4.871
 6663SOL    HW120888   0.697   6.597   4.778
 6663SOL    HW220889   0.701   6.543   4.932
 6664SOL     OW20890   2.180   0.078   0.952
 6664SOL    HW120891   2.229   0.145   0.897
 6664SOL    HW220892   2.244   0.006   0.981
 6665SOL     OW20893   1.742   6.690   5.359
 6665SOL    HW120894   1.751   6.593   5.336
 6665SOL    HW220895   1.794   6.745   5.294
 6666SOL     OW20896   6.148   5.245   5.674
 6666SOL    HW120897   6.174   5.227   5.579
 6666SOL    HW220898   6.157   5.161   5.727
 6667SOL     OW20899   6.798   6.674   5.733
 6667SOL    HW120900   6.827   6.723   5.650
 6667SOL    HW220901   6.700   6.656   5.729
 6668SOL     OW20902   6.359   6.110   1.122
 6668SOL    HW120903   6.313   6.194   1.095
 6668SOL    HW220904   6.298   6.057   1.181
 6669SOL     OW20905   3.346   2.115   1.392
 6669SOL    HW120906   3.329   2.203   1.437
 6669SOL    HW220907   3.433   2.078   1.423
 6670SOL     OW20908   3.683   0.893   6.021
 6670SOL    HW120909   3.664   0.809   6.073
 6670SOL    HW220910   3.706   0.870   5.927
 6671SOL     OW20911   5.727   6.846   6.928
 6671SOL    HW120912   5.787   6.775   6.965
 6671SOL    HW220913   5.771   6.936   6.938
 6672SOL     OW20914   1.057   2.891   0.108
 6672SOL    HW120915   0.982   2.956   0.109
 6672SOL    HW220916   1.110   2.898   0.193
 6673SOL     OW20917   4.890   4.076   3.590
 6673SOL    HW120918   4.872   4.013   3.514
 6673SOL    HW220919   4.806   4.090   3.643
 6674SOL     OW20920   0.815   3.436   6.970
 6674SOL    HW120921   0.878   3.476   6.903
 6674SOL    HW220922   0.731   3.409   6.924
 6675SOL     OW20923   6.131   2.530   0.264
 6675SOL    HW120924   6.124   2.610   0.323
 6675SOL    HW220925   6.228   2.511   0.244
 6676SOL     OW20926   0.540   3.290   3.137
 6676SOL    HW120927   0.613   3.289   3.205
 6676SOL    HW220928   0.452   3.299   3.184
 6677SOL     OW20929   0.621   0.789   6.655
 6677SOL    HW120930   0.626   0.876   6.607
 6677SOL    HW220931   0.685   0.724   6.614
 6678SOL     OW20932   2.601   4.670   0.792
 6678SOL    HW120933   2.651   4.657   0.877
 6678SOL    HW220934   2.614   4.590   0.733
 6679SOL     OW20935   3.830   0.958   4.075
 6679SOL    HW120936   3.794   0.876   4.120
 6679SOL    HW220937   3.930   0.952   4.069
 6680SOL     OW20938   4.279   6.493   6.714
 6680SOL    HW120939   4.216   6.562   6.749
 6680SOL    HW220940   4.371   6.511   6.750
 6681SOL     OW20941   4.785   5.556   0.834
 6681SOL    HW120942   4.703   5.609   0.812
 6681SOL    HW220943   4.799   5.486   0.763
 6682SOL     OW20944   2.251   4.868   6.807
 6682SOL    HW120945   2.300   4.857   6.893
 6682SOL    HW220946   2.285   4.950   6.760
 6683SOL     OW20947   6.149   3.224   5.670
 6683SOL    HW120948   6.129   3.266   5.758
 6683SOL    HW220949   6.083   3.257   5.602
 6684SOL     OW20950   3.982   6.663   1.975
 6684SOL    HW120951   4.040   6.702   1.903
 6684SOL    HW220952   4.025   6.581   2.012
 6685SOL     OW20953   5.007   2.627   6.159
 6685SOL    HW120954   5.096   2.669   6.176
 6685SOL    HW220955   5.019   2.529   6.143
 6686SOL     OW20956   5.513   5.981   3.723
 6686SOL    HW120957   5.589   6.038   3.695
 6686SOL    HW220958   5.532   5.939   3.811
 6687SOL     OW20959   0.688   2.939   1.840
 6687SOL    HW120960   0.619   3.000   1.880
 6687SOL    HW220961   0.643   2.855   1.809
 6688SOL     OW20962   4.227   4.712   0.260
 6688SOL    HW120963   4.180   4.748   0.340
 6688SOL    HW220964   4.317   4.678   0.286
 6689SOL     OW20965   4.494   3.574   5.954
 6689SOL    HW120966   4.468   3.657   6.004
 6689SOL    HW220967   4.444   3.570   5.868
 6690SOL     OW20968   0.805   6.659   0.842
 6690SOL    HW120969   0.775   6.574   0.799
 6690SOL    HW220970   0.854   6.639   0.926
 6691SOL     OW20971   2.089   0.388   2.739
 6691SOL    HW120972   2.072   0.446   2.660
 6691SOL    HW220973   2.063   0.436   2.823
 6692SOL     OW20974   4.053   3.859   1.901
 6692SOL    HW120975   4.096   3.880   1.989
 6692SOL    HW220976   4.094   3.775   1.864
 6693SOL     OW20977   4.255   2.215   5.009
 6693SOL    HW120978   4.223   2.301   5.051
 6693SOL    HW220979   4.303   2.161   5.077
 6694SOL     OW20980   4.345   6.685   1.420
 6694SOL    HW120981   4.418   6.692   1.488
 6694SOL    HW220982   4.272   6.750   1.442
 6695SOL     OW20983   2.635   2.255   0.001
 6695SOL    HW120984   2.546   2.212   0.013
 6695SOL    HW220985   2.660   2.254   6.926
 6696SOL     OW20986   3.886   3.025   3.764
 6696SOL    HW120987   3.889   3.041   3.863
 6696SOL    HW220988   3.910   3.110   3.716
 6697SOL     OW20989   4.746   2.089   3.176
 6697SOL    HW120990   4.828   2.060   3.225
 6697SOL    HW220991   4.671   2.026   3.196
 6698SOL     OW20992   3.150   3.122   0.686
 6698SOL    HW120993   3.078   3.192   0.674
 6698SOL    HW220994   3.138   3.051   0.617
 6699SOL     OW20995   2.279   6.757   5.505
 6699SOL    HW120996   2.246   6.725   5.416
 6699SOL    HW220997   2.368   6.716   5.525
 6700SOL     OW20998   6.622   1.269   1.180
 6700SOL    HW120999   6.615   1.364   1.210
 6700SOL    HW221000   6.579   1.259   1.090
 6701SOL     OW21001   5.360   6.162   1.870
 6701SOL    HW121002   5.290   6.215   1.821
 6701SOL    HW221003   5.410   6.223   1.931
 6702SOL     OW21004   1.890   2.465   2.110
 6702SOL    HW121005   1.982   2.506   2.113
 6702SOL    HW221006   1.836   2.500   2.186
 6703SOL     OW21007   0.778   1.079   0.236
 6703SOL    HW121008   0.812   1.173   0.227
 6703SOL    HW221009   0.833   1.019   0.178
 6704SOL     OW21010   4.046   2.180   4.308
 6704SOL    HW121011   4.127   2.188   4.367
 6704SOL    HW221012   4.074   2.147   4.218
 6705SOL     OW21013   6.086   2.860   0.991
 6705SOL    HW121014   6.102   2.895   0.898
 6705SOL    HW221015   6.045   2.769   0.986
 6706SOL     OW21016   1.326   5.666   0.608
 6706SOL    HW121017   1.335   5.604   0.686
 6706SOL    HW221018   1.374   5.751   0.627
 6707SOL     OW21019   5.313   6.504   3.473
 6707SOL    HW121020   5.280   6.444   3.400
 6707SOL    HW221021   5.412   6.517   3.463
 6708SOL     OW21022   5.501   5.470   1.225
 6708SOL    HW121023   5.466   5.402   1.162
 6708SOL    HW221024   5.530   5.425   1.310
 6709SOL     OW21025   0.614   5.421   3.239
 6709SOL    HW121026   0.611   5.369   3.154
 6709SOL    HW221027   0.656   5.510   3.222
 6710SOL     OW21028   4.600   0.885   6.896
 6710SOL    HW121029   4.524   0.942   6.865
 6710SOL    HW221030   4.564   0.804   6.942
 6711SOL     OW21031   4.623   6.550   5.901
 6711SOL    HW121032   4.720   6.540   5.877
 6711SOL    HW221033   4.587   6.634   5.860
 6712SOL     OW21034   5.923   3.327   1.349
 6712SOL    HW121035   5.932   3.227   1.348
 6712SOL    HW221036   5.984   3.365   1.417
 6713SOL     OW21037   1.304   0.707   3.174
 6713SOL    HW121038   1.250   0.662   3.103
 6713SOL    HW221039   1.367   0.641   3.215
 6714SOL     OW21040   5.947   1.499   0.587
 6714SOL    HW121041   5.864   1.496   0.531
 6714SOL    HW221042   5.924   1.534   0.678
 6715SOL     OW21043   1.376   0.325   1.309
 6715SOL    HW121044   1.307   0.329   1.381
 6715SOL    HW221045   1.356   0.250   1.247
 6716SOL     OW21046   0.868   5.665   2.173
 6716SOL    HW121047   0.838   5.645   2.266
 6716SOL    HW221048   0.821   5.747   2.140
 6717SOL     OW21049   2.299   2.002   6.697
 6717SOL    HW121050   2.283   2.073   6.766
 6717SOL    HW221051   2.214   1.953   6.678
 6718SOL     OW21052   4.858   0.122   0.778
 6718SOL    HW121053   4.795   0.108   0.854
 6718SOL    HW221054   4.899   0.034   0.752
 6719SOL     OW21055   2.536   0.047   0.239
 6719SOL    HW121056   2.558   0.124   0.299
 6719SOL    HW221057   2.481   0.079   0.162
 6720SOL     OW21058   2.389   0.896   3.919
 6720SOL    HW121059   2.416   0.943   3.836
 6720SOL    HW221060   2.318   0.950   3.966
 6721SOL     OW21061   6.808   6.511   0.864
 6721SOL    HW121062   6.793   6.596   0.812
 6721SOL    HW221063   6.869   6.451   0.812
 6722SOL     OW21064   0.091   3.004   0.161
 6722SOL    HW121065   0.129   3.038   0.247
 6722SOL    HW221066   0.014   3.062   0.134
 6723SOL     OW21067   1.475   6.723   5.280
 6723SOL    HW121068   1.497   6.756   5.188
 6723SOL    HW221069   1.559   6.719   5.335
 6724SOL     OW21070   2.164   2.622   6.443
 6724SOL    HW121071   2.077   2.590   6.407
 6724SOL    HW221072   2.152   2.711   6.486
 6725SOL     OW21073   6.960   2.035   2.547
 6725SOL    HW121074   7.012   1.950   2.551
 6725SOL    HW221075   0.002   2.112   2.533
 6726SOL     OW21076   0.394   2.477   4.046
 6726SOL    HW121077   0.402   2.404   3.979
 6726SOL    HW221078   0.418   2.564   4.003
 6727SOL     OW21079   0.063   4.468   5.925
 6727SOL    HW121080   0.014   4.470   5.838
 6727SOL    HW221081   0.100   4.558   5.945
 6728SOL     OW21082   4.042   1.822   2.548
 6728SOL    HW121083   4.032   1.919   2.567
 6728SOL    HW221084   4.011   1.804   2.454
 6729SOL     OW21085   0.137   1.542   0.561
 6729SOL    HW121086   0.067   1.585   0.618
 6729SOL    HW221087   0.189   1.476   0.616
 6730SOL     OW21088   1.929   0.197   0.960
 6730SOL    HW121089   1.906   0.241   1.047
 6730SOL    HW221090   2.019   0.154   0.967
 6731SOL     OW21091   1.484   6.849   0.791
 6731SOL    HW121092   1.559   6.791   0.825
 6731SOL    HW221093   1.514   6.897   0.709
 6732SOL     OW21094   5.430   4.707   4.632
 6732SOL    HW121095   5.360   4.650   4.675
 6732SOL    HW221096   5.511   4.710   4.691
 6733SOL     OW21097   3.781   5.548   6.125
 6733SOL    HW121098   3.762   5.500   6.210
 6733SOL    HW221099   3.866   5.600   6.134
 6734SOL     OW21100   5.783   2.198   5.691
 6734SOL    HW121101   5.732   2.216   5.607
 6734SOL    HW221102   5.868   2.250   5.690
 6735SOL     OW21103   5.702   3.526   4.462
 6735SOL    HW121104   5.615   3.509   4.416
 6735SOL    HW221105   5.733   3.619   4.442
 6736SOL     OW21106   3.243   3.884   6.070
 6736SOL    HW121107   3.164   3.836   6.032
 6736SOL    HW221108   3.216   3.976   6.099
 6737SOL     OW21109   1.534   3.283   1.029
 6737SOL    HW121110   1.571   3.278   0.936
 6737SOL    HW221111   1.437   3.305   1.026
 6738SOL     OW21112   1.939   5.570   4.177
 6738SOL    HW121113   1.865   5.626   4.213
 6738SOL    HW221114   2.012   5.564   4.245
 6739SOL     OW21115   5.923   5.954   4.044
 6739SOL    HW121116   5.897   5.895   4.120
 6739SOL    HW221117   6.019   5.980   4.052
 6740SOL     OW21118   6.387   0.743   5.631
 6740SOL    HW121119   6.303   0.727   5.683
 6740SOL    HW221120   6.370   0.808   5.558
 6741SOL     OW21121   3.615   2.263   5.490
 6741SOL    HW121122   3.524   2.260   5.449
 6741SOL    HW221123   3.679   2.210   5.434
 6742SOL     OW21124   5.467   5.509   3.542
 6742SOL    HW121125   5.369   5.515   3.525
 6742SOL    HW221126   5.517   5.533   3.459
 6743SOL     OW21127   3.807   4.051   6.198
 6743SOL    HW121128   3.800   4.149   6.218
 6743SOL    HW221129   3.787   4.035   6.101
 6744SOL     OW21130   0.282   6.276   5.152
 6744SOL    HW121131   0.262   6.338   5.075
 6744SOL    HW221132   0.372   6.235   5.138
 6745SOL     OW21133   6.631   6.076   3.732
 6745SOL    HW121134   6.656   6.056   3.637
 6745SOL    HW221135   6.703   6.044   3.793
 6746SOL     OW21136   1.139   0.092   3.544
 6746SOL    HW121137   1.219   0.055   3.498
 6746SOL    HW221138   1.071   0.020   3.556
 6747SOL     OW21139   5.756   0.379   0.072
 6747SOL    HW121140   5.843   0.336   0.096
 6747SOL    HW221141   5.759   0.477   0.096
 6748SOL     OW21142   3.586   1.784   3.058
 6748SOL    HW121143   3.681   1.784   3.090
 6748SOL    HW221144   3.527   1.823   3.129
 6749SOL     OW21145   3.898   4.316   0.898
 6749SOL    HW121146   3.966   4.272   0.840
 6749SOL    HW221147   3.893   4.414   0.876
 6750SOL     OW21148   3.327   1.676   4.334
 6750SOL    HW121149   3.252   1.737   4.308
 6750SOL    HW221150   3.410   1.704   4.286
 6751SOL     OW21151   4.989   0.668   3.349
 6751SOL    HW121152   5.072   0.709   3.388
 6751SOL    HW221153   4.910   0.695   3.404
 6752SOL     OW21154   2.207   0.234   2.557
 6752SOL    HW121155   2.285   0.296   2.564
 6752SOL    HW221156   2.131   0.269   2.612
 6753SOL     OW21157   3.644   1.467   6.207
 6753SOL    HW121158   3.717   1.451   6.274
 6753SOL    HW221159   3.561   1.496   6.254
 6754SOL     OW21160   6.722   0.576   0.836
 6754SOL    HW121161   6.725   0.476   0.841
 6754SOL    HW221162   6.675   0.604   0.753
 6755SOL     OW21163   3.978   3.672   1.386
 6755SOL    HW121164   3.987   3.735   1.464
 6755SOL    HW221165   4.045   3.599   1.394
 6756SOL     OW21166   4.048   6.320   5.466
 6756SOL    HW121167   3.974   6.386   5.470
 6756SOL    HW221168   4.012   6.228   5.482
 6757SOL     OW21169   3.440   2.355   0.339
 6757SOL    HW121170   3.461   2.414   0.417
 6757SOL    HW221171   3.478   2.264   0.356
 6758SOL     OW21172   6.150   3.274   1.752
 6758SOL    HW121173   6.081   3.243   1.817
 6758SOL    HW221174   6.144   3.219   1.668
 6759SOL     OW21175   0.485   3.519   2.690
 6759SOL    HW121176   0.457   3.575   2.613
 6759SOL    HW221177   0.425   3.439   2.697
 6760SOL     OW21178   6.666   3.647   2.312
 6760SOL    HW121179   6.745   3.647   2.251
 6760SOL    HW221180   6.651   3.554   2.346
 6761SOL     OW21181   6.275   2.640   4.699
 6761SOL    HW121182   6.261   2.697   4.617
 6761SOL    HW221183   6.270   2.544   4.673
 6762SOL     OW21184   0.533   4.828   3.960
 6762SOL    HW121185   0.487   4.785   4.038
 6762SOL    HW221186   0.569   4.757   3.899
 6763SOL     OW21187   5.980   5.163   3.888
 6763SOL    HW121188   5.972   5.151   3.987
 6763SOL    HW221189   6.062   5.216   3.867
 6764SOL     OW21190   2.636   5.529   1.563
 6764SOL    HW121191   2.597   5.535   1.471
 6764SOL    HW221192   2.732   5.502   1.558
 6765SOL     OW21193   5.594   4.943   3.089
 6765SOL    HW121194   5.627   5.037   3.078
 6765SOL    HW221195   5.672   4.882   3.105
 6766SOL     OW21196   5.623   6.655   5.547
 6766SOL    HW121197   5.557   6.727   5.566
 6766SOL    HW221198   5.659   6.619   5.632
 6767SOL     OW21199   2.945   0.567   1.756
 6767SOL    HW121200   2.875   0.637   1.744
 6767SOL    HW221201   2.950   0.510   1.673
 6768SOL     OW21202   2.240   0.597   5.398
 6768SOL    HW121203   2.293   0.513   5.403
 6768SOL    HW221204   2.206   0.610   5.305
 6769SOL     OW21205   3.761   1.120   0.636
 6769SOL    HW121206   3.772   1.215   0.606
 6769SOL    HW221207   3.815   1.104   0.719
 6770SOL     OW21208   6.855   0.526   2.386
 6770SOL    HW121209   6.946   0.565   2.372
 6770SOL    HW221210   6.846   0.441   2.335
 6771SOL     OW21211   5.314   2.514   3.344
 6771SOL    HW121212   5.242   2.485   3.406
 6771SOL    HW221213   5.349   2.603   3.373
 6772SOL     OW21214   3.812   1.875   3.174
 6772SOL    HW121215   3.825   1.908   3.268
 6772SOL    HW221216   3.824   1.951   3.110
 6773SOL     OW21217   6.472   5.263   2.559
 6773SOL    HW121218   6.488   5.241   2.655
 6773SOL    HW221219   6.446   5.359   2.551
 6774SOL     OW21220   1.014   2.589   5.804
 6774SOL    HW121221   1.100   2.555   5.842
 6774SOL    HW221222   1.033   2.660   5.737
 6775SOL     OW21223   2.439   2.514   1.696
 6775SOL    HW121224   2.534   2.509   1.724
 6775SOL    HW221225   2.414   2.609   1.677
 6776SOL     OW21226   4.627   5.327   0.307
 6776SOL    HW121227   4.609   5.243   0.255
 6776SOL    HW221228   4.726   5.339   0.317
 6777SOL     OW21229   4.506   4.558   0.272
 6777SOL    HW121230   4.502   4.459   0.282
 6777SOL    HW221231   4.497   4.583   0.176
 6778SOL     OW21232   5.927   5.008   1.823
 6778SOL    HW121233   6.023   4.992   1.845
 6778SOL    HW221234   5.916   5.104   1.795
 6779SOL     OW21235   6.194   5.480   6.631
 6779SOL    HW121236   6.199   5.434   6.543
 6779SOL    HW221237   6.271   5.454   6.688
 6780SOL     OW21238   1.381   3.025   2.058
 6780SOL    HW121239   1.442   3.084   2.005
 6780SOL    HW221240   1.396   2.930   2.032
 6781SOL     OW21241   6.515   1.128   4.395
 6781SOL    HW121242   6.583   1.057   4.377
 6781SOL    HW221243   6.423   1.088   4.392
 6782SOL     OW21244   6.920   0.612   3.688
 6782SOL    HW121245   6.844   0.554   3.716
 6782SOL    HW221246   6.892   0.670   3.612
 6783SOL     OW21247   6.479   2.143   5.791
 6783SOL    HW121248   6.383   2.125   5.769
 6783SOL    HW221249   6.501   2.101   5.879
 6784SOL     OW21250   2.341   3.571   1.039
 6784SOL    HW121251   2.258   3.586   0.984
 6784SOL    HW221252   2.417   3.621   0.998
 6785SOL     OW21253   5.651   5.001   3.427
 6785SOL    HW121254   5.633   5.041   3.337
 6785SOL    HW221255   5.749   4.987   3.438
 6786SOL     OW21256   1.873   1.986   0.059
 6786SOL    HW121257   1.883   2.054   0.132
 6786SOL    HW221258   1.923   2.017   7.000
 6787SOL     OW21259   1.539   2.720   1.394
 6787SOL    HW121260   1.491   2.655   1.453
 6787SOL    HW221261   1.637   2.700   1.396
 6788SOL     OW21262   2.403   4.572   1.209
 6788SOL    HW121263   2.474   4.517   1.166
 6788SOL    HW221264   2.380   4.532   1.298
 6789SOL     OW21265   6.775   5.442   3.579
 6789SOL    HW121266   6.765   5.403   3.488
 6789SOL    HW221267   6.697   5.501   3.599
 6790SOL     OW21268   0.798   4.028   1.587
 6790SOL    HW121269   0.808   3.930   1.600
 6790SOL    HW221270   0.781   4.072   1.675
 6791SOL     OW21271   3.555   2.247   1.236
 6791SOL    HW121272   3.458   2.247   1.261
 6791SOL    HW221273   3.608   2.204   1.309
 6792SOL     OW21274   6.343   5.932   5.034
 6792SOL    HW121275   6.364   5.877   5.115
 6792SOL    HW221276   6.346   5.874   4.953
 6793SOL     OW21277   1.206   1.989   1.140
 6793SOL    HW121278   1.125   2.042   1.167
 6793SOL    HW221279   1.182   1.929   1.064
 6794SOL     OW21280   4.984   1.754   6.066
 6794SOL    HW121281   5.083   1.741   6.079
 6794SOL    HW221282   4.955   1.835   6.116
 6795SOL     OW21283   2.363   6.798   1.588
 6795SOL    HW121284   2.336   6.704   1.568
 6795SOL    HW221285   2.324   6.827   1.675
 6796SOL     OW21286   6.379   0.934   2.115
 6796SOL    HW121287   6.355   0.962   2.021
 6796SOL    HW221288   6.443   0.857   2.111
 6797SOL     OW21289   5.877   2.478   1.974
 6797SOL    HW121290   5.919   2.520   1.894
 6797SOL    HW221291   5.810   2.410   1.945
 6798SOL     OW21292   4.836   6.937   1.887
 6798SOL    HW121293   4.806   0.009   1.875
 6798SOL    HW221294   4.935   6.934   1.901
 6799SOL     OW21295   6.229   6.255   1.416
 6799SOL    HW121296   6.217   6.163   1.378
 6799SOL    HW221297   6.155   6.274   1.480
 6800SOL     OW21298   1.666   3.709   1.646
 6800SOL    HW121299   1.716   3.793   1.671
 6800SOL    HW221300   1.724   3.653   1.587
 6801SOL     OW21301   0.579   0.032   2.993
 6801SOL    HW121302   0.529   0.074   2.917
 6801SOL    HW221303   0.663   0.083   3.010
 6802SOL     OW21304   3.468   5.750   0.624
 6802SOL    HW121305   3.482   5.707   0.535
 6802SOL    HW221306   3.555   5.782   0.660
 6803SOL     OW21307   5.236   3.159   6.253
 6803SOL    HW121308   5.267   3.213   6.175
 6803SOL    HW221309   5.270   3.200   6.338
 6804SOL     OW21310   3.606   5.138   3.548
 6804SOL    HW121311   3.634   5.221   3.595
 6804SOL    HW221312   3.523   5.102   3.590
 6805SOL     OW21313   6.661   4.723   6.382
 6805SOL    HW121314   6.688   4.637   6.341
 6805SOL    HW221315   6.568   4.747   6.353
 6806SOL     OW21316   5.842   0.423   4.134
 6806SOL    HW121317   5.791   0.490   4.080
 6806SOL    HW221318   5.789   0.396   4.214
 6807SOL     OW21319   3.366   3.190   0.245
 6807SOL    HW121320   3.270   3.216   0.256
 6807SOL    HW221321   3.375   3.121   0.174
 6808SOL     OW21322   6.748   1.836   4.829
 6808SOL    HW121323   6.731   1.930   4.799
 6808SOL    HW221324   6.784   1.837   4.922
 6809SOL     OW21325   1.175   3.140   1.448
 6809SOL    HW121326   1.110   3.104   1.381
 6809SOL    HW221327   1.242   3.198   1.402
 6810SOL     OW21328   2.028   0.557   2.519
 6810SOL    HW121329   1.973   0.613   2.582
 6810SOL    HW221330   1.975   0.538   2.436
 6811SOL     OW21331   6.177   3.677   0.830
 6811SOL    HW121332   6.180   3.760   0.774
 6811SOL    HW221333   6.092   3.627   0.811
 6812SOL     OW21334   3.233   3.547   3.274
 6812SOL    HW121335   3.194   3.637   3.256
 6812SOL    HW221336   3.304   3.527   3.207
 6813SOL     OW21337   5.006   2.310   2.501
 6813SOL    HW121338   4.919   2.326   2.454
 6813SOL    HW221339   4.991   2.309   2.599
 6814SOL     OW21340   3.225   1.440   5.791
 6814SOL    HW121341   3.221   1.526   5.740
 6814SOL    HW221342   3.254   1.367   5.730
 6815SOL     OW21343   3.248   6.998   1.467
 6815SOL    HW121344   3.323   6.933   1.479
 6815SOL    HW221345   3.241   0.034   1.549
 6816SOL     OW21346   0.339   0.015   7.017
 6816SOL    HW121347   0.253   0.015   0.047
 6816SOL    HW221348   0.319   0.027   6.920
 6817SOL     OW21349   1.855   2.499   3.218
 6817SOL    HW121350   1.927   2.534   3.278
 6817SOL    HW221351   1.890   2.420   3.167
 6818SOL     OW21352   3.291   5.428   2.240
 6818SOL    HW121353   3.386   5.427   2.270
 6818SOL    HW221354   3.246   5.510   2.275
 6819SOL     OW21355   5.393   0.889   4.239
 6819SOL    HW121356   5.466   0.951   4.266
 6819SOL    HW221357   5.318   0.940   4.197
 6820SOL     OW21358   2.394   5.859   2.695
 6820SOL    HW121359   2.357   5.879   2.604
 6820SOL    HW221360   2.469   5.794   2.687
 6821SOL     OW21361   3.962   1.755   4.388
 6821SOL    HW121362   4.034   1.722   4.326
 6821SOL    HW221363   3.910   1.677   4.423
 6822SOL     OW21364   5.867   2.486   6.873
 6822SOL    HW121365   5.783   2.445   6.837
 6822SOL    HW221366   5.885   2.448   6.964
 6823SOL     OW21367   3.864   3.063   4.804
 6823SOL    HW121368   3.781   3.024   4.766
 6823SOL    HW221369   3.943   3.035   4.748
 6824SOL     OW21370   0.907   2.189   6.481
 6824SOL    HW121371   0.884   2.286   6.488
 6824SOL    HW221372   0.963   2.162   6.559
 6825SOL     OW21373   5.351   6.876   2.191
 6825SOL    HW121374   5.330   6.871   2.289
 6825SOL    HW221375   5.359   6.784   2.153
 6826SOL     OW21376   1.963   3.914   2.689
 6826SOL    HW121377   1.941   3.967   2.771
 6826SOL    HW221378   2.024   3.839   2.712
 6827SOL     OW21379   4.423   5.477   6.200
 6827SOL    HW121380   4.338   5.485   6.149
 6827SOL    HW221381   4.451   5.381   6.202
 6828SOL     OW21382   2.723   2.063   1.478
 6828SOL    HW121383   2.796   2.006   1.438
 6828SOL    HW221384   2.668   2.103   1.404
 6829SOL     OW21385   4.404   6.695   4.078
 6829SOL    HW121386   4.428   6.771   4.138
 6829SOL    HW221387   4.435   6.609   4.118
 6830SOL     OW21388   5.152   1.050   4.159
 6830SOL    HW121389   5.064   1.005   4.150
 6830SOL    HW221390   5.147   1.143   4.121
 6831SOL     OW21391   1.643   1.035   6.930
 6831SOL    HW121392   1.707   1.087   6.987
 6831SOL    HW221393   1.625   0.946   6.973
 6832SOL     OW21394   2.652   4.350   1.204
 6832SOL    HW121395   2.617   4.272   1.257
 6832SOL    HW221396   2.710   4.407   1.263
 6833SOL     OW21397   4.081   4.265   6.408
 6833SOL    HW121398   4.098   4.359   6.436
 6833SOL    HW221399   4.164   4.226   6.370
 6834SOL     OW21400   5.233   6.481   0.785
 6834SOL    HW121401   5.164   6.416   0.816
 6834SOL    HW221402   5.294   6.436   0.720
 6835SOL     OW21403   3.671   0.049   3.862
 6835SOL    HW121404   3.771   0.052   3.871
 6835SOL    HW221405   3.647   0.007   3.774
 6836SOL     OW21406   2.643   5.427   0.087
 6836SOL    HW121407   2.572   5.495   0.072
 6836SOL    HW221408   2.650   5.407   0.184
 6837SOL     OW21409   0.927   2.017   2.607
 6837SOL    HW121410   1.025   2.035   2.602
 6837SOL    HW221411   0.891   1.999   2.516
 6838SOL     OW21412   3.034   6.299   0.363
 6838SOL    HW121413   3.115   6.256   0.402
 6838SOL    HW221414   2.994   6.362   0.429
 6839SOL     OW21415   5.106   0.737   0.029
 6839SOL    HW121416   5.174   0.753   0.100
 6839SOL    HW221417   5.095   0.638   0.015
 6840SOL     OW21418   3.303   1.239   4.776
 6840SOL    HW121419   3.400   1.238   4.797
 6840SOL    HW221420   3.251   1.202   4.853
 6841SOL     OW21421   4.803   4.150   6.770
 6841SOL    HW121422   4.817   4.204   6.852
 6841SOL    HW221423   4.875   4.081   6.763
 6842SOL     OW21424   2.544   4.050   0.977
 6842SOL    HW121425   2.448   4.022   0.978
 6842SOL    HW221426   2.597   3.991   1.038
 6843SOL     OW21427   6.204   6.803   0.880
 6843SOL    HW121428   6.161   6.717   0.907
 6843SOL    HW221429   6.133   6.873   0.869
 6844SOL     OW21430   5.450   0.529   4.200
 6844SOL    HW121431   5.458   0.595   4.125
 6844SOL    HW221432   5.541   0.496   4.226
 6845SOL     OW21433   6.271   3.623   3.216
 6845SOL    HW121434   6.286   3.561   3.139
 6845SOL    HW221435   6.172   3.630   3.234
 6846SOL     OW21436   3.871   3.206   0.378
 6846SOL    HW121437   3.816   3.266   0.435
 6846SOL    HW221438   3.846   3.111   0.396
 6847SOL     OW21439   0.049   3.857   4.766
 6847SOL    HW121440   0.005   3.781   4.813
 6847SOL    HW221441   0.060   3.934   4.830
 6848SOL     OW21442   4.893   4.967   3.472
 6848SOL    HW121443   4.842   4.970   3.557
 6848SOL    HW221444   4.866   4.887   3.419
 6849SOL     OW21445   4.914   4.053   5.304
 6849SOL    HW121446   4.916   3.958   5.273
 6849SOL    HW221447   4.913   4.114   5.225
 6850SOL     OW21448   5.527   3.217   2.882
 6850SOL    HW121449   5.503   3.236   2.787
 6850SOL    HW221450   5.516   3.300   2.936
 6851SOL     OW21451   6.911   2.219   3.454
 6851SOL    HW121452   6.874   2.250   3.367
 6851SOL    HW221453   7.004   2.253   3.465
 6852SOL     OW21454   2.657   4.750   1.533
 6852SOL    HW121455   2.732   4.803   1.573
 6852SOL    HW221456   2.586   4.812   1.500
 6853SOL     OW21457   5.543   4.671   6.925
 6853SOL    HW121458   5.562   4.705   7.017
 6853SOL    HW221459   5.552   4.572   6.924
 6854SOL     OW21460   5.061   0.688   5.480
 6854SOL    HW121461   4.971   0.679   5.437
 6854SOL    HW221462   5.052   0.744   5.563
 6855SOL     OW21463   4.061   6.407   4.097
 6855SOL    HW121464   4.114   6.448   4.023
 6855SOL    HW221465   4.089   6.312   4.111
 6856SOL     OW21466   0.104   2.354   5.022
 6856SOL    HW121467   0.191   2.402   5.028
 6856SOL    HW221468   0.050   2.391   4.947
 6857SOL     OW21469   1.469   2.779   6.580
 6857SOL    HW121470   1.552   2.755   6.529
 6857SOL    HW221471   1.482   2.755   6.677
 6858SOL     OW21472   3.916   4.063   1.750
 6858SOL    HW121473   3.958   4.030   1.834
 6858SOL    HW221474   3.833   4.011   1.732
 6859SOL     OW21475   1.233   1.092   1.556
 6859SOL    HW121476   1.222   1.190   1.577
 6859SOL    HW221477   1.144   1.047   1.562
 6860SOL     OW21478   0.391   4.898   1.165
 6860SOL    HW121479   0.467   4.913   1.102
 6860SOL    HW221480   0.412   4.819   1.223
 6861SOL     OW21481   4.874   3.736   6.788
 6861SOL    HW121482   4.859   3.806   6.858
 6861SOL    HW221483   4.853   3.774   6.698
 6862SOL     OW21484   0.868   5.554   5.513
 6862SOL    HW121485   0.900   5.642   5.476
 6862SOL    HW221486   0.920   5.480   5.471
 6863SOL     OW21487   6.236   6.471   6.186
 6863SOL    HW121488   6.246   6.372   6.202
 6863SOL    HW221489   6.312   6.503   6.131
 6864SOL     OW21490   2.449   4.697   5.162
 6864SOL    HW121491   2.450   4.701   5.062
 6864SOL    HW221492   2.504   4.619   5.193
 6865SOL     OW21493   0.491   6.583   4.428
 6865SOL    HW121494   0.482   6.681   4.414
 6865SOL    HW221495   0.409   6.548   4.473
 6866SOL     OW21496   5.558   5.498   2.990
 6866SOL    HW121497   5.598   5.434   2.924
 6866SOL    HW221498   5.561   5.590   2.953
 6867SOL     OW21499   2.083   3.713   2.076
 6867SOL    HW121500   2.110   3.627   2.033
 6867SOL    HW221501   2.156   3.780   2.065
 6868SOL     OW21502   1.875   6.532   6.304
 6868SOL    HW121503   1.925   6.453   6.268
 6868SOL    HW221504   1.911   6.556   6.393
 6869SOL     OW21505   4.913   0.744   5.988
 6869SOL    HW121506   4.948   0.685   6.061
 6869SOL    HW221507   4.924   0.698   5.900
 6870SOL     OW21508   0.263   4.489   0.975
 6870SOL    HW121509   0.237   4.507   0.880
 6870SOL    HW221510   0.362   4.481   0.982
 6871SOL     OW21511   5.974   4.399   2.917
 6871SOL    HW121512   5.884   4.438   2.896
 6871SOL    HW221513   5.977   4.304   2.887
 6872SOL     OW21514   0.292   2.507   1.699
 6872SOL    HW121515   0.226   2.558   1.644
 6872SOL    HW221516   0.248   2.426   1.737
 6873SOL     OW21517   0.179   3.274   4.375
 6873SOL    HW121518   0.256   3.225   4.415
 6873SOL    HW221519   0.153   3.231   4.289
 6874SOL     OW21520   6.991   4.758   3.255
 6874SOL    HW121521   6.980   4.833   3.190
 6874SOL    HW221522   6.961   4.787   3.345
 6875SOL     OW21523   2.079   2.095   2.578
 6875SOL    HW121524   2.046   2.157   2.506
 6875SOL    HW221525   2.110   2.010   2.537
 6876SOL     OW21526   4.252   0.093   3.574
 6876SOL    HW121527   4.341   0.046   3.574
 6876SOL    HW221528   4.195   0.055   3.646
 6877SOL     OW21529   3.069   4.453   1.400
 6877SOL    HW121530   3.149   4.408   1.359
 6877SOL    HW221531   3.047   4.409   1.486
 6878SOL     OW21532   3.382   1.590   3.928
 6878SOL    HW121533   3.474   1.594   3.967
 6878SOL    HW221534   3.328   1.521   3.977
 6879SOL     OW21535   2.002   2.922   0.481
 6879SOL    HW121536   2.039   2.900   0.391
 6879SOL    HW221537   1.992   2.838   0.534
 6880SOL     OW21538   1.293   5.856   5.509
 6880SOL    HW121539   1.327   5.915   5.435
 6880SOL    HW221540   1.256   5.914   5.582
 6881SOL     OW21541   1.146   3.891   1.582
 6881SOL    HW121542   1.109   3.924   1.669
 6881SOL    HW221543   1.212   3.957   1.547
 6882SOL     OW21544   2.838   0.468   0.447
 6882SOL    HW121545   2.824   0.548   0.506
 6882SOL    HW221546   2.823   0.495   0.352
 6883SOL     OW21547   5.253   2.126   0.332
 6883SOL    HW121548   5.235   2.110   0.235
 6883SOL    HW221549   5.171   2.165   0.376
 6884SOL     OW21550   1.057   4.159   3.213
 6884SOL    HW121551   1.033   4.166   3.117
 6884SOL    HW221552   1.008   4.228   3.266
 6885SOL     OW21553   4.723   4.763   3.352
 6885SOL    HW121554   4.685   4.672   3.369
 6885SOL    HW221555   4.650   4.825   3.323
 6886SOL     OW21556   6.871   1.021   4.476
 6886SOL    HW121557   6.937   0.946   4.483
 6886SOL    HW221558   6.797   0.994   4.415
 6887SOL     OW21559   4.665   5.642   6.602
 6887SOL    HW121560   4.695   5.699   6.678
 6887SOL    HW221561   4.710   5.553   6.606
 6888SOL     OW21562   5.318   5.315   6.504
 6888SOL    HW121563   5.376   5.259   6.563
 6888SOL    HW221564   5.222   5.290   6.519
 6889SOL     OW21565   1.468   2.659   6.256
 6889SOL    HW121566   1.396   2.617   6.312
 6889SOL    HW221567   1.555   2.654   6.304
 6890SOL     OW21568   4.091   6.427   2.203
 6890SOL    HW121569   4.187   6.453   2.212
 6890SOL    HW221570   4.037   6.469   2.276
 6891SOL     OW21571   1.987   4.393   1.520
 6891SOL    HW121572   1.952   4.313   1.570
 6891SOL    HW221573   1.961   4.477   1.568
 6892SOL     OW21574   3.809   2.038   4.075
 6892SOL    HW121575   3.765   1.995   4.154
 6892SOL    HW221576   3.901   2.068   4.100
 6893SOL     OW21577   4.755   3.888   0.004
 6893SOL    HW121578   4.833   3.938   0.041
 6893SOL    HW221579   4.675   3.948   0.004
 6894SOL     OW21580   6.068   4.795   1.388
 6894SOL    HW121581   6.045   4.702   1.359
 6894SOL    HW221582   6.030   4.861   1.323
 6895SOL     OW21583   2.100   5.035   1.426
 6895SOL    HW121584   2.035   4.997   1.360
 6895SOL    HW221585   2.124   4.965   1.493
 6896SOL     OW21586   3.214   1.809   3.855
 6896SOL    HW121587   3.284   1.762   3.909
 6896SOL    HW221588   3.244   1.813   3.760
 6897SOL     OW21589   4.877   3.704   4.692
 6897SOL    HW121590   4.787   3.731   4.659
 6897SOL    HW221591   4.877   3.704   4.792
 6898SOL     OW21592   4.007   1.607   1.244
 6898SOL    HW121593   3.916   1.596   1.283
 6898SOL    HW221594   4.035   1.703   1.250
 6899SOL     OW21595   4.461   6.091   2.046
 6899SOL    HW121596   4.500   6.155   2.112
 6899SOL    HW221597   4.490   6.115   1.954
 6900SOL     OW21598   6.502   5.163   4.752
 6900SOL    HW121599   6.594   5.141   4.720
 6900SOL    HW221600   6.435   5.118   4.693
 6901SOL     OW21601   5.994   6.348   6.363
 6901SOL    HW121602   6.058   6.326   6.290
 6901SOL    HW221603   5.932   6.272   6.379
 6902SOL     OW21604   6.419   5.620   5.905
 6902SOL    HW121605   6.389   5.532   5.867
 6902SOL    HW221606   6.345   5.686   5.896
 6903SOL     OW21607   3.337   4.977   5.097
 6903SOL    HW121608   3.360   5.053   5.036
 6903SOL    HW221609   3.240   4.955   5.088
 6904SOL     OW21610   5.975   0.430   5.909
 6904SOL    HW121611   6.017   0.342   5.931
 6904SOL    HW221612   5.968   0.485   5.993
 6905SOL     OW21613   5.501   5.942   6.787
 6905SOL    HW121614   5.493   5.977   6.694
 6905SOL    HW221615   5.596   5.917   6.805
 6906SOL     OW21616   3.753   1.314   3.801
 6906SOL    HW121617   3.792   1.301   3.892
 6906SOL    HW221618   3.742   1.412   3.782
 6907SOL     OW21619   5.918   2.550   1.425
 6907SOL    HW121620   5.862   2.469   1.437
 6907SOL    HW221621   5.994   2.549   1.491
 6908SOL     OW21622   1.953   5.932   6.381
 6908SOL    HW121623   1.934   5.844   6.425
 6908SOL    HW221624   1.874   5.959   6.326
 6909SOL     OW21625   5.093   3.827   0.659
 6909SOL    HW121626   5.118   3.896   0.727
 6909SOL    HW221627   4.998   3.843   0.629
 6910SOL     OW21628   1.289   3.436   3.177
 6910SOL    HW121629   1.272   3.356   3.235
 6910SOL    HW221630   1.321   3.512   3.233
 6911SOL     OW21631   4.217   6.888   3.803
 6911SOL    HW121632   4.295   6.936   3.843
 6911SOL    HW221633   4.248   6.800   3.765
 6912SOL     OW21634   2.854   3.362   5.915
 6912SOL    HW121635   2.880   3.432   5.981
 6912SOL    HW221636   2.778   3.308   5.951
 6913SOL     OW21637   5.706   6.175   4.645
 6913SOL    HW121638   5.699   6.143   4.739
 6913SOL    HW221639   5.761   6.258   4.641
 6914SOL     OW21640   5.393   4.610   3.850
 6914SOL    HW121641   5.305   4.587   3.890
 6914SOL    HW221642   5.466   4.585   3.913
 6915SOL     OW21643   6.962   2.672   1.995
 6915SOL    HW121644   6.959   2.675   2.095
 6915SOL    HW221645   0.004   2.601   1.967
 6916SOL     OW21646   5.551   1.221   0.547
 6916SOL    HW121647   5.541   1.192   0.452
 6916SOL    HW221648   5.465   1.205   0.596
 6917SOL     OW21649   4.194   6.662   0.980
 6917SOL    HW121650   4.251   6.732   1.023
 6917SOL    HW221651   4.249   6.579   0.965
 6918SOL     OW21652   0.412   2.632   4.599
 6918SOL    HW121653   0.432   2.569   4.524
 6918SOL    HW221654   0.313   2.645   4.607
 6919SOL     OW21655   5.639   5.447   4.459
 6919SOL    HW121656   5.621   5.523   4.522
 6919SOL    HW221657   5.726   5.405   4.483
 6920SOL     OW21658   4.661   6.935   5.576
 6920SOL    HW121659   4.671   6.879   5.494
 6920SOL    HW221660   4.625   0.003   5.551
 6921SOL     OW21661   4.216   6.182   3.843
 6921SOL    HW121662   4.230   6.281   3.852
 6921SOL    HW221663   4.130   6.165   3.795
 6922SOL     OW21664   1.768   5.960   5.733
 6922SOL    HW121665   1.846   5.910   5.695
 6922SOL    HW221666   1.683   5.916   5.705
 6923SOL     OW21667   4.947   5.555   2.278
 6923SOL    HW121668   5.036   5.577   2.238
 6923SOL    HW221669   4.920   5.462   2.252
 6924SOL     OW21670   2.140   4.712   0.164
 6924SOL    HW121671   2.195   4.670   0.237
 6924SOL    HW221672   2.086   4.642   0.118
 6925SOL     OW21673   5.008   5.853   4.428
 6925SOL    HW121674   5.057   5.839   4.514
 6925SOL    HW221675   4.980   5.764   4.391
 6926SOL     OW21676   2.610   2.435   0.743
 6926SOL    HW121677   2.621   2.454   0.840
 6926SOL    HW221678   2.685   2.377   0.711
 6927SOL     OW21679   3.669   2.795   5.931
 6927SOL    HW121680   3.743   2.847   5.973
 6927SOL    HW221681   3.666   2.703   5.971
 6928SOL     OW21682   5.671   5.653   1.255
 6928SOL    HW121683   5.624   5.722   1.310
 6928SOL    HW221684   5.606   5.584   1.223
 6929SOL     OW21685   4.732   5.908   2.355
 6929SOL    HW121686   4.785   5.848   2.415
 6929SOL    HW221687   4.675   5.853   2.294
 6930SOL     OW21688   1.884   0.805   1.683
 6930SOL    HW121689   1.858   0.709   1.679
 6930SOL    HW221690   1.984   0.813   1.678
 6931SOL     OW21691   1.480   1.253   2.465
 6931SOL    HW121692   1.452   1.349   2.464
 6931SOL    HW221693   1.558   1.241   2.404
 6932SOL     OW21694   4.400   6.988   0.434
 6932SOL    HW121695   4.398   0.066   0.440
 6932SOL    HW221696   4.417   6.949   0.524
 6933SOL     OW21697   3.693   6.171   5.471
 6933SOL    HW121698   3.614   6.110   5.462
 6933SOL    HW221699   3.763   6.146   5.403
 6934SOL     OW21700   4.969   3.210   6.211
 6934SOL    HW121701   4.994   3.306   6.195
 6934SOL    HW221702   5.052   3.155   6.215
 6935SOL     OW21703   4.646   6.032   2.575
 6935SOL    HW121704   4.675   6.003   2.483
 6935SOL    HW221705   4.569   5.975   2.604
 6936SOL     OW21706   6.240   3.137   4.172
 6936SOL    HW121707   6.207   3.043   4.168
 6936SOL    HW221708   6.217   3.184   4.086
 6937SOL     OW21709   6.045   6.254   1.013
 6937SOL    HW121710   5.971   6.203   1.058
 6937SOL    HW221711   6.109   6.288   1.082
 6938SOL     OW21712   6.673   2.629   4.923
 6938SOL    HW121713   6.611   2.554   4.947
 6938SOL    HW221714   6.722   2.659   5.005
 6939SOL     OW21715   0.093   5.267   2.344
 6939SOL    HW121716   0.183   5.302   2.370
 6939SOL    HW221717   0.094   5.167   2.347
 6940SOL     OW21718   3.708   0.799   0.216
 6940SOL    HW121719   3.672   0.714   0.253
 6940SOL    HW221720   3.753   0.851   0.288
 6941SOL     OW21721   3.365   3.889   1.975
 6941SOL    HW121722   3.282   3.865   2.026
 6941SOL    HW221723   3.340   3.940   1.893
 6942SOL     OW21724   5.830   6.745   2.399
 6942SOL    HW121725   5.734   6.716   2.391
 6942SOL    HW221726   5.869   6.757   2.307
 6943SOL     OW21727   3.884   5.576   0.895
 6943SOL    HW121728   3.866   5.667   0.932
 6943SOL    HW221729   3.922   5.584   0.803
 6944SOL     OW21730   1.106   4.957   6.102
 6944SOL    HW121731   1.206   4.962   6.094
 6944SOL    HW221732   1.081   4.948   6.199
 6945SOL     OW21733   0.026   1.742   0.996
 6945SOL    HW121734   7.007   1.807   1.061
 6945SOL    HW221735   0.088   1.791   0.935
 6946SOL     OW21736   4.128   6.950   1.218
 6946SOL    HW121737   4.087   6.896   1.292
 6946SOL    HW221738   4.072   0.009   1.200
 6947SOL     OW21739   3.764   5.158   6.625
 6947SOL    HW121740   3.726   5.249   6.637
 6947SOL    HW221741   3.860   5.158   6.656
 6948SOL     OW21742   1.017   6.264   1.106
 6948SOL    HW121743   1.096   6.272   1.166
 6948SOL    HW221744   0.957   6.192   1.139
 6949SOL     OW21745   2.974   0.604   3.225
 6949SOL    HW121746   2.992   0.515   3.267
 6949SOL    HW221747   2.896   0.647   3.270
 6950SOL     OW21748   1.742   1.034   4.588
 6950SOL    HW121749   1.717   1.124   4.625
 6950SOL    HW221750   1.829   1.005   4.627
 6951SOL     OW21751   0.644   5.801   6.164
 6951SOL    HW121752   0.718   5.763   6.109
 6951SOL    HW221753   0.680   5.871   6.225
 6952SOL     OW21754   1.250   5.078   3.327
 6952SOL    HW121755   1.264   4.989   3.370
 6952SOL    HW221756   1.238   5.148   3.397
 6953SOL     OW21757   5.124   6.282   0.993
 6953SOL    HW121758   5.179   6.305   1.073
 6953SOL    HW221759   5.038   6.333   0.996
 6954SOL     OW21760   1.077   4.245   1.700
 6954SOL    HW121761   1.035   4.319   1.647
 6954SOL    HW221762   1.148   4.283   1.760
 6955SOL     OW21763   5.253   0.898   2.260
 6955SOL    HW121764   5.189   0.955   2.209
 6955SOL    HW221765   5.258   0.931   2.355
 6956SOL     OW21766   4.873   5.950   3.483
 6956SOL    HW121767   4.807   6.019   3.514
 6956SOL    HW221768   4.848   5.921   3.390
 6957SOL     OW21769   6.242   6.169   0.220
 6957SOL    HW121770   6.189   6.248   0.249
 6957SOL    HW221771   6.222   6.091   0.280
 6958SOL     OW21772   3.974   3.428   4.850
 6958SOL    HW121773   4.038   3.490   4.897
 6958SOL    HW221774   4.012   3.336   4.849
 6959SOL     OW21775   1.802   3.253   3.420
 6959SOL    HW121776   1.768   3.169   3.377
 6959SOL    HW221777   1.744   3.330   3.393
 6960SOL     OW21778   1.972   4.044   1.258
 6960SOL    HW121779   2.023   3.980   1.315
 6960SOL    HW221780   1.874   4.030   1.272
 6961SOL     OW21781   6.018   0.666   4.901
 6961SOL    HW121782   6.099   0.658   4.843
 6961SOL    HW221783   6.039   0.635   4.994
 6962SOL     OW21784   4.279   5.794   1.120
 6962SOL    HW121785   4.356   5.854   1.095
 6962SOL    HW221786   4.203   5.849   1.154
 6963SOL     OW21787   5.471   5.582   0.891
 6963SOL    HW121788   5.539   5.647   0.926
 6963SOL    HW221789   5.480   5.576   0.792
 6964SOL     OW21790   3.858   1.365   5.993
 6964SOL    HW121791   3.905   1.381   5.906
 6964SOL    HW221792   3.926   1.357   6.066
 6965SOL     OW21793   2.211   1.292   6.757
 6965SOL    HW121794   2.142   1.313   6.688
 6965SOL    HW221795   2.178   1.218   6.815
 6966SOL     OW21796   0.864   0.789   2.974
 6966SOL    HW121797   0.831   0.695   2.966
 6966SOL    HW221798   0.786   0.850   2.984
 6967SOL     OW21799   3.337   1.120   5.726
 6967SOL    HW121800   3.307   1.069   5.807
 6967SOL    HW221801   3.432   1.148   5.739
 6968SOL     OW21802   3.133   1.269   3.749
 6968SOL    HW121803   3.142   1.206   3.826
 6968SOL    HW221804   3.224   1.294   3.716
 6969SOL     OW21805   3.004   2.333   1.498
 6969SOL    HW121806   2.929   2.373   1.550
 6969SOL    HW221807   3.041   2.402   1.434
 6970SOL     OW21808   4.057   3.928   5.682
 6970SOL    HW121809   4.086   3.851   5.626
 6970SOL    HW221810   3.987   3.899   5.746
 6971SOL     OW21811   6.321   4.613   0.872
 6971SOL    HW121812   6.328   4.641   0.776
 6971SOL    HW221813   6.256   4.672   0.920
 6972SOL     OW21814   4.946   4.400   2.949
 6972SOL    HW121815   4.949   4.354   2.860
 6972SOL    HW221816   4.987   4.491   2.941
 6973SOL     OW21817   0.625   2.651   3.423
 6973SOL    HW121818   0.590   2.596   3.499
 6973SOL    HW221819   0.625   2.596   3.339
 6974SOL     OW21820   3.302   3.734   2.520
 6974SOL    HW121821   3.202   3.738   2.527
 6974SOL    HW221822   3.333   3.798   2.449
 6975SOL     OW21823   1.420   6.604   4.576
 6975SOL    HW121824   1.503   6.551   4.555
 6975SOL    HW221825   1.442   6.701   4.575
 6976SOL     OW21826   6.490   4.787   5.979
 6976SOL    HW121827   6.422   4.753   5.913
 6976SOL    HW221828   6.460   4.767   6.072
 6977SOL     OW21829   3.528   3.297   0.641
 6977SOL    HW121830   3.521   3.262   0.735
 6977SOL    HW221831   3.520   3.221   0.577
 6978SOL     OW21832   4.979   2.424   2.082
 6978SOL    HW121833   5.070   2.427   2.041
 6978SOL    HW221834   4.937   2.335   2.066
 6979SOL     OW21835   0.904   4.162   1.181
 6979SOL    HW121836   0.965   4.149   1.104
 6979SOL    HW221837   0.898   4.078   1.235
 6980SOL     OW21838   1.746   1.112   3.186
 6980SOL    HW121839   1.740   1.087   3.283
 6980SOL    HW221840   1.829   1.074   3.147
 6981SOL     OW21841   3.650   3.538   5.958
 6981SOL    HW121842   3.675   3.524   5.862
 6981SOL    HW221843   3.550   3.546   5.966
 6982SOL     OW21844   1.248   1.156   4.343
 6982SOL    HW121845   1.208   1.163   4.434
 6982SOL    HW221846   1.331   1.100   4.346
 6983SOL     OW21847   4.558   1.408   4.830
 6983SOL    HW121848   4.526   1.334   4.890
 6983SOL    HW221849   4.506   1.491   4.848
 6984SOL     OW21850   2.382   1.694   3.145
 6984SOL    HW121851   2.363   1.788   3.176
 6984SOL    HW221852   2.318   1.669   3.073
 6985SOL     OW21853   6.009   5.119   0.914
 6985SOL    HW121854   6.079   5.092   0.849
 6985SOL    HW221855   6.014   5.061   0.995
 6986SOL     OW21856   3.196   0.393   6.677
 6986SOL    HW121857   3.226   0.298   6.669
 6986SOL    HW221858   3.152   0.421   6.591
 6987SOL     OW21859   6.503   1.379   6.300
 6987SOL    HW121860   6.572   1.312   6.269
 6987SOL    HW221861   6.521   1.467   6.256
 6988SOL     OW21862   1.121   0.259   6.289
 6988SOL    HW121863   1.101   0.340   6.232
 6988SOL    HW221864   1.156   0.289   6.378
 6989SOL     OW21865   0.664   4.440   2.802
 6989SOL    HW121866   0.658   4.343   2.777
 6989SOL    HW221867   0.578   4.485   2.781
 6990SOL     OW21868   4.379   3.244   1.076
 6990SOL    HW121869   4.288   3.284   1.086
 6990SOL    HW221870   4.414   3.217   1.166
 6991SOL     OW21871   4.628   4.235   3.270
 6991SOL    HW121872   4.601   4.266   3.178
 6991SOL    HW221873   4.716   4.187   3.264
 6992SOL     OW21874   5.703   0.422   6.826
 6992SOL    HW121875   5.702   0.401   6.924
 6992SOL    HW221876   5.761   0.501   6.809
 6993SOL     OW21877   5.843   0.265   2.098
 6993SOL    HW121878   5.906   0.246   2.023
 6993SOL    HW221879   5.852   0.361   2.126
 6994SOL     OW21880   0.404   2.483   4.328
 6994SOL    HW121881   0.493   2.441   4.348
 6994SOL    HW221882   0.400   2.508   4.231
 6995SOL     OW21883   0.388   3.793   6.437
 6995SOL    HW121884   0.363   3.784   6.534
 6995SOL    HW221885   0.366   3.885   6.406
 6996SOL     OW21886   2.120   0.198   0.091
 6996SOL    HW121887   2.042   0.237   0.042
 6996SOL    HW221888   2.143   0.257   0.169
 6997SOL     OW21889   0.294   5.199   4.971
 6997SOL    HW121890   0.242   5.186   5.056
 6997SOL    HW221891   0.352   5.119   4.955
 6998SOL     OW21892   1.648   1.492   1.379
 6998SOL    HW121893   1.721   1.490   1.447
 6998SOL    HW221894   1.602   1.404   1.376
 6999SOL     OW21895   1.807   2.688   6.036
 6999SOL    HW121896   1.724   2.719   5.990
 6999SOL    HW221897   1.789   2.603   6.085
 7000SOL     OW21898   6.272   6.658   2.249
 7000SOL    HW121899   6.341   6.603   2.296
 7000SOL    HW221900   6.183   6.613   2.258
 7001SOL     OW21901   0.835   3.196   5.242
 7001SOL    HW121902   0.932   3.213   5.261
 7001SOL    HW221903   0.825   3.154   5.152
 7002SOL     OW21904   1.878   5.530   4.619
 7002SOL    HW121905   1.834   5.502   4.534
 7002SOL    HW221906   1.821   5.599   4.664
 7003SOL     OW21907   4.512   6.030   1.331
 7003SOL    HW121908   4.590   6.042   1.392
 7003SOL    HW221909   4.544   5.996   1.243
 7004SOL     OW21910   0.329   5.982   1.153
 7004SOL    HW121911   0.387   6.063   1.160
 7004SOL    HW221912   0.282   5.982   1.065
 7005SOL     OW21913   1.312   0.496   0.748
 7005SOL    HW121914   1.359   0.467   0.665
 7005SOL    HW221915   1.237   0.557   0.723
 7006SOL     OW21916   5.612   5.748   3.603
 7006SOL    HW121917   5.556   5.666   3.604
 7006SOL    HW221918   5.560   5.825   3.640
 7007SOL     OW21919   4.006   0.766   4.252
 7007SOL    HW121920   3.939   0.692   4.257
 7007SOL    HW221921   4.030   0.782   4.156
 7008SOL     OW21922   0.490   4.171   4.457
 7008SOL    HW121923   0.404   4.213   4.486
 7008SOL    HW221924   0.504   4.187   4.359
 7009SOL     OW21925   4.011   6.622   2.380
 7009SOL    HW121926   4.091   6.660   2.335
 7009SOL    HW221927   3.947   6.695   2.402
 7010SOL     OW21928   5.265   4.141   3.764
 7010SOL    HW121929   5.338   4.171   3.826
 7010SOL    HW221930   5.283   4.048   3.734
 7011SOL     OW21931   3.715   6.976   6.834
 7011SOL    HW121932   3.810   6.995   6.812
 7011SOL    HW221933   3.707   6.882   6.869
 7012SOL     OW21934   0.979   1.476   1.243
 7012SOL    HW121935   0.910   1.543   1.215
 7012SOL    HW221936   1.005   1.421   1.164
 7013SOL     OW21937   1.196   6.803   6.667
 7013SOL    HW121938   1.238   6.735   6.606
 7013SOL    HW221939   1.103   6.774   6.691
 7014SOL     OW21940   5.515   3.171   7.003
 7014SOL    HW121941   5.561   3.082   7.005
 7014SOL    HW221942   5.548   3.226   0.058
 7015SOL     OW21943   6.016   4.130   1.441
 7015SOL    HW121944   6.089   4.167   1.498
 7015SOL    HW221945   5.929   4.172   1.466
 7016SOL     OW21946   4.012   4.681   1.425
 7016SOL    HW121947   4.050   4.763   1.469
 7016SOL    HW221948   4.067   4.602   1.451
 7017SOL     OW21949   3.129   5.457   3.233
 7017SOL    HW121950   3.205   5.394   3.247
 7017SOL    HW221951   3.134   5.495   3.141
 7018SOL     OW21952   4.984   3.937   4.298
 7018SOL    HW121953   4.985   3.837   4.301
 7018SOL    HW221954   4.889   3.969   4.299
 7019SOL     OW21955   3.853   4.501   0.531
 7019SOL    HW121956   3.843   4.415   0.481
 7019SOL    HW221957   3.822   4.576   0.474
 7020SOL     OW21958   6.806   3.933   5.390
 7020SOL    HW121959   6.886   3.890   5.433
 7020SOL    HW221960   6.823   4.032   5.381
 7021SOL     OW21961   1.696   2.698   4.043
 7021SOL    HW121962   1.796   2.700   4.052
 7021SOL    HW221963   1.658   2.628   4.103
 7022SOL     OW21964   4.967   6.798   6.679
 7022SOL    HW121965   4.880   6.749   6.670
 7022SOL    HW221966   4.990   6.841   6.592
 7023SOL     OW21967   0.594   3.119   1.569
 7023SOL    HW121968   0.500   3.102   1.538
 7023SOL    HW221969   0.646   3.034   1.567
 7024SOL     OW21970   3.124   3.377   4.253
 7024SOL    HW121971   3.180   3.431   4.315
 7024SOL    HW221972   3.112   3.426   4.167
 7025SOL     OW21973   4.104   1.323   1.197
 7025SOL    HW121974   4.174   1.317   1.125
 7025SOL    HW221975   4.070   1.416   1.202
 7026SOL     OW21976   3.521   2.062   2.239
 7026SOL    HW121977   3.579   2.080   2.160
 7026SOL    HW221978   3.434   2.110   2.228
 7027SOL     OW21979   2.609   5.854   4.271
 7027SOL    HW121980   2.547   5.907   4.213
 7027SOL    HW221981   2.599   5.883   4.366
 7028SOL     OW21982   3.827   0.653   3.734
 7028SOL    HW121983   3.787   0.744   3.743
 7028SOL    HW221984   3.770   0.598   3.673
 7029SOL     OW21985   4.568   4.142   5.336
 7029SOL    HW121986   4.579   4.043   5.332
 7029SOL    HW221987   4.635   4.181   5.399
 7030SOL     OW21988   0.212   0.918   4.169
 7030SOL    HW121989   0.171   0.915   4.260
 7030SOL    HW221990   0.303   0.960   4.175
 7031SOL     OW21991   4.013   5.979   7.000
 7031SOL    HW121992   4.043   5.960   6.907
 7031SOL    HW221993   3.925   5.935   7.017
 7032SOL     OW21994   4.206   1.530   3.608
 7032SOL    HW121995   4.232   1.575   3.522
 7032SOL    HW221996   4.238   1.435   3.605
 7033SOL     OW21997   1.309   2.838   3.498
 7033SOL    HW121998   1.353   2.872   3.581
 7033SOL    HW221999   1.377   2.831   3.425
 7034SOL     OW22000   6.852   1.331   2.673
 7034SOL    HW122001   6.875   1.234   2.685
 7034SOL    HW222002   6.754   1.343   2.684
 7035SOL     OW22003   1.691   0.417   0.587
 7035SOL    HW122004   1.700   0.360   0.505
 7035SOL    HW222005   1.688   0.358   0.668
 7036SOL     OW22006   6.891   1.211   2.316
 7036SOL    HW122007   6.872   1.113   2.323
 7036SOL    HW222008   6.987   1.228   2.342
 7037SOL     OW22009   1.185   1.152   6.512
 7037SOL    HW122010   1.165   1.140   6.414
 7037SOL    HW222011   1.216   1.065   6.550
 7038SOL     OW22012   2.618   4.588   4.646
 7038SOL    HW122013   2.679   4.640   4.586
 7038SOL    HW222014   2.551   4.539   4.590
 7039SOL     OW22015   0.197   5.833   2.958
 7039SOL    HW122016   0.291   5.852   2.930
 7039SOL    HW222017   0.136   5.841   2.879
 7040SOL     OW22018   4.698   2.788   5.740
 7040SOL    HW122019   4.705   2.883   5.709
 7040SOL    HW222020   4.755   2.776   5.821
 7041SOL     OW22021   6.816   1.644   2.745
 7041SOL    HW122022   6.812   1.645   2.645
 7041SOL    HW222023   6.755   1.574   2.781
 7042SOL     OW22024   4.325   6.148   4.408
 7042SOL    HW122025   4.367   6.238   4.415
 7042SOL    HW222026   4.247   6.143   4.470
 7043SOL     OW22027   2.466   5.040   3.629
 7043SOL    HW122028   2.497   5.058   3.536
 7043SOL    HW222029   2.470   4.942   3.647
 7044SOL     OW22030   5.401   5.763   5.286
 7044SOL    HW122031   5.319   5.798   5.241
 7044SOL    HW222032   5.409   5.665   5.269
 7045SOL     OW22033   5.125   5.873   2.239
 7045SOL    HW122034   5.151   5.869   2.335
 7045SOL    HW222035   5.133   5.782   2.199
 7046SOL     OW22036   3.485   1.187   3.397
 7046SOL    HW122037   3.414   1.255   3.416
 7046SOL    HW222038   3.566   1.207   3.452
 7047SOL     OW22039   6.583   0.730   2.090
 7047SOL    HW122040   6.625   0.814   2.055
 7047SOL    HW222041   6.584   0.660   2.018
 7048SOL     OW22042   5.924   6.802   4.708
 7048SOL    HW122043   5.955   6.729   4.647
 7048SOL    HW222044   5.939   6.891   4.664
 7049SOL     OW22045   3.559   1.827   1.109
 7049SOL    HW122046   3.615   1.909   1.122
 7049SOL    HW222047   3.500   1.815   1.189
 7050SOL     OW22048   4.050   3.645   1.089
 7050SOL    HW122049   4.070   3.612   1.181
 7050SOL    HW222050   4.128   3.628   1.030
 7051SOL     OW22051   6.637   6.512   1.242
 7051SOL    HW122052   6.652   6.413   1.234
 7051SOL    HW222053   6.610   6.549   1.153
 7052SOL     OW22054   6.585   0.807   4.064
 7052SOL    HW122055   6.683   0.789   4.070
 7052SOL    HW222056   6.571   0.905   4.049
 7053SOL     OW22057   1.207   3.718   4.363
 7053SOL    HW122058   1.226   3.633   4.314
 7053SOL    HW222059   1.162   3.697   4.450
 7054SOL     OW22060   0.304   6.904   0.979
 7054SOL    HW122061   0.368   6.832   0.953
 7054SOL    HW222062   0.216   6.864   1.002
 7055SOL     OW22063   2.792   0.606   0.198
 7055SOL    HW122064   2.811   0.685   0.139
 7055SOL    HW222065   2.774   0.525   0.141
 7056SOL     OW22066   6.874   5.216   1.256
 7056SOL    HW122067   6.861   5.169   1.343
 7056SOL    HW222068   6.908   5.309   1.273
 7057SOL     OW22069   3.003   5.133   3.850
 7057SOL    HW122070   3.039   5.053   3.804
 7057SOL    HW222071   2.980   5.110   3.945
 7058SOL     OW22072   5.341   1.971   6.154
 7058SOL    HW122073   5.349   1.871   6.146
 7058SOL    HW222074   5.415   2.006   6.211
 7059SOL     OW22075   1.277   1.183   3.951
 7059SOL    HW122076   1.305   1.089   3.969
 7059SOL    HW222077   1.177   1.186   3.941
 7060SOL     OW22078   3.696   6.906   0.873
 7060SOL    HW122079   3.711   6.896   0.972
 7060SOL    HW222080   3.630   6.979   0.857
 7061SOL     OW22081   7.006   2.770   3.875
 7061SOL    HW122082   0.043   2.851   3.867
 7061SOL    HW222083   6.912   2.794   3.851
 7062SOL     OW22084   3.901   2.173   5.324
 7062SOL    HW122085   3.901   2.273   5.330
 7062SOL    HW222086   3.919   2.145   5.230
 7063SOL     OW22087   1.259   0.470   1.556
 7063SOL    HW122088   1.185   0.536   1.541
 7063SOL    HW222089   1.345   0.509   1.524
 7064SOL     OW22090   4.340   1.913   6.549
 7064SOL    HW122091   4.327   1.856   6.630
 7064SOL    HW222092   4.376   2.002   6.576
 7065SOL     OW22093   3.202   4.005   5.053
 7065SOL    HW122094   3.147   3.985   4.972
 7065SOL    HW222095   3.280   4.062   5.027
 7066SOL     OW22096   4.183   6.627   5.676
 7066SOL    HW122097   4.219   6.544   5.719
 7066SOL    HW222098   4.183   6.701   5.743
 7067SOL     OW22099   0.963   3.452   5.852
 7067SOL    HW122100   0.988   3.452   5.755
 7067SOL    HW222101   1.021   3.387   5.901
 7068SOL     OW22102   5.566   4.077   4.382
 7068SOL    HW122103   5.605   4.037   4.299
 7068SOL    HW222104   5.578   4.176   4.381
 7069SOL     OW22105   5.935   1.666   5.423
 7069SOL    HW122106   5.957   1.743   5.483
 7069SOL    HW222107   5.840   1.637   5.440
 7070SOL     OW22108   1.033   6.362   4.101
 7070SOL    HW122109   0.940   6.350   4.067
 7070SOL    HW222110   1.085   6.419   4.037
 7071SOL     OW22111   4.031   5.948   6.719
 7071SOL    HW122112   4.059   6.036   6.681
 7071SOL    HW222113   4.108   5.884   6.714
 7072SOL     OW22114   2.465   4.754   6.952
 7072SOL    HW122115   2.463   4.733   0.028
 7072SOL    HW222116   2.543   4.813   6.932
 7073SOL     OW22117   3.353   0.319   2.933
 7073SOL    HW122118   3.435   0.268   2.908
 7073SOL    HW222119   3.315   0.363   2.851
 7074SOL     OW22120   6.471   3.086   2.807
 7074SOL    HW122121   6.539   3.096   2.880
 7074SOL    HW222122   6.390   3.041   2.843
 7075SOL     OW22123   2.881   5.227   4.681
 7075SOL    HW122124   2.959   5.266   4.631
 7075SOL    HW222125   2.798   5.276   4.656
 7076SOL     OW22126   5.852   2.727   0.597
 7076SOL    HW122127   5.847   2.640   0.646
 7076SOL    HW222128   5.903   2.794   0.651
 7077SOL     OW22129   2.201   4.057   3.595
 7077SOL    HW122130   2.174   3.981   3.536
 7077SOL    HW222131   2.163   4.044   3.686
 7078SOL     OW22132   6.062   6.583   0.934
 7078SOL    HW122133   5.972   6.622   0.914
 7078SOL    HW222134   6.076   6.502   0.876
 7079SOL     OW22135   1.592   6.696   3.377
 7079SOL    HW122136   1.666   6.745   3.424
 7079SOL    HW222137   1.527   6.761   3.340
 7080SOL     OW22138   4.148   2.117   4.076
 7080SOL    HW122139   4.237   2.160   4.086
 7080SOL    HW222140   4.115   2.129   3.982
 7081SOL     OW22141   1.104   5.713   0.377
 7081SOL    HW122142   1.092   5.733   0.475
 7081SOL    HW222143   1.182   5.764   0.342
 7082SOL     OW22144   6.716   4.146   0.405
 7082SOL    HW122145   6.655   4.068   0.416
 7082SOL    HW222146   6.789   4.141   0.474
 7083SOL     OW22147   0.203   1.188   2.125
 7083SOL    HW122148   0.161   1.184   2.216
 7083SOL    HW222149   0.218   1.095   2.091
 7084SOL     OW22150   0.466   5.529   5.654
 7084SOL    HW122151   0.562   5.531   5.683
 7084SOL    HW222152   0.410   5.495   5.729
 7085SOL     OW22153   6.368   2.429   2.756
 7085SOL    HW122154   6.358   2.343   2.707
 7085SOL    HW222155   6.460   2.435   2.795
 7086SOL     OW22156   5.695   0.767   6.387
 7086SOL    HW122157   5.724   0.673   6.371
 7086SOL    HW222158   5.775   0.824   6.406
 7087SOL     OW22159   5.639   4.196   2.662
 7087SOL    HW122160   5.675   4.178   2.570
 7087SOL    HW222161   5.668   4.125   2.725
 7088SOL     OW22162   5.206   2.500   5.555
 7088SOL    HW122163   5.135   2.519   5.623
 7088SOL    HW222164   5.234   2.586   5.512
 7089SOL     OW22165   2.123   3.859   3.251
 7089SOL    HW122166   2.154   3.889   3.161
 7089SOL    HW222167   2.023   3.866   3.255
 7090SOL     OW22168   2.432   1.726   0.236
 7090SOL    HW122169   2.345   1.677   0.236
 7090SOL    HW222170   2.415   1.824   0.228
 7091SOL     OW22171   0.465   1.031   1.578
 7091SOL    HW122172   0.539   0.982   1.623
 7091SOL    HW222173   0.501   1.083   1.500
 7092SOL     OW22174   3.827   3.171   5.572
 7092SOL    HW122175   3.902   3.106   5.568
 7092SOL    HW222176   3.765   3.146   5.646
 7093SOL     OW22177   3.228   4.009   1.751
 7093SOL    HW122178   3.194   3.959   1.671
 7093SOL    HW222179   3.298   4.074   1.722
 7094SOL     OW22180   1.518   0.601   5.562
 7094SOL    HW122181   1.426   0.577   5.530
 7094SOL    HW222182   1.511   0.661   5.642
 7095SOL     OW22183   3.256   4.842   5.496
 7095SOL    HW122184   3.256   4.818   5.399
 7095SOL    HW222185   3.209   4.929   5.509
 7096SOL     OW22186   6.064   0.505   1.964
 7096SOL    HW122187   6.132   0.517   1.891
 7096SOL    HW222188   6.110   0.476   2.048
 7097SOL     OW22189   5.295   0.868   1.458
 7097SOL    HW122190   5.325   0.915   1.541
 7097SOL    HW222191   5.305   0.769   1.471
 7098SOL     OW22192   1.464   5.984   5.930
 7098SOL    HW122193   1.556   6.022   5.926
 7098SOL    HW222194   1.421   6.011   6.017
 7099SOL     OW22195   3.797   2.122   4.389
 7099SOL    HW122196   3.888   2.136   4.349
 7099SOL    HW222197   3.806   2.078   4.478
 7100SOL     OW22198   6.735   3.100   0.655
 7100SOL    HW122199   6.734   3.059   0.746
 7100SOL    HW222200   6.772   3.035   0.589
 7101SOL     OW22201   2.433   0.852   5.381
 7101SOL    HW122202   2.392   0.935   5.342
 7101SOL    HW222203   2.375   0.773   5.358
 7102SOL     OW22204   5.751   0.303   1.083
 7102SOL    HW122205   5.690   0.292   1.004
 7102SOL    HW222206   5.757   0.216   1.132
 7103SOL     OW22207   5.608   5.243   1.339
 7103SOL    HW122208   5.700   5.267   1.308
 7103SOL    HW222209   5.610   5.154   1.384
 7104SOL     OW22210   6.137   3.590   2.339
 7104SOL    HW122211   6.070   3.570   2.410
 7104SOL    HW222212   6.120   3.682   2.303
 7105SOL     OW22213   3.575   3.352   4.703
 7105SOL    HW122214   3.613   3.285   4.640
 7105SOL    HW222215   3.630   3.436   4.699
 7106SOL     OW22216   3.602   3.064   1.573
 7106SOL    HW122217   3.606   3.139   1.639
 7106SOL    HW222218   3.626   2.978   1.617
 7107SOL     OW22219   3.931   0.704   1.032
 7107SOL    HW122220   4.014   0.722   0.979
 7107SOL    HW222221   3.904   0.608   1.018
 7108SOL     OW22222   2.869   5.751   2.522
 7108SOL    HW122223   2.784   5.702   2.502
 7108SOL    HW222224   2.864   5.843   2.485
 7109SOL     OW22225   1.666   1.328   6.900
 7109SOL    HW122226   1.687   1.235   6.870
 7109SOL    HW222227   1.746   1.366   6.948
 7110SOL     OW22228   3.256   5.912   4.184
 7110SOL    HW122229   3.232   5.983   4.118
 7110SOL    HW222230   3.238   5.945   4.277
 7111SOL     OW22231   1.717   2.205   4.053
 7111SOL    HW122232   1.776   2.286   4.044
 7111SOL    HW222233   1.680   2.181   3.963
 7112SOL     OW22234   2.020   4.625   4.525
 7112SOL    HW122235   1.965   4.694   4.573
 7112SOL    HW222236   1.960   4.571   4.466
 7113SOL     OW22237   3.363   4.334   5.325
 7113SOL    HW122238   3.435   4.315   5.258
 7113SOL    HW222239   3.405   4.355   5.413
 7114SOL     OW22240   4.597   5.004   1.547
 7114SOL    HW122241   4.505   4.968   1.533
 7114SOL    HW222242   4.648   5.000   1.461
 7115SOL     OW22243   5.423   3.501   6.826
 7115SOL    HW122244   5.376   3.585   6.800
 7115SOL    HW222245   5.522   3.512   6.813
 7116SOL     OW22246   5.151   3.989   2.984
 7116SOL    HW122247   5.195   4.073   3.016
 7116SOL    HW222248   5.171   3.976   2.887
 7117SOL     OW22249   0.147   0.106   4.778
 7117SOL    HW122250   0.201   0.133   4.699
 7117SOL    HW222251   0.050   0.104   4.752
 7118SOL     OW22252   4.042   4.147   5.517
 7118SOL    HW122253   4.109   4.221   5.510
 7118SOL    HW222254   4.075   4.079   5.583
 7119SOL     OW22255   5.526   1.188   5.297
 7119SOL    HW122256   5.458   1.167   5.367
 7119SOL    HW222257   5.482   1.187   5.207
 7120SOL     OW22258   3.933   1.562   1.850
 7120SOL    HW122259   3.912   1.491   1.918
 7120SOL    HW222260   3.950   1.649   1.897
 7121SOL     OW22261   0.423   6.869   2.700
 7121SOL    HW122262   0.384   6.960   2.688
 7121SOL    HW222263   0.523   6.877   2.709
 7122SOL     OW22264   1.777   0.479   5.745
 7122SOL    HW122265   1.791   0.569   5.785
 7122SOL    HW222266   1.859   0.424   5.757
 7123SOL     OW22267   0.437   5.255   3.722
 7123SOL    HW122268   0.476   5.233   3.633
 7123SOL    HW222269   0.483   5.203   3.793
 7124SOL     OW22270   0.681   2.398   1.650
 7124SOL    HW122271   0.770   2.351   1.649
 7124SOL    HW222272   0.696   2.496   1.662
 7125SOL     OW22273   1.454   1.223   1.798
 7125SOL    HW122274   1.450   1.123   1.793
 7125SOL    HW222275   1.549   1.252   1.803
 7126SOL     OW22276   4.453   6.072   0.581
 7126SOL    HW122277   4.418   6.065   0.488
 7126SOL    HW222278   4.381   6.044   0.645
 7127SOL     OW22279   2.460   6.318   5.935
 7127SOL    HW122280   2.485   6.261   6.013
 7127SOL    HW222281   2.526   6.305   5.861
 7128SOL     OW22282   3.892   3.739   6.851
 7128SOL    HW122283   3.866   3.682   6.772
 7128SOL    HW222284   3.951   3.814   6.820
 7129SOL     OW22285   1.477   0.978   1.578
 7129SOL    HW122286   1.390   1.025   1.591
 7129SOL    HW222287   1.479   0.938   1.486
 7130SOL     OW22288   3.720   6.473   4.403
 7130SOL    HW122289   3.712   6.379   4.367
 7130SOL    HW222290   3.688   6.537   4.334
 7131SOL     OW22291   3.113   0.924   1.655
 7131SOL    HW122292   3.067   0.881   1.577
 7131SOL    HW222293   3.045   0.955   1.721
 7132SOL     OW22294   4.916   4.115   0.396
 7132SOL    HW122295   4.932   4.094   0.493
 7132SOL    HW222296   4.983   4.183   0.365
 7133SOL     OW22297   4.373   4.653   4.576
 7133SOL    HW122298   4.292   4.682   4.525
 7133SOL    HW222299   4.455   4.674   4.523
 7134SOL     OW22300   5.054   6.619   2.458
 7134SOL    HW122301   5.093   6.567   2.534
 7134SOL    HW222302   5.078   6.716   2.467
 7135SOL     OW22303   2.178   3.175   2.864
 7135SOL    HW122304   2.180   3.266   2.820
 7135SOL    HW222305   2.196   3.185   2.962
 7136SOL     OW22306   3.091   1.813   1.182
 7136SOL    HW122307   3.110   1.786   1.088
 7136SOL    HW222308   3.164   1.780   1.242
 7137SOL     OW22309   2.949   1.878   0.746
 7137SOL    HW122310   2.872   1.915   0.693
 7137SOL    HW222311   2.990   1.951   0.800
 7138SOL     OW22312   2.006   1.222   1.047
 7138SOL    HW122313   2.002   1.312   1.090
 7138SOL    HW222314   1.920   1.172   1.064
 7139SOL     OW22315   5.743   4.805   1.939
 7139SOL    HW122316   5.804   4.882   1.922
 7139SOL    HW222317   5.759   4.770   2.032
 7140SOL     OW22318   6.324   4.139   1.068
 7140SOL    HW122319   6.291   4.192   0.990
 7140SOL    HW222320   6.423   4.125   1.059
 7141SOL     OW22321   4.420   0.060   1.113
 7141SOL    HW122322   4.350   0.122   1.150
 7141SOL    HW222323   4.385   0.016   1.030
 7142SOL     OW22324   3.307   0.257   3.952
 7142SOL    HW122325   3.345   0.178   3.998
 7142SOL    HW222326   3.347   0.341   3.990
 7143SOL     OW22327   1.781   4.186   0.377
 7143SOL    HW122328   1.797   4.282   0.352
 7143SOL    HW222329   1.838   4.127   0.321
 7144SOL     OW22330   0.676   1.031   3.343
 7144SOL    HW122331   0.755   1.077   3.302
 7144SOL    HW222332   0.681   1.039   3.443
 7145SOL     OW22333   3.958   0.942   6.699
 7145SOL    HW122334   3.912   0.892   6.626
 7145SOL    HW222335   3.891   0.994   6.751
 7146SOL     OW22336   1.891   1.621   5.733
 7146SOL    HW122337   1.805   1.644   5.687
 7146SOL    HW222338   1.910   1.688   5.805
 7147SOL     OW22339   6.330   5.815   3.407
 7147SOL    HW122340   6.303   5.910   3.392
 7147SOL    HW222341   6.332   5.795   3.505
 7148SOL     OW22342   6.245   5.831   1.847
 7148SOL    HW122343   6.175   5.869   1.908
 7148SOL    HW222344   6.332   5.878   1.862
 7149SOL     OW22345   0.726   5.399   4.038
 7149SOL    HW122346   0.761   5.360   3.953
 7149SOL    HW222347   0.729   5.330   4.110
 7150SOL     OW22348   3.541   3.086   0.430
 7150SOL    HW122349   3.619   3.045   0.383
 7150SOL    HW222350   3.502   3.158   0.373
 7151SOL     OW22351   2.935   6.604   0.969
 7151SOL    HW122352   2.967   6.642   1.056
 7151SOL    HW222353   2.887   6.675   0.918
 7152SOL     OW22354   6.458   0.813   6.599
 7152SOL    HW122355   6.359   0.827   6.587
 7152SOL    HW222356   6.493   0.758   6.524
 7153SOL     OW22357   3.565   5.303   2.042
 7153SOL    HW122358   3.537   5.356   1.962
 7153SOL    HW222359   3.489   5.245   2.072
 7154SOL     OW22360   4.008   0.145   2.861
 7154SOL    HW122361   3.993   0.177   2.767
 7154SOL    HW222362   4.100   0.168   2.890
 7155SOL     OW22363   3.369   3.060   1.309
 7155SOL    HW122364   3.323   3.138   1.265
 7155SOL    HW222365   3.386   2.989   1.241
 7156SOL     OW22366   4.937   3.398   2.611
 7156SOL    HW122367   4.896   3.482   2.647
 7156SOL    HW222368   4.896   3.375   2.523
 7157SOL     OW22369   0.015   4.519   1.728
 7157SOL    HW122370   0.046   4.428   1.754
 7157SOL    HW222371   0.003   4.522   1.628
 7158SOL     OW22372   6.875   0.178   3.494
 7158SOL    HW122373   6.894   0.081   3.479
 7158SOL    HW222374   6.794   0.187   3.552
 7159SOL     OW22375   0.876   4.681   4.475
 7159SOL    HW122376   0.916   4.623   4.546
 7159SOL    HW222377   0.914   4.656   4.386
 7160SOL     OW22378   6.292   6.599   2.530
 7160SOL    HW122379   6.344   6.555   2.603
 7160SOL    HW222380   6.301   6.698   2.537
 7161SOL     OW22381   3.365   4.089   2.692
 7161SOL    HW122382   3.319   4.102   2.604
 7161SOL    HW222383   3.326   4.010   2.739
 7162SOL     OW22384   0.254   5.059   6.715
 7162SOL    HW122385   0.155   5.064   6.722
 7162SOL    HW222386   0.295   5.136   6.764
 7163SOL     OW22387   2.549   0.219   2.931
 7163SOL    HW122388   2.550   0.306   2.883
 7163SOL    HW222389   2.463   0.210   2.982
 7164SOL     OW22390   1.853   0.616   5.134
 7164SOL    HW122391   1.790   0.636   5.058
 7164SOL    HW222392   1.801   0.602   5.218
 7165SOL     OW22393   5.991   5.739   1.976
 7165SOL    HW122394   5.948   5.685   2.049
 7165SOL    HW222395   6.018   5.679   1.901
 7166SOL     OW22396   5.585   0.647   6.610
 7166SOL    HW122397   5.619   0.691   6.527
 7166SOL    HW222398   5.658   0.643   6.678
 7167SOL     OW22399   5.004   2.721   5.350
 7167SOL    HW122400   5.006   2.783   5.271
 7167SOL    HW222401   5.092   2.727   5.399
 7168SOL     OW22402   2.719   1.758   2.892
 7168SOL    HW122403   2.813   1.752   2.926
 7168SOL    HW222404   2.678   1.667   2.891
 7169SOL     OW22405   0.459   3.919   4.503
 7169SOL    HW122406   0.362   3.898   4.487
 7169SOL    HW222407   0.471   4.019   4.504
 7170SOL     OW22408   4.137   6.226   2.541
 7170SOL    HW122409   4.158   6.163   2.616
 7170SOL    HW222410   4.046   6.264   2.553
 7171SOL     OW22411   6.433   3.712   1.067
 7171SOL    HW122412   6.488   3.795   1.078
 7171SOL    HW222413   6.424   3.690   0.970
 7172SOL     OW22414   2.198   1.975   5.206
 7172SOL    HW122415   2.151   2.055   5.243
 7172SOL    HW222416   2.192   1.900   5.272
 7173SOL     OW22417   6.145   5.257   6.985
 7173SOL    HW122418   6.230   5.217   6.950
 7173SOL    HW222419   6.167   5.334   0.023
 7174SOL     OW22420   6.652   4.838   0.411
 7174SOL    HW122421   6.633   4.770   0.482
 7174SOL    HW222422   6.608   4.810   0.326
 7175SOL     OW22423   6.600   3.403   5.505
 7175SOL    HW122424   6.597   3.368   5.599
 7175SOL    HW222425   6.645   3.336   5.446
 7176SOL     OW22426   0.261   1.156   4.463
 7176SOL    HW122427   0.184   1.217   4.448
 7176SOL    HW222428   0.279   1.148   4.561
 7177SOL     OW22429   1.491   5.257   5.555
 7177SOL    HW122430   1.533   5.346   5.575
 7177SOL    HW222431   1.400   5.254   5.594
 7178SOL     OW22432   1.182   1.108   6.188
 7178SOL    HW122433   1.097   1.057   6.205
 7178SOL    HW222434   1.166   1.176   6.117
 7179SOL     OW22435   1.628   3.936   4.763
 7179SOL    HW122436   1.691   3.860   4.773
 7179SOL    HW222437   1.608   3.975   4.853
 7180SOL     OW22438   2.300   3.946   0.988
 7180SOL    HW122439   2.306   3.880   0.912
 7180SOL    HW222440   2.209   3.988   0.987
 7181SOL     OW22441   2.224   1.630   6.530
 7181SOL    HW122442   2.324   1.636   6.540
 7181SOL    HW222443   2.183   1.611   6.620
 7182SOL     OW22444   0.767   3.618   3.357
 7182SOL    HW122445   0.702   3.676   3.309
 7182SOL    HW222446   0.718   3.541   3.399
 7183SOL     OW22447   2.194   6.107   2.045
 7183SOL    HW122448   2.143   6.186   2.079
 7183SOL    HW222449   2.162   6.025   2.092
 7184SOL     OW22450   6.290   0.829   4.085
 7184SOL    HW122451   6.305   0.893   4.009
 7184SOL    HW222452   6.252   0.744   4.049
 7185SOL     OW22453   5.380   1.062   5.513
 7185SOL    HW122454   5.326   1.011   5.446
 7185SOL    HW222455   5.451   1.003   5.550
 7186SOL     OW22456   0.243   1.348   1.170
 7186SOL    HW122457   0.187   1.268   1.191
 7186SOL    HW222458   0.243   1.364   1.071
 7187SOL     OW22459   2.983   3.682   5.267
 7187SOL    HW122460   2.940   3.601   5.306
 7187SOL    HW222461   2.914   3.750   5.245
 7188SOL     OW22462   4.975   5.283   0.238
 7188SOL    HW122463   4.977   5.212   0.168
 7188SOL    HW222464   4.971   5.239   0.328
 7189SOL     OW22465   5.927   3.269   5.493
 7189SOL    HW122466   5.928   3.177   5.532
 7189SOL    HW222467   5.961   3.264   5.398
 7190SOL     OW22468   5.936   5.974   1.515
 7190SOL    HW122469   5.882   5.898   1.551
 7190SOL    HW222470   5.877   6.032   1.458
 7191SOL     OW22471   0.223   4.256   3.063
 7191SOL    HW122472   0.291   4.250   3.136
 7191SOL    HW222473   0.215   4.168   3.018
 7192SOL     OW22474   1.171   4.344   6.433
 7192SOL    HW122475   1.148   4.423   6.377
 7192SOL    HW222476   1.250   4.297   6.393
 7193SOL     OW22477   2.849   1.334   2.933
 7193SOL    HW122478   2.848   1.242   2.972
 7193SOL    HW222479   2.942   1.369   2.931
 7194SOL     OW22480   2.091   2.538   0.387
 7194SOL    HW122481   2.083   2.442   0.361
 7194SOL    HW222482   2.135   2.589   0.312
 7195SOL     OW22483   6.294   4.399   6.557
 7195SOL    HW122484   6.347   4.315   6.565
 7195SOL    HW222485   6.205   4.387   6.602
 7196SOL     OW22486   2.948   4.111   1.703
 7196SOL    HW122487   3.031   4.105   1.758
 7196SOL    HW222488   2.937   4.027   1.649
 7197SOL     OW22489   0.684   3.830   5.757
 7197SOL    HW122490   0.761   3.794   5.810
 7197SOL    HW222491   0.710   3.839   5.661
 7198SOL     OW22492   0.363   0.720   6.697
 7198SOL    HW122493   0.463   0.726   6.689
 7198SOL    HW222494   0.340   0.665   6.777
 7199SOL     OW22495   0.958   0.187   2.661
 7199SOL    HW122496   1.009   0.272   2.653
 7199SOL    HW222497   0.944   0.148   2.570
 7200SOL     OW22498   1.675   3.249   0.529
 7200SOL    HW122499   1.702   3.156   0.507
 7200SOL    HW222500   1.721   3.313   0.466
 7201SOL     OW22501   0.391   5.755   4.219
 7201SOL    HW122502   0.404   5.674   4.276
 7201SOL    HW222503   0.390   5.837   4.276
 7202SOL     OW22504   5.156   6.766   6.261
 7202SOL    HW122505   5.109   6.703   6.324
 7202SOL    HW222506   5.255   6.762   6.278
 7203SOL     OW22507   0.584   1.118   1.925
 7203SOL    HW122508   0.674   1.157   1.910
 7203SOL    HW222509   0.557   1.130   2.020
 7204SOL     OW22510   6.937   1.317   6.335
 7204SOL    HW122511   6.875   1.337   6.411
 7204SOL    HW222512   6.932   1.392   6.268
 7205SOL     OW22513   1.365   4.102   4.771
 7205SOL    HW122514   1.425   4.022   4.774
 7205SOL    HW222515   1.406   4.177   4.824
 7206SOL     OW22516   1.224   1.452   1.958
 7206SOL    HW122517   1.130   1.442   1.926
 7206SOL    HW222518   1.263   1.361   1.974
 7207SOL     OW22519   2.757   1.104   4.439
 7207SOL    HW122520   2.678   1.165   4.444
 7207SOL    HW222521   2.735   1.025   4.383
 7208SOL     OW22522   4.863   0.275   4.058
 7208SOL    HW122523   4.926   0.346   4.088
 7208SOL    HW222524   4.849   0.209   4.132
 7209SOL     OW22525   2.247   2.677   1.995
 7209SOL    HW122526   2.209   2.755   1.945
 7209SOL    HW222527   2.336   2.654   1.955
 7210SOL     OW22528   3.715   2.080   3.809
 7210SOL    HW122529   3.626   2.125   3.802
 7210SOL    HW222530   3.730   2.052   3.904
 7211SOL     OW22531   2.953   6.266   5.435
 7211SOL    HW122532   3.029   6.224   5.484
 7211SOL    HW222533   2.973   6.363   5.420
 7212SOL     OW22534   0.462   6.473   6.066
 7212SOL    HW122535   0.389   6.426   6.115
 7212SOL    HW222536   0.441   6.474   5.968
 7213SOL     OW22537   3.451   6.123   5.914
 7213SOL    HW122538   3.389   6.046   5.928
 7213SOL    HW222539   3.511   6.133   5.993
 7214SOL     OW22540   6.716   1.329   5.611
 7214SOL    HW122541   6.648   1.298   5.544
 7214SOL    HW222542   6.703   1.426   5.630
 7215SOL     OW22543   5.997   2.768   4.399
 7215SOL    HW122544   5.953   2.790   4.486
 7215SOL    HW222545   5.944   2.699   4.350
 7216SOL     OW22546   3.214   6.062   2.187
 7216SOL    HW122547   3.228   5.977   2.236
 7216SOL    HW222548   3.285   6.128   2.212
 7217SOL     OW22549   1.652   3.357   3.651
 7217SOL    HW122550   1.659   3.274   3.596
 7217SOL    HW222551   1.723   3.422   3.624
 7218SOL     OW22552   6.738   2.742   4.344
 7218SOL    HW122553   6.822   2.733   4.292
 7218SOL    HW222554   6.744   2.823   4.403
 7219SOL     OW22555   2.822   0.018   2.149
 7219SOL    HW122556   2.753   0.015   2.221
 7219SOL    HW222557   2.849   0.112   2.133
 7220SOL     OW22558   6.385   4.572   3.944
 7220SOL    HW122559   6.293   4.532   3.934
 7220SOL    HW222560   6.448   4.524   3.883
 7221SOL     OW22561   3.597   6.090   5.070
 7221SOL    HW122562   3.519   6.095   5.007
 7221SOL    HW222563   3.587   6.010   5.129
 7222SOL     OW22564   6.029   6.863   3.310
 7222SOL    HW122565   5.952   6.924   3.330
 7222SOL    HW222566   6.090   6.907   3.243
 7223SOL     OW22567   2.922   0.842   1.129
 7223SOL    HW122568   3.016   0.876   1.135
 7223SOL    HW222569   2.879   0.847   1.219
 7224SOL     OW22570   4.929   2.682   4.916
 7224SOL    HW122571   4.879   2.630   4.985
 7224SOL    HW222572   5.026   2.689   4.943
 7225SOL     OW22573   1.789   6.467   0.749
 7225SOL    HW122574   1.767   6.527   0.672
 7225SOL    HW222575   1.809   6.522   0.830
 7226SOL     OW22576   5.877   0.011   1.251
 7226SOL    HW122577   5.880   0.071   1.331
 7226SOL    HW222578   5.906   6.941   1.278
 7227SOL     OW22579   2.447   1.575   2.173
 7227SOL    HW122580   2.363   1.554   2.123
 7227SOL    HW222581   2.508   1.628   2.113
 7228SOL     OW22582   1.310   1.293   2.980
 7228SOL    HW122583   1.225   1.255   2.943
 7228SOL    HW222584   1.342   1.367   2.920
 7229SOL     OW22585   0.719   6.807   4.552
 7229SOL    HW122586   0.761   6.736   4.496
 7229SOL    HW222587   0.671   6.873   4.493
 7230SOL     OW22588   3.099   5.883   3.860
 7230SOL    HW122589   3.176   5.863   3.799
 7230SOL    HW222590   3.018   5.903   3.805
 7231SOL     OW22591   4.478   0.663   7.001
 7231SOL    HW122592   4.488   0.597   0.053
 7231SOL    HW222593   4.404   0.634   6.940
 7232SOL     OW22594   4.968   6.165   2.795
 7232SOL    HW122595   5.056   6.141   2.756
 7232SOL    HW222596   4.917   6.222   2.731
 7233SOL     OW22597   1.026   1.246   5.206
 7233SOL    HW122598   1.070   1.167   5.250
 7233SOL    HW222599   1.097   1.306   5.168
 7234SOL     OW22600   5.756   3.317   2.484
 7234SOL    HW122601   5.729   3.382   2.554
 7234SOL    HW222602   5.684   3.310   2.415
 7235SOL     OW22603   6.098   4.436   2.044
 7235SOL    HW122604   6.156   4.471   1.969
 7235SOL    HW222605   6.054   4.513   2.090
 7236SOL     OW22606   2.685   2.388   2.785
 7236SOL    HW122607   2.681   2.418   2.689
 7236SOL    HW222608   2.716   2.293   2.788
 7237SOL     OW22609   3.964   0.021   6.158
 7237SOL    HW122610   3.871   7.018   6.132
 7237SOL    HW222611   3.968   0.118   6.181
 7238SOL     OW22612   4.565   2.202   6.083
 7238SOL    HW122613   4.591   2.111   6.115
 7238SOL    HW222614   4.628   2.270   6.120
 7239SOL     OW22615   0.914   2.934   1.607
 7239SOL    HW122616   0.886   2.930   1.703
 7239SOL    HW222617   1.011   2.913   1.599
 7240SOL     OW22618   0.367   1.103   6.383
 7240SOL    HW122619   0.292   1.073   6.325
 7240SOL    HW222620   0.331   1.137   6.470
 7241SOL     OW22621   2.605   0.121   0.826
 7241SOL    HW122622   2.561   0.154   0.910
 7241SOL    HW222623   2.704   0.132   0.835
 7242SOL     OW22624   6.935   5.313   6.282
 7242SOL    HW122625   6.903   5.392   6.228
 7242SOL    HW222626   6.885   5.310   6.368
 7243SOL     OW22627   6.644   4.559   5.699
 7243SOL    HW122628   6.712   4.496   5.660
 7243SOL    HW222629   6.673   4.586   5.791
 7244SOL     OW22630   0.362   0.490   1.217
 7244SOL    HW122631   0.281   0.489   1.158
 7244SOL    HW222632   0.414   0.406   1.202
 7245SOL     OW22633   0.937   3.005   5.737
 7245SOL    HW122634   0.997   2.937   5.697
 7245SOL    HW222635   0.973   3.034   5.826
 7246SOL     OW22636   1.646   0.042   3.563
 7246SOL    HW122637   1.694   0.129   3.571
 7246SOL    HW222638   1.700   7.000   3.508
 7247SOL     OW22639   2.585   1.654   5.364
 7247SOL    HW122640   2.608   1.750   5.352
 7247SOL    HW222641   2.562   1.614   5.275
 7248SOL     OW22642   3.378   0.858   2.728
 7248SOL    HW122643   3.316   0.819   2.796
 7248SOL    HW222644   3.338   0.942   2.692
 7249SOL     OW22645   5.153   4.948   1.871
 7249SOL    HW122646   5.235   4.892   1.856
 7249SOL    HW222647   5.167   5.006   1.951
 7250SOL     OW22648   5.273   5.632   5.736
 7250SOL    HW122649   5.252   5.536   5.718
 7250SOL    HW222650   5.342   5.639   5.808
 7251SOL     OW22651   1.142   6.986   4.638
 7251SOL    HW122652   1.106   6.898   4.606
 7251SOL    HW222653   1.178   6.974   4.731
 7252SOL     OW22654   3.172   3.497   1.969
 7252SOL    HW122655   3.234   3.499   1.890
 7252SOL    HW222656   3.105   3.570   1.960
 7253SOL     OW22657   1.680   5.612   6.724
 7253SOL    HW122658   1.713   5.616   6.819
 7253SOL    HW222659   1.583   5.638   6.722
 7254SOL     OW22660   5.854   4.992   4.539
 7254SOL    HW122661   5.865   4.902   4.581
 7254SOL    HW222662   5.759   5.021   4.547
 7255SOL     OW22663   4.792   3.437   0.101
 7255SOL    HW122664   4.783   3.349   0.054
 7255SOL    HW222665   4.723   3.443   0.173
 7256SOL     OW22666   3.232   5.897   5.096
 7256SOL    HW122667   3.252   5.992   5.072
 7256SOL    HW222668   3.150   5.894   5.153
 7257SOL     OW22669   0.023   2.032   3.718
 7257SOL    HW122670   6.947   2.017   3.702
 7257SOL    HW222671   0.057   2.101   3.655
 7258SOL     OW22672   4.948   2.269   2.760
 7258SOL    HW122673   4.883   2.198   2.785
 7258SOL    HW222674   5.011   2.285   2.837
 7259SOL     OW22675   1.680   3.493   1.860
 7259SOL    HW122676   1.716   3.494   1.953
 7259SOL    HW222677   1.678   3.586   1.823
 7260SOL     OW22678   5.826   1.770   2.007
 7260SOL    HW122679   5.793   1.700   2.070
 7260SOL    HW222680   5.791   1.753   1.915
 7261SOL     OW22681   1.183   4.688   1.612
 7261SOL    HW122682   1.146   4.658   1.700
 7261SOL    HW222683   1.112   4.738   1.562
 7262SOL     OW22684   5.693   2.038   6.421
 7262SOL    HW122685   5.713   2.027   6.324
 7262SOL    HW222686   5.710   1.952   6.469
 7263SOL     OW22687   0.451   6.775   6.662
 7263SOL    HW122688   0.361   6.793   6.701
 7263SOL    HW222689   0.446   6.695   6.603
 7264SOL     OW22690   5.478   1.422   0.900
 7264SOL    HW122691   5.383   1.446   0.919
 7264SOL    HW222692   5.492   1.325   0.916
 7265SOL     OW22693   5.455   4.812   6.457
 7265SOL    HW122694   5.374   4.775   6.413
 7265SOL    HW222695   5.501   4.875   6.394
 7266SOL     OW22696   5.508   0.793   2.883
 7266SOL    HW122697   5.424   0.845   2.871
 7266SOL    HW222698   5.555   0.822   2.967
 7267SOL     OW22699   6.507   6.168   5.204
 7267SOL    HW122700   6.451   6.251   5.192
 7267SOL    HW222701   6.497   6.109   5.124
 7268SOL     OW22702   6.738   5.818   4.598
 7268SOL    HW122703   6.649   5.795   4.559
 7268SOL    HW222704   6.753   5.765   4.681
 7269SOL     OW22705   1.817   6.273   5.868
 7269SOL    HW122706   1.816   6.203   5.939
 7269SOL    HW222707   1.877   6.348   5.896
 7270SOL     OW22708   0.759   2.798   5.421
 7270SOL    HW122709   0.837   2.809   5.359
 7270SOL    HW222710   0.688   2.863   5.395
 7271SOL     OW22711   1.741   4.995   4.132
 7271SOL    HW122712   1.650   4.957   4.151
 7271SOL    HW222713   1.751   5.083   4.178
 7272SOL     OW22714   6.111   5.708   2.574
 7272SOL    HW122715   6.168   5.751   2.503
 7272SOL    HW222716   6.038   5.655   2.530
 7273SOL     OW22717   6.557   3.979   1.001
 7273SOL    HW122718   6.536   3.982   0.903
 7273SOL    HW222719   6.656   3.984   1.015
 7274SOL     OW22720   0.360   5.340   6.539
 7274SOL    HW122721   0.377   5.436   6.514
 7274SOL    HW222722   0.368   5.330   6.638
 7275SOL     OW22723   0.130   5.147   3.118
 7275SOL    HW122724   0.033   5.147   3.096
 7275SOL    HW222725   0.183   5.131   3.035
 7276SOL     OW22726   4.577   0.831   3.247
 7276SOL    HW122727   4.488   0.872   3.267
 7276SOL    HW222728   4.575   0.734   3.270
 7277SOL     OW22729   4.925   0.488   4.386
 7277SOL    HW122730   5.014   0.520   4.420
 7277SOL    HW222731   4.939   0.442   4.298
 7278SOL     OW22732   3.992   2.956   0.960
 7278SOL    HW122733   4.078   2.963   0.909
 7278SOL    HW222734   4.003   2.889   1.034
 7279SOL     OW22735   4.049   4.938   6.635
 7279SOL    HW122736   4.061   5.024   6.684
 7279SOL    HW222737   3.951   4.920   6.621
 7280SOL     OW22738   0.248   1.717   3.957
 7280SOL    HW122739   0.250   1.708   3.858
 7280SOL    HW222740   0.305   1.795   3.985
 7281SOL     OW22741   2.597   1.891   6.756
 7281SOL    HW122742   2.654   1.871   6.676
 7281SOL    HW222743   2.506   1.920   6.725
 7282SOL     OW22744   5.519   5.195   3.255
 7282SOL    HW122745   5.517   5.294   3.269
 7282SOL    HW222746   5.425   5.160   3.254
 7283SOL     OW22747   4.127   1.282   2.668
 7283SOL    HW122748   4.174   1.219   2.606
 7283SOL    HW222749   4.180   1.293   2.752
 7284SOL     OW22750   0.382   2.769   6.441
 7284SOL    HW122751   0.478   2.773   6.471
 7284SOL    HW222752   0.327   2.832   6.496
 7285SOL     OW22753   5.135   3.074   2.335
 7285SOL    HW122754   5.190   3.044   2.257
 7285SOL    HW222755   5.039   3.077   2.309
 7286SOL     OW22756   2.858   0.928   0.387
 7286SOL    HW122757   2.777   0.984   0.374
 7286SOL    HW222758   2.935   0.969   0.338
 7287SOL     OW22759   6.967   2.599   6.083
 7287SOL    HW122760   6.908   2.585   6.163
 7287SOL    HW222761   7.019   2.515   6.066
 7288SOL     OW22762   2.797   0.738   0.600
 7288SOL    HW122763   2.846   0.778   0.677
 7288SOL    HW222764   2.815   0.791   0.517
 7289SOL     OW22765   4.849   2.814   4.691
 7289SOL    HW122766   4.879   2.750   4.762
 7289SOL    HW222767   4.805   2.892   4.734
 7290SOL     OW22768   3.929   0.042   5.446
 7290SOL    HW122769   3.872   6.983   5.429
 7290SOL    HW222770   4.021   0.025   5.412
 7291SOL     OW22771   2.218   6.805   0.506
 7291SOL    HW122772   2.216   6.799   0.606
 7291SOL    HW222773   2.203   6.714   0.467
 7292SOL     OW22774   3.966   0.938   3.372
 7292SOL    HW122775   3.903   0.966   3.443
 7292SOL    HW222776   3.920   0.936   3.283
 7293SOL     OW22777   1.389   1.984   4.698
 7293SOL    HW122778   1.458   1.922   4.660
 7293SOL    HW222779   1.408   2.000   4.795
 7294SOL     OW22780   2.666   4.924   6.938
 7294SOL    HW122781   2.744   4.864   6.956
 7294SOL    HW222782   2.669   5.002   7.001
 7295SOL     OW22783   0.679   2.633   0.781
 7295SOL    HW122784   0.595   2.585   0.756
 7295SOL    HW222785   0.676   2.658   0.878
 7296SOL     OW22786   3.192   5.443   1.978
 7296SOL    HW122787   3.241   5.468   2.061
 7296SOL    HW222788   3.154   5.351   1.988
 7297SOL     OW22789   3.877   6.812   1.693
 7297SOL    HW122790   3.825   6.746   1.748
 7297SOL    HW222791   3.822   6.841   1.615
 7298SOL     OW22792   5.076   4.460   5.305
 7298SOL    HW122793   5.155   4.481   5.362
 7298SOL    HW222794   5.004   4.527   5.320
 7299SOL     OW22795   0.843   1.752   0.761
 7299SOL    HW122796   0.776   1.754   0.687
 7299SOL    HW222797   0.902   1.672   0.752
 7300SOL     OW22798   6.953   5.860   3.281
 7300SOL    HW122799   6.940   5.778   3.336
 7300SOL    HW222800   6.872   5.877   3.225
 7301SOL     OW22801   5.646   0.815   4.906
 7301SOL    HW122802   5.555   0.773   4.902
 7301SOL    HW222803   5.679   0.829   4.813
 7302SOL     OW22804   1.052   1.866   5.322
 7302SOL    HW122805   0.986   1.916   5.265
 7302SOL    HW222806   1.103   1.931   5.379
 7303SOL     OW22807   3.714   0.530   0.325
 7303SOL    HW122808   3.804   0.507   0.361
 7303SOL    HW222809   3.663   0.447   0.303
 7304SOL     OW22810   4.004   4.745   1.167
 7304SOL    HW122811   4.006   4.717   1.263
 7304SOL    HW222812   3.910   4.736   1.132
 7305SOL     OW22813   4.618   1.033   0.220
 7305SOL    HW122814   4.693   0.966   0.223
 7305SOL    HW222815   4.642   1.107   0.157
 7306SOL     OW22816   4.889   1.953   1.084
 7306SOL    HW122817   4.906   2.049   1.063
 7306SOL    HW222818   4.814   1.919   1.027
 7307SOL     OW22819   2.285   6.736   2.164
 7307SOL    HW122820   2.367   6.761   2.112
 7307SOL    HW222821   2.291   6.773   2.257
 7308SOL     OW22822   6.939   2.830   5.577
 7308SOL    HW122823   6.955   2.791   5.667
 7308SOL    HW222824   6.841   2.825   5.556
 7309SOL     OW22825   4.648   5.696   1.465
 7309SOL    HW122826   4.584   5.638   1.414
 7309SOL    HW222827   4.715   5.735   1.402
 7310SOL     OW22828   2.382   4.049   1.303
 7310SOL    HW122829   2.326   4.098   1.370
 7310SOL    HW222830   2.435   4.115   1.250
 7311SOL     OW22831   2.460   1.952   1.644
 7311SOL    HW122832   2.389   1.959   1.573
 7311SOL    HW222833   2.548   1.982   1.607
 7312SOL     OW22834   0.570   3.291   4.474
 7312SOL    HW122835   0.510   3.278   4.553
 7312SOL    HW222836   0.587   3.388   4.461
 7313SOL     OW22837   2.422   1.240   6.624
 7313SOL    HW122838   2.500   1.274   6.678
 7313SOL    HW222839   2.337   1.264   6.671
 7314SOL     OW22840   6.971   5.708   6.165
 7314SOL    HW122841   6.905   5.634   6.166
 7314SOL    HW222842   6.951   5.770   6.089
 7315SOL     OW22843   6.646   0.093   2.423
 7315SOL    HW122844   6.636   0.163   2.351
 7315SOL    HW222845   6.582   0.019   2.406
 7316SOL     OW22846   2.833   3.815   6.137
 7316SOL    HW122847   2.734   3.808   6.126
 7316SOL    HW222848   2.875   3.836   6.050
 7317SOL     OW22849   5.241   1.674   2.922
 7317SOL    HW122850   5.288   1.743   2.977
 7317SOL    HW222851   5.275   1.677   2.828
 7318SOL     OW22852   1.858   0.752   1.359
 7318SOL    HW122853   1.863   0.851   1.345
 7318SOL    HW222854   1.949   0.712   1.350
 7319SOL     OW22855   6.906   4.230   6.167
 7319SOL    HW122856   6.950   4.319   6.184
 7319SOL    HW222857   6.809   4.236   6.193
 7320SOL     OW22858   6.430   3.793   2.400
 7320SOL    HW122859   6.399   3.756   2.487
 7320SOL    HW222860   6.515   3.748   2.373
 7321SOL     OW22861   2.457   0.813   5.867
 7321SOL    HW122862   2.436   0.786   5.961
 7321SOL    HW222863   2.556   0.816   5.855
 7322SOL     OW22864   7.000   2.888   3.182
 7322SOL    HW122865   6.926   2.905   3.117
 7322SOL    HW222866   0.012   2.795   3.170
 7323SOL     OW22867   1.684   2.132   1.968
 7323SOL    HW122868   1.695   2.044   1.922
 7323SOL    HW222869   1.757   2.194   1.942
 7324SOL     OW22870   4.578   6.263   2.265
 7324SOL    HW122871   4.514   6.229   2.333
 7324SOL    HW222872   4.596   6.360   2.283
 7325SOL     OW22873   3.183   6.869   0.287
 7325SOL    HW122874   3.183   6.844   0.383
 7325SOL    HW222875   3.185   6.786   0.231
 7326SOL     OW22876   3.168   5.963   5.458
 7326SOL    HW122877   3.124   5.908   5.387
 7326SOL    HW222878   3.159   5.917   5.546
 7327SOL     OW22879   6.226   1.513   6.263
 7327SOL    HW122880   6.191   1.419   6.269
 7327SOL    HW222881   6.254   1.544   6.354
 7328SOL     OW22882   3.529   0.887   6.379
 7328SOL    HW122883   3.482   0.801   6.400
 7328SOL    HW222884   3.495   0.923   6.292
 7329SOL     OW22885   5.967   3.770   1.655
 7329SOL    HW122886   5.882   3.789   1.704
 7329SOL    HW222887   6.033   3.844   1.673
 7330SOL     OW22888   2.375   2.173   0.057
 7330SOL    HW122889   2.325   2.205   6.998
 7330SOL    HW222890   2.342   2.083   0.083
 7331SOL     OW22891   5.212   6.905   1.641
 7331SOL    HW122892   5.308   6.931   1.650
 7331SOL    HW222893   5.207   6.813   1.603
 7332SOL     OW22894   2.221   6.201   0.127
 7332SOL    HW122895   2.256   6.183   0.035
 7332SOL    HW222896   2.221   6.116   0.179
 7333SOL     OW22897   0.493   2.903   2.368
 7333SOL    HW122898   0.547   2.951   2.300
 7333SOL    HW222899   0.493   2.954   2.454
 7334SOL     OW22900   2.717   5.391   5.921
 7334SOL    HW122901   2.698   5.306   5.872
 7334SOL    HW222902   2.771   5.371   6.002
 7335SOL     OW22903   1.960   2.318   2.771
 7335SOL    HW122904   1.910   2.232   2.778
 7335SOL    HW222905   1.895   2.394   2.762
 7336SOL     OW22906   1.674   6.842   2.982
 7336SOL    HW122907   1.750   6.873   2.925
 7336SOL    HW222908   1.597   6.816   2.923
 7337SOL     OW22909   6.960   3.310   1.976
 7337SOL    HW122910   6.960   3.395   1.924
 7337SOL    HW222911   0.022   3.304   2.030
 7338SOL     OW22912   6.428   2.001   1.791
 7338SOL    HW122913   6.508   2.030   1.844
 7338SOL    HW222914   6.456   1.932   1.724
 7339SOL     OW22915   6.188   6.808   4.112
 7339SOL    HW122916   6.140   6.873   4.171
 7339SOL    HW222917   6.129   6.786   4.034
 7340SOL     OW22918   2.844   1.123   1.126
 7340SOL    HW122919   2.813   1.120   1.031
 7340SOL    HW222920   2.798   1.051   1.178
 7341SOL     OW22921   0.134   3.299   6.837
 7341SOL    HW122922   0.197   3.227   6.865
 7341SOL    HW222923   0.123   3.365   6.911
 7342SOL     OW22924   0.316   1.770   1.270
 7342SOL    HW122925   0.287   1.859   1.236
 7342SOL    HW222926   0.319   1.772   1.370
 7343SOL     OW22927   6.218   3.894   0.666
 7343SOL    HW122928   6.163   3.978   0.673
 7343SOL    HW222929   6.179   3.834   0.596
 7344SOL     OW22930   0.715   1.214   6.557
 7344SOL    HW122931   0.675   1.157   6.485
 7344SOL    HW222932   0.776   1.158   6.613
 7345SOL     OW22933   4.389   4.476   6.002
 7345SOL    HW122934   4.303   4.521   5.977
 7345SOL    HW222935   4.427   4.520   6.084
 7346SOL     OW22936   4.299   5.684   2.073
 7346SOL    HW122937   4.330   5.777   2.052
 7346SOL    HW222938   4.330   5.622   2.002
 7347SOL     OW22939   1.201   1.685   0.637
 7347SOL    HW122940   1.106   1.661   0.659
 7347SOL    HW222941   1.258   1.672   0.718
 7348SOL     OW22942   1.436   4.128   4.074
 7348SOL    HW122943   1.522   4.155   4.031
 7348SOL    HW222944   1.429   4.170   4.164
 7349SOL     OW22945   4.724   1.296   1.345
 7349SOL    HW122946   4.707   1.225   1.277
 7349SOL    HW222947   4.812   1.340   1.325
 7350SOL     OW22948   2.875   2.271   5.679
 7350SOL    HW122949   2.870   2.344   5.747
 7350SOL    HW222950   2.956   2.283   5.622
 7351SOL     OW22951   5.600   5.798   4.368
 7351SOL    HW122952   5.538   5.875   4.380
 7351SOL    HW222953   5.548   5.717   4.340
 7352SOL     OW22954   1.784   1.375   3.209
 7352SOL    HW122955   1.706   1.429   3.177
 7352SOL    HW222956   1.760   1.277   3.205
 7353SOL     OW22957   0.131   0.494   5.948
 7353SOL    HW122958   0.123   0.485   6.047
 7353SOL    HW222959   0.040   0.498   5.907
 7354SOL     OW22960   0.985   1.860   4.545
 7354SOL    HW122961   1.042   1.884   4.467
 7354SOL    HW222962   0.998   1.928   4.617
 7355SOL     OW22963   1.347   0.804   1.079
 7355SOL    HW122964   1.371   0.767   0.990
 7355SOL    HW222965   1.247   0.810   1.086
 7356SOL     OW22966   3.777   3.627   6.645
 7356SOL    HW122967   3.855   3.666   6.597
 7356SOL    HW222968   3.697   3.686   6.631
 7357SOL     OW22969   3.117   6.247   1.804
 7357SOL    HW122970   3.075   6.201   1.726
 7357SOL    HW222971   3.061   6.231   1.886
 7358SOL     OW22972   6.567   3.358   2.414
 7358SOL    HW122973   6.467   3.348   2.415
 7358SOL    HW222974   6.597   3.399   2.500
 7359SOL     OW22975   4.314   2.032   5.744
 7359SOL    HW122976   4.337   2.122   5.779
 7359SOL    HW222977   4.364   2.016   5.659
 7360SOL     OW22978   2.888   3.439   5.405
 7360SOL    HW122979   2.953   3.473   5.473
 7360SOL    HW222980   2.809   3.398   5.451
 7361SOL     OW22981   5.113   0.678   2.326
 7361SOL    HW122982   5.156   0.764   2.298
 7361SOL    HW222983   5.066   0.690   2.413
 7362SOL     OW22984   1.676   6.012   6.284
 7362SOL    HW122985   1.631   6.096   6.252
 7362SOL    HW222986   1.607   5.951   6.325
 7363SOL     OW22987   4.421   1.787   0.907
 7363SOL    HW122988   4.462   1.842   0.980
 7363SOL    HW222989   4.322   1.784   0.919
 7364SOL     OW22990   4.604   0.819   1.939
 7364SOL    HW122991   4.526   0.774   1.895
 7364SOL    HW222992   4.670   0.848   1.868
 7365SOL     OW22993   0.281   6.220   1.651
 7365SOL    HW122994   0.243   6.312   1.658
 7365SOL    HW222995   0.316   6.191   1.741
 7366SOL     OW22996   2.141   6.718   6.062
 7366SOL    HW122997   2.194   6.635   6.042
 7366SOL    HW222998   2.184   6.767   6.137
 7367SOL     OW22999   4.666   2.729   1.069
 7367SOL    HW123000   4.674   2.719   1.168
 7367SOL    HW223001   4.573   2.760   1.046
 7368SOL     OW23002   3.986   3.056   2.864
 7368SOL    HW123003   3.893   3.024   2.842
 7368SOL    HW223004   4.035   3.076   2.779
 7369SOL     OW23005   2.891   2.374   1.171
 7369SOL    HW123006   2.922   2.282   1.196
 7369SOL    HW223007   2.930   2.441   1.234
 7370SOL     OW23008   2.218   1.591   5.202
 7370SOL    HW123009   2.179   1.590   5.110
 7370SOL    HW223010   2.157   1.641   5.264
 7371SOL     OW23011   2.525   6.741   3.358
 7371SOL    HW123012   2.481   6.697   3.280
 7371SOL    HW223013   2.563   6.829   3.330
 7372SOL     OW23014   4.298   0.339   4.303
 7372SOL    HW123015   4.283   0.279   4.224
 7372SOL    HW223016   4.259   0.297   4.385
 7373SOL     OW23017   5.943   1.635   4.405
 7373SOL    HW123018   5.885   1.631   4.324
 7373SOL    HW223019   5.958   1.543   4.441
 7374SOL     OW23020   2.668   2.125   4.948
 7374SOL    HW123021   2.767   2.106   4.946
 7374SOL    HW223022   2.619   2.042   4.922
 7375SOL     OW23023   2.118   2.574   2.208
 7375SOL    HW123024   2.161   2.581   2.298
 7375SOL    HW223025   2.176   2.618   2.140
 7376SOL     OW23026   1.743   1.555   1.127
 7376SOL    HW123027   1.707   1.531   1.217
 7376SOL    HW223028   1.743   1.473   1.069
 7377SOL     OW23029   5.172   4.926   0.656
 7377SOL    HW123030   5.217   4.962   0.738
 7377SOL    HW223031   5.224   4.953   0.575
 7378SOL     OW23032   0.668   0.425   5.369
 7378SOL    HW123033   0.601   0.388   5.304
 7378SOL    HW223034   0.664   0.373   5.454
 7379SOL     OW23035   3.416   1.544   2.384
 7379SOL    HW123036   3.486   1.504   2.443
 7379SOL    HW223037   3.430   1.643   2.379
 7380SOL     OW23038   0.620   4.551   3.832
 7380SOL    HW123039   0.559   4.555   3.752
 7380SOL    HW223040   0.684   4.475   3.820
 7381SOL     OW23041   4.274   3.155   0.646
 7381SOL    HW123042   4.224   3.239   0.626
 7381SOL    HW223043   4.217   3.076   0.624
 7382SOL     OW23044   6.981   1.091   4.744
 7382SOL    HW123045   6.969   1.190   4.757
 7382SOL    HW223046   6.925   1.062   4.666
 7383SOL     OW23047   2.775   6.414   1.066
 7383SOL    HW123048   2.815   6.476   0.998
 7383SOL    HW223049   2.849   6.374   1.121
 7384SOL     OW23050   0.323   6.638   3.013
 7384SOL    HW123051   0.268   6.720   3.029
 7384SOL    HW223052   0.319   6.614   2.916
 7385SOL     OW23053   3.031   5.447   2.545
 7385SOL    HW123054   3.016   5.520   2.611
 7385SOL    HW223055   2.960   5.450   2.475
 7386SOL     OW23056   7.010   2.676   6.832
 7386SOL    HW123057   0.044   2.599   6.864
 7386SOL    HW223058   0.018   2.760   6.878
 7387SOL     OW23059   6.560   5.099   5.741
 7387SOL    HW123060   6.633   5.032   5.733
 7387SOL    HW223061   6.515   5.089   5.830
 7388SOL     OW23062   1.060   4.853   2.153
 7388SOL    HW123063   1.089   4.758   2.165
 7388SOL    HW223064   1.094   4.889   2.066
 7389SOL     OW23065   6.409   4.169   6.157
 7389SOL    HW123066   6.414   4.256   6.108
 7389SOL    HW223067   6.327   4.167   6.214
 7390SOL     OW23068   1.976   2.186   2.050
 7390SOL    HW123069   1.924   2.123   2.108
 7390SOL    HW223070   1.957   2.280   2.079
 7391SOL     OW23071   4.073   3.482   3.701
 7391SOL    HW123072   4.087   3.458   3.797
 7391SOL    HW223073   3.989   3.535   3.691
 7392SOL     OW23074   3.364   6.116   6.689
 7392SOL    HW123075   3.395   6.174   6.764
 7392SOL    HW223076   3.287   6.159   6.643
 7393SOL     OW23077   6.279   4.741   3.169
 7393SOL    HW123078   6.248   4.795   3.248
 7393SOL    HW223079   6.224   4.658   3.162
 7394SOL     OW23080   1.520   3.191   5.579
 7394SOL    HW123081   1.530   3.102   5.623
 7394SOL    HW223082   1.589   3.202   5.508
 7395SOL     OW23083   2.091   3.621   1.417
 7395SOL    HW123084   2.129   3.706   1.453
 7395SOL    HW223085   2.162   3.570   1.370
 7396SOL     OW23086   2.346   6.749   1.160
 7396SOL    HW123087   2.359   6.810   1.238
 7396SOL    HW223088   2.279   6.678   1.183
 7397SOL     OW23089   4.848   5.834   4.780
 7397SOL    HW123090   4.853   5.934   4.773
 7397SOL    HW223091   4.759   5.809   4.818
 7398SOL     OW23092   1.387   5.015   3.102
 7398SOL    HW123093   1.452   4.939   3.108
 7398SOL    HW223094   1.321   5.010   3.177
 7399SOL     OW23095   0.341   2.303   4.665
 7399SOL    HW123096   0.328   2.311   4.567
 7399SOL    HW223097   0.439   2.308   4.686
 7400SOL     OW23098   4.218   3.032   6.028
 7400SOL    HW123099   4.246   2.946   5.985
 7400SOL    HW223100   4.182   3.093   5.958
 7401SOL     OW23101   0.981   2.998   3.462
 7401SOL    HW123102   1.015   2.938   3.534
 7401SOL    HW223103   0.904   2.954   3.416
 7402SOL     OW23104   3.261   4.314   5.975
 7402SOL    HW123105   3.268   4.291   5.878
 7402SOL    HW223106   3.233   4.234   6.027
 7403SOL     OW23107   1.396   4.449   2.477
 7403SOL    HW123108   1.327   4.521   2.474
 7403SOL    HW223109   1.352   4.360   2.490
 7404SOL     OW23110   3.053   4.655   1.683
 7404SOL    HW123111   3.040   4.668   1.781
 7404SOL    HW223112   3.020   4.564   1.657
 7405SOL     OW23113   3.877   4.891   4.121
 7405SOL    HW123114   3.849   4.893   4.217
 7405SOL    HW223115   3.796   4.904   4.063
 7406SOL     OW23116   0.580   1.974   4.238
 7406SOL    HW123117   0.574   1.972   4.139
 7406SOL    HW223118   0.598   2.068   4.269
 7407SOL     OW23119   0.984   6.967   5.091
 7407SOL    HW123120   1.071   6.990   5.047
 7407SOL    HW223121   0.921   6.931   5.022
 7408SOL     OW23122   3.830   3.983   5.927
 7408SOL    HW123123   3.837   3.891   5.890
 7408SOL    HW223124   3.771   4.038   5.869
 7409SOL     OW23125   5.338   3.242   6.791
 7409SOL    HW123126   5.414   3.190   6.829
 7409SOL    HW223127   5.351   3.339   6.810
 7410SOL     OW23128   0.700   0.815   6.942
 7410SOL    HW123129   0.798   0.799   6.931
 7410SOL    HW223130   0.649   0.750   6.885
 7411SOL     OW23131   2.394   1.202   0.291
 7411SOL    HW123132   2.389   1.299   0.264
 7411SOL    HW223133   2.483   1.183   0.331
 7412SOL     OW23134   4.249   0.153   1.352
 7412SOL    HW123135   4.243   0.066   1.303
 7412SOL    HW223136   4.271   0.136   1.448
 7413SOL     OW23137   4.520   5.081   3.954
 7413SOL    HW123138   4.536   5.159   3.893
 7413SOL    HW223139   4.426   5.049   3.941
 7414SOL     OW23140   1.992   0.848   3.362
 7414SOL    HW123141   2.083   0.885   3.379
 7414SOL    HW223142   1.923   0.918   3.377
 7415SOL     OW23143   1.967   4.310   4.655
 7415SOL    HW123144   2.051   4.291   4.605
 7415SOL    HW223145   1.890   4.264   4.609
 7416SOL     OW23146   2.430   0.329   2.022
 7416SOL    HW123147   2.385   0.371   2.101
 7416SOL    HW223148   2.524   0.364   2.015
 7417SOL     OW23149   2.084   2.386   1.531
 7417SOL    HW123150   2.156   2.323   1.560
 7417SOL    HW223151   1.998   2.361   1.574
 7418SOL     OW23152   1.574   5.278   0.015
 7418SOL    HW123153   1.574   5.181   0.038
 7418SOL    HW223154   1.611   5.291   6.945
 7419SOL     OW23155   6.633   4.046   4.138
 7419SOL    HW123156   6.691   4.089   4.207
 7419SOL    HW223157   6.686   3.977   4.089
 7420SOL     OW23158   0.241   6.539   1.003
 7420SOL    HW123159   0.147   6.510   1.018
 7420SOL    HW223160   0.244   6.602   0.926
 7421SOL     OW23161   4.282   3.553   1.014
 7421SOL    HW123162   4.364   3.607   0.996
 7421SOL    HW223163   4.282   3.523   1.110
 7422SOL     OW23164   0.219   4.511   2.066
 7422SOL    HW123165   0.234   4.558   1.978
 7422SOL    HW223166   0.127   4.530   2.099
 7423SOL     OW23167   6.019   2.327   5.704
 7423SOL    HW123168   6.056   2.418   5.690
 7423SOL    HW223169   6.051   2.290   5.791
 7424SOL     OW23170   0.179   1.620   5.971
 7424SOL    HW123171   0.221   1.665   6.050
 7424SOL    HW223172   0.097   1.571   6.000
 7425SOL     OW23173   5.029   0.309   0.259
 7425SOL    HW123174   5.120   0.351   0.248
 7425SOL    HW223175   5.040   0.213   0.287
 7426SOL     OW23176   2.877   1.801   5.126
 7426SOL    HW123177   2.924   1.872   5.178
 7426SOL    HW223178   2.903   1.807   5.030
 7427SOL     OW23179   4.904   0.971   4.066
 7427SOL    HW123180   4.837   0.954   4.137
 7427SOL    HW223181   4.920   0.887   4.014
 7428SOL     OW23182   4.041   0.632   5.109
 7428SOL    HW123183   3.986   0.605   5.189
 7428SOL    HW223184   4.012   0.723   5.079
 7429SOL     OW23185   0.655   6.254   3.738
 7429SOL    HW123186   0.702   6.172   3.706
 7429SOL    HW223187   0.689   6.279   3.828
 7430SOL     OW23188   0.331   3.765   1.399
 7430SOL    HW123189   0.405   3.701   1.422
 7430SOL    HW223190   0.339   3.793   1.304
 7431SOL     OW23191   0.909   2.330   2.897
 7431SOL    HW123192   0.989   2.371   2.941
 7431SOL    HW223193   0.927   2.320   2.799
 7432SOL     OW23194   1.955   0.391   3.386
 7432SOL    HW123195   2.034   0.337   3.356
 7432SOL    HW223196   1.983   0.485   3.404
 7433SOL     OW23197   3.940   5.981   6.316
 7433SOL    HW123198   3.891   5.903   6.354
 7433SOL    HW223199   3.886   6.020   6.240
 7434SOL     OW23200   5.050   5.438   5.555
 7434SOL    HW123201   5.083   5.423   5.461
 7434SOL    HW223202   5.047   5.537   5.573
 7435SOL     OW23203   4.739   6.426   1.008
 7435SOL    HW123204   4.735   6.348   0.945
 7435SOL    HW223205   4.673   6.412   1.082
 7436SOL     OW23206   4.660   4.210   6.263
 7436SOL    HW123207   4.744   4.188   6.314
 7436SOL    HW223208   4.662   4.162   6.175
 7437SOL     OW23209   2.955   5.932   0.343
 7437SOL    HW123210   2.862   5.906   0.316
 7437SOL    HW223211   2.991   5.999   0.278
 7438SOL     OW23212   0.747   6.764   0.094
 7438SOL    HW123213   0.690   6.683   0.101
 7438SOL    HW223214   0.772   6.796   0.186
 7439SOL     OW23215   1.781   6.791   6.206
 7439SOL    HW123216   1.793   6.693   6.194
 7439SOL    HW223217   1.806   6.838   6.121
 7440SOL     OW23218   6.742   2.792   3.870
 7440SOL    HW123219   6.718   2.856   3.943
 7440SOL    HW223220   6.666   2.729   3.855
 7441SOL     OW23221   5.760   0.245   4.887
 7441SOL    HW123222   5.739   0.342   4.875
 7441SOL    HW223223   5.777   0.203   4.798
 7442SOL     OW23224   6.207   1.447   0.074
 7442SOL    HW123225   6.139   1.495   0.129
 7442SOL    HW223226   6.293   1.441   0.125
 7443SOL     OW23227   6.192   5.915   1.586
 7443SOL    HW123228   6.209   5.880   1.678
 7443SOL    HW223229   6.094   5.924   1.571
 7444SOL     OW23230   5.540   1.937   0.361
 7444SOL    HW123231   5.489   1.852   0.366
 7444SOL    HW223232   5.496   2.006   0.418
 7445SOL     OW23233   3.379   0.627   1.238
 7445SOL    HW123234   3.328   0.684   1.174
 7445SOL    HW223235   3.477   0.644   1.228
 7446SOL     OW23236   5.515   2.398   0.005
 7446SOL    HW123237   5.585   2.426   0.071
 7446SOL    HW223238   5.426   2.395   0.051
 7447SOL     OW23239   6.474   4.696   0.220
 7447SOL    HW123240   6.392   4.752   0.236
 7447SOL    HW223241   6.486   4.684   0.121
 7448SOL     OW23242   6.310   6.674   4.815
 7448SOL    HW123243   6.404   6.654   4.785
 7448SOL    HW223244   6.302   6.653   4.912
 7449SOL     OW23245   0.581   5.262   0.894
 7449SOL    HW123246   0.584   5.294   0.799
 7449SOL    HW223247   0.613   5.335   0.955
 7450SOL     OW23248   5.449   2.428   4.778
 7450SOL    HW123249   5.370   2.475   4.817
 7450SOL    HW223250   5.522   2.494   4.763
 7451SOL     OW23251   6.513   6.425   2.648
 7451SOL    HW123252   6.597   6.385   2.612
 7451SOL    HW223253   6.438   6.360   2.637
 7452SOL     OW23254   5.614   5.898   3.964
 7452SOL    HW123255   5.627   5.955   4.046
 7452SOL    HW223256   5.639   5.804   3.986
 7453SOL     OW23257   4.915   5.385   4.707
 7453SOL    HW123258   4.981   5.315   4.737
 7453SOL    HW223259   4.834   5.340   4.670
 7454SOL     OW23260   2.019   2.341   1.259
 7454SOL    HW123261   2.049   2.360   1.353
 7454SOL    HW223262   1.956   2.413   1.230
 7455SOL     OW23263   6.675   2.723   2.066
 7455SOL    HW123264   6.773   2.719   2.051
 7455SOL    HW223265   6.647   2.818   2.082
 7456SOL     OW23266   1.934   0.981   4.762
 7456SOL    HW123267   1.911   1.005   4.856
 7456SOL    HW223268   1.925   0.882   4.749
 7457SOL     OW23269   3.100   0.391   4.932
 7457SOL    HW123270   3.060   0.439   4.854
 7457SOL    HW223271   3.045   0.409   5.014
 7458SOL     OW23272   2.024   0.440   5.835
 7458SOL    HW123273   2.102   0.472   5.781
 7458SOL    HW223274   2.037   0.344   5.860
 7459SOL     OW23275   5.785   1.207   2.392
 7459SOL    HW123276   5.801   1.132   2.328
 7459SOL    HW223277   5.687   1.212   2.413
 7460SOL     OW23278   0.616   5.835   0.307
 7460SOL    HW123279   0.696   5.858   0.363
 7460SOL    HW223280   0.646   5.815   0.214
 7461SOL     OW23281   5.939   6.948   6.428
 7461SOL    HW123282   5.985   6.901   6.352
 7461SOL    HW223283   5.953   6.896   6.512
 7462SOL     OW23284   1.531   4.588   2.247
 7462SOL    HW123285   1.477   4.649   2.305
 7462SOL    HW223286   1.551   4.504   2.297
 7463SOL     OW23287   3.029   4.320   6.788
 7463SOL    HW123288   3.054   4.384   6.715
 7463SOL    HW223289   2.968   4.366   6.853
 7464SOL     OW23290   5.652   6.988   5.739
 7464SOL    HW123291   5.627   0.060   5.717
 7464SOL    HW223292   5.732   6.961   5.685
 7465SOL     OW23293   2.384   5.110   6.712
 7465SOL    HW123294   2.341   5.145   6.629
 7465SOL    HW223295   2.418   5.186   6.767
 7466SOL     OW23296   6.755   0.605   5.318
 7466SOL    HW123297   6.759   0.570   5.412
 7466SOL    HW223298   6.841   0.586   5.271
 7467SOL     OW23299   0.334   2.367   5.847
 7467SOL    HW123300   0.387   2.307   5.907
 7467SOL    HW223301   0.383   2.453   5.834
 7468SOL     OW23302   5.370   3.097   3.885
 7468SOL    HW123303   5.285   3.101   3.938
 7468SOL    HW223304   5.447   3.082   3.947
 7469SOL     OW23305   0.157   0.739   6.506
 7469SOL    HW123306   0.233   0.736   6.571
 7469SOL    HW223307   0.186   0.784   6.422
 7470SOL     OW23308   5.586   3.721   3.681
 7470SOL    HW123309   5.513   3.653   3.688
 7470SOL    HW223310   5.652   3.693   3.612
 7471SOL     OW23311   5.117   6.532   6.072
 7471SOL    HW123312   5.161   6.584   5.999
 7471SOL    HW223313   5.110   6.589   6.154
 7472SOL     OW23314   6.853   1.102   5.596
 7472SOL    HW123315   6.816   1.193   5.581
 7472SOL    HW223316   6.779   1.036   5.602
 7473SOL     OW23317   5.080   5.592   3.842
 7473SOL    HW123318   5.033   5.513   3.804
 7473SOL    HW223319   5.104   5.575   3.937
 7474SOL     OW23320   6.548   1.746   6.551
 7474SOL    HW123321   6.607   1.827   6.551
 7474SOL    HW223322   6.480   1.754   6.478
 7475SOL     OW23323   4.334   2.411   1.781
 7475SOL    HW123324   4.362   2.457   1.697
 7475SOL    HW223325   4.283   2.328   1.759
 7476SOL     OW23326   2.949   1.251   2.678
 7476SOL    HW123327   2.866   1.292   2.718
 7476SOL    HW223328   3.004   1.211   2.750
 7477SOL     OW23329   6.489   2.431   4.962
 7477SOL    HW123330   6.464   2.348   4.911
 7477SOL    HW223331   6.410   2.466   5.011
 7478SOL     OW23332   5.916   3.632   5.276
 7478SOL    HW123333   5.856   3.552   5.268
 7478SOL    HW223334   5.995   3.609   5.332
 7479SOL     OW23335   4.416   2.459   2.030
 7479SOL    HW123336   4.514   2.480   2.029
 7479SOL    HW223337   4.382   2.452   1.936
 7480SOL     OW23338   1.860   5.044   2.592
 7480SOL    HW123339   1.862   5.121   2.528
 7480SOL    HW223340   1.814   4.966   2.550
 7481SOL     OW23341   5.777   4.952   0.877
 7481SOL    HW123342   5.737   4.909   0.796
 7481SOL    HW223343   5.867   4.990   0.853
 7482SOL     OW23344   4.696   2.614   2.954
 7482SOL    HW123345   4.730   2.633   2.862
 7482SOL    HW223346   4.728   2.685   3.016
 7483SOL     OW23347   4.910   3.380   4.815
 7483SOL    HW123348   4.916   3.424   4.725
 7483SOL    HW223349   4.877   3.447   4.882
 7484SOL     OW23350   1.735   5.835   4.542
 7484SOL    HW123351   1.682   5.780   4.607
 7484SOL    HW223352   1.761   5.921   4.585
 7485SOL     OW23353   2.714   0.240   4.925
 7485SOL    HW123354   2.717   0.322   4.868
 7485SOL    HW223355   2.709   0.265   5.021
 7486SOL     OW23356   1.172   6.672   6.944
 7486SOL    HW123357   1.208   6.697   6.854
 7486SOL    HW223358   1.246   6.639   7.001
 7487SOL     OW23359   2.955   0.904   3.585
 7487SOL    HW123360   3.015   0.983   3.573
 7487SOL    HW223361   2.877   0.912   3.525
 7488SOL     OW23362   1.909   5.665   5.091
 7488SOL    HW123363   1.947   5.572   5.091
 7488SOL    HW223364   1.938   5.713   5.174
 7489SOL     OW23365   6.553   2.819   6.750
 7489SOL    HW123366   6.491   2.764   6.694
 7489SOL    HW223367   6.530   2.916   6.740
 7490SOL     OW23368   1.492   0.521   3.267
 7490SOL    HW123369   1.568   0.524   3.201
 7490SOL    HW223370   1.527   0.492   3.356
 7491SOL     OW23371   4.358   3.064   6.712
 7491SOL    HW123372   4.414   3.115   6.777
 7491SOL    HW223373   4.343   3.119   6.630
 7492SOL     OW23374   2.173   0.698   3.702
 7492SOL    HW123375   2.130   0.699   3.793
 7492SOL    HW223376   2.260   0.747   3.706
 7493SOL     OW23377   6.831   2.558   6.324
 7493SOL    HW123378   6.754   2.494   6.322
 7493SOL    HW223379   6.805   2.638   6.378
 7494SOL     OW23380   5.956   1.489   3.326
 7494SOL    HW123381   5.879   1.520   3.271
 7494SOL    HW223382   5.945   1.392   3.348
 7495SOL     OW23383   0.937   3.155   6.381
 7495SOL    HW123384   0.867   3.090   6.411
 7495SOL    HW223385   0.898   3.247   6.380
 7496SOL     OW23386   5.767   3.617   3.822
 7496SOL    HW123387   5.677   3.638   3.782
 7496SOL    HW223388   5.821   3.566   3.756
 7497SOL     OW23389   1.564   4.817   1.305
 7497SOL    HW123390   1.477   4.858   1.332
 7497SOL    HW223391   1.593   4.752   1.375
 7498SOL     OW23392   3.151   1.077   4.348
 7498SOL    HW123393   3.241   1.060   4.307
 7498SOL    HW223394   3.084   1.013   4.310
 7499SOL     OW23395   4.233   2.336   3.266
 7499SOL    HW123396   4.262   2.412   3.207
 7499SOL    HW223397   4.298   2.326   3.341
 7500SOL     OW23398   3.777   5.920   3.203
 7500SOL    HW123399   3.803   5.910   3.299
 7500SOL    HW223400   3.855   5.897   3.145
 7501SOL     OW23401   5.190   4.406   3.921
 7501SOL    HW123402   5.259   4.349   3.966
 7501SOL    HW223403   5.099   4.373   3.944
 7502SOL     OW23404   2.981   0.427   4.493
 7502SOL    HW123405   2.902   0.487   4.507
 7502SOL    HW223406   2.978   0.352   4.559
 7503SOL     OW23407   2.703   6.889   1.153
 7503SOL    HW123408   2.681   6.807   1.206
 7503SOL    HW223409   2.722   6.864   1.059
 7504SOL     OW23410   0.642   6.233   3.438
 7504SOL    HW123411   0.666   6.136   3.432
 7504SOL    HW223412   0.598   6.251   3.526
 7505SOL     OW23413   1.512   2.404   6.438
 7505SOL    HW123414   1.554   2.313   6.429
 7505SOL    HW223415   1.459   2.408   6.523
 7506SOL     OW23416   5.202   2.780   4.121
 7506SOL    HW123417   5.119   2.819   4.161
 7506SOL    HW223418   5.282   2.821   4.165
 7507SOL     OW23419   5.820   1.745   2.629
 7507SOL    HW123420   5.879   1.823   2.652
 7507SOL    HW223421   5.744   1.777   2.572
 7508SOL     OW23422   2.379   5.184   0.758
 7508SOL    HW123423   2.291   5.137   0.749
 7508SOL    HW223424   2.441   5.153   0.686
 7509SOL     OW23425   6.086   3.725   0.505
 7509SOL    HW123426   6.106   3.666   0.426
 7509SOL    HW223427   6.021   3.679   0.565
 7510SOL     OW23428   3.826   3.497   4.466
 7510SOL    HW123429   3.737   3.469   4.429
 7510SOL    HW223430   3.816   3.517   4.564
 7511SOL     OW23431   3.187   6.167   3.295
 7511SOL    HW123432   3.206   6.261   3.268
 7511SOL    HW223433   3.189   6.159   3.395
 7512SOL     OW23434   2.748   1.169   6.653
 7512SOL    HW123435   2.774   1.137   6.745
 7512SOL    HW223436   2.712   1.262   6.659
 7513SOL     OW23437   1.505   0.873   2.281
 7513SOL    HW123438   1.560   0.954   2.302
 7513SOL    HW223439   1.511   0.854   2.183
 7514SOL     OW23440   2.396   4.832   2.915
 7514SOL    HW123441   2.318   4.772   2.894
 7514SOL    HW223442   2.449   4.847   2.832
 7515SOL     OW23443   6.591   4.846   4.683
 7515SOL    HW123444   6.602   4.838   4.782
 7515SOL    HW223445   6.672   4.808   4.638
 7516SOL     OW23446   0.705   5.297   6.150
 7516SOL    HW123447   0.732   5.373   6.211
 7516SOL    HW223448   0.655   5.229   6.202
 7517SOL     OW23449   0.914   2.177   0.444
 7517SOL    HW123450   0.976   2.193   0.368
 7517SOL    HW223451   0.841   2.115   0.415
 7518SOL     OW23452   5.186   3.491   4.019
 7518SOL    HW123453   5.205   3.440   3.935
 7518SOL    HW223454   5.229   3.581   4.013
 7519SOL     OW23455   6.886   6.641   4.750
 7519SOL    HW123456   6.800   6.689   4.732
 7519SOL    HW223457   6.918   6.662   4.842
 7520SOL     OW23458   2.302   0.541   2.958
 7520SOL    HW123459   2.354   0.509   2.879
 7520SOL    HW223460   2.360   0.600   3.014
 7521SOL     OW23461   5.521   2.680   5.270
 7521SOL    HW123462   5.545   2.642   5.360
 7521SOL    HW223463   5.547   2.615   5.199
 7522SOL     OW23464   1.448   0.650   5.989
 7522SOL    HW123465   1.422   0.723   6.052
 7522SOL    HW223466   1.458   0.687   5.897
 7523SOL     OW23467   4.821   0.793   6.466
 7523SOL    HW123468   4.807   0.819   6.371
 7523SOL    HW223469   4.913   0.756   6.478
 7524SOL     OW23470   0.799   2.505   5.370
 7524SOL    HW123471   0.789   2.605   5.375
 7524SOL    HW223472   0.716   2.462   5.407
 7525SOL     OW23473   4.122   0.012   6.974
 7525SOL    HW123474   4.179   0.050   6.900
 7525SOL    HW223475   4.176   0.010   0.037
 7526SOL     OW23476   2.880   2.820   1.712
 7526SOL    HW123477   2.930   2.744   1.756
 7526SOL    HW223478   2.916   2.907   1.745
 7527SOL     OW23479   3.283   5.651   4.218
 7527SOL    HW123480   3.243   5.742   4.204
 7527SOL    HW223481   3.300   5.608   4.130
 7528SOL     OW23482   6.044   2.016   6.539
 7528SOL    HW123483   6.138   2.049   6.523
 7528SOL    HW223484   5.985   2.093   6.561
 7529SOL     OW23485   5.408   1.867   4.789
 7529SOL    HW123486   5.444   1.801   4.855
 7529SOL    HW223487   5.479   1.891   4.724
 7530SOL     OW23488   6.041   2.754   2.308
 7530SOL    HW123489   6.066   2.784   2.216
 7530SOL    HW223490   5.984   2.823   2.352
 7531SOL     OW23491   5.247   3.350   4.244
 7531SOL    HW123492   5.189   3.391   4.174
 7531SOL    HW223493   5.318   3.415   4.270
 7532SOL     OW23494   4.638   6.256   0.570
 7532SOL    HW123495   4.657   6.295   0.480
 7532SOL    HW223496   4.555   6.201   0.564
 7533SOL     OW23497   3.673   1.955   1.954
 7533SOL    HW123498   3.669   2.054   1.969
 7533SOL    HW223499   3.599   1.928   1.892
 7534SOL     OW23500   5.104   6.033   4.203
 7534SOL    HW123501   5.068   5.960   4.261
 7534SOL    HW223502   5.179   5.997   4.147
 7535SOL     OW23503   1.699   6.540   4.989
 7535SOL    HW123504   1.678   6.517   5.084
 7535SOL    HW223505   1.792   6.510   4.968
 7536SOL     OW23506   4.767   5.354   4.031
 7536SOL    HW123507   4.714   5.326   3.951
 7536SOL    HW223508   4.827   5.431   4.005
 7537SOL     OW23509   1.642   4.903   2.916
 7537SOL    HW123510   1.556   4.894   2.866
 7537SOL    HW223511   1.684   4.992   2.896
 7538SOL     OW23512   1.783   2.426   1.509
 7538SOL    HW123513   1.803   2.492   1.437
 7538SOL    HW223514   1.748   2.473   1.590
 7539SOL     OW23515   1.662   4.176   3.931
 7539SOL    HW123516   1.714   4.100   3.891
 7539SOL    HW223517   1.709   4.262   3.912
 7540SOL     OW23518   4.155   0.205   4.511
 7540SOL    HW123519   4.072   0.150   4.524
 7540SOL    HW223520   4.225   0.175   4.575
 7541SOL     OW23521   0.280   4.084   5.822
 7541SOL    HW123522   0.363   4.053   5.867
 7541SOL    HW223523   0.224   4.136   5.887
 7542SOL     OW23524   6.566   6.107   0.713
 7542SOL    HW123525   6.574   6.079   0.617
 7542SOL    HW223526   6.545   6.205   0.717
 7543SOL     OW23527   3.164   1.296   5.278
 7543SOL    HW123528   3.159   1.197   5.284
 7543SOL    HW223529   3.201   1.322   5.188
 7544SOL     OW23530   6.651   2.490   4.416
 7544SOL    HW123531   6.727   2.435   4.383
 7544SOL    HW223532   6.661   2.584   4.382
 7545SOL     OW23533   0.931   6.346   6.417
 7545SOL    HW123534   0.850   6.305   6.457
 7545SOL    HW223535   0.924   6.446   6.421
 7546SOL     OW23536   4.649   2.141   1.391
 7546SOL    HW123537   4.601   2.155   1.478
 7546SOL    HW223538   4.628   2.217   1.329
 7547SOL     OW23539   5.041   1.286   1.059
 7547SOL    HW123540   5.073   1.193   1.041
 7547SOL    HW223541   5.005   1.291   1.152
 7548SOL     OW23542   4.720   2.385   6.166
 7548SOL    HW123543   4.702   2.471   6.214
 7548SOL    HW223544   4.818   2.366   6.167
 7549SOL     OW23545   3.585   3.038   6.511
 7549SOL    HW123546   3.644   3.022   6.591
 7549SOL    HW223547   3.555   3.133   6.511
 7550SOL     OW23548   1.748   4.459   3.614
 7550SOL    HW123549   1.832   4.414   3.583
 7550SOL    HW223550   1.672   4.394   3.611
 7551SOL     OW23551   5.854   2.872   5.414
 7551SOL    HW123552   5.776   2.924   5.449
 7551SOL    HW223553   5.822   2.782   5.384
 7552SOL     OW23554   1.716   5.702   4.278
 7552SOL    HW123555   1.750   5.718   4.371
 7552SOL    HW223556   1.622   5.669   4.281
 7553SOL     OW23557   4.520   6.766   5.777
 7553SOL    HW123558   4.436   6.817   5.793
 7553SOL    HW223559   4.578   6.816   5.713
 7554SOL     OW23560   4.645   0.630   6.627
 7554SOL    HW123561   4.707   0.672   6.560
 7554SOL    HW223562   4.551   0.634   6.592
 7555SOL     OW23563   2.986   5.487   6.529
 7555SOL    HW123564   2.913   5.469   6.464
 7555SOL    HW223565   2.978   5.424   6.606
 7556SOL     OW23566   2.645   1.664   0.382
 7556SOL    HW123567   2.566   1.665   0.320
 7556SOL    HW223568   2.722   1.710   0.339
 7557SOL     OW23569   4.812   0.482   6.330
 7557SOL    HW123570   4.826   0.411   6.398
 7557SOL    HW223571   4.871   0.464   6.251
 7558SOL     OW23572   2.136   3.040   4.337
 7558SOL    HW123573   2.148   3.048   4.238
 7558SOL    HW223574   2.191   2.964   4.372
 7559SOL     OW23575   3.809   3.005   6.085
 7559SOL    HW123576   3.876   2.960   6.144
 7559SOL    HW223577   3.854   3.076   6.031
 7560SOL     OW23578   5.650   0.153   0.408
 7560SOL    HW123579   5.589   0.131   0.333
 7560SOL    HW223580   5.741   0.115   0.390
 7561SOL     OW23581   6.634   2.685   6.011
 7561SOL    HW123582   6.721   2.643   5.984
 7561SOL    HW223583   6.646   2.784   6.019
 7562SOL     OW23584   0.739   4.784   5.111
 7562SOL    HW123585   0.829   4.751   5.083
 7562SOL    HW223586   0.675   4.773   5.034
 7563SOL     OW23587   2.749   6.307   1.671
 7563SOL    HW123588   2.762   6.397   1.627
 7563SOL    HW223589   2.838   6.269   1.696
 7564SOL     OW23590   3.706   0.292   4.263
 7564SOL    HW123591   3.696   0.310   4.361
 7564SOL    HW223592   3.746   0.202   4.250
 7565SOL     OW23593   5.645   4.044   6.152
 7565SOL    HW123594   5.608   3.951   6.158
 7565SOL    HW223595   5.694   4.066   6.236
 7566SOL     OW23596   5.447   5.243   2.118
 7566SOL    HW123597   5.502   5.313   2.163
 7566SOL    HW223598   5.506   5.175   2.075
 7567SOL     OW23599   1.411   1.136   5.807
 7567SOL    HW123600   1.379   1.042   5.806
 7567SOL    HW223601   1.436   1.161   5.901
 7568SOL     OW23602   5.506   4.478   2.110
 7568SOL    HW123603   5.524   4.544   2.037
 7568SOL    HW223604   5.587   4.470   2.168
 7569SOL     OW23605   2.981   4.852   6.294
 7569SOL    HW123606   2.983   4.757   6.263
 7569SOL    HW223607   2.913   4.904   6.243
 7570SOL     OW23608   5.782   3.787   4.305
 7570SOL    HW123609   5.733   3.858   4.254
 7570SOL    HW223610   5.790   3.705   4.249
 7571SOL     OW23611   4.930   3.641   3.259
 7571SOL    HW123612   4.864   3.569   3.237
 7571SOL    HW223613   5.008   3.600   3.307
 7572SOL     OW23614   5.205   0.644   2.828
 7572SOL    HW123615   5.139   0.615   2.897
 7572SOL    HW223616   5.293   0.601   2.847
 7573SOL     OW23617   6.171   0.672   5.780
 7573SOL    HW123618   6.087   0.627   5.750
 7573SOL    HW223619   6.191   0.645   5.875
 7574SOL     OW23620   5.703   1.253   4.680
 7574SOL    HW123621   5.640   1.191   4.726
 7574SOL    HW223622   5.685   1.347   4.710
 7575SOL     OW23623   5.601   6.770   0.494
 7575SOL    HW123624   5.674   6.779   0.561
 7575SOL    HW223625   5.633   6.802   0.405
 7576SOL     OW23626   5.040   2.910   0.091
 7576SOL    HW123627   5.093   2.886   0.172
 7576SOL    HW223628   4.945   2.880   0.103
 7577SOL     OW23629   0.534   6.138   6.736
 7577SOL    HW123630   0.434   6.146   6.734
 7577SOL    HW223631   0.559   6.043   6.753
 7578SOL     OW23632   2.241   5.197   2.581
 7578SOL    HW123633   2.202   5.240   2.499
 7578SOL    HW223634   2.333   5.165   2.560
 7579SOL     OW23635   0.156   1.507   1.585
 7579SOL    HW123636   0.162   1.411   1.612
 7579SOL    HW223637   0.162   1.515   1.485
 7580SOL     OW23638   0.853   4.108   3.610
 7580SOL    HW123639   0.759   4.135   3.592
 7580SOL    HW223640   0.874   4.023   3.562
 7581SOL     OW23641   0.789   1.575   1.487
 7581SOL    HW123642   0.859   1.505   1.503
 7581SOL    HW223643   0.833   1.660   1.457
 7582SOL     OW23644   4.048   1.809   3.904
 7582SOL    HW123645   3.987   1.878   3.865
 7582SOL    HW223646   4.143   1.836   3.886
 7583SOL     OW23647   5.242   2.911   2.058
 7583SOL    HW123648   5.310   2.983   2.045
 7583SOL    HW223649   5.153   2.943   2.024
 7584SOL     OW23650   1.728   0.484   2.791
 7584SOL    HW123651   1.749   0.572   2.833
 7584SOL    HW223652   1.669   0.499   2.711
 7585SOL     OW23653   1.945   2.511   6.377
 7585SOL    HW123654   1.969   2.418   6.402
 7585SOL    HW223655   1.888   2.510   6.296
 7586SOL     OW23656   1.751   6.391   3.505
 7586SOL    HW123657   1.813   6.336   3.449
 7586SOL    HW223658   1.659   6.353   3.499
 7587SOL     OW23659   2.924   1.594   0.011
 7587SOL    HW123660   2.985   1.660   6.988
 7587SOL    HW223661   2.841   1.640   0.040
 7588SOL     OW23662   2.069   2.264   3.539
 7588SOL    HW123663   2.035   2.191   3.480
 7588SOL    HW223664   2.064   2.234   3.635
 7589SOL     OW23665   0.046   0.209   2.708
 7589SOL    HW123666   0.027   0.209   2.609
 7589SOL    HW223667   0.060   0.303   2.739
 7590SOL     OW23668   5.337   1.295   0.250
 7590SOL    HW123669   5.354   1.374   0.191
 7590SOL    HW223670   5.245   1.303   0.288
 7591SOL     OW23671   5.153   4.247   0.261
 7591SOL    HW123672   5.241   4.271   0.301
 7591SOL    HW223673   5.166   4.182   0.186
 7592SOL     OW23674   6.074   5.110   4.742
 7592SOL    HW123675   6.147   5.099   4.810
 7592SOL    HW223676   6.098   5.184   4.679
 7593SOL     OW23677   6.681   3.263   6.909
 7593SOL    HW123678   6.761   3.215   6.872
 7593SOL    HW223679   6.712   3.336   6.970
 7594SOL     OW23680   1.694   4.746   1.604
 7594SOL    HW123681   1.599   4.725   1.626
 7594SOL    HW223682   1.714   4.841   1.630
 7595SOL     OW23683   6.530   2.966   6.348
 7595SOL    HW123684   6.507   2.869   6.363
 7595SOL    HW223685   6.630   2.976   6.344
 7596SOL     OW23686   3.250   6.826   4.410
 7596SOL    HW123687   3.257   6.736   4.367
 7596SOL    HW223688   3.162   6.868   4.385
 7597SOL     OW23689   1.879   6.351   3.126
 7597SOL    HW123690   1.822   6.431   3.112
 7597SOL    HW223691   1.877   6.293   3.044
 7598SOL     OW23692   6.249   0.625   3.627
 7598SOL    HW123693   6.185   0.643   3.703
 7598SOL    HW223694   6.231   0.535   3.589
 7599SOL     OW23695   5.310   2.387   1.660
 7599SOL    HW123696   5.344   2.340   1.742
 7599SOL    HW223697   5.317   2.486   1.672
 7600SOL     OW23698   0.932   0.676   3.676
 7600SOL    HW123699   0.852   0.700   3.730
 7600SOL    HW223700   0.915   0.590   3.627
 7601SOL     OW23701   2.694   5.018   2.081
 7601SOL    HW123702   2.746   5.096   2.047
 7601SOL    HW223703   2.643   5.045   2.163
 7602SOL     OW23704   1.476   3.608   6.645
 7602SOL    HW123705   1.404   3.671   6.677
 7602SOL    HW223706   1.514   3.559   6.724
 7603SOL     OW23707   2.283   6.396   6.359
 7603SOL    HW123708   2.238   6.313   6.392
 7603SOL    HW223709   2.225   6.440   6.291
 7604SOL     OW23710   0.921   2.088   4.982
 7604SOL    HW123711   0.999   2.050   4.932
 7604SOL    HW223712   0.885   2.019   5.045
 7605SOL     OW23713   1.520   0.571   0.169
 7605SOL    HW123714   1.608   0.563   0.216
 7605SOL    HW223715   1.468   0.486   0.181
 7606SOL     OW23716   5.440   3.174   4.803
 7606SOL    HW123717   5.395   3.086   4.820
 7606SOL    HW223718   5.539   3.159   4.793
 7607SOL     OW23719   4.272   5.237   0.239
 7607SOL    HW123720   4.295   5.316   0.182
 7607SOL    HW223721   4.357   5.195   0.272
 7608SOL     OW23722   5.499   2.732   0.835
 7608SOL    HW123723   5.403   2.712   0.816
 7608SOL    HW223724   5.505   2.813   0.895
 7609SOL     OW23725   1.097   3.476   3.517
 7609SOL    HW123726   1.074   3.516   3.606
 7609SOL    HW223727   1.053   3.528   3.444
 7610SOL     OW23728   4.137   4.662   5.991
 7610SOL    HW123729   4.194   4.739   6.019
 7610SOL    HW223730   4.167   4.630   5.901
 7611SOL     OW23731   4.854   3.865   1.272
 7611SOL    HW123732   4.932   3.918   1.305
 7611SOL    HW223733   4.884   3.773   1.247
 7612SOL     OW23734   4.808   2.844   3.045
 7612SOL    HW123735   4.758   2.931   3.050
 7612SOL    HW223736   4.868   2.845   2.966
 7613SOL     OW23737   0.452   1.730   1.555
 7613SOL    HW123738   0.537   1.747   1.604
 7613SOL    HW223739   0.442   1.632   1.537
 7614SOL     OW23740   5.397   3.404   1.433
 7614SOL    HW123741   5.311   3.423   1.386
 7614SOL    HW223742   5.389   3.318   1.484
 7615SOL     OW23743   4.939   4.143   6.386
 7615SOL    HW123744   4.961   4.049   6.415
 7615SOL    HW223745   4.977   4.207   6.452
 7616SOL     OW23746   0.008   6.873   4.477
 7616SOL    HW123747   0.063   6.799   4.515
 7616SOL    HW223748   0.061   6.922   4.408
 7617SOL     OW23749   5.361   6.260   3.653
 7617SOL    HW123750   5.434   6.228   3.714
 7617SOL    HW223751   5.348   6.194   3.580
 7618SOL     OW23752   0.828   2.721   6.752
 7618SOL    HW123753   0.896   2.733   6.824
 7618SOL    HW223754   0.873   2.717   6.663
 7619SOL     OW23755   0.160   2.708   4.593
 7619SOL    HW123756   0.119   2.800   4.591
 7619SOL    HW223757   0.121   2.653   4.520
 7620SOL     OW23758   4.525   5.489   1.352
 7620SOL    HW123759   4.521   5.517   1.256
 7620SOL    HW223760   4.450   5.426   1.371
 7621SOL     OW23761   0.460   0.764   1.318
 7621SOL    HW123762   0.400   0.805   1.386
 7621SOL    HW223763   0.424   0.674   1.291
 7622SOL     OW23764   4.831   4.707   6.260
 7622SOL    HW123765   4.785   4.773   6.320
 7622SOL    HW223766   4.768   4.634   6.237
 7623SOL     OW23767   4.476   4.525   1.076
 7623SOL    HW123768   4.447   4.445   1.023
 7623SOL    HW223769   4.550   4.498   1.138
 7624SOL     OW23770   6.837   3.460   3.780
 7624SOL    HW123771   6.924   3.448   3.732
 7624SOL    HW223772   6.854   3.474   3.877
 7625SOL     OW23773   6.410   1.469   0.235
 7625SOL    HW123774   6.417   1.411   0.316
 7625SOL    HW223775   6.439   1.562   0.257
 7626SOL     OW23776   6.488   0.666   5.859
 7626SOL    HW123777   6.462   0.688   5.765
 7626SOL    HW223778   6.407   0.635   5.910
 7627SOL     OW23779   3.203   2.456   0.383
 7627SOL    HW123780   3.271   2.385   0.368
 7627SOL    HW223781   3.114   2.425   0.350
 7628SOL     OW23782   3.771   2.856   1.698
 7628SOL    HW123783   3.843   2.829   1.635
 7628SOL    HW223784   3.806   2.855   1.792
 7629SOL     OW23785   0.246   4.048   3.472
 7629SOL    HW123786   0.180   4.104   3.422
 7629SOL    HW223787   0.216   4.037   3.567
 7630SOL     OW23788   1.084   0.841   6.639
 7630SOL    HW123789   1.026   0.851   6.558
 7630SOL    HW223790   1.176   0.873   6.618
 7631SOL     OW23791   1.298   1.425   5.490
 7631SOL    HW123792   1.311   1.425   5.589
 7631SOL    HW223793   1.318   1.516   5.454
 7632SOL     OW23794   4.351   4.553   0.580
 7632SOL    HW123795   4.325   4.650   0.573
 7632SOL    HW223796   4.446   4.545   0.609
 7633SOL     OW23797   5.015   0.566   1.658
 7633SOL    HW123798   4.920   0.567   1.688
 7633SOL    HW223799   5.054   0.475   1.673
 7634SOL     OW23800   2.521   1.367   1.594
 7634SOL    HW123801   2.535   1.382   1.691
 7634SOL    HW223802   2.605   1.386   1.544
 7635SOL     OW23803   3.230   5.033   4.400
 7635SOL    HW123804   3.165   4.990   4.464
 7635SOL    HW223805   3.234   5.131   4.418
 7636SOL     OW23806   0.818   3.771   4.062
 7636SOL    HW123807   0.911   3.801   4.043
 7636SOL    HW223808   0.818   3.673   4.084
 7637SOL     OW23809   2.472   6.115   2.785
 7637SOL    HW123810   2.439   6.022   2.767
 7637SOL    HW223811   2.572   6.117   2.780
 7638SOL     OW23812   1.765   5.489   2.816
 7638SOL    HW123813   1.809   5.520   2.732
 7638SOL    HW223814   1.771   5.389   2.823
 7639SOL     OW23815   0.809   1.245   0.832
 7639SOL    HW123816   0.748   1.169   0.856
 7639SOL    HW223817   0.755   1.323   0.800
 7640SOL     OW23818   2.365   2.864   6.774
 7640SOL    HW123819   2.428   2.888   6.848
 7640SOL    HW223820   2.279   2.913   6.788
 7641SOL     OW23821   6.879   3.767   2.613
 7641SOL    HW123822   6.926   3.854   2.622
 7641SOL    HW223823   6.787   3.782   2.576
 7642SOL     OW23824   4.985   1.275   2.268
 7642SOL    HW123825   5.008   1.284   2.171
 7642SOL    HW223826   5.039   1.342   2.320
 7643SOL     OW23827   5.110   1.440   2.458
 7643SOL    HW123828   5.160   1.492   2.390
 7643SOL    HW223829   5.174   1.389   2.515
 7644SOL     OW23830   4.862   3.080   2.261
 7644SOL    HW123831   4.795   3.045   2.326
 7644SOL    HW223832   4.825   3.077   2.169
 7645SOL     OW23833   4.638   3.795   5.662
 7645SOL    HW123834   4.622   3.893   5.679
 7645SOL    HW223835   4.690   3.784   5.578
 7646SOL     OW23836   0.643   2.674   3.920
 7646SOL    HW123837   0.622   2.763   3.960
 7646SOL    HW223838   0.585   2.658   3.841
 7647SOL     OW23839   0.234   2.954   4.761
 7647SOL    HW123840   0.190   2.877   4.807
 7647SOL    HW223841   0.166   3.001   4.705
 7648SOL     OW23842   2.360   1.433   2.612
 7648SOL    HW123843   2.396   1.517   2.571
 7648SOL    HW223844   2.433   1.365   2.618
 7649SOL     OW23845   1.381   0.930   3.998
 7649SOL    HW123846   1.471   0.899   3.966
 7649SOL    HW223847   1.319   0.852   4.005
 7650SOL     OW23848   6.206   0.562   0.890
 7650SOL    HW123849   6.234   0.512   0.808
 7650SOL    HW223850   6.281   0.621   0.920
 7651SOL     OW23851   2.528   6.496   4.664
 7651SOL    HW123852   2.499   6.563   4.595
 7651SOL    HW223853   2.456   6.485   4.732
 7652SOL     OW23854   5.497   2.177   4.875
 7652SOL    HW123855   5.419   2.239   4.875
 7652SOL    HW223856   5.576   2.221   4.832
 7653SOL     OW23857   1.370   1.576   0.211
 7653SOL    HW123858   1.290   1.603   0.156
 7653SOL    HW223859   1.422   1.506   0.162
 7654SOL     OW23860   5.171   3.199   4.440
 7654SOL    HW123861   5.225   3.242   4.367
 7654SOL    HW223862   5.074   3.207   4.418
 7655SOL     OW23863   3.512   0.054   3.623
 7655SOL    HW123864   3.475   0.141   3.589
 7655SOL    HW223865   3.605   0.042   3.589
 7656SOL     OW23866   4.782   3.061   6.614
 7656SOL    HW123867   4.857   3.126   6.605
 7656SOL    HW223868   4.808   2.989   6.678
 7657SOL     OW23869   2.274   2.260   3.904
 7657SOL    HW123870   2.364   2.260   3.861
 7657SOL    HW223871   2.203   2.258   3.832
 7658SOL     OW23872   2.933   0.540   0.761
 7658SOL    HW123873   2.870   0.605   0.719
 7658SOL    HW223874   3.017   0.534   0.707
 7659SOL     OW23875   4.681   4.254   0.139
 7659SOL    HW123876   4.610   4.197   0.097
 7659SOL    HW223877   4.758   4.262   0.075
 7660SOL     OW23878   6.457   5.529   4.059
 7660SOL    HW123879   6.444   5.611   4.003
 7660SOL    HW223880   6.373   5.511   4.111
 7661SOL     OW23881   5.198   2.099   5.733
 7661SOL    HW123882   5.253   2.057   5.806
 7661SOL    HW223883   5.254   2.166   5.684
 7662SOL     OW23884   0.877   2.643   3.205
 7662SOL    HW123885   0.959   2.656   3.260
 7662SOL    HW223886   0.875   2.712   3.132
 7663SOL     OW23887   4.911   5.427   6.400
 7663SOL    HW123888   4.898   5.368   6.321
 7663SOL    HW223889   4.954   5.513   6.371
 7664SOL     OW23890   4.258   1.143   2.467
 7664SOL    HW123891   4.254   1.043   2.461
 7664SOL    HW223892   4.262   1.182   2.375
 7665SOL     OW23893   5.540   1.086   4.864
 7665SOL    HW123894   5.565   0.989   4.867
 7665SOL    HW223895   5.445   1.097   4.893
 7666SOL     OW23896   0.245   4.879   3.556
 7666SOL    HW123897   0.238   4.951   3.487
 7666SOL    HW223898   0.269   4.921   3.644
 7667SOL     OW23899   4.407   0.353   2.412
 7667SOL    HW123900   4.378   0.387   2.323
 7667SOL    HW223901   4.507   0.354   2.417
 7668SOL     OW23902   2.462   4.936   1.456
 7668SOL    HW123903   2.450   4.913   1.359
 7668SOL    HW223904   2.436   5.031   1.471
 7669SOL     OW23905   4.730   0.936   5.262
 7669SOL    HW123906   4.823   0.947   5.227
 7669SOL    HW223907   4.686   0.860   5.215
 7670SOL     OW23908   1.361   5.775   0.320
 7670SOL    HW123909   1.423   5.832   0.266
 7670SOL    HW223910   1.406   5.751   0.407
 7671SOL     OW23911   4.007   0.482   2.260
 7671SOL    HW123912   3.917   0.505   2.223
 7671SOL    HW223913   4.066   0.448   2.187
 7672SOL     OW23914   6.716   5.150   3.361
 7672SOL    HW123915   6.650   5.081   3.333
 7672SOL    HW223916   6.720   5.154   3.461
 7673SOL     OW23917   1.875   5.721   2.401
 7673SOL    HW123918   1.783   5.692   2.373
 7673SOL    HW223919   1.939   5.708   2.326
 7674SOL     OW23920   4.703   0.616   3.909
 7674SOL    HW123921   4.648   0.674   3.969
 7674SOL    HW223922   4.659   0.526   3.899
 7675SOL     OW23923   5.275   6.167   3.357
 7675SOL    HW123924   5.284   6.239   3.287
 7675SOL    HW223925   5.183   6.170   3.396
 7676SOL     OW23926   3.087   2.146   6.291
 7676SOL    HW123927   3.177   2.160   6.249
 7676SOL    HW223928   3.098   2.119   6.386
 7677SOL     OW23929   0.615   4.282   0.885
 7677SOL    HW123930   0.668   4.365   0.906
 7677SOL    HW223931   0.636   4.252   0.792
 7678SOL     OW23932   1.852   2.976   5.420
 7678SOL    HW123933   1.837   2.945   5.513
 7678SOL    HW223934   1.942   2.945   5.389
 7679SOL     OW23935   1.729   5.437   6.078
 7679SOL    HW123936   1.631   5.423   6.065
 7679SOL    HW223937   1.770   5.469   5.992
 7680SOL     OW23938   1.746   0.561   0.321
 7680SOL    HW123939   1.846   0.556   0.311
 7680SOL    HW223940   1.724   0.626   0.394
 7681SOL     OW23941   3.075   0.994   0.217
 7681SOL    HW123942   3.099   1.087   0.244
 7681SOL    HW223943   3.154   0.951   0.173
 7682SOL     OW23944   4.521   0.737   2.196
 7682SOL    HW123945   4.561   0.768   2.109
 7682SOL    HW223946   4.444   0.796   2.220
 7683SOL     OW23947   0.270   1.380   4.831
 7683SOL    HW123948   0.288   1.401   4.927
 7683SOL    HW223949   0.224   1.457   4.788
 7684SOL     OW23950   3.868   2.351   1.109
 7684SOL    HW123951   3.826   2.302   1.032
 7684SOL    HW223952   3.799   2.407   1.154
 7685SOL     OW23953   3.293   1.652   6.208
 7685SOL    HW123954   3.346   1.684   6.130
 7685SOL    HW223955   3.209   1.706   6.216
 7686SOL     OW23956   6.525   6.826   4.468
 7686SOL    HW123957   6.508   6.733   4.435
 7686SOL    HW223958   6.499   6.891   4.397
 7687SOL     OW23959   4.865   5.533   4.923
 7687SOL    HW123960   4.858   5.475   4.841
 7687SOL    HW223961   4.948   5.510   4.973
 7688SOL     OW23962   0.345   6.083   6.222
 7688SOL    HW123963   0.263   6.045   6.179
 7688SOL    HW223964   0.368   6.029   6.303
 7689SOL     OW23965   5.274   6.378   3.192
 7689SOL    HW123966   5.249   6.325   3.111
 7689SOL    HW223967   5.273   6.476   3.169
 7690SOL     OW23968   5.200   5.508   0.621
 7690SOL    HW123969   5.161   5.600   0.621
 7690SOL    HW223970   5.132   5.443   0.654
 7691SOL     OW23971   5.383   4.225   2.166
 7691SOL    HW123972   5.334   4.194   2.085
 7691SOL    HW223973   5.408   4.322   2.156
 7692SOL     OW23974   0.728   5.778   1.793
 7692SOL    HW123975   0.677   5.786   1.879
 7692SOL    HW223976   0.809   5.837   1.798
 7693SOL     OW23977   3.160   0.470   1.288
 7693SOL    HW123978   3.097   0.507   1.220
 7693SOL    HW223979   3.250   0.512   1.276
 7694SOL     OW23980   5.538   3.069   4.113
 7694SOL    HW123981   5.628   3.026   4.111
 7694SOL    HW223982   5.538   3.145   4.178
 7695SOL     OW23983   6.054   0.668   1.330
 7695SOL    HW123984   6.075   0.725   1.251
 7695SOL    HW223985   5.990   0.596   1.304
 7696SOL     OW23986   6.306   1.590   6.503
 7696SOL    HW123987   6.236   1.608   6.572
 7696SOL    HW223988   6.374   1.527   6.539
 7697SOL     OW23989   2.965   0.803   2.614
 7697SOL    HW123990   3.000   0.732   2.675
 7697SOL    HW223991   3.032   0.823   2.543
 7698SOL     OW23992   6.571   1.261   5.382
 7698SOL    HW123993   6.602   1.178   5.336
 7698SOL    HW223994   6.585   1.339   5.322
 7699SOL     OW23995   2.306   5.443   6.622
 7699SOL    HW123996   2.212   5.476   6.635
 7699SOL    HW223997   2.311   5.388   6.539
 7700SOL     OW23998   4.057   6.093   3.216
 7700SOL    HW123999   4.064   6.114   3.119
 7700SOL    HW224000   4.129   6.028   3.241
 7701SOL     OW24001   0.448   2.614   6.717
 7701SOL    HW124002   0.462   2.713   6.727
 7701SOL    HW224003   0.351   2.597   6.696
 7702SOL     OW24004   4.369   5.698   5.199
 7702SOL    HW124005   4.384   5.606   5.233
 7702SOL    HW224006   4.384   5.700   5.100
 7703SOL     OW24007   6.357   6.396   5.803
 7703SOL    HW124008   6.449   6.400   5.763
 7703SOL    HW224009   6.351   6.459   5.880
 7704SOL     OW24010   6.031   1.532   3.592
 7704SOL    HW124011   5.965   1.492   3.656
 7704SOL    HW224012   5.996   1.523   3.499
 7705SOL     OW24013   2.740   5.441   1.286
 7705SOL    HW124014   2.839   5.453   1.298
 7705SOL    HW224015   2.703   5.520   1.239
 7706SOL     OW24016   4.049   3.130   4.327
 7706SOL    HW124017   4.076   3.203   4.265
 7706SOL    HW224018   4.057   3.163   4.422
 7707SOL     OW24019   0.345   4.620   6.541
 7707SOL    HW124020   0.399   4.576   6.469
 7707SOL    HW224021   0.275   4.556   6.573
 7708SOL     OW24022   1.641   6.317   4.486
 7708SOL    HW124023   1.665   6.317   4.389
 7708SOL    HW224024   1.545   6.291   4.497
 7709SOL     OW24025   0.013   4.958   1.692
 7709SOL    HW124026   0.067   4.929   1.770
 7709SOL    HW224027   6.938   4.939   1.709
 7710SOL     OW24028   1.380   2.232   0.805
 7710SOL    HW124029   1.292   2.194   0.779
 7710SOL    HW224030   1.424   2.172   0.871
 7711SOL     OW24031   5.448   5.930   5.719
 7711SOL    HW124032   5.423   6.002   5.784
 7711SOL    HW224033   5.383   5.928   5.643
 7712SOL     OW24034   6.047   4.666   0.672
 7712SOL    HW124035   5.964   4.680   0.619
 7712SOL    HW224036   6.118   4.628   0.613
 7713SOL     OW24037   1.693   3.305   0.807
 7713SOL    HW124038   1.693   3.315   0.707
 7713SOL    HW224039   1.773   3.252   0.835
 7714SOL     OW24040   0.148   5.941   5.109
 7714SOL    HW124041   0.243   5.949   5.139
 7714SOL    HW224042   0.087   5.949   5.187
 7715SOL     OW24043   2.652   2.420   6.475
 7715SOL    HW124044   2.560   2.446   6.444
 7715SOL    HW224045   2.719   2.482   6.435
 7716SOL     OW24046   6.324   5.180   0.617
 7716SOL    HW124047   6.403   5.120   0.630
 7716SOL    HW224048   6.314   5.239   0.697
 7717SOL     OW24049   1.398   2.161   5.164
 7717SOL    HW124050   1.319   2.150   5.223
 7717SOL    HW224051   1.368   2.176   5.070
 7718SOL     OW24052   6.722   4.224   3.335
 7718SOL    HW124053   6.658   4.148   3.321
 7718SOL    HW224054   6.752   4.226   3.430
 7719SOL     OW24055   0.861   4.116   4.798
 7719SOL    HW124056   0.896   4.030   4.836
 7719SOL    HW224057   0.851   4.108   4.699
 7720SOL     OW24058   6.336   1.983   6.255
 7720SOL    HW124059   6.403   1.918   6.219
 7720SOL    HW224060   6.244   1.957   6.223
 7721SOL     OW24061   0.280   6.399   2.530
 7721SOL    HW124062   0.187   6.418   2.499
 7721SOL    HW224063   0.344   6.454   2.477
 7722SOL     OW24064   1.852   4.900   3.893
 7722SOL    HW124065   1.851   4.941   3.984
 7722SOL    HW224066   1.773   4.840   3.883
 7723SOL     OW24067   4.157   3.579   6.710
 7723SOL    HW124068   4.221   3.609   6.780
 7723SOL    HW224069   4.140   3.481   6.719
 7724SOL     OW24070   3.260   4.357   6.963
 7724SOL    HW124071   3.352   4.338   6.928
 7724SOL    HW224072   3.192   4.323   6.898
 7725SOL     OW24073   6.112   1.704   2.779
 7725SOL    HW124074   6.137   1.706   2.683
 7725SOL    HW224075   6.068   1.790   2.805
 7726SOL     OW24076   1.508   3.960   6.240
 7726SOL    HW124077   1.498   3.895   6.316
 7726SOL    HW224078   1.483   4.051   6.271
 7727SOL     OW24079   5.978   3.149   1.960
 7727SOL    HW124080   5.887   3.112   1.979
 7727SOL    HW224081   6.015   3.190   2.044
 7728SOL     OW24082   2.300   2.873   4.772
 7728SOL    HW124083   2.358   2.811   4.719
 7728SOL    HW224084   2.342   2.889   4.862
 7729SOL     OW24085   5.694   1.455   2.179
 7729SOL    HW124086   5.648   1.368   2.197
 7729SOL    HW224087   5.692   1.512   2.262
 7730SOL     OW24088   0.024   4.559   6.596
 7730SOL    HW124089   0.000   4.461   6.593
 7730SOL    HW224090   0.036   4.587   6.691
 7731SOL     OW24091   6.756   6.900   0.254
 7731SOL    HW124092   6.680   6.857   0.207
 7731SOL    HW224093   6.822   6.933   0.187
 7732SOL     OW24094   3.946   0.548   0.640
 7732SOL    HW124095   3.863   0.593   0.608
 7732SOL    HW224096   3.980   0.487   0.568
 7733SOL     OW24097   6.059   5.330   2.322
 7733SOL    HW124098   6.144   5.383   2.311
 7733SOL    HW224099   6.073   5.237   2.287
 7734SOL     OW24100   2.069   4.696   4.912
 7734SOL    HW124101   2.028   4.680   5.002
 7734SOL    HW224102   1.998   4.714   4.845
 7735SOL     OW24103   5.787   5.589   6.931
 7735SOL    HW124104   5.754   5.562   7.021
 7735SOL    HW224105   5.882   5.560   6.919
 7736SOL     OW24106   2.278   3.261   0.368
 7736SOL    HW124107   2.281   3.275   0.467
 7736SOL    HW224108   2.318   3.172   0.346
 7737SOL     OW24109   3.753   6.349   1.820
 7737SOL    HW124110   3.747   6.259   1.864
 7737SOL    HW224111   3.689   6.352   1.743
 7738SOL     OW24112   2.681   5.336   0.384
 7738SOL    HW124113   2.649   5.275   0.456
 7738SOL    HW224114   2.780   5.324   0.371
 7739SOL     OW24115   1.759   1.902   1.567
 7739SOL    HW124116   1.735   1.998   1.554
 7739SOL    HW224117   1.807   1.868   1.486
 7740SOL     OW24118   1.499   0.791   2.649
 7740SOL    HW124119   1.451   0.786   2.737
 7740SOL    HW224120   1.450   0.854   2.588
 7741SOL     OW24121   0.402   3.390   5.041
 7741SOL    HW124122   0.502   3.392   5.032
 7741SOL    HW224123   0.377   3.412   5.136
 7742SOL     OW24124   4.717   1.649   3.681
 7742SOL    HW124125   4.684   1.556   3.663
 7742SOL    HW224126   4.760   1.685   3.598
 7743SOL     OW24127   4.905   1.164   6.911
 7743SOL    HW124128   4.977   1.119   6.965
 7743SOL    HW224129   4.903   1.125   6.819
 7744SOL     OW24130   1.096   5.867   3.245
 7744SOL    HW124131   1.027   5.826   3.185
 7744SOL    HW224132   1.187   5.838   3.215
 7745SOL     OW24133   2.482   0.373   0.363
 7745SOL    HW124134   2.468   0.386   0.461
 7745SOL    HW224135   2.573   0.334   0.347
 7746SOL     OW24136   1.201   6.837   0.773
 7746SOL    HW124137   1.201   6.932   0.742
 7746SOL    HW224138   1.295   6.810   0.796
 7747SOL     OW24139   6.896   6.117   1.663
 7747SOL    HW124140   6.944   6.195   1.702
 7747SOL    HW224141   6.861   6.141   1.573
 7748SOL     OW24142   3.490   4.163   3.811
 7748SOL    HW124143   3.563   4.127   3.753
 7748SOL    HW224144   3.425   4.214   3.756
 7749SOL     OW24145   3.876   3.927   3.534
 7749SOL    HW124146   3.816   3.919   3.454
 7749SOL    HW224147   3.961   3.877   3.518
 7750SOL     OW24148   6.086   6.070   6.326
 7750SOL    HW124149   6.170   6.108   6.289
 7750SOL    HW224150   6.049   6.003   6.261
 7751SOL     OW24151   0.635   2.239   2.494
 7751SOL    HW124152   0.579   2.314   2.458
 7751SOL    HW224153   0.636   2.243   2.594
 7752SOL     OW24154   5.369   6.221   5.450
 7752SOL    HW124155   5.441   6.155   5.470
 7752SOL    HW224156   5.334   6.205   5.357
 7753SOL     OW24157   2.651   0.963   3.932
 7753SOL    HW124158   2.651   1.048   3.879
 7753SOL    HW224159   2.557   0.940   3.958
 7754SOL     OW24160   5.456   0.018   1.632
 7754SOL    HW124161   5.509   0.064   1.702
 7754SOL    HW224162   5.463   0.068   1.546
 7755SOL     OW24163   1.451   1.812   5.662
 7755SOL    HW124164   1.387   1.742   5.692
 7755SOL    HW224165   1.511   1.838   5.738
 7756SOL     OW24166   3.254   5.573   2.547
 7756SOL    HW124167   3.330   5.536   2.494
 7756SOL    HW224168   3.170   5.524   2.526
 7757SOL     OW24169   5.179   6.259   3.989
 7757SOL    HW124170   5.156   6.346   4.033
 7757SOL    HW224171   5.239   6.207   4.048
 7758SOL     OW24172   1.936   2.035   6.814
 7758SOL    HW124173   1.960   1.978   6.735
 7758SOL    HW224174   1.960   2.130   6.795
 7759SOL     OW24175   1.633   1.577   4.689
 7759SOL    HW124176   1.577   1.495   4.703
 7759SOL    HW224177   1.708   1.579   4.755
 7760SOL     OW24178   6.037   3.213   2.463
 7760SOL    HW124179   6.060   3.120   2.494
 7760SOL    HW224180   5.940   3.231   2.480
 7761SOL     OW24181   1.481   6.991   6.031
 7761SOL    HW124182   1.565   0.021   6.014
 7761SOL    HW224183   1.410   0.030   6.066
 7762SOL     OW24184   4.201   0.742   4.466
 7762SOL    HW124185   4.127   0.742   4.399
 7762SOL    HW224186   4.178   0.682   4.542
 7763SOL     OW24187   1.332   1.547   1.393
 7763SOL    HW124188   1.316   1.567   1.490
 7763SOL    HW224189   1.343   1.448   1.381
 7764SOL     OW24190   3.708   2.978   2.832
 7764SOL    HW124191   3.707   2.921   2.914
 7764SOL    HW224192   3.704   3.075   2.858
 7765SOL     OW24193   5.889   3.158   4.354
 7765SOL    HW124194   5.868   3.093   4.281
 7765SOL    HW224195   5.931   3.110   4.431
 7766SOL     OW24196   5.232   1.849   0.470
 7766SOL    HW124197   5.299   1.780   0.445
 7766SOL    HW224198   5.261   1.896   0.553
 7767SOL     OW24199   4.018   6.581   3.532
 7767SOL    HW124200   3.973   6.578   3.443
 7767SOL    HW224201   4.075   6.500   3.544
 7768SOL     OW24202   4.127   5.088   2.146
 7768SOL    HW124203   4.123   5.013   2.212
 7768SOL    HW224204   4.034   5.121   2.128
 7769SOL     OW24205   4.849   2.189   1.908
 7769SOL    HW124206   4.831   2.162   1.814
 7769SOL    HW224207   4.810   2.122   1.971
 7770SOL     OW24208   1.271   4.198   2.488
 7770SOL    HW124209   1.334   4.146   2.430
 7770SOL    HW224210   1.178   4.190   2.452
 7771SOL     OW24211   2.449   2.736   5.183
 7771SOL    HW124212   2.434   2.724   5.281
 7771SOL    HW224213   2.435   2.832   5.159
 7772SOL     OW24214   4.910   0.970   3.534
 7772SOL    HW124215   4.850   1.048   3.517
 7772SOL    HW224216   4.865   0.886   3.504
 7773SOL     OW24217   3.067   5.549   5.493
 7773SOL    HW124218   3.138   5.605   5.451
 7773SOL    HW224219   3.060   5.462   5.444
 7774SOL     OW24220   6.336   2.473   6.386
 7774SOL    HW124221   6.341   2.374   6.374
 7774SOL    HW224222   6.284   2.514   6.311
 7775SOL     OW24223   3.821   6.635   2.957
 7775SOL    HW124224   3.916   6.662   2.941
 7775SOL    HW224225   3.768   6.651   2.873
 7776SOL     OW24226   3.340   3.858   6.492
 7776SOL    HW124227   3.330   3.951   6.456
 7776SOL    HW224228   3.431   3.846   6.532
 7777SOL     OW24229   2.335   1.347   5.189
 7777SOL    HW124230   2.285   1.433   5.184
 7777SOL    HW224231   2.433   1.366   5.193
 7778SOL     OW24232   4.656   6.397   0.049
 7778SOL    HW124233   4.661   6.317   7.010
 7778SOL    HW224234   4.649   6.366   0.144
 7779SOL     OW24235   3.061   2.943   0.495
 7779SOL    HW124236   2.968   2.960   0.530
 7779SOL    HW224237   3.074   2.845   0.482
 7780SOL     OW24238   1.674   5.228   4.932
 7780SOL    HW124239   1.649   5.172   4.853
 7780SOL    HW224240   1.758   5.279   4.911
 7781SOL     OW24241   1.648   4.629   6.675
 7781SOL    HW124242   1.680   4.695   6.743
 7781SOL    HW224243   1.726   4.579   6.638
 7782SOL     OW24244   1.256   4.116   5.717
 7782SOL    HW124245   1.351   4.140   5.738
 7782SOL    HW224246   1.202   4.200   5.708
 7783SOL     OW24247   1.545   5.838   5.636
 7783SOL    HW124248   1.557   5.782   5.718
 7783SOL    HW224249   1.449   5.832   5.606
 7784SOL     OW24250   2.486   2.771   0.379
 7784SOL    HW124251   2.546   2.745   0.454
 7784SOL    HW224252   2.442   2.690   0.341
 7785SOL     OW24253   1.447   6.470   4.126
 7785SOL    HW124254   1.530   6.416   4.134
 7785SOL    HW224255   1.398   6.470   4.213
 7786SOL     OW24256   3.132   5.741   6.547
 7786SOL    HW124257   3.044   5.702   6.521
 7786SOL    HW224258   3.127   5.841   6.543
 7787SOL     OW24259   2.334   3.235   5.868
 7787SOL    HW124260   2.392   3.254   5.789
 7787SOL    HW224261   2.268   3.164   5.845
 7788SOL     OW24262   1.644   6.851   1.502
 7788SOL    HW124263   1.664   6.754   1.490
 7788SOL    HW224264   1.721   6.905   1.467
 7789SOL     OW24265   3.165   0.128   0.300
 7789SOL    HW124266   3.169   0.028   0.290
 7789SOL    HW224267   3.213   0.156   0.383
 7790SOL     OW24268   5.759   4.826   2.262
 7790SOL    HW124269   5.686   4.822   2.330
 7790SOL    HW224270   5.798   4.918   2.260
 7791SOL     OW24271   2.981   6.626   3.907
 7791SOL    HW124272   3.058   6.650   3.965
 7791SOL    HW224273   2.933   6.709   3.879
 7792SOL     OW24274   1.535   5.352   5.878
 7792SOL    HW124275   1.481   5.270   5.893
 7792SOL    HW224276   1.606   5.333   5.810
 7793SOL     OW24277   2.099   0.664   6.487
 7793SOL    HW124278   2.008   0.665   6.446
 7793SOL    HW224279   2.091   0.658   6.587
 7794SOL     OW24280   5.004   5.276   3.813
 7794SOL    HW124281   4.949   5.344   3.765
 7794SOL    HW224282   5.053   5.220   3.746
 7795SOL     OW24283   1.724   3.535   5.466
 7795SOL    HW124284   1.717   3.565   5.371
 7795SOL    HW224285   1.756   3.440   5.468
 7796SOL     OW24286   3.182   3.907   3.511
 7796SOL    HW124287   3.092   3.889   3.470
 7796SOL    HW224288   3.170   3.932   3.607
 7797SOL     OW24289   0.784   6.524   3.032
 7797SOL    HW124290   0.770   6.425   3.042
 7797SOL    HW224291   0.700   6.566   2.997
 7798SOL     OW24292   1.388   4.874   6.076
 7798SOL    HW124293   1.348   4.876   5.984
 7798SOL    HW224294   1.345   4.801   6.130
 7799SOL     OW24295   6.931   6.548   1.404
 7799SOL    HW124296   6.841   6.582   1.376
 7799SOL    HW224297   6.984   6.622   1.446
 7800SOL     OW24298   1.758   5.464   0.329
 7800SOL    HW124299   1.836   5.401   0.330
 7800SOL    HW224300   1.790   5.557   0.346
 7801SOL     OW24301   2.344   2.255   1.618
 7801SOL    HW124302   2.374   2.340   1.661
 7801SOL    HW224303   2.390   2.178   1.661
 7802SOL     OW24304   5.372   2.053   1.600
 7802SOL    HW124305   5.423   2.137   1.620
 7802SOL    HW224306   5.284   2.077   1.560
 7803SOL     OW24307   4.405   2.851   6.299
 7803SOL    HW124308   4.331   2.912   6.271
 7803SOL    HW224309   4.491   2.883   6.260
 7804SOL     OW24310   5.852   1.251   4.427
 7804SOL    HW124311   5.784   1.256   4.500
 7804SOL    HW224312   5.820   1.303   4.348
 7805SOL     OW24313   5.202   1.485   0.943
 7805SOL    HW124314   5.169   1.570   0.985
 7805SOL    HW224315   5.135   1.412   0.958
 7806SOL     OW24316   5.825   2.339   6.010
 7806SOL    HW124317   5.849   2.413   5.947
 7806SOL    HW224318   5.768   2.376   6.084
 7807SOL     OW24319   6.840   4.349   5.712
 7807SOL    HW124320   6.927   4.393   5.689
 7807SOL    HW224321   6.857   4.254   5.739
 7808SOL     OW24322   6.992   2.944   4.613
 7808SOL    HW124323   6.924   2.996   4.562
 7808SOL    HW224324   6.949   2.906   4.695
 7809SOL     OW24325   2.463   5.551   4.603
 7809SOL    HW124326   2.418   5.550   4.514
 7809SOL    HW224327   2.402   5.593   4.670
 7810SOL     OW24328   3.772   0.058   5.100
 7810SOL    HW124329   3.838   0.116   5.053
 7810SOL    HW224330   3.774   0.079   5.198
 7811SOL     OW24331   0.659   4.979   3.354
 7811SOL    HW124332   0.671   5.006   3.259
 7811SOL    HW224333   0.566   4.999   3.384
 7812SOL     OW24334   1.470   1.805   3.488
 7812SOL    HW124335   1.461   1.706   3.477
 7812SOL    HW224336   1.559   1.826   3.527
 7813SOL     OW24337   3.736   2.403   6.696
 7813SOL    HW124338   3.829   2.410   6.661
 7813SOL    HW224339   3.674   2.451   6.634
 7814SOL     OW24340   6.302   3.388   3.980
 7814SOL    HW124341   6.339   3.414   3.891
 7814SOL    HW224342   6.341   3.447   4.051
 7815SOL     OW24343   4.696   0.284   6.528
 7815SOL    HW124344   4.636   0.217   6.573
 7815SOL    HW224345   4.694   0.369   6.581
 7816SOL     OW24346   1.088   2.780   6.851
 7816SOL    HW124347   1.112   2.859   6.795
 7816SOL    HW224348   1.086   2.808   6.948
 7817SOL     OW24349   5.400   4.473   3.623
 7817SOL    HW124350   5.398   4.513   3.715
 7817SOL    HW224351   5.366   4.539   3.557
 7818SOL     OW24352   4.004   1.090   3.092
 7818SOL    HW124353   4.003   1.185   3.061
 7818SOL    HW224354   4.073   1.078   3.163
 7819SOL     OW24355   6.617   2.980   2.118
 7819SOL    HW124356   6.628   3.041   2.039
 7819SOL    HW224357   6.530   3.001   2.164
 7820SOL     OW24358   0.997   2.269   4.642
 7820SOL    HW124359   0.983   2.325   4.724
 7820SOL    HW224360   0.985   2.326   4.560
 7821SOL     OW24361   5.193   6.113   0.802
 7821SOL    HW124362   5.148   6.187   0.853
 7821SOL    HW224363   5.278   6.088   0.848
 7822SOL     OW24364   0.725   0.965   5.297
 7822SOL    HW124365   0.821   0.939   5.304
 7822SOL    HW224366   0.693   0.999   5.386
 7823SOL     OW24367   2.787   3.863   5.200
 7823SOL    HW124368   2.832   3.952   5.206
 7823SOL    HW224369   2.690   3.874   5.218
 7824SOL     OW24370   5.771   2.044   4.356
 7824SOL    HW124371   5.711   2.059   4.277
 7824SOL    HW224372   5.754   2.115   4.424
 7825SOL     OW24373   1.183   2.786   0.817
 7825SOL    HW124374   1.237   2.703   0.832
 7825SOL    HW224375   1.206   2.825   0.728
 7826SOL     OW24376   6.054   1.015   1.182
 7826SOL    HW124377   6.024   1.110   1.193
 7826SOL    HW224378   6.088   1.002   1.089
 7827SOL     OW24379   1.877   6.143   0.998
 7827SOL    HW124380   1.931   6.065   0.967
 7827SOL    HW224381   1.834   6.121   1.086
 7828SOL     OW24382   6.415   4.437   0.355
 7828SOL    HW124383   6.513   4.454   0.356
 7828SOL    HW224384   6.378   4.454   0.264
 7829SOL     OW24385   2.437   3.404   1.482
 7829SOL    HW124386   2.399   3.343   1.551
 7829SOL    HW224387   2.482   3.482   1.527
 7830SOL     OW24388   2.524   4.865   5.383
 7830SOL    HW124389   2.600   4.903   5.331
 7830SOL    HW224390   2.464   4.814   5.321
 7831SOL     OW24391   1.402   6.900   1.388
 7831SOL    HW124392   1.327   6.933   1.446
 7831SOL    HW224393   1.478   6.870   1.446
 7832SOL     OW24394   6.323   0.758   4.521
 7832SOL    HW124395   6.374   0.730   4.440
 7832SOL    HW224396   6.359   0.845   4.555
 7833SOL     OW24397   0.725   0.745   5.127
 7833SOL    HW124398   0.727   0.836   5.168
 7833SOL    HW224399   0.799   0.689   5.165
 7834SOL     OW24400   6.667   1.483   3.535
 7834SOL    HW124401   6.594   1.536   3.578
 7834SOL    HW224402   6.641   1.387   3.531
 7835SOL     OW24403   3.950   1.915   5.420
 7835SOL    HW124404   3.929   1.859   5.340
 7835SOL    HW224405   3.934   2.011   5.398
 7836SOL     OW24406   3.374   3.671   4.839
 7836SOL    HW124407   3.375   3.676   4.739
 7836SOL    HW224408   3.302   3.607   4.868
 7837SOL     OW24409   4.586   5.791   0.001
 7837SOL    HW124410   4.571   5.713   0.061
 7837SOL    HW224411   4.548   5.770   6.932
 7838SOL     OW24412   4.313   6.989   0.871
 7838SOL    HW124413   4.225   6.947   0.896
 7838SOL    HW224414   4.362   6.929   0.808
 7839SOL     OW24415   5.855   4.368   4.765
 7839SOL    HW124416   5.885   4.322   4.681
 7839SOL    HW224417   5.923   4.435   4.793
 7840SOL     OW24418   6.901   3.893   4.558
 7840SOL    HW124419   6.990   3.899   4.603
 7840SOL    HW224420   6.901   3.950   4.475
 7841SOL     OW24421   3.841   1.853   6.158
 7841SOL    HW124422   3.751   1.813   6.173
 7841SOL    HW224423   3.866   1.909   6.237
 7842SOL     OW24424   2.356   1.487   2.873
 7842SOL    HW124425   2.436   1.455   2.923
 7842SOL    HW224426   2.361   1.455   2.778
 7843SOL     OW24427   0.509   5.826   3.309
 7843SOL    HW124428   0.508   5.849   3.212
 7843SOL    HW224429   0.415   5.809   3.340
 7844SOL     OW24430   2.852   0.593   2.352
 7844SOL    HW124431   2.896   0.681   2.335
 7844SOL    HW224432   2.754   0.607   2.367
 7845SOL     OW24433   5.142   1.876   2.558
 7845SOL    HW124434   5.063   1.828   2.596
 7845SOL    HW224435   5.124   1.975   2.558
 7846SOL     OW24436   0.664   2.513   1.158
 7846SOL    HW124437   0.694   2.439   1.219
 7846SOL    HW224438   0.612   2.580   1.210
 7847SOL     OW24439   6.608   1.538   3.073
 7847SOL    HW124440   6.525   1.506   3.117
 7847SOL    HW224441   6.629   1.631   3.103
 7848SOL     OW24442   3.218   4.900   0.544
 7848SOL    HW124443   3.157   4.892   0.465
 7848SOL    HW224444   3.259   4.811   0.563
 7849SOL     OW24445   6.637   4.031   4.690
 7849SOL    HW124446   6.555   4.055   4.638
 7849SOL    HW224447   6.630   3.936   4.721
 7850SOL     OW24448   0.638   1.749   3.741
 7850SOL    HW124449   0.570   1.795   3.684
 7850SOL    HW224450   0.700   1.698   3.683
 7851SOL     OW24451   0.033   1.977   1.745
 7851SOL    HW124452   0.107   1.925   1.703
 7851SOL    HW224453   6.973   1.919   1.751
 7852SOL     OW24454   3.268   1.803   0.167
 7852SOL    HW124455   3.325   1.813   0.085
 7852SOL    HW224456   3.174   1.831   0.146
 7853SOL     OW24457   5.040   2.799   1.370
 7853SOL    HW124458   4.995   2.843   1.293
 7853SOL    HW224459   4.996   2.826   1.456
 7854SOL     OW24460   2.945   3.107   5.928
 7854SOL    HW124461   2.849   3.106   5.957
 7854SOL    HW224462   2.974   3.202   5.915
 7855SOL     OW24463   4.208   6.533   4.751
 7855SOL    HW124464   4.110   6.511   4.751
 7855SOL    HW224465   4.260   6.448   4.738
 7856SOL     OW24466   6.640   5.773   5.225
 7856SOL    HW124467   6.648   5.684   5.270
 7856SOL    HW224468   6.565   5.824   5.267
 7857SOL     OW24469   4.399   2.778   0.463
 7857SOL    HW124470   4.491   2.765   0.499
 7857SOL    HW224471   4.343   2.698   0.486
 7858SOL     OW24472   6.713   6.468   4.501
 7858SOL    HW124473   6.795   6.524   4.486
 7858SOL    HW224474   6.740   6.379   4.539
 7859SOL     OW24475   4.545   3.322   6.570
 7859SOL    HW124476   4.563   3.375   6.653
 7859SOL    HW224477   4.614   3.250   6.561
 7860SOL     OW24478   4.687   0.938   3.885
 7860SOL    HW124479   4.651   0.881   3.959
 7860SOL    HW224480   4.787   0.939   3.889
 7861SOL     OW24481   3.380   4.951   1.599
 7861SOL    HW124482   3.436   5.032   1.618
 7861SOL    HW224483   3.355   4.907   1.685
 7862SOL     OW24484   2.171   5.009   2.333
 7862SOL    HW124485   2.143   5.103   2.355
 7862SOL    HW224486   2.244   5.011   2.266
 7863SOL     OW24487   0.280   4.083   4.035
 7863SOL    HW124488   0.349   4.151   4.059
 7863SOL    HW224489   0.309   3.993   4.067
 7864SOL     OW24490   0.578   5.241   5.540
 7864SOL    HW124491   0.518   5.319   5.522
 7864SOL    HW224492   0.637   5.224   5.461
 7865SOL     OW24493   6.377   5.767   3.950
 7865SOL    HW124494   6.307   5.741   4.016
 7865SOL    HW224495   6.433   5.840   3.989
 7866SOL     OW24496   1.296   0.523   5.428
 7866SOL    HW124497   1.260   0.432   5.450
 7866SOL    HW224498   1.221   0.588   5.425
 7867SOL     OW24499   6.226   6.041   3.531
 7867SOL    HW124500   6.227   5.972   3.603
 7867SOL    HW224501   6.134   6.079   3.522
 7868SOL     OW24502   4.130   5.883   1.341
 7868SOL    HW124503   4.196   5.905   1.414
 7868SOL    HW224504   4.059   5.823   1.378
 7869SOL     OW24505   5.466   4.335   6.365
 7869SOL    HW124506   5.483   4.397   6.442
 7869SOL    HW224507   5.379   4.288   6.380
 7870SOL     OW24508   5.317   6.303   4.361
 7870SOL    HW124509   5.230   6.342   4.390
 7870SOL    HW224510   5.354   6.356   4.284
 7871SOL     OW24511   4.804   2.406   1.621
 7871SOL    HW124512   4.816   2.310   1.599
 7871SOL    HW224513   4.864   2.431   1.698
 7872SOL     OW24514   1.912   4.110   2.886
 7872SOL    HW124515   1.863   4.161   2.958
 7872SOL    HW224516   2.010   4.114   2.904
 7873SOL     OW24517   6.080   6.995   0.203
 7873SOL    HW124518   6.054   0.070   0.200
 7873SOL    HW224519   6.039   6.952   0.283
 7874SOL     OW24520   4.794   2.430   0.922
 7874SOL    HW124521   4.796   2.424   0.822
 7874SOL    HW224522   4.699   2.430   0.954
 7875SOL     OW24523   4.111   2.392   0.016
 7875SOL    HW124524   4.054   2.473   0.029
 7875SOL    HW224525   4.055   2.309   0.026
 7876SOL     OW24526   1.224   5.965   3.489
 7876SOL    HW124527   1.133   5.964   3.447
 7876SOL    HW224528   1.220   6.016   3.575
 7877SOL     OW24529   0.614   1.524   2.667
 7877SOL    HW124530   0.698   1.534   2.721
 7877SOL    HW224531   0.535   1.542   2.725
 7878SOL     OW24532   4.500   4.486   4.004
 7878SOL    HW124533   4.576   4.527   3.954
 7878SOL    HW224534   4.464   4.552   4.071
 7879SOL     OW24535   3.788   5.233   2.640
 7879SOL    HW124536   3.703   5.188   2.614
 7879SOL    HW224537   3.833   5.182   2.713
 7880SOL     OW24538   1.965   4.115   1.653
 7880SOL    HW124539   2.035   4.056   1.694
 7880SOL    HW224540   1.875   4.072   1.664
 7881SOL     OW24541   5.241   4.554   4.798
 7881SOL    HW124542   5.204   4.495   4.870
 7881SOL    HW224543   5.177   4.556   4.721
 7882SOL     OW24544   1.706   3.989   1.726
 7882SOL    HW124545   1.615   3.982   1.686
 7882SOL    HW224546   1.698   4.023   1.820
 7883SOL     OW24547   1.153   0.586   6.337
 7883SOL    HW124548   1.242   0.602   6.293
 7883SOL    HW224549   1.081   0.590   6.268
 7884SOL     OW24550   1.578   4.039   5.059
 7884SOL    HW124551   1.671   4.066   5.081
 7884SOL    HW224552   1.515   4.079   5.125
 7885SOL     OW24553   6.735   5.660   1.117
 7885SOL    HW124554   6.714   5.635   1.212
 7885SOL    HW224555   6.673   5.610   1.056
 7886SOL     OW24556   3.772   6.015   6.651
 7886SOL    HW124557   3.869   5.996   6.665
 7886SOL    HW224558   3.723   5.930   6.633
 7887SOL     OW24559   3.360   2.476   6.041
 7887SOL    HW124560   3.382   2.457   5.946
 7887SOL    HW224561   3.290   2.547   6.045
 7888SOL     OW24562   6.138   0.198   5.463
 7888SOL    HW124563   6.045   0.189   5.500
 7888SOL    HW224564   6.204   0.190   5.538
 7889SOL     OW24565   1.965   4.634   2.562
 7889SOL    HW124566   1.973   4.597   2.470
 7889SOL    HW224567   1.965   4.559   2.628
 7890SOL     OW24568   1.817   3.617   2.909
 7890SOL    HW124569   1.766   3.607   2.824
 7890SOL    HW224570   1.777   3.693   2.962
 7891SOL     OW24571   1.565   3.709   3.151
 7891SOL    HW124572   1.636   3.762   3.105
 7891SOL    HW224573   1.498   3.771   3.192
 7892SOL     OW24574   1.872   2.393   3.979
 7892SOL    HW124575   1.859   2.452   3.899
 7892SOL    HW224576   1.892   2.449   4.059
 7893SOL     OW24577   6.768   6.781   2.959
 7893SOL    HW124578   6.833   6.819   2.893
 7893SOL    HW224579   6.794   6.807   3.052
 7894SOL     OW24580   2.693   6.608   1.482
 7894SOL    HW124581   2.667   6.614   1.386
 7894SOL    HW224582   2.729   6.696   1.513
 7895SOL     OW24583   6.800   1.443   5.931
 7895SOL    HW124584   6.864   1.370   5.906
 7895SOL    HW224585   6.751   1.473   5.849
 7896SOL     OW24586   4.997   3.528   6.887
 7896SOL    HW124587   4.930   3.600   6.867
 7896SOL    HW224588   5.014   3.524   6.985
 7897SOL     OW24589   2.330   4.072   6.361
 7897SOL    HW124590   2.421   4.041   6.334
 7897SOL    HW224591   2.333   4.104   6.456
 7898SOL     OW24592   5.447   2.086   3.756
 7898SOL    HW124593   5.454   2.165   3.817
 7898SOL    HW224594   5.513   2.095   3.682
 7899SOL     OW24595   5.992   1.435   1.765
 7899SOL    HW124596   5.909   1.415   1.818
 7899SOL    HW224597   5.999   1.369   1.690
 7900SOL     OW24598   1.460   5.834   1.520
 7900SOL    HW124599   1.471   5.751   1.464
 7900SOL    HW224600   1.410   5.903   1.467
 7901SOL     OW24601   4.735   0.711   6.202
 7901SOL    HW124602   4.781   0.733   6.116
 7901SOL    HW224603   4.782   0.635   6.246
 7902SOL     OW24604   5.600   5.494   1.673
 7902SOL    HW124605   5.514   5.449   1.649
 7902SOL    HW224606   5.581   5.571   1.735
 7903SOL     OW24607   6.119   2.194   0.912
 7903SOL    HW124608   6.133   2.115   0.972
 7903SOL    HW224609   6.097   2.275   0.967
 7904SOL     OW24610   5.619   0.545   3.386
 7904SOL    HW124611   5.565   0.463   3.372
 7904SOL    HW224612   5.588   0.617   3.323
 7905SOL     OW24613   4.469   2.092   0.317
 7905SOL    HW124614   4.529   2.015   0.294
 7905SOL    HW224615   4.423   2.124   0.234
 7906SOL     OW24616   0.560   5.716   0.575
 7906SOL    HW124617   0.582   5.734   0.480
 7906SOL    HW224618   0.536   5.801   0.621
 7907SOL     OW24619   5.780   1.803   4.053
 7907SOL    HW124620   5.860   1.829   4.107
 7907SOL    HW224621   5.805   1.800   3.956
 7908SOL     OW24622   0.848   1.282   4.222
 7908SOL    HW124623   0.927   1.287   4.283
 7908SOL    HW224624   0.795   1.366   4.230
 7909SOL     OW24625   5.523   3.827   5.086
 7909SOL    HW124626   5.531   3.822   4.987
 7909SOL    HW224627   5.569   3.909   5.119
 7910SOL     OW24628   2.920   2.831   5.580
 7910SOL    HW124629   2.952   2.922   5.603
 7910SOL    HW224630   2.982   2.789   5.513
 7911SOL     OW24631   1.411   3.293   6.436
 7911SOL    HW124632   1.323   3.274   6.480
 7911SOL    HW224633   1.419   3.391   6.420
 7912SOL     OW24634   0.159   5.290   0.600
 7912SOL    HW124635   0.070   5.329   0.624
 7912SOL    HW224636   0.221   5.364   0.575
 7913SOL     OW24637   1.575   5.101   0.945
 7913SOL    HW124638   1.624   5.145   0.870
 7913SOL    HW224639   1.513   5.032   0.908
 7914SOL     OW24640   0.076   4.930   6.228
 7914SOL    HW124641   0.037   5.015   6.264
 7914SOL    HW224642   0.031   4.852   6.270
 7915SOL     OW24643   4.774   2.932   2.490
 7915SOL    HW124644   4.807   2.993   2.561
 7915SOL    HW224645   4.719   2.859   2.531
 7916SOL     OW24646   6.232   4.053   5.808
 7916SOL    HW124647   6.293   4.086   5.736
 7916SOL    HW224648   6.182   4.130   5.847
 7917SOL     OW24649   3.148   3.011   3.702
 7917SOL    HW124650   3.215   2.950   3.657
 7917SOL    HW224651   3.116   3.079   3.636
 7918SOL     OW24652   0.410   1.471   0.743
 7918SOL    HW124653   0.466   1.461   0.825
 7918SOL    HW224654   0.355   1.389   0.729
 7919SOL     OW24655   0.914   4.364   3.330
 7919SOL    HW124656   0.825   4.320   3.340
 7919SOL    HW224657   0.951   4.385   3.421
 7920SOL     OW24658   0.813   5.039   1.363
 7920SOL    HW124659   0.791   5.135   1.347
 7920SOL    HW224660   0.782   5.012   1.455
 7921SOL     OW24661   3.897   5.598   0.626
 7921SOL    HW124662   3.809   5.583   0.580
 7921SOL    HW224663   3.948   5.669   0.577
 7922SOL     OW24664   6.511   5.756   0.567
 7922SOL    HW124665   6.506   5.812   0.485
 7922SOL    HW224666   6.419   5.728   0.594
 7923SOL     OW24667   2.898   0.351   2.508
 7923SOL    HW124668   2.985   0.302   2.511
 7923SOL    HW224669   2.883   0.385   2.415
 7924SOL     OW24670   3.969   6.111   2.913
 7924SOL    HW124671   3.911   6.092   2.834
 7924SOL    HW224672   3.946   6.201   2.951
 7925SOL     OW24673   0.622   1.778   6.441
 7925SOL    HW124674   0.529   1.794   6.408
 7925SOL    HW224675   0.624   1.696   6.498
 7926SOL     OW24676   4.716   1.026   4.936
 7926SOL    HW124677   4.749   1.107   4.985
 7926SOL    HW224678   4.637   0.988   4.984
 7927SOL     OW24679   3.943   5.497   4.421
 7927SOL    HW124680   3.940   5.593   4.449
 7927SOL    HW224681   4.019   5.484   4.357
 7928SOL     OW24682   1.132   3.160   3.843
 7928SOL    HW124683   1.093   3.096   3.910
 7928SOL    HW224684   1.165   3.241   3.891
 7929SOL     OW24685   4.367   3.991   5.507
 7929SOL    HW124686   4.353   4.062   5.438
 7929SOL    HW224687   4.339   3.902   5.471
 7930SOL     OW24688   4.645   5.681   3.775
 7930SOL    HW124689   4.720   5.681   3.841
 7930SOL    HW224690   4.565   5.637   3.815
 7931SOL     OW24691   1.300   1.867   6.127
 7931SOL    HW124692   1.302   1.922   6.043
 7931SOL    HW224693   1.206   1.839   6.146
 7932SOL     OW24694   2.771   6.883   0.210
 7932SOL    HW124695   2.822   6.900   0.294
 7932SOL    HW224696   2.687   6.936   0.211
 7933SOL     OW24697   0.118   0.050   0.166
 7933SOL    HW124698   0.099   0.139   0.207
 7933SOL    HW224699   0.032   0.009   0.133
 7934SOL     OW24700   2.402   4.549   6.709
 7934SOL    HW124701   2.410   4.606   6.791
 7934SOL    HW224702   2.342   4.471   6.729
 7935SOL     OW24703   5.587   5.344   6.895
 7935SOL    HW124704   5.652   5.339   6.971
 7935SOL    HW224705   5.584   5.256   6.848
 7936SOL     OW24706   3.595   5.192   2.396
 7936SOL    HW124707   3.568   5.287   2.381
 7936SOL    HW224708   3.552   5.158   2.480
 7937SOL     OW24709   5.846   0.134   3.732
 7937SOL    HW124710   5.906   0.095   3.802
 7937SOL    HW224711   5.805   0.061   3.679
 7938SOL     OW24712   5.550   4.875   5.493
 7938SOL    HW124713   5.543   4.970   5.461
 7938SOL    HW224714   5.535   4.872   5.592
 7939SOL     OW24715   0.427   2.159   6.033
 7939SOL    HW124716   0.340   2.114   6.052
 7939SOL    HW224717   0.464   2.197   6.117
 7940SOL     OW24718   1.926   4.333   2.624
 7940SOL    HW124719   2.003   4.347   2.686
 7940SOL    HW224720   1.846   4.303   2.677
 7941SOL     OW24721   6.849   6.961   1.066
 7941SOL    HW124722   6.771   6.900   1.052
 7941SOL    HW224723   6.819   0.021   1.116
 7942SOL     OW24724   6.631   6.384   2.908
 7942SOL    HW124725   6.723   6.414   2.933
 7942SOL    HW224726   6.607   6.420   2.818
 7943SOL     OW24727   5.885   2.033   0.708
 7943SOL    HW124728   5.826   2.024   0.628
 7943SOL    HW224729   5.845   2.099   0.772
 7944SOL     OW24730   0.264   3.279   0.989
 7944SOL    HW124731   0.332   3.252   0.922
 7944SOL    HW224732   0.223   3.366   0.961
 7945SOL     OW24733   5.431   6.743   2.873
 7945SOL    HW124734   5.410   6.830   2.916
 7945SOL    HW224735   5.529   6.727   2.875
 7946SOL     OW24736   2.284   2.721   5.846
 7946SOL    HW124737   2.310   2.789   5.777
 7946SOL    HW224738   2.273   2.766   5.935
 7947SOL     OW24739   3.824   2.686   6.404
 7947SOL    HW124740   3.893   2.689   6.332
 7947SOL    HW224741   3.782   2.595   6.406
 7948SOL     OW24742   0.311   6.446   1.276
 7948SOL    HW124743   0.368   6.527   1.293
 7948SOL    HW224744   0.237   6.469   1.214
 7949SOL     OW24745   4.527   4.466   3.706
 7949SOL    HW124746   4.432   4.488   3.728
 7949SOL    HW224747   4.588   4.528   3.755
 7950SOL     OW24748   4.822   5.455   3.708
 7950SOL    HW124749   4.814   5.413   3.617
 7950SOL    HW224750   4.730   5.468   3.747
 7951SOL     OW24751   1.863   3.719   1.142
 7951SOL    HW124752   1.858   3.624   1.175
 7951SOL    HW224753   1.959   3.746   1.133
 7952SOL     OW24754   0.535   3.334   6.859
 7952SOL    HW124755   0.480   3.309   6.938
 7952SOL    HW224756   0.476   3.372   6.787
 7953SOL     OW24757   2.133   3.038   3.433
 7953SOL    HW124758   2.037   3.009   3.443
 7953SOL    HW224759   2.182   2.969   3.379
 7954SOL     OW24760   4.675   4.523   5.437
 7954SOL    HW124761   4.716   4.435   5.414
 7954SOL    HW224762   4.635   4.518   5.529
 7955SOL     OW24763   1.331   6.533   6.214
 7955SOL    HW124764   1.342   6.534   6.115
 7955SOL    HW224765   1.388   6.605   6.254
 7956SOL     OW24766   1.369   6.413   2.406
 7956SOL    HW124767   1.368   6.316   2.382
 7956SOL    HW224768   1.389   6.424   2.503
 7957SOL     OW24769   2.034   1.237   0.472
 7957SOL    HW124770   2.091   1.311   0.508
 7957SOL    HW224771   2.019   1.168   0.543
 7958SOL     OW24772   3.151   5.664   4.572
 7958SOL    HW124773   3.173   5.740   4.633
 7958SOL    HW224774   3.053   5.646   4.575
 7959SOL     OW24775   4.231   5.251   1.115
 7959SOL    HW124776   4.147   5.201   1.096
 7959SOL    HW224777   4.255   5.241   1.212
 7960SOL     OW24778   3.536   1.413   0.680
 7960SOL    HW124779   3.540   1.377   0.774
 7960SOL    HW224780   3.614   1.473   0.664
 7961SOL     OW24781   0.687   6.260   0.175
 7961SOL    HW124782   0.752   6.186   0.160
 7961SOL    HW224783   0.708   6.306   0.261
 7962SOL     OW24784   1.921   0.368   6.997
 7962SOL    HW124785   1.857   0.339   6.926
 7962SOL    HW224786   1.911   0.466   7.013
 7963SOL     OW24787   6.532   0.549   4.006
 7963SOL    HW124788   6.579   0.637   4.013
 7963SOL    HW224789   6.439   0.559   4.042
 7964SOL     OW24790   6.245   5.309   3.844
 7964SOL    HW124791   6.253   5.366   3.762
 7964SOL    HW224792   6.308   5.232   3.837
 7965SOL     OW24793   3.374   2.709   6.477
 7965SOL    HW124794   3.353   2.612   6.476
 7965SOL    HW224795   3.372   2.745   6.384
 7966SOL     OW24796   0.351   3.155   5.356
 7966SOL    HW124797   0.276   3.217   5.333
 7966SOL    HW224798   0.387   3.178   5.447
 7967SOL     OW24799   3.222   6.677   4.061
 7967SOL    HW124800   3.255   6.620   4.135
 7967SOL    HW224801   3.208   6.771   4.094
 7968SOL     OW24802   2.260   2.907   3.219
 7968SOL    HW124803   2.287   2.971   3.147
 7968SOL    HW224804   2.290   2.815   3.194
 7969SOL     OW24805   4.687   6.805   2.224
 7969SOL    HW124806   4.624   6.871   2.265
 7969SOL    HW224807   4.758   6.853   2.172
 7970SOL     OW24808   0.195   3.280   2.761
 7970SOL    HW124809   0.169   3.184   2.757
 7970SOL    HW224810   0.214   3.314   2.669
 7971SOL     OW24811   3.347   1.683   0.654
 7971SOL    HW124812   3.333   1.780   0.674
 7971SOL    HW224813   3.397   1.640   0.729
 7972SOL     OW24814   0.790   4.242   1.418
 7972SOL    HW124815   0.822   4.216   1.327
 7972SOL    HW224816   0.784   4.160   1.475
 7973SOL     OW24817   5.456   3.332   2.641
 7973SOL    HW124818   5.360   3.359   2.643
 7973SOL    HW224819   5.512   3.408   2.607
 7974SOL     OW24820   5.486   0.211   4.916
 7974SOL    HW124821   5.471   0.298   4.867
 7974SOL    HW224822   5.584   0.198   4.931
 7975SOL     OW24823   5.737   0.561   3.681
 7975SOL    HW124824   5.717   0.515   3.595
 7975SOL    HW224825   5.810   0.512   3.729
 7976SOL     OW24826   0.801   0.609   5.542
 7976SOL    HW124827   0.725   0.615   5.607
 7976SOL    HW224828   0.766   0.582   5.452
 7977SOL     OW24829   4.640   5.608   2.010
 7977SOL    HW124830   4.621   5.569   2.100
 7977SOL    HW224831   4.719   5.561   1.969
 7978SOL     OW24832   5.874   3.594   6.147
 7978SOL    HW124833   5.831   3.539   6.074
 7978SOL    HW224834   5.906   3.680   6.109
 7979SOL     OW24835   3.103   0.621   5.513
 7979SOL    HW124836   3.021   0.667   5.547
 7979SOL    HW224837   3.079   0.529   5.483
 7980SOL     OW24838   3.113   6.085   6.936
 7980SOL    HW124839   3.060   6.092   7.021
 7980SOL    HW224840   3.211   6.081   6.958
 7981SOL     OW24841   0.604   5.959   2.398
 7981SOL    HW124842   0.522   6.016   2.403
 7981SOL    HW224843   0.685   6.017   2.406
 7982SOL     OW24844   6.622   1.664   0.426
 7982SOL    HW124845   6.703   1.709   0.463
 7982SOL    HW224846   6.540   1.712   0.457
 7983SOL     OW24847   5.494   2.045   2.883
 7983SOL    HW124848   5.444   1.988   2.818
 7983SOL    HW224849   5.592   2.037   2.866
 7984SOL     OW24850   1.741   2.165   1.483
 7984SOL    HW124851   1.726   2.156   1.385
 7984SOL    HW224852   1.760   2.261   1.505
 7985SOL     OW24853   2.576   0.127   3.586
 7985SOL    HW124854   2.529   0.187   3.649
 7985SOL    HW224855   2.519   0.111   3.505
 7986SOL     OW24856   3.293   1.074   6.731
 7986SOL    HW124857   3.220   1.036   6.673
 7986SOL    HW224858   3.379   1.074   6.680
 7987SOL     OW24859   0.928   3.367   6.629
 7987SOL    HW124860   0.879   3.388   6.545
 7987SOL    HW224861   0.871   3.310   6.688
 7988SOL     OW24862   1.805   1.973   4.544
 7988SOL    HW124863   1.808   2.053   4.484
 7988SOL    HW224864   1.718   1.925   4.531
 7989SOL     OW24865   3.433   2.250   5.295
 7989SOL    HW124866   3.433   2.152   5.273
 7989SOL    HW224867   3.361   2.296   5.243
 7990SOL     OW24868   6.106   4.083   3.858
 7990SOL    HW124869   6.157   4.119   3.935
 7990SOL    HW224870   6.078   3.989   3.876
 7991SOL     OW24871   6.370   0.622   5.010
 7991SOL    HW124872   6.337   0.648   4.919
 7991SOL    HW224873   6.465   0.651   5.020
 7992SOL     OW24874   1.324   6.396   0.798
 7992SOL    HW124875   1.244   6.456   0.795
 7992SOL    HW224876   1.400   6.444   0.840
 7993SOL     OW24877   1.464   6.098   6.728
 7993SOL    HW124878   1.414   6.116   6.644
 7993SOL    HW224879   1.538   6.034   6.710
 7994SOL     OW24880   4.640   0.547   2.954
 7994SOL    HW124881   4.715   0.612   2.955
 7994SOL    HW224882   4.641   0.494   2.869
 7995SOL     OW24883   4.209   5.458   3.595
 7995SOL    HW124884   4.286   5.492   3.543
 7995SOL    HW224885   4.125   5.470   3.542
 7996SOL     OW24886   3.193   6.552   4.581
 7996SOL    HW124887   3.133   6.485   4.625
 7996SOL    HW224888   3.210   6.628   4.643
 7997SOL     OW24889   0.212   1.281   0.673
 7997SOL    HW124890   0.149   1.274   0.751
 7997SOL    HW224891   0.229   1.190   0.636
 7998SOL     OW24892   4.166   5.477   0.916
 7998SOL    HW124893   4.089   5.420   0.888
 7998SOL    HW224894   4.235   5.421   0.961
 7999SOL     OW24895   1.486   0.684   6.460
 7999SOL    HW124896   1.440   0.603   6.423
 7999SOL    HW224897   1.574   0.657   6.500
 8000SOL     OW24898   5.469   0.751   7.000
 8000SOL    HW124899   5.524   0.751   0.061
 8000SOL    HW224900   5.449   0.657   6.972
 8001SOL     OW24901   3.527   6.346   1.310
 8001SOL    HW124902   3.456   6.279   1.330
 8001SOL    HW224903   3.494   6.411   1.242
 8002SOL     OW24904   0.204   2.667   5.681
 8002SOL    HW124905   0.183   2.652   5.584
 8002SOL    HW224906   0.302   2.661   5.695
 8003SOL     OW24907   2.334   4.735   1.965
 8003SOL    HW124908   2.315   4.683   2.048
 8003SOL    HW224909   2.285   4.692   1.888
 8004SOL     OW24910   1.672   4.354   2.752
 8004SOL    HW124911   1.688   4.419   2.827
 8004SOL    HW224912   1.640   4.267   2.790
 8005SOL     OW24913   3.410   1.834   2.352
 8005SOL    HW124914   3.388   1.801   2.260
 8005SOL    HW224915   3.438   1.930   2.347
 8006SOL     OW24916   2.602   6.639   0.608
 8006SOL    HW124917   2.620   6.657   0.511
 8006SOL    HW224918   2.576   6.723   0.654
 8007SOL     OW24919   1.268   6.917   3.912
 8007SOL    HW124920   1.195   6.863   3.953
 8007SOL    HW224921   1.230   7.000   3.872
 8008SOL     OW24922   4.856   6.892   5.953
 8008SOL    HW124923   4.861   6.910   5.854
 8008SOL    HW224924   4.947   6.870   5.988
 8009SOL     OW24925   6.141   0.369   3.561
 8009SOL    HW124926   6.133   0.300   3.489
 8009SOL    HW224927   6.198   0.334   3.635
 8010SOL     OW24928   1.518   1.569   6.872
 8010SOL    HW124929   1.559   1.480   6.895
 8010SOL    HW224930   1.578   1.642   6.904
 8011SOL     OW24931   2.481   3.015   1.472
 8011SOL    HW124932   2.536   2.936   1.444
 8011SOL    HW224933   2.439   2.997   1.561
 8012SOL     OW24934   2.344   5.769   1.430
 8012SOL    HW124935   2.432   5.784   1.386
 8012SOL    HW224936   2.271   5.807   1.373
 8013SOL     OW24937   0.601   5.299   4.663
 8013SOL    HW124938   0.657   5.380   4.681
 8013SOL    HW224939   0.644   5.244   4.592
 8014SOL     OW24940   1.025   6.562   5.260
 8014SOL    HW124941   1.085   6.581   5.338
 8014SOL    HW224942   0.946   6.624   5.263
 8015SOL     OW24943   2.886   1.361   0.170
 8015SOL    HW124944   2.947   1.408   0.235
 8015SOL    HW224945   2.884   1.412   0.084
 8016SOL     OW24946   4.178   0.234   6.285
 8016SOL    HW124947   4.227   0.314   6.321
 8016SOL    HW224948   4.200   0.223   6.188
 8017SOL     OW24949   6.581   5.057   6.341
 8017SOL    HW124950   6.590   4.967   6.385
 8017SOL    HW224951   6.507   5.054   6.274
 8018SOL     OW24952   4.077   2.468   6.387
 8018SOL    HW124953   4.045   2.483   6.481
 8018SOL    HW224954   4.013   2.511   6.323
 8019SOL     OW24955   2.220   3.744   0.052
 8019SOL    HW124956   2.122   3.739   0.031
 8019SOL    HW224957   2.271   3.760   6.989
 8020SOL     OW24958   6.344   6.034   0.830
 8020SOL    HW124959   6.436   6.059   0.799
 8020SOL    HW224960   6.342   6.035   0.930
 8021SOL     OW24961   1.293   2.447   2.138
 8021SOL    HW124962   1.286   2.498   2.053
 8021SOL    HW224963   1.390   2.437   2.163
 8022SOL     OW24964   4.229   0.186   2.524
 8022SOL    HW124965   4.298   0.249   2.487
 8022SOL    HW224966   4.150   0.238   2.556
 8023SOL     OW24967   5.812   5.933   3.685
 8023SOL    HW124968   5.800   5.921   3.783
 8023SOL    HW224969   5.769   5.857   3.637
 8024SOL     OW24970   2.686   4.854   0.356
 8024SOL    HW124971   2.689   4.928   0.289
 8024SOL    HW224972   2.771   4.800   0.350
 8025SOL     OW24973   2.679   5.810   6.025
 8025SOL    HW124974   2.757   5.772   6.074
 8025SOL    HW224975   2.703   5.827   5.930
 8026SOL     OW24976   0.429   4.631   6.955
 8026SOL    HW124977   0.413   4.715   6.903
 8026SOL    HW224978   0.365   4.561   6.926
 8027SOL     OW24979   4.289   1.973   5.456
 8027SOL    HW124980   4.352   1.953   5.381
 8027SOL    HW224981   4.207   1.915   5.447
 8028SOL     OW24982   3.607   4.726   6.001
 8028SOL    HW124983   3.515   4.754   6.031
 8028SOL    HW224984   3.672   4.800   6.021
 8029SOL     OW24985   5.774   3.700   0.153
 8029SOL    HW124986   5.734   3.658   0.234
 8029SOL    HW224987   5.814   3.629   0.095
 8030SOL     OW24988   5.776   4.075   6.438
 8030SOL    HW124989   5.722   4.021   6.503
 8030SOL    HW224990   5.835   4.014   6.385
 8031SOL     OW24991   5.132   5.878   2.529
 8031SOL    HW124992   5.200   5.836   2.588
 8031SOL    HW224993   5.048   5.824   2.529
 8032SOL     OW24994   5.784   4.528   5.697
 8032SOL    HW124995   5.784   4.595   5.771
 8032SOL    HW224996   5.695   4.482   5.694
 8033SOL     OW24997   5.161   3.029   6.866
 8033SOL    HW124998   5.236   3.094   6.878
 8033SOL    HW224999   5.133   2.993   6.956
 8034SOL     OW25000   6.310   1.291   5.409
 8034SOL    HW125001   6.403   1.257   5.419
 8034SOL    HW225002   6.254   1.221   5.365
 8035SOL     OW25003   4.501   0.151   4.962
 8035SOL    HW125004   4.494   0.251   4.957
 8035SOL    HW225005   4.451   0.118   5.042
 8036SOL     OW25006   0.926   4.181   2.705
 8036SOL    HW125007   0.962   4.183   2.612
 8036SOL    HW225008   0.831   4.152   2.703
 8037SOL     OW25009   1.482   4.118   2.344
 8037SOL    HW125010   1.464   4.043   2.281
 8037SOL    HW225011   1.574   4.155   2.327
 8038SOL     OW25012   4.534   1.106   2.625
 8038SOL    HW125013   4.485   1.023   2.649
 8038SOL    HW225014   4.544   1.112   2.525
 8039SOL     OW25015   1.236   0.140   3.134
 8039SOL    HW125016   1.254   0.207   3.206
 8039SOL    HW225017   1.286   0.167   3.051
 8040SOL     OW25018   1.617   6.001   1.115
 8040SOL    HW125019   1.581   5.910   1.092
 8040SOL    HW225020   1.657   5.999   1.206
 8041SOL     OW25021   3.230   2.110   2.219
 8041SOL    HW125022   3.194   2.151   2.303
 8041SOL    HW225023   3.158   2.107   2.150
 8042SOL     OW25024   4.041   3.240   3.061
 8042SOL    HW125025   4.141   3.245   3.061
 8042SOL    HW225026   4.011   3.177   2.989
 8043SOL     OW25027   3.893   6.033   0.827
 8043SOL    HW125028   3.865   6.103   0.893
 8043SOL    HW225029   3.954   6.074   0.759
 8044SOL     OW25030   3.077   3.496   0.662
 8044SOL    HW125031   3.092   3.477   0.759
 8044SOL    HW225032   3.165   3.503   0.615
 8045SOL     OW25033   5.421   0.868   1.945
 8045SOL    HW125034   5.514   0.900   1.926
 8045SOL    HW225035   5.421   0.810   2.026
 8046SOL     OW25036   6.649   5.040   6.961
 8046SOL    HW125037   6.719   4.970   6.973
 8046SOL    HW225038   6.690   5.122   6.921
 8047SOL     OW25039   4.065   4.927   5.185
 8047SOL    HW125040   3.966   4.938   5.196
 8047SOL    HW225041   4.101   5.002   5.129
 8048SOL     OW25042   5.209   1.011   5.879
 8048SOL    HW125043   5.255   0.972   5.959
 8048SOL    HW225044   5.215   1.111   5.884
 8049SOL     OW25045   1.294   0.067   1.217
 8049SOL    HW125046   1.313   7.015   1.281
 8049SOL    HW225047   1.231   0.036   1.147
 8050SOL     OW25048   0.749   4.231   2.107
 8050SOL    HW125049   0.805   4.150   2.091
 8050SOL    HW225050   0.688   4.214   2.185
 8051SOL     OW25051   4.868   6.209   3.181
 8051SOL    HW125052   4.780   6.221   3.227
 8051SOL    HW225053   4.941   6.205   3.249
 8052SOL     OW25054   3.682   1.318   1.834
 8052SOL    HW125055   3.716   1.232   1.797
 8052SOL    HW225056   3.683   1.314   1.934
 8053SOL     OW25057   3.832   3.884   2.983
 8053SOL    HW125058   3.870   3.931   3.062
 8053SOL    HW225059   3.748   3.930   2.953
 8054SOL     OW25060   5.727   6.581   4.220
 8054SOL    HW125061   5.753   6.519   4.146
 8054SOL    HW225062   5.701   6.528   4.300
 8055SOL     OW25063   0.553   0.126   5.884
 8055SOL    HW125064   0.625   0.190   5.910
 8055SOL    HW225065   0.468   0.177   5.869
 8056SOL     OW25066   4.134   1.233   3.972
 8056SOL    HW125067   4.160   1.211   4.066
 8056SOL    HW225068   4.180   1.318   3.945
 8057SOL     OW25069   2.212   1.894   2.493
 8057SOL    HW125070   2.266   1.836   2.555
 8057SOL    HW225071   2.252   1.890   2.401
 8058SOL     OW25072   3.131   0.203   2.551
 8058SOL    HW125073   3.156   0.109   2.576
 8058SOL    HW225074   3.175   0.267   2.613
 8059SOL     OW25075   4.287   2.313   4.736
 8059SOL    HW125076   4.273   2.286   4.832
 8059SOL    HW225077   4.319   2.408   4.733
 8060SOL     OW25078   0.229   1.233   4.097
 8060SOL    HW125079   0.130   1.221   4.089
 8060SOL    HW225080   0.261   1.193   4.183
 8061SOL     OW25081   6.458   6.879   1.690
 8061SOL    HW125082   6.471   6.912   1.784
 8061SOL    HW225083   6.434   6.782   1.692
 8062SOL     OW25084   2.671   4.626   4.018
 8062SOL    HW125085   2.648   4.551   4.081
 8062SOL    HW225086   2.653   4.597   3.924
 8063SOL     OW25087   1.923   3.180   0.821
 8063SOL    HW125088   1.966   3.096   0.854
 8063SOL    HW225089   1.963   3.205   0.733
 8064SOL     OW25090   0.174   5.188   1.642
 8064SOL    HW125091   0.129   5.102   1.668
 8064SOL    HW225092   0.148   5.260   1.706
 8065SOL     OW25093   4.470   6.333   3.673
 8065SOL    HW125094   4.372   6.342   3.657
 8065SOL    HW225095   4.495   6.382   3.756
 8066SOL     OW25096   1.127   1.565   6.321
 8066SOL    HW125097   1.143   1.578   6.419
 8066SOL    HW225098   1.195   1.502   6.284
 8067SOL     OW25099   4.622   3.001   1.598
 8067SOL    HW125100   4.631   3.022   1.695
 8067SOL    HW225101   4.540   3.045   1.562
 8068SOL     OW25102   6.464   5.515   6.386
 8068SOL    HW125103   6.509   5.561   6.309
 8068SOL    HW225104   6.413   5.583   6.439
 8069SOL     OW25105   1.995   6.075   1.388
 8069SOL    HW125106   2.085   6.067   1.345
 8069SOL    HW225107   1.996   6.027   1.476
 8070SOL     OW25108   2.489   3.565   0.649
 8070SOL    HW125109   2.435   3.566   0.565
 8070SOL    HW225110   2.556   3.491   0.645
 8071SOL     OW25111   2.903   6.434   5.012
 8071SOL    HW125112   2.816   6.436   5.062
 8071SOL    HW225113   2.928   6.339   4.992
 8072SOL     OW25114   3.415   1.194   0.101
 8072SOL    HW125115   3.350   1.211   0.026
 8072SOL    HW225116   3.394   1.106   0.144
 8073SOL     OW25117   4.547   6.942   6.318
 8073SOL    HW125118   4.484   6.865   6.334
 8073SOL    HW225119   4.543   7.005   6.395
 8074SOL     OW25120   3.123   2.857   6.887
 8074SOL    HW125121   3.205   2.904   6.856
 8074SOL    HW225122   3.109   2.874   6.985
 8075SOL     OW25123   6.673   0.910   1.338
 8075SOL    HW125124   6.767   0.911   1.305
 8075SOL    HW225125   6.611   0.935   1.263
 8076SOL     OW25126   4.482   2.487   5.757
 8076SOL    HW125127   4.520   2.518   5.844
 8076SOL    HW225128   4.553   2.489   5.687
 8077SOL     OW25129   0.973   6.075   2.007
 8077SOL    HW125130   1.061   6.058   2.051
 8077SOL    HW225131   0.930   6.156   2.047
 8078SOL     OW25132   6.335   1.655   1.067
 8078SOL    HW125133   6.252   1.619   1.025
 8078SOL    HW225134   6.415   1.616   1.022
 8079SOL     OW25135   5.157   1.774   3.675
 8079SOL    HW125136   5.075   1.772   3.731
 8079SOL    HW225137   5.238   1.777   3.734
 8080SOL     OW25138   0.713   3.950   0.329
 8080SOL    HW125139   0.680   3.920   0.240
 8080SOL    HW225140   0.646   3.927   0.399
 8081SOL     OW25141   5.080   0.419   5.035
 8081SOL    HW125142   5.162   0.375   5.073
 8081SOL    HW225143   5.090   0.428   4.936
 8082SOL     OW25144   6.051   1.077   2.019
 8082SOL    HW125145   6.141   1.121   2.025
 8082SOL    HW225146   6.062   0.979   2.002
 8083SOL     OW25147   5.268   2.653   2.131
 8083SOL    HW125148   5.276   2.748   2.099
 8083SOL    HW225149   5.172   2.627   2.135
 8084SOL     OW25150   5.485   6.842   0.844
 8084SOL    HW125151   5.527   6.932   0.827
 8084SOL    HW225152   5.553   6.771   0.826
 8085SOL     OW25153   6.026   0.152   2.566
 8085SOL    HW125154   6.083   0.094   2.625
 8085SOL    HW225155   5.942   0.102   2.543
 8086SOL     OW25156   4.527   0.715   3.643
 8086SOL    HW125157   4.560   0.624   3.670
 8086SOL    HW225158   4.513   0.771   3.724
 8087SOL     OW25159   2.033   1.477   1.188
 8087SOL    HW125160   2.096   1.554   1.192
 8087SOL    HW225161   1.939   1.511   1.186
 8088SOL     OW25162   6.155   1.688   1.738
 8088SOL    HW125163   6.134   1.745   1.658
 8088SOL    HW225164   6.084   1.619   1.750
 8089SOL     OW25165   5.435   2.417   0.746
 8089SOL    HW125166   5.338   2.420   0.725
 8089SOL    HW225167   5.487   2.399   0.662
 8090SOL     OW25168   4.545   1.775   6.466
 8090SOL    HW125169   4.527   1.679   6.487
 8090SOL    HW225170   4.463   1.830   6.483
 8091SOL     OW25171   2.560   3.602   6.287
 8091SOL    HW125172   2.474   3.643   6.317
 8091SOL    HW225173   2.557   3.585   6.189
 8092SOL     OW25174   1.085   2.047   4.749
 8092SOL    HW125175   1.066   2.136   4.709
 8092SOL    HW225176   1.182   2.024   4.736
 8093SOL     OW25177   5.453   5.825   2.078
 8093SOL    HW125178   5.378   5.841   2.014
 8093SOL    HW225179   5.474   5.909   2.127
 8094SOL     OW25180   2.218   3.978   4.742
 8094SOL    HW125181   2.310   3.981   4.702
 8094SOL    HW225182   2.203   4.058   4.799
 8095SOL     OW25183   5.913   4.199   3.720
 8095SOL    HW125184   5.985   4.143   3.763
 8095SOL    HW225185   5.844   4.139   3.680
 8096SOL     OW25186   3.355   5.498   3.993
 8096SOL    HW125187   3.300   5.483   3.911
 8096SOL    HW225188   3.445   5.531   3.967
 8097SOL     OW25189   5.359   0.554   3.807
 8097SOL    HW125190   5.373   0.457   3.830
 8097SOL    HW225191   5.429   0.584   3.743
 8098SOL     OW25192   1.790   6.547   4.483
 8098SOL    HW125193   1.750   6.637   4.497
 8098SOL    HW225194   1.718   6.478   4.479
 8099SOL     OW25195   6.160   0.528   4.270
 8099SOL    HW125196   6.207   0.443   4.293
 8099SOL    HW225197   6.079   0.537   4.327
 8100SOL     OW25198   7.018   6.710   0.177
 8100SOL    HW125199   6.962   6.661   0.244
 8100SOL    HW225200   0.055   6.645   0.128
 8101SOL     OW25201   2.280   0.355   4.669
 8101SOL    HW125202   2.252   0.259   4.668
 8101SOL    HW225203   2.272   0.393   4.577
 8102SOL     OW25204   1.310   5.156   5.909
 8102SOL    HW125205   1.271   5.210   5.835
 8102SOL    HW225206   1.288   5.198   5.997
 8103SOL     OW25207   4.253   1.405   0.668
 8103SOL    HW125208   4.331   1.352   0.634
 8103SOL    HW225209   4.204   1.446   0.592
 8104SOL     OW25210   2.688   6.635   5.920
 8104SOL    HW125211   2.787   6.622   5.925
 8104SOL    HW225212   2.642   6.548   5.938
 8105SOL     OW25213   1.692   2.233   3.180
 8105SOL    HW125214   1.724   2.281   3.261
 8105SOL    HW225215   1.769   2.218   3.117
 8106SOL     OW25216   2.597   6.067   3.885
 8106SOL    HW125217   2.544   6.025   3.957
 8106SOL    HW225218   2.544   6.069   3.800
 8107SOL     OW25219   1.310   6.210   5.383
 8107SOL    HW125220   1.264   6.189   5.297
 8107SOL    HW225221   1.258   6.173   5.459
 8108SOL     OW25222   5.705   2.632   4.869
 8108SOL    HW125223   5.683   2.564   4.939
 8108SOL    HW225224   5.686   2.724   4.904
 8109SOL     OW25225   1.067   3.672   4.569
 8109SOL    HW125226   1.083   3.754   4.624
 8109SOL    HW225227   1.038   3.597   4.629
 8110SOL     OW25228   3.449   6.561   0.728
 8110SOL    HW125229   3.371   6.624   0.725
 8110SOL    HW225230   3.533   6.611   0.705
 8111SOL     OW25231   3.670   0.135   5.752
 8111SOL    HW125232   3.695   0.047   5.711
 8111SOL    HW225233   3.749   0.172   5.802
 8112SOL     OW25234   1.873   1.226   5.053
 8112SOL    HW125235   1.946   1.229   5.122
 8112SOL    HW225236   1.804   1.160   5.081
 8113SOL     OW25237   2.327   3.179   0.019
 8113SOL    HW125238   2.298   3.270   0.048
 8113SOL    HW225239   2.424   3.182   7.017
 8114SOL     OW25240   2.134   2.982   2.574
 8114SOL    HW125241   2.199   2.992   2.499
 8114SOL    HW225242   2.181   2.944   2.654
 8115SOL     OW25243   4.070   1.449   1.642
 8115SOL    HW125244   4.099   1.364   1.686
 8115SOL    HW225245   4.011   1.500   1.706
 8116SOL     OW25246   4.636   6.689   4.552
 8116SOL    HW125247   4.723   6.643   4.570
 8116SOL    HW225248   4.654   6.780   4.515
 8117SOL     OW25249   2.303   1.536   3.738
 8117SOL    HW125250   2.400   1.559   3.738
 8117SOL    HW225251   2.254   1.598   3.799
 8118SOL     OW25252   0.174   3.452   6.165
 8118SOL    HW125253   0.192   3.398   6.083
 8118SOL    HW225254   0.108   3.524   6.145
 8119SOL     OW25255   0.083   5.673   5.050
 8119SOL    HW125256   7.007   5.681   5.030
 8119SOL    HW225257   0.119   5.763   5.074
 8120SOL     OW25258   3.960   4.528   6.467
 8120SOL    HW125259   3.943   4.524   6.566
 8120SOL    HW225260   3.903   4.600   6.427
 8121SOL     OW25261   6.377   5.530   3.298
 8121SOL    HW125262   6.420   5.618   3.318
 8121SOL    HW225263   6.395   5.504   3.203
 8122SOL     OW25264   0.365   5.286   2.399
 8122SOL    HW125265   0.365   5.216   2.471
 8122SOL    HW225266   0.388   5.243   2.311
 8123SOL     OW25267   0.301   6.950   0.361
 8123SOL    HW125268   0.298   6.998   0.448
 8123SOL    HW225269   0.243   6.998   0.295
 8124SOL     OW25270   0.452   6.235   1.138
 8124SOL    HW125271   0.545   6.268   1.154
 8124SOL    HW225272   0.387   6.305   1.167
 8125SOL     OW25273   6.807   5.406   3.315
 8125SOL    HW125274   6.783   5.317   3.276
 8125SOL    HW225275   6.785   5.479   3.250
 8126SOL     OW25276   6.372   4.135   2.047
 8126SOL    HW125277   6.445   4.202   2.038
 8126SOL    HW225278   6.405   4.055   2.096
 8127SOL     OW25279   2.179   6.092   0.596
 8127SOL    HW125280   2.102   6.052   0.545
 8127SOL    HW225281   2.188   6.046   0.684
 8128SOL     OW25282   3.061   2.894   0.127
 8128SOL    HW125283   2.975   2.930   0.162
 8128SOL    HW225284   3.074   2.800   0.159
 8129SOL     OW25285   4.931   1.065   6.235
 8129SOL    HW125286   4.861   1.064   6.163
 8129SOL    HW225287   4.898   1.119   6.313
 8130SOL     OW25288   1.052   4.853   6.339
 8130SOL    HW125289   1.093   4.764   6.318
 8130SOL    HW225290   0.957   4.840   6.365
 8131SOL     OW25291   2.529   0.706   0.472
 8131SOL    HW125292   2.469   0.710   0.552
 8131SOL    HW225293   2.622   0.683   0.501
 8132SOL     OW25294   5.954   6.504   6.087
 8132SOL    HW125295   5.946   6.471   5.993
 8132SOL    HW225296   6.046   6.483   6.122
 8133SOL     OW25297   3.468   4.895   2.179
 8133SOL    HW125298   3.474   4.848   2.091
 8133SOL    HW225299   3.378   4.878   2.220
 8134SOL     OW25300   1.928   0.983   4.366
 8134SOL    HW125301   1.979   1.048   4.309
 8134SOL    HW225302   1.867   1.032   4.428
 8135SOL     OW25303   2.318   5.485   2.477
 8135SOL    HW125304   2.316   5.577   2.439
 8135SOL    HW225305   2.413   5.458   2.494
 8136SOL     OW25306   4.693   4.755   2.362
 8136SOL    HW125307   4.786   4.789   2.351
 8136SOL    HW225308   4.650   4.746   2.272
 8137SOL     OW25309   2.464   1.773   4.411
 8137SOL    HW125310   2.482   1.829   4.492
 8137SOL    HW225311   2.537   1.787   4.344
 8138SOL     OW25312   5.988   2.227   1.605
 8138SOL    HW125313   5.904   2.192   1.647
 8138SOL    HW225314   6.067   2.184   1.649
 8139SOL     OW25315   1.816   2.645   3.011
 8139SOL    HW125316   1.845   2.593   3.091
 8139SOL    HW225317   1.720   2.626   2.992
 8140SOL     OW25318   3.560   0.301   0.282
 8140SOL    HW125319   3.588   0.253   0.365
 8140SOL    HW225320   3.563   0.239   0.204
 8141SOL     OW25321   4.785   6.814   5.279
 8141SOL    HW125322   4.700   6.763   5.281
 8141SOL    HW225323   4.812   6.832   5.185
 8142SOL     OW25324   1.839   5.043   1.048
 8142SOL    HW125325   1.748   5.073   1.021
 8142SOL    HW225326   1.833   4.988   1.131
 8143SOL     OW25327   4.975   4.944   0.985
 8143SOL    HW125328   4.938   4.855   0.958
 8143SOL    HW225329   4.991   4.946   1.083
 8144SOL     OW25330   1.125   6.137   5.176
 8144SOL    HW125331   1.066   6.214   5.151
 8144SOL    HW225332   1.084   6.088   5.254
 8145SOL     OW25333   4.921   4.438   0.886
 8145SOL    HW125334   4.918   4.348   0.843
 8145SOL    HW225335   4.895   4.431   0.982
 8146SOL     OW25336   6.504   0.078   5.487
 8146SOL    HW125337   6.427   0.133   5.518
 8146SOL    HW225338   6.524   0.007   5.554
 8147SOL     OW25339   6.986   0.864   0.300
 8147SOL    HW125340   0.051   0.893   0.342
 8147SOL    HW225341   6.921   0.939   0.303
 8148SOL     OW25342   4.111   4.722   6.851
 8148SOL    HW125343   4.073   4.809   6.823
 8148SOL    HW225344   4.073   4.648   6.795
 8149SOL     OW25345   1.195   6.121   4.397
 8149SOL    HW125346   1.273   6.140   4.457
 8149SOL    HW225347   1.127   6.193   4.407
 8150SOL     OW25348   0.870   3.469   0.952
 8150SOL    HW125349   0.861   3.369   0.947
 8150SOL    HW225350   0.807   3.512   0.887
 8151SOL     OW25351   5.630   5.628   4.003
 8151SOL    HW125352   5.674   5.633   3.913
 8151SOL    HW225353   5.542   5.581   3.994
 8152SOL     OW25354   5.562   2.290   3.416
 8152SOL    HW125355   5.477   2.318   3.370
 8152SOL    HW225356   5.569   2.336   3.504
 8153SOL     OW25357   0.186   0.773   3.203
 8153SOL    HW125358   0.113   0.822   3.250
 8153SOL    HW225359   0.271   0.825   3.210
 8154SOL     OW25360   3.134   0.169   3.076
 8154SOL    HW125361   3.193   0.233   3.027
 8154SOL    HW225362   3.187   0.126   3.150
 8155SOL     OW25363   1.297   4.362   2.146
 8155SOL    HW125364   1.372   4.349   2.211
 8155SOL    HW225365   1.255   4.273   2.125
 8156SOL     OW25366   5.009   6.309   1.751
 8156SOL    HW125367   4.952   6.253   1.812
 8156SOL    HW225368   4.958   6.330   1.668
 8157SOL     OW25369   6.035   4.721   5.794
 8157SOL    HW125370   5.950   4.719   5.847
 8157SOL    HW225371   6.013   4.743   5.699
 8158SOL     OW25372   5.276   4.816   6.871
 8158SOL    HW125373   5.241   4.909   6.886
 8158SOL    HW225374   5.354   4.800   6.931
 8159SOL     OW25375   3.477   5.991   5.416
 8159SOL    HW125376   3.506   5.930   5.343
 8159SOL    HW225377   3.377   5.999   5.417
 8160SOL     OW25378   4.383   0.127   3.841
 8160SOL    HW125379   4.287   0.151   3.848
 8160SOL    HW225380   4.411   0.125   3.745
 8161SOL     OW25381   5.985   3.905   6.291
 8161SOL    HW125382   6.003   3.828   6.352
 8161SOL    HW225383   5.959   3.871   6.200
 8162SOL     OW25384   6.999   5.235   6.692
 8162SOL    HW125385   7.021   5.326   6.655
 8162SOL    HW225386   6.928   5.244   6.761
 8163SOL     OW25387   2.742   5.109   5.881
 8163SOL    HW125388   2.779   5.106   5.974
 8163SOL    HW225389   2.746   5.018   5.841
 8164SOL     OW25390   4.711   1.356   0.400
 8164SOL    HW125391   4.619   1.388   0.381
 8164SOL    HW225392   4.777   1.407   0.344
 8165SOL     OW25393   6.552   3.903   6.403
 8165SOL    HW125394   6.479   3.872   6.342
 8165SOL    HW225395   6.577   3.828   6.465
 8166SOL     OW25396   2.152   1.377   3.370
 8166SOL    HW125397   2.187   1.469   3.389
 8166SOL    HW225398   2.117   1.373   3.276
 8167SOL     OW25399   0.519   0.836   3.619
 8167SOL    HW125400   0.478   0.778   3.549
 8167SOL    HW225401   0.576   0.779   3.679
 8168SOL     OW25402   2.844   0.034   1.327
 8168SOL    HW125403   2.939   0.057   1.304
 8168SOL    HW225404   2.802   7.009   1.250
 8169SOL     OW25405   3.965   1.882   0.361
 8169SOL    HW125406   3.876   1.835   0.360
 8169SOL    HW225407   3.953   1.976   0.329
 8170SOL     OW25408   6.678   4.733   1.396
 8170SOL    HW125409   6.777   4.738   1.381
 8170SOL    HW225410   6.650   4.637   1.400
 8171SOL     OW25411   1.889   1.480   6.267
 8171SOL    HW125412   1.854   1.414   6.333
 8171SOL    HW225413   1.908   1.435   6.181
 8172SOL     OW25414   0.062   2.272   1.706
 8172SOL    HW125415   7.006   2.316   1.750
 8172SOL    HW225416   0.035   2.181   1.674
 8173SOL     OW25417   6.220   1.731   2.522
 8173SOL    HW125418   6.182   1.666   2.455
 8173SOL    HW225419   6.219   1.823   2.483
 8174SOL     OW25420   0.947   6.696   2.880
 8174SOL    HW125421   0.955   6.796   2.886
 8174SOL    HW225422   0.886   6.663   2.951
 8175SOL     OW25423   0.432   2.914   4.587
 8175SOL    HW125424   0.418   2.816   4.573
 8175SOL    HW225425   0.364   2.949   4.651
 8176SOL     OW25426   2.409   4.444   1.663
 8176SOL    HW125427   2.503   4.477   1.655
 8176SOL    HW225428   2.361   4.459   1.577
 8177SOL     OW25429   4.134   1.051   3.785
 8177SOL    HW125430   4.228   1.028   3.761
 8177SOL    HW225431   4.133   1.129   3.847
 8178SOL     OW25432   3.260   6.528   1.348
 8178SOL    HW125433   3.314   6.469   1.407
 8178SOL    HW225434   3.199   6.472   1.292
 8179SOL     OW25435   5.730   1.243   5.014
 8179SOL    HW125436   5.695   1.327   5.055
 8179SOL    HW225437   5.654   1.192   4.973
 8180SOL     OW25438   5.769   0.693   0.105
 8180SOL    HW125439   5.706   0.733   0.171
 8180SOL    HW225440   5.856   0.742   0.107
 8181SOL     OW25441   1.141   1.060   0.818
 8181SOL    HW125442   1.152   1.085   0.722
 8181SOL    HW225443   1.220   1.007   0.848
 8182SOL     OW25444   3.439   3.663   4.575
 8182SOL    HW125445   3.463   3.605   4.498
 8182SOL    HW225446   3.449   3.759   4.548
 8183SOL     OW25447   6.256   2.269   4.304
 8183SOL    HW125448   6.274   2.231   4.213
 8183SOL    HW225449   6.327   2.240   4.368
 8184SOL     OW25450   0.773   7.010   0.572
 8184SOL    HW125451   0.774   0.084   0.544
 8184SOL    HW225452   0.683   6.986   0.607
 8185SOL     OW25453   2.204   0.382   0.566
 8185SOL    HW125454   2.303   0.367   0.575
 8185SOL    HW225455   2.163   0.307   0.514
 8186SOL     OW25456   2.667   4.218   5.318
 8186SOL    HW125457   2.751   4.164   5.314
 8186SOL    HW225458   2.590   4.158   5.338
 8187SOL     OW25459   2.214   0.983   4.654
 8187SOL    HW125460   2.200   0.943   4.564
 8187SOL    HW225461   2.127   0.984   4.705
 8188SOL     OW25462   4.690   2.731   3.845
 8188SOL    HW125463   4.618   2.662   3.833
 8188SOL    HW225464   4.772   2.701   3.798
 8189SOL     OW25465   5.448   5.558   2.157
 8189SOL    HW125466   5.534   5.513   2.178
 8189SOL    HW225467   5.466   5.641   2.103
 8190SOL     OW25468   4.759   4.056   3.956
 8190SOL    HW125469   4.738   4.113   4.035
 8190SOL    HW225470   4.726   4.100   3.873
 8191SOL     OW25471   4.405   5.325   2.561
 8191SOL    HW125472   4.405   5.379   2.477
 8191SOL    HW225473   4.386   5.229   2.540
 8192SOL     OW25474   1.517   5.512   2.656
 8192SOL    HW125475   1.435   5.520   2.712
 8192SOL    HW225476   1.598   5.530   2.713
 8193SOL     OW25477   5.805   4.824   5.096
 8193SOL    HW125478   5.882   4.764   5.077
 8193SOL    HW225479   5.733   4.773   5.143
 8194SOL     OW25480   4.702   0.813   0.903
 8194SOL    HW125481   4.689   0.726   0.854
 8194SOL    HW225482   4.756   0.796   0.986
 8195SOL     OW25483   6.530   0.721   3.635
 8195SOL    HW125484   6.594   0.657   3.676
 8195SOL    HW225485   6.437   0.684   3.641
 8196SOL     OW25486   4.386   6.843   6.919
 8196SOL    HW125487   4.311   6.787   6.954
 8196SOL    HW225488   4.349   6.920   6.868
 8197SOL     OW25489   3.505   1.635   0.862
 8197SOL    HW125490   3.532   1.645   0.957
 8197SOL    HW225491   3.586   1.641   0.803
 8198SOL     OW25492   3.724   6.640   2.382
 8198SOL    HW125493   3.761   6.688   2.302
 8198SOL    HW225494   3.756   6.545   2.381
 8199SOL     OW25495   5.443   3.463   5.608
 8199SOL    HW125496   5.358   3.515   5.620
 8199SOL    HW225497   5.521   3.526   5.611
 8200SOL     OW25498   6.276   4.722   1.591
 8200SOL    HW125499   6.201   4.758   1.536
 8200SOL    HW225500   6.318   4.644   1.543
 8201SOL     OW25501   6.832   1.034   5.254
 8201SOL    HW125502   6.853   1.122   5.213
 8201SOL    HW225503   6.911   1.002   5.307
 8202SOL     OW25504   0.226   5.653   3.383
 8202SOL    HW125505   0.202   5.559   3.360
 8202SOL    HW225506   0.145   5.702   3.415
 8203SOL     OW25507   2.265   2.238   6.820
 8203SOL    HW125508   2.332   2.311   6.837
 8203SOL    HW225509   2.173   2.274   6.837
 8204SOL     OW25510   3.736   4.251   0.390
 8204SOL    HW125511   3.776   4.302   0.314
 8204SOL    HW225512   3.652   4.206   0.359
 8205SOL     OW25513   6.567   3.985   6.963
 8205SOL    HW125514   6.522   4.056   7.016
 8205SOL    HW225515   6.527   3.896   6.984
 8206SOL     OW25516   4.655   2.085   6.770
 8206SOL    HW125517   4.643   2.178   6.734
 8206SOL    HW225518   4.566   2.048   6.796
 8207SOL     OW25519   3.173   3.455   3.986
 8207SOL    HW125520   3.202   3.518   3.913
 8207SOL    HW225521   3.235   3.377   3.989
 8208SOL     OW25522   1.074   0.785   0.995
 8208SOL    HW125523   1.028   0.703   1.027
 8208SOL    HW225524   1.023   0.824   0.918
 8209SOL     OW25525   0.142   0.616   4.751
 8209SOL    HW125526   0.159   0.526   4.790
 8209SOL    HW225527   0.201   0.630   4.672
 8210SOL     OW25528   2.325   2.267   0.410
 8210SOL    HW125529   2.336   2.323   0.492
 8210SOL    HW225530   2.228   2.252   0.392
 8211SOL     OW25531   3.768   4.598   1.487
 8211SOL    HW125532   3.853   4.625   1.443
 8211SOL    HW225533   3.726   4.677   1.532
 8212SOL     OW25534   1.298   2.221   2.871
 8212SOL    HW125535   1.221   2.263   2.919
 8212SOL    HW225536   1.264   2.171   2.792
 8213SOL     OW25537   0.044   4.586   1.469
 8213SOL    HW125538   0.000   4.668   1.431
 8213SOL    HW225539   0.141   4.605   1.485
 8214SOL     OW25540   6.218   4.992   4.059
 8214SOL    HW125541   6.148   4.922   4.056
 8214SOL    HW225542   6.199   5.056   4.133
 8215SOL     OW25543   3.787   5.620   5.567
 8215SOL    HW125544   3.840   5.631   5.483
 8215SOL    HW225545   3.850   5.613   5.645
 8216SOL     OW25546   5.380   5.690   4.210
 8216SOL    HW125547   5.378   5.611   4.149
 8216SOL    HW225548   5.362   5.773   4.158
 8217SOL     OW25549   1.603   5.299   0.467
 8217SOL    HW125550   1.679   5.238   0.489
 8217SOL    HW225551   1.636   5.374   0.410
 8218SOL     OW25552   6.761   0.178   6.451
 8218SOL    HW125553   6.842   0.226   6.418
 8218SOL    HW225554   6.679   0.229   6.425
 8219SOL     OW25555   4.628   1.876   0.286
 8219SOL    HW125556   4.669   1.820   0.358
 8219SOL    HW225557   4.584   1.816   0.220
 8220SOL     OW25558   3.752   2.888   3.554
 8220SOL    HW125559   3.808   2.930   3.625
 8220SOL    HW225560   3.773   2.790   3.548
 8221SOL     OW25561   5.370   5.976   4.647
 8221SOL    HW125562   5.435   5.973   4.724
 8221SOL    HW225563   5.420   5.998   4.563
 8222SOL     OW25564   5.347   1.832   2.014
 8222SOL    HW125565   5.339   1.814   2.112
 8222SOL    HW225566   5.413   1.905   1.998
 8223SOL     OW25567   1.450   4.441   5.836
 8223SOL    HW125568   1.484   4.346   5.831
 8223SOL    HW225569   1.354   4.440   5.864
 8224SOL     OW25570   6.746   1.053   2.768
 8224SOL    HW125571   6.704   1.076   2.856
 8224SOL    HW225572   6.681   1.075   2.695
 8225SOL     OW25573   3.720   1.281   6.646
 8225SOL    HW125574   3.739   1.209   6.713
 8225SOL    HW225575   3.621   1.284   6.628
 8226SOL     OW25576   4.336   6.568   1.755
 8226SOL    HW125577   4.299   6.477   1.735
 8226SOL    HW225578   4.330   6.584   1.854
 8227SOL     OW25579   6.602   2.464   3.678
 8227SOL    HW125580   6.649   2.386   3.719
 8227SOL    HW225581   6.538   2.504   3.744
 8228SOL     OW25582   6.751   1.870   5.415
 8228SOL    HW125583   6.702   1.883   5.329
 8228SOL    HW225584   6.685   1.866   5.490
 8229SOL     OW25585   3.639   4.089   0.777
 8229SOL    HW125586   3.627   4.187   0.757
 8229SOL    HW225587   3.662   4.078   0.873
 8230SOL     OW25588   3.850   6.750   5.119
 8230SOL    HW125589   3.940   6.792   5.106
 8230SOL    HW225590   3.785   6.790   5.055
 8231SOL     OW25591   4.222   5.103   0.697
 8231SOL    HW125592   4.272   5.150   0.625
 8231SOL    HW225593   4.124   5.123   0.690
 8232SOL     OW25594   4.718   1.880   0.876
 8232SOL    HW125595   4.682   1.874   0.783
 8232SOL    HW225596   4.662   1.944   0.929
 8233SOL     OW25597   1.171   6.374   6.634
 8233SOL    HW125598   1.267   6.347   6.629
 8233SOL    HW225599   1.164   6.473   6.620
 8234SOL     OW25600   2.766   4.039   6.692
 8234SOL    HW125601   2.844   3.979   6.671
 8234SOL    HW225602   2.779   4.080   6.782
 8235SOL     OW25603   0.599   3.807   0.521
 8235SOL    HW125604   0.655   3.725   0.509
 8235SOL    HW225605   0.505   3.781   0.539
 8236SOL     OW25606   6.884   4.314   6.918
 8236SOL    HW125607   6.835   4.268   6.992
 8236SOL    HW225608   6.965   4.359   6.956
 8237SOL     OW25609   4.373   6.629   4.556
 8237SOL    HW125610   4.346   6.606   4.650
 8237SOL    HW225611   4.472   6.637   4.551
 8238SOL     OW25612   0.696   5.013   6.797
 8238SOL    HW125613   0.746   5.032   6.713
 8238SOL    HW225614   0.706   5.090   6.860
 8239SOL     OW25615   6.374   1.116   5.688
 8239SOL    HW125616   6.347   1.113   5.785
 8239SOL    HW225617   6.471   1.093   5.681
 8240SOL     OW25618   3.361   4.147   2.413
 8240SOL    HW125619   3.458   4.129   2.396
 8240SOL    HW225620   3.348   4.245   2.426
 8241SOL     OW25621   4.100   0.618   0.136
 8241SOL    HW125622   4.114   0.559   0.057
 8241SOL    HW225623   4.068   0.708   0.106
 8242SOL     OW25624   0.638   5.011   5.674
 8242SOL    HW125625   0.636   5.107   5.646
 8242SOL    HW225626   0.550   4.969   5.655
 8243SOL     OW25627   0.915   2.477   0.213
 8243SOL    HW125628   0.835   2.506   0.161
 8243SOL    HW225629   0.995   2.528   0.182
 8244SOL     OW25630   1.407   6.976   4.585
 8244SOL    HW125631   1.318   6.991   4.627
 8244SOL    HW225632   1.408   7.017   4.494
 8245SOL     OW25633   4.290   2.323   2.676
 8245SOL    HW125634   4.282   2.394   2.606
 8245SOL    HW225635   4.352   2.356   2.748
 8246SOL     OW25636   0.551   3.493   6.072
 8246SOL    HW125637   0.600   3.450   5.996
 8246SOL    HW225638   0.577   3.589   6.079
 8247SOL     OW25639   0.675   0.006   2.559
 8247SOL    HW125640   0.656   0.002   2.460
 8247SOL    HW225641   0.724   6.946   2.587
 8248SOL     OW25642   6.270   5.140   4.931
 8248SOL    HW125643   6.368   5.159   4.935
 8248SOL    HW225644   6.221   5.207   4.987
 8249SOL     OW25645   1.662   3.002   4.696
 8249SOL    HW125646   1.620   2.988   4.786
 8249SOL    HW225647   1.760   3.016   4.707
 8250SOL     OW25648   3.618   4.112   2.334
 8250SOL    HW125649   3.712   4.112   2.369
 8250SOL    HW225650   3.620   4.124   2.235
 8251SOL     OW25651   6.368   3.555   3.476
 8251SOL    HW125652   6.297   3.487   3.492
 8251SOL    HW225653   6.330   3.632   3.425
 8252SOL     OW25654   3.422   1.711   5.474
 8252SOL    HW125655   3.408   1.736   5.378
 8252SOL    HW225656   3.507   1.752   5.507
 8253SOL     OW25657   4.820   4.282   5.465
 8253SOL    HW125658   4.887   4.320   5.529
 8253SOL    HW225659   4.865   4.215   5.405
 8254SOL     OW25660   4.604   4.719   5.119
 8254SOL    HW125661   4.703   4.732   5.115
 8254SOL    HW225662   4.566   4.729   5.027
 8255SOL     OW25663   2.466   6.791   4.755
 8255SOL    HW125664   2.469   6.878   4.806
 8255SOL    HW225665   2.555   6.774   4.713
 8256SOL     OW25666   6.180   0.132   2.312
 8256SOL    HW125667   6.108   0.137   2.381
 8256SOL    HW225668   6.245   0.061   2.338
 8257SOL     OW25669   6.133   3.801   3.659
 8257SOL    HW125670   6.073   3.843   3.727
 8257SOL    HW225671   6.090   3.718   3.623
 8258SOL     OW25672   5.577   1.990   0.743
 8258SOL    HW125673   5.503   1.935   0.783
 8258SOL    HW225674   5.542   2.037   0.662
 8259SOL     OW25675   4.189   2.120   3.528
 8259SOL    HW125676   4.264   2.081   3.474
 8259SOL    HW225677   4.120   2.049   3.544
 8260SOL     OW25678   2.977   6.482   1.681
 8260SOL    HW125679   2.988   6.581   1.668
 8260SOL    HW225680   3.010   6.434   1.599
 8261SOL     OW25681   6.025   0.805   1.983
 8261SOL    HW125682   6.009   0.763   2.072
 8261SOL    HW225683   6.078   0.742   1.926
 8262SOL     OW25684   0.445   3.016   0.147
 8262SOL    HW125685   0.467   3.018   0.244
 8262SOL    HW225686   0.422   2.922   0.120
 8263SOL     OW25687   1.493   2.431   6.894
 8263SOL    HW125688   1.555   2.363   6.853
 8263SOL    HW225689   1.432   2.386   6.959
 8264SOL     OW25690   2.751   6.122   2.754
 8264SOL    HW125691   2.792   6.050   2.810
 8264SOL    HW225692   2.821   6.188   2.728
 8265SOL     OW25693   0.904   6.932   0.852
 8265SOL    HW125694   0.841   6.855   0.846
 8265SOL    HW225695   0.913   6.975   0.762
 8266SOL     OW25696   2.418   1.079   3.707
 8266SOL    HW125697   2.496   1.136   3.734
 8266SOL    HW225698   2.349   1.135   3.663
 8267SOL     OW25699   1.209   2.872   1.283
 8267SOL    HW125700   1.304   2.892   1.305
 8267SOL    HW225701   1.184   2.782   1.319
 8268SOL     OW25702   1.730   6.662   5.827
 8268SOL    HW125703   1.749   6.752   5.867
 8268SOL    HW225704   1.814   6.609   5.822
 8269SOL     OW25705   4.102   2.137   2.146
 8269SOL    HW125706   4.041   2.100   2.076
 8269SOL    HW225707   4.196   2.133   2.114
 8270SOL     OW25708   2.802   6.672   5.451
 8270SOL    HW125709   2.865   6.596   5.468
 8270SOL    HW225710   2.728   6.641   5.391
 8271SOL     OW25711   6.313   0.343   3.244
 8271SOL    HW125712   6.327   0.285   3.164
 8271SOL    HW225713   6.400   0.357   3.291
 8272SOL     OW25714   4.869   1.838   2.037
 8272SOL    HW125715   4.789   1.876   1.990
 8272SOL    HW225716   4.868   1.865   2.133
 8273SOL     OW25717   3.310   0.267   0.468
 8273SOL    HW125718   3.314   0.299   0.563
 8273SOL    HW225719   3.370   0.323   0.411
 8274SOL     OW25720   4.920   5.050   3.220
 8274SOL    HW125721   5.000   4.995   3.199
 8274SOL    HW225722   4.895   5.039   3.317
 8275SOL     OW25723   5.110   1.495   5.744
 8275SOL    HW125724   5.136   1.408   5.785
 8275SOL    HW225725   5.101   1.485   5.645
 8276SOL     OW25726   0.786   2.123   3.557
 8276SOL    HW125727   0.816   2.031   3.531
 8276SOL    HW225728   0.853   2.163   3.620
 8277SOL     OW25729   6.934   6.948   0.057
 8277SOL    HW125730   6.984   6.862   0.069
 8277SOL    HW225731   6.934   6.972   6.982
 8278SOL     OW25732   2.556   2.004   5.686
 8278SOL    HW125733   2.545   2.058   5.603
 8278SOL    HW225734   2.653   1.994   5.708
 8279SOL     OW25735   1.684   6.807   4.482
 8279SOL    HW125736   1.756   6.858   4.435
 8279SOL    HW225737   1.621   6.871   4.526
 8280SOL     OW25738   2.136   3.794   0.615
 8280SOL    HW125739   2.056   3.734   0.611
 8280SOL    HW225740   2.145   3.844   0.529
 8281SOL     OW25741   2.746   4.832   1.900
 8281SOL    HW125742   2.745   4.894   1.978
 8281SOL    HW225743   2.783   4.743   1.929
 8282SOL     OW25744   5.042   3.521   0.162
 8282SOL    HW125745   4.945   3.508   0.138
 8282SOL    HW225746   5.076   3.439   0.208
 8283SOL     OW25747   1.449   5.210   6.761
 8283SOL    HW125748   1.393   5.279   6.806
 8283SOL    HW225749   1.515   5.255   6.700
 8284SOL     OW25750   0.750   3.678   0.793
 8284SOL    HW125751   0.807   3.653   0.715
 8284SOL    HW225752   0.688   3.751   0.766
 8285SOL     OW25753   2.910   3.563   4.300
 8285SOL    HW125754   2.934   3.580   4.396
 8285SOL    HW225755   2.928   3.468   4.278
 8286SOL     OW25756   6.218   2.608   6.132
 8286SOL    HW125757   6.278   2.587   6.055
 8286SOL    HW225758   6.192   2.705   6.129
 8287SOL     OW25759   1.978   5.753   3.966
 8287SOL    HW125760   2.068   5.757   3.924
 8287SOL    HW225761   1.986   5.715   4.059
 8288SOL     OW25762   3.157   1.756   1.650
 8288SOL    HW125763   3.073   1.743   1.703
 8288SOL    HW225764   3.216   1.821   1.698
 8289SOL     OW25765   0.588   5.545   0.932
 8289SOL    HW125766   0.549   5.618   0.990
 8289SOL    HW225767   0.662   5.583   0.877
 8290SOL     OW25768   6.220   1.199   1.386
 8290SOL    HW125769   6.312   1.162   1.401
 8290SOL    HW225770   6.225   1.299   1.381
 8291SOL     OW25771   5.140   6.566   5.795
 8291SOL    HW125772   5.140   6.512   5.711
 8291SOL    HW225773   5.069   6.533   5.857
 8292SOL     OW25774   2.770   6.537   7.013
 8292SOL    HW125775   2.787   6.595   6.933
 8292SOL    HW225776   2.686   6.566   0.035
 8293SOL     OW25777   3.490   6.174   6.950
 8293SOL    HW125778   3.439   6.251   6.914
 8293SOL    HW225779   3.491   6.179   0.029
 8294SOL     OW25780   5.337   4.092   4.579
 8294SOL    HW125781   5.349   4.136   4.667
 8294SOL    HW225782   5.426   4.070   4.540
 8295SOL     OW25783   5.195   5.115   1.598
 8295SOL    HW125784   5.097   5.097   1.587
 8295SOL    HW225785   5.217   5.204   1.560
 8296SOL     OW25786   1.358   5.139   6.490
 8296SOL    HW125787   1.341   5.062   6.552
 8296SOL    HW225788   1.422   5.111   6.418
 8297SOL     OW25789   6.335   2.904   2.445
 8297SOL    HW125790   6.258   2.943   2.495
 8297SOL    HW225791   6.409   2.882   2.509
 8298SOL     OW25792   6.134   1.540   1.256
 8298SOL    HW125793   6.223   1.586   1.264
 8298SOL    HW225794   6.101   1.549   1.162
 8299SOL     OW25795   6.654   2.810   1.632
 8299SOL    HW125796   6.646   2.831   1.535
 8299SOL    HW225797   6.569   2.834   1.679
 8300SOL     OW25798   0.102   5.753   4.719
 8300SOL    HW125799   0.052   5.836   4.744
 8300SOL    HW225800   0.191   5.778   4.680
 8301SOL     OW25801   4.023   1.739   1.633
 8301SOL    HW125802   4.112   1.694   1.629
 8301SOL    HW225803   3.955   1.674   1.668
 8302SOL     OW25804   6.024   6.311   0.237
 8302SOL    HW125805   6.074   6.394   0.261
 8302SOL    HW225806   5.996   6.314   0.141
 8303SOL     OW25807   6.551   0.224   4.106
 8303SOL    HW125808   6.518   0.317   4.121
 8303SOL    HW225809   6.479   0.169   4.063
 8304SOL     OW25810   0.171   3.521   0.894
 8304SOL    HW125811   0.142   3.521   0.799
 8304SOL    HW225812   0.260   3.566   0.902
 8305SOL     OW25813   4.278   5.011   4.572
 8305SOL    HW125814   4.239   4.921   4.553
 8305SOL    HW225815   4.378   5.004   4.574
 8306SOL     OW25816   0.039   3.048   6.396
 8306SOL    HW125817   0.060   3.016   6.304
 8306SOL    HW225818   0.120   3.038   6.454
 8307SOL     OW25819   3.899   5.356   1.483
 8307SOL    HW125820   3.933   5.400   1.399
 8307SOL    HW225821   3.854   5.425   1.540
 8308SOL     OW25822   3.865   5.489   1.213
 8308SOL    HW125823   3.852   5.588   1.221
 8308SOL    HW225824   3.938   5.471   1.147
 8309SOL     OW25825   6.498   5.095   4.035
 8309SOL    HW125826   6.411   5.046   4.046
 8309SOL    HW225827   6.503   5.133   3.943
 8310SOL     OW25828   0.159   4.502   0.721
 8310SOL    HW125829   0.083   4.559   0.752
 8310SOL    HW225830   0.123   4.418   0.680
 8311SOL     OW25831   0.703   1.980   3.941
 8311SOL    HW125832   0.794   1.970   3.980
 8311SOL    HW225833   0.694   2.071   3.900
 8312SOL     OW25834   4.713   0.013   0.196
 8312SOL    HW125835   4.798   7.002   0.153
 8312SOL    HW225836   4.719   0.001   0.295
 8313SOL     OW25837   5.303   0.451   2.061
 8313SOL    HW125838   5.335   0.538   2.101
 8313SOL    HW225839   5.255   0.399   2.131
 8314SOL     OW25840   4.271   0.868   0.505
 8314SOL    HW125841   4.245   0.795   0.442
 8314SOL    HW225842   4.288   0.829   0.596
 8315SOL     OW25843   4.133   3.295   1.152
 8315SOL    HW125844   4.057   3.280   1.090
 8315SOL    HW225845   4.154   3.209   1.200
 8316SOL     OW25846   0.234   2.402   2.253
 8316SOL    HW125847   0.167   2.432   2.321
 8316SOL    HW225848   0.188   2.350   2.181
 8317SOL     OW25849   2.313   2.247   2.579
 8317SOL    HW125850   2.232   2.190   2.591
 8317SOL    HW225851   2.390   2.190   2.550
 8318SOL     OW25852   4.329   1.212   4.651
 8318SOL    HW125853   4.241   1.259   4.652
 8318SOL    HW225854   4.376   1.227   4.738
 8319SOL     OW25855   2.422   1.951   6.448
 8319SOL    HW125856   2.361   1.961   6.526
 8319SOL    HW225857   2.491   2.023   6.450
 8320SOL     OW25858   3.204   3.267   1.581
 8320SOL    HW125859   3.129   3.298   1.522
 8320SOL    HW225860   3.213   3.167   1.573
 8321SOL     OW25861   0.018   0.825   0.028
 8321SOL    HW125862   0.072   0.834   0.112
 8321SOL    HW225863   7.008   0.916   7.020
 8322SOL     OW25864   0.321   0.558   0.729
 8322SOL    HW125865   0.413   0.582   0.759
 8322SOL    HW225866   0.311   0.458   0.729
 8323SOL     OW25867   5.830   5.843   2.357
 8323SOL    HW125868   5.826   5.743   2.368
 8323SOL    HW225869   5.847   5.886   2.445
 8324SOL     OW25870   5.427   0.055   1.362
 8324SOL    HW125871   5.330   0.061   1.340
 8324SOL    HW225872   5.466   6.996   1.318
 8325SOL     OW25873   2.708   3.107   5.583
 8325SOL    HW125874   2.675   3.149   5.498
 8325SOL    HW225875   2.805   3.129   5.596
 8326SOL     OW25876   5.480   3.411   6.016
 8326SOL    HW125877   5.537   3.489   5.992
 8326SOL    HW225878   5.420   3.436   6.092
 8327SOL     OW25879   6.343   1.067   6.250
 8327SOL    HW125880   6.439   1.087   6.231
 8327SOL    HW225881   6.332   1.041   6.346
 8328SOL     OW25882   2.222   5.251   5.695
 8328SOL    HW125883   2.181   5.311   5.764
 8328SOL    HW225884   2.321   5.253   5.704
 8329SOL     OW25885   0.777   3.402   6.413
 8329SOL    HW125886   0.766   3.497   6.382
 8329SOL    HW225887   0.694   3.351   6.392
 8330SOL     OW25888   2.720   0.216   0.400
 8330SOL    HW125889   2.766   0.164   0.328
 8330SOL    HW225890   2.782   0.285   0.436
 8331SOL     OW25891   2.862   1.703   1.576
 8331SOL    HW125892   2.869   1.772   1.504
 8331SOL    HW225893   2.876   1.745   1.665
 8332SOL     OW25894   5.108   5.298   2.341
 8332SOL    HW125895   5.199   5.258   2.331
 8332SOL    HW225896   5.055   5.281   2.258
 8333SOL     OW25897   0.538   6.640   6.263
 8333SOL    HW125898   0.632   6.657   6.234
 8333SOL    HW225899   0.494   6.579   6.197
 8334SOL     OW25900   4.086   1.630   4.128
 8334SOL    HW125901   4.102   1.542   4.083
 8334SOL    HW225902   4.084   1.703   4.060
 8335SOL     OW25903   6.308   6.234   6.735
 8335SOL    HW125904   6.220   6.207   6.696
 8335SOL    HW225905   6.318   6.196   6.827
 8336SOL     OW25906   6.247   6.075   3.193
 8336SOL    HW125907   6.158   6.050   3.232
 8336SOL    HW225908   6.240   6.166   3.151
 8337SOL     OW25909   1.341   6.093   2.780
 8337SOL    HW125910   1.294   6.155   2.716
 8337SOL    HW225911   1.296   6.098   2.870
 8338SOL     OW25912   2.216   5.292   1.750
 8338SOL    HW125913   2.300   5.247   1.719
 8338SOL    HW225914   2.152   5.223   1.785
 8339SOL     OW25915   5.758   0.217   1.451
 8339SOL    HW125916   5.664   0.251   1.443
 8339SOL    HW225917   5.821   0.295   1.456
 8340SOL     OW25918   5.069   3.117   1.582
 8340SOL    HW125919   5.151   3.076   1.542
 8340SOL    HW225920   4.997   3.048   1.588
 8341SOL     OW25921   1.673   6.222   7.020
 8341SOL    HW125922   1.768   6.242   6.994
 8341SOL    HW225923   1.657   6.123   7.013
 8342SOL     OW25924   4.451   0.177   1.877
 8342SOL    HW125925   4.416   0.195   1.969
 8342SOL    HW225926   4.440   0.259   1.821
 8343SOL     OW25927   1.157   5.379   5.991
 8343SOL    HW125928   1.215   5.455   5.961
 8343SOL    HW225929   1.141   5.387   6.090
 8344SOL     OW25930   4.478   6.777   4.781
 8344SOL    HW125931   4.491   6.685   4.817
 8344SOL    HW225932   4.530   6.788   4.696
 8345SOL     OW25933   4.741   1.594   3.217
 8345SOL    HW125934   4.769   1.506   3.179
 8345SOL    HW225935   4.797   1.615   3.297
 8346SOL     OW25936   2.677   4.472   0.625
 8346SOL    HW125937   2.717   4.423   0.702
 8346SOL    HW225938   2.590   4.431   0.599
 8347SOL     OW25939   3.422   5.150   4.919
 8347SOL    HW125940   3.356   5.141   4.843
 8347SOL    HW225941   3.440   5.247   4.936
 8348SOL     OW25942   1.692   6.812   2.500
 8348SOL    HW125943   1.698   6.894   2.558
 8348SOL    HW225944   1.659   6.735   2.555
 8349SOL     OW25945   5.671   6.581   1.430
 8349SOL    HW125946   5.666   6.498   1.485
 8349SOL    HW225947   5.579   6.620   1.421
 8350SOL     OW25948   4.842   0.351   4.711
 8350SOL    HW125949   4.816   0.443   4.681
 8350SOL    HW225950   4.770   0.286   4.686
 8351SOL     OW25951   4.749   4.881   3.919
 8351SOL    HW125952   4.842   4.902   3.950
 8351SOL    HW225953   4.684   4.940   3.966
 8352SOL     OW25954   0.263   6.327   3.444
 8352SOL    HW125955   0.254   6.394   3.370
 8352SOL    HW225956   0.290   6.239   3.406
 8353SOL     OW25957   6.875   3.623   1.588
 8353SOL    HW125958   6.923   3.617   1.500
 8353SOL    HW225959   6.779   3.595   1.575
 8354SOL     OW25960   3.903   0.191   6.846
 8354SOL    HW125961   3.951   0.118   6.895
 8354SOL    HW225962   3.847   0.243   6.910
 8355SOL     OW25963   2.991   0.793   6.725
 8355SOL    HW125964   3.031   0.854   6.657
 8355SOL    HW225965   2.893   0.786   6.709
 8356SOL     OW25966   1.527   6.486   0.948
 8356SOL    HW125967   1.590   6.563   0.940
 8356SOL    HW225968   1.560   6.423   1.018
 8357SOL     OW25969   3.714   0.571   4.972
 8357SOL    HW125970   3.756   0.603   5.057
 8357SOL    HW225971   3.617   0.597   4.970
 8358SOL     OW25972   1.365   3.725   5.524
 8358SOL    HW125973   1.339   3.715   5.620
 8358SOL    HW225974   1.303   3.671   5.467
 8359SOL     OW25975   2.741   6.984   5.164
 8359SOL    HW125976   2.767   6.969   5.068
 8359SOL    HW225977   2.646   6.957   5.177
 8360SOL     OW25978   3.692   6.138   1.224
 8360SOL    HW125979   3.646   6.096   1.146
 8360SOL    HW225980   3.644   6.221   1.250
 8361SOL     OW25981   2.919   6.590   2.696
 8361SOL    HW125982   3.005   6.640   2.702
 8361SOL    HW225983   2.854   6.641   2.639
 8362SOL     OW25984   3.598   2.224   0.969
 8362SOL    HW125985   3.566   2.236   1.063
 8362SOL    HW225986   3.595   2.311   0.921
 8363SOL     OW25987   0.650   2.451   6.732
 8363SOL    HW125988   0.710   2.506   6.790
 8363SOL    HW225989   0.571   2.506   6.704
 8364SOL     OW25990   0.386   3.113   2.063
 8364SOL    HW125991   0.466   3.063   2.095
 8364SOL    HW225992   0.346   3.067   1.984
 8365SOL     OW25993   2.168   3.954   1.736
 8365SOL    HW125994   2.145   3.975   1.831
 8365SOL    HW225995   2.224   3.871   1.733
 8366SOL     OW25996   2.606   5.984   2.404
 8366SOL    HW125997   2.545   6.063   2.418
 8366SOL    HW225998   2.585   5.941   2.316
 8367SOL     OW25999   4.008   5.995   4.313
 8367SOL    HW126000   4.086   6.024   4.257
 8367SOL    HW226001   4.013   5.896   4.327
 8368SOL     OW26002   2.503   6.481   6.481
 8368SOL    HW126003   2.456   6.461   6.566
 8368SOL    HW226004   2.437   6.481   6.405
 8369SOL     OW26005   2.439   6.787   6.718
 8369SOL    HW126006   2.390   6.700   6.709
 8369SOL    HW226007   2.442   6.832   6.628
 8370SOL     OW26008   2.556   2.533   5.063
 8370SOL    HW126009   2.501   2.605   5.106
 8370SOL    HW226010   2.652   2.560   5.063
 8371SOL     OW26011   2.046   4.743   1.326
 8371SOL    HW126012   2.103   4.749   1.408
 8371SOL    HW226013   2.074   4.813   1.260
 8372SOL     OW26014   0.440   5.565   2.772
 8372SOL    HW126015   0.424   5.547   2.675
 8372SOL    HW226016   0.450   5.478   2.821
 8373SOL     OW26017   1.464   0.254   3.696
 8373SOL    HW126018   1.446   0.215   3.786
 8373SOL    HW226019   1.499   0.183   3.634
 8374SOL     OW26020   0.456   0.962   5.529
 8374SOL    HW126021   0.550   0.986   5.553
 8374SOL    HW226022   0.445   0.969   5.429
 8375SOL     OW26023   4.143   6.907   5.350
 8375SOL    HW126024   4.165   6.810   5.358
 8375SOL    HW226025   4.149   6.934   5.254
 8376SOL     OW26026   1.504   0.451   4.041
 8376SOL    HW126027   1.454   0.373   4.002
 8376SOL    HW226028   1.537   0.509   3.967
 8377SOL     OW26029   5.602   5.910   1.559
 8377SOL    HW126030   5.630   6.000   1.527
 8377SOL    HW226031   5.634   5.896   1.653
 8378SOL     OW26032   4.119   5.015   2.560
 8378SOL    HW126033   4.217   5.029   2.545
 8378SOL    HW226034   4.091   5.062   2.644
 8379SOL     OW26035   6.150   2.471   1.569
 8379SOL    HW126036   6.249   2.466   1.578
 8379SOL    HW226037   6.110   2.381   1.583
 8380SOL     OW26038   0.090   0.601   2.403
 8380SOL    HW126039   0.175   0.551   2.417
 8380SOL    HW226040   0.042   0.610   2.490
 8381SOL     OW26041   0.140   3.278   4.736
 8381SOL    HW126042   0.183   3.226   4.809
 8381SOL    HW226043   0.209   3.333   4.688
 8382SOL     OW26044   2.339   0.467   2.261
 8382SOL    HW126045   2.278   0.547   2.265
 8382SOL    HW226046   2.340   0.421   2.350
 8383SOL     OW26047   2.490   0.185   5.975
 8383SOL    HW126048   2.555   0.246   5.929
 8383SOL    HW226049   2.460   0.115   5.911
 8384SOL     OW26050   0.242   0.953   0.583
 8384SOL    HW126051   0.299   0.987   0.658
 8384SOL    HW226052   0.178   0.886   0.619
 8385SOL     OW26053   6.237   2.170   1.721
 8385SOL    HW126054   6.250   2.239   1.793
 8385SOL    HW226055   6.309   2.101   1.728
 8386SOL     OW26056   1.186   4.596   2.227
 8386SOL    HW126057   1.247   4.645   2.290
 8386SOL    HW226058   1.225   4.506   2.207
 8387SOL     OW26059   1.824   0.819   2.146
 8387SOL    HW126060   1.732   0.785   2.127
 8387SOL    HW226061   1.889   0.782   2.079
 8388SOL     OW26062   1.604   5.939   0.047
 8388SOL    HW126063   1.517   5.918   0.001
 8388SOL    HW226064   1.586   5.977   0.138
 8389SOL     OW26065   6.368   3.311   2.712
 8389SOL    HW126066   6.370   3.334   2.614
 8389SOL    HW226067   6.426   3.232   2.730
 8390SOL     OW26068   3.919   0.724   6.290
 8390SOL    HW126069   3.850   0.667   6.335
 8390SOL    HW226070   3.917   0.708   6.191
 8391SOL     OW26071   6.352   5.350   0.807
 8391SOL    HW126072   6.328   5.433   0.858
 8391SOL    HW226073   6.443   5.319   0.834
 8392SOL     OW26074   6.561   3.715   4.504
 8392SOL    HW126075   6.481   3.656   4.509
 8392SOL    HW226076   6.644   3.662   4.523
 8393SOL     OW26077   6.286   0.352   2.782
 8393SOL    HW126078   6.323   0.273   2.734
 8393SOL    HW226079   6.192   0.368   2.752
 8394SOL     OW26080   6.418   2.761   1.160
 8394SOL    HW126081   6.410   2.788   1.064
 8394SOL    HW226082   6.353   2.687   1.179
 8395SOL     OW26083   2.656   6.372   5.678
 8395SOL    HW126084   2.744   6.346   5.717
 8395SOL    HW226085   2.630   6.307   5.607
 8396SOL     OW26086   4.690   5.230   3.230
 8396SOL    HW126087   4.632   5.153   3.258
 8396SOL    HW226088   4.780   5.196   3.204
 8397SOL     OW26089   1.136   0.953   2.742
 8397SOL    HW126090   1.169   0.981   2.652
 8397SOL    HW226091   1.094   0.863   2.736
 8398SOL     OW26092   4.483   2.333   6.353
 8398SOL    HW126093   4.489   2.301   6.258
 8398SOL    HW226094   4.440   2.423   6.355
 8399SOL     OW26095   6.277   6.940   6.661
 8399SOL    HW126096   6.180   6.919   6.649
 8399SOL    HW226097   6.330   6.892   6.591
 8400SOL     OW26098   2.260   1.585   4.256
 8400SOL    HW126099   2.304   1.601   4.344
 8400SOL    HW226100   2.231   1.489   4.251
 8401SOL     OW26101   2.317   1.055   5.213
 8401SOL    HW126102   2.363   1.137   5.179
 8401SOL    HW226103   2.221   1.075   5.230
 8402SOL     OW26104   5.448   1.822   6.369
 8402SOL    HW126105   5.544   1.845   6.378
 8402SOL    HW226106   5.439   1.727   6.339
 8403SOL     OW26107   6.815   3.604   4.559
 8403SOL    HW126108   6.858   3.692   4.579
 8403SOL    HW226109   6.867   3.531   4.603
 8404SOL     OW26110   3.749   6.901   5.669
 8404SOL    HW126111   3.677   6.855   5.722
 8404SOL    HW226112   3.748   6.868   5.575
 8405SOL     OW26113   2.329   1.366   5.489
 8405SOL    HW126114   2.342   1.345   5.392
 8405SOL    HW226115   2.268   1.445   5.499
 8406SOL     OW26116   4.252   0.674   0.338
 8406SOL    HW126117   4.191   0.634   0.269
 8406SOL    HW226118   4.321   0.730   0.292
 8407SOL     OW26119   3.994   6.132   3.725
 8407SOL    HW126120   3.993   6.036   3.695
 8407SOL    HW226121   3.914   6.179   3.688
 8408SOL     OW26122   5.726   4.039   1.200
 8408SOL    HW126123   5.811   4.023   1.150
 8408SOL    HW226124   5.655   4.069   1.137
 8409SOL     OW26125   4.982   1.996   3.296
 8409SOL    HW126126   5.032   1.933   3.237
 8409SOL    HW226127   5.046   2.054   3.347
 8410SOL     OW26128   6.061   0.727   1.054
 8410SOL    HW126129   6.067   0.826   1.039
 8410SOL    HW226130   6.116   0.679   0.985
 8411SOL     OW26131   0.511   6.108   0.564
 8411SOL    HW126132   0.603   6.074   0.583
 8411SOL    HW226133   0.474   6.151   0.645
 8412SOL     OW26134   3.559   2.738   1.195
 8412SOL    HW126135   3.628   2.793   1.243
 8412SOL    HW226136   3.521   2.670   1.258
 8413SOL     OW26137   5.010   5.943   6.547
 8413SOL    HW126138   5.034   5.846   6.550
 8413SOL    HW226139   4.924   5.958   6.596
 8414SOL     OW26140   3.027   0.070   3.532
 8414SOL    HW126141   3.067   0.134   3.598
 8414SOL    HW226142   2.938   0.039   3.566
 8415SOL     OW26143   0.620   5.658   4.503
 8415SOL    HW126144   0.610   5.674   4.601
 8415SOL    HW226145   0.714   5.678   4.475
 8416SOL     OW26146   6.601   2.041   3.776
 8416SOL    HW126147   6.651   1.973   3.722
 8416SOL    HW226148   6.534   1.995   3.835
 8417SOL     OW26149   0.667   3.381   5.856
 8417SOL    HW126150   0.764   3.402   5.838
 8417SOL    HW226151   0.651   3.284   5.842
 8418SOL     OW26152   6.605   5.579   1.331
 8418SOL    HW126153   6.557   5.658   1.371
 8418SOL    HW226154   6.608   5.504   1.397
 8419SOL     OW26155   5.613   0.276   2.347
 8419SOL    HW126156   5.700   0.266   2.299
 8419SOL    HW226157   5.545   0.217   2.305
 8420SOL     OW26158   4.357   0.413   1.223
 8420SOL    HW126159   4.311   0.342   1.276
 8420SOL    HW226160   4.322   0.503   1.250
 8421SOL     OW26161   3.012   4.882   0.337
 8421SOL    HW126162   2.967   4.815   0.278
 8421SOL    HW226163   2.944   4.949   0.369
 8422SOL     OW26164   4.371   1.355   2.286
 8422SOL    HW126165   4.391   1.422   2.214
 8422SOL    HW226166   4.293   1.386   2.340
 8423SOL     OW26167   4.274   4.272   6.185
 8423SOL    HW126168   4.234   4.304   6.099
 8423SOL    HW226169   4.327   4.346   6.227
 8424SOL     OW26170   1.486   1.935   2.660
 8424SOL    HW126171   1.562   1.999   2.651
 8424SOL    HW226172   1.499   1.878   2.741
 8425SOL     OW26173   4.075   3.953   6.259
 8425SOL    HW126174   3.997   4.012   6.235
 8425SOL    HW226175   4.157   3.986   6.212
 8426SOL     OW26176   3.753   3.253   2.947
 8426SOL    HW126177   3.829   3.310   2.915
 8426SOL    HW226178   3.699   3.304   3.014
 8427SOL     OW26179   3.597   4.142   3.358
 8427SOL    HW126180   3.622   4.228   3.403
 8427SOL    HW226181   3.518   4.101   3.405
 8428SOL     OW26182   6.927   6.272   1.421
 8428SOL    HW126183   6.932   6.372   1.416
 8428SOL    HW226184   7.019   6.234   1.417
 8429SOL     OW26185   1.567   5.704   5.893
 8429SOL    HW126186   1.650   5.679   5.943
 8429SOL    HW226187   1.522   5.780   5.939
 8430SOL     OW26188   3.805   4.846   3.823
 8430SOL    HW126189   3.753   4.761   3.817
 8430SOL    HW226190   3.903   4.826   3.815
 8431SOL     OW26191   4.164   3.919   6.974
 8431SOL    HW126192   4.169   3.970   0.037
 8431SOL    HW226193   4.084   3.949   6.921
 8432SOL     OW26194   6.425   5.820   5.386
 8432SOL    HW126195   6.361   5.897   5.374
 8432SOL    HW226196   6.375   5.734   5.380
 8433SOL     OW26197   4.140   2.985   0.054
 8433SOL    HW126198   4.150   2.926   0.135
 8433SOL    HW226199   4.150   3.081   0.082
 8434SOL     OW26200   2.680   0.305   4.501
 8434SOL    HW126201   2.681   0.216   4.547
 8434SOL    HW226202   2.722   0.297   4.411
 8435SOL     OW26203   5.591   0.053   2.684
 8435SOL    HW126204   5.595   0.151   2.665
 8435SOL    HW226205   5.684   0.017   2.692
 8436SOL     OW26206   3.364   6.696   3.533
 8436SOL    HW126207   3.281   6.733   3.491
 8436SOL    HW226208   3.347   6.678   3.630
 8437SOL     OW26209   2.101   1.819   3.214
 8437SOL    HW126210   2.064   1.726   3.219
 8437SOL    HW226211   2.050   1.872   3.147
 8438SOL     OW26212   2.340   4.322   2.906
 8438SOL    HW126213   2.394   4.393   2.953
 8438SOL    HW226214   2.327   4.245   2.969
 8439SOL     OW26215   6.208   4.635   2.325
 8439SOL    HW126216   6.174   4.629   2.418
 8439SOL    HW226217   6.295   4.585   2.317
 8440SOL     OW26218   3.216   2.022   3.216
 8440SOL    HW126219   3.201   2.011   3.117
 8440SOL    HW226220   3.130   2.045   3.260
 8441SOL     OW26221   5.913   6.638   0.037
 8441SOL    HW126222   5.921   6.559   6.996
 8441SOL    HW226223   5.905   6.605   0.131
 8442SOL     OW26224   4.068   2.142   5.611
 8442SOL    HW126225   4.140   2.090   5.658
 8442SOL    HW226226   4.019   2.081   5.548
 8443SOL     OW26227   2.623   4.631   3.548
 8443SOL    HW126228   2.542   4.572   3.544
 8443SOL    HW226229   2.609   4.700   3.619
 8444SOL     OW26230   3.242   6.574   4.326
 8444SOL    HW126231   3.336   6.540   4.314
 8444SOL    HW226232   3.218   6.574   4.423
 8445SOL     OW26233   2.589   0.137   1.111
 8445SOL    HW126234   2.596   0.193   1.193
 8445SOL    HW226235   2.659   0.067   1.112
 8446SOL     OW26236   5.905   5.518   5.979
 8446SOL    HW126237   5.816   5.495   6.018
 8446SOL    HW226238   5.931   5.610   6.009
 8447SOL     OW26239   4.465   1.350   1.565
 8447SOL    HW126240   4.527   1.337   1.488
 8447SOL    HW226241   4.371   1.358   1.531
 8448SOL     OW26242   4.366   6.087   3.342
 8448SOL    HW126243   4.407   6.062   3.254
 8448SOL    HW226244   4.437   6.086   3.413
 8449SOL     OW26245   0.131   3.100   3.095
 8449SOL    HW126246   0.073   3.028   3.133
 8449SOL    HW226247   0.217   3.060   3.064
 8450SOL     OW26248   0.712   0.652   1.529
 8450SOL    HW126249   0.798   0.627   1.572
 8450SOL    HW226250   0.683   0.742   1.560
 8451SOL     OW26251   3.481   1.487   6.876
 8451SOL    HW126252   3.570   1.461   6.912
 8451SOL    HW226253   3.415   1.414   6.895
 8452SOL     OW26254   6.046   2.821   3.941
 8452SOL    HW126255   6.103   2.844   4.020
 8452SOL    HW226256   6.088   2.856   3.858
 8453SOL     OW26257   0.395   5.440   0.264
 8453SOL    HW126258   0.370   5.462   0.358
 8453SOL    HW226259   0.484   5.480   0.242
 8454SOL     OW26260   0.174   5.494   1.250
 8454SOL    HW126261   0.162   5.592   1.269
 8454SOL    HW226262   0.263   5.479   1.208
 8455SOL     OW26263   0.759   1.894   1.991
 8455SOL    HW126264   0.739   1.942   1.905
 8455SOL    HW226265   0.716   1.942   2.067
 8456SOL     OW26266   4.567   6.860   3.145
 8456SOL    HW126267   4.579   6.826   3.052
 8456SOL    HW226268   4.481   6.912   3.151
 8457SOL     OW26269   6.792   6.258   4.140
 8457SOL    HW126270   6.790   6.160   4.156
 8457SOL    HW226271   6.849   6.302   4.210
 8458SOL     OW26272   2.535   0.684   0.211
 8458SOL    HW126273   2.508   0.688   0.307
 8458SOL    HW226274   2.628   0.650   0.204
 8459SOL     OW26275   2.844   5.678   2.198
 8459SOL    HW126276   2.758   5.627   2.198
 8459SOL    HW226277   2.824   5.776   2.188
 8460SOL     OW26278   4.627   4.388   5.167
 8460SOL    HW126279   4.622   4.295   5.202
 8460SOL    HW226280   4.685   4.389   5.085
 8461SOL     OW26281   0.995   3.189   4.701
 8461SOL    HW126282   0.914   3.137   4.672
 8461SOL    HW226283   1.073   3.162   4.645
 8462SOL     OW26284   1.967   3.070   6.703
 8462SOL    HW126285   1.976   3.035   6.796
 8462SOL    HW226286   1.871   3.065   6.675
 8463SOL     OW26287   0.009   0.163   1.667
 8463SOL    HW126288   0.088   0.177   1.727
 8463SOL    HW226289   0.031   0.198   1.576
 8464SOL     OW26290   5.049   4.622   4.591
 8464SOL    HW126291   4.969   4.682   4.581
 8464SOL    HW226292   5.096   4.614   4.503
 8465SOL     OW26293   0.822   2.757   0.459
 8465SOL    HW126294   0.882   2.833   0.484
 8465SOL    HW226295   0.856   2.672   0.501
 8466SOL     OW26296   0.885   6.684   3.891
 8466SOL    HW126297   0.949   6.711   3.963
 8466SOL    HW226298   0.931   6.691   3.802
 8467SOL     OW26299   3.109   6.002   0.616
 8467SOL    HW126300   3.085   5.910   0.647
 8467SOL    HW226301   3.051   6.027   0.538
 8468SOL     OW26302   3.027   1.466   0.369
 8468SOL    HW126303   2.994   1.542   0.425
 8468SOL    HW226304   3.127   1.466   0.368
 8469SOL     OW26305   3.318   2.983   0.054
 8469SOL    HW126306   3.394   2.919   0.059
 8469SOL    HW226307   3.235   2.940   0.088
 8470SOL     OW26308   1.914   3.635   0.570
 8470SOL    HW126309   1.834   3.660   0.625
 8470SOL    HW226310   1.885   3.618   0.475
 8471SOL     OW26311   2.951   1.588   2.350
 8471SOL    HW126312   3.013   1.526   2.399
 8471SOL    HW226313   2.878   1.535   2.308
 8472SOL     OW26314   0.665   0.208   4.017
 8472SOL    HW126315   0.718   0.289   4.044
 8472SOL    HW226316   0.600   0.233   3.946
 8473SOL     OW26317   6.749   5.406   6.754
 8473SOL    HW126318   6.776   5.353   6.834
 8473SOL    HW226319   6.752   5.504   6.776
 8474SOL     OW26320   3.464   2.930   2.251
 8474SOL    HW126321   3.387   2.992   2.242
 8474SOL    HW226322   3.465   2.892   2.344
 8475SOL     OW26323   0.430   1.248   3.060
 8475SOL    HW126324   0.469   1.241   2.968
 8475SOL    HW226325   0.460   1.333   3.103
 8476SOL     OW26326   6.737   1.031   0.989
 8476SOL    HW126327   6.782   0.978   1.061
 8476SOL    HW226328   6.676   1.098   1.031
 8477SOL     OW26329   3.775   6.100   1.960
 8477SOL    HW126330   3.858   6.049   1.938
 8477SOL    HW226331   3.781   6.136   2.053
 8478SOL     OW26332   1.548   0.379   5.878
 8478SOL    HW126333   1.491   0.458   5.901
 8478SOL    HW226334   1.614   0.405   5.808
 8479SOL     OW26335   6.208   3.113   1.125
 8479SOL    HW126336   6.156   3.028   1.117
 8479SOL    HW226337   6.274   3.118   1.050
 8480SOL     OW26338   3.429   0.826   0.628
 8480SOL    HW126339   3.463   0.917   0.652
 8480SOL    HW226340   3.504   0.759   0.635
 8481SOL     OW26341   4.175   1.483   3.879
 8481SOL    HW126342   4.257   1.529   3.913
 8481SOL    HW226343   4.147   1.524   3.793
 8482SOL     OW26344   3.503   0.038   2.793
 8482SOL    HW126345   3.523   0.042   2.891
 8482SOL    HW226346   3.575   7.008   2.747
 8483SOL     OW26347   4.265   5.654   1.698
 8483SOL    HW126348   4.327   5.590   1.744
 8483SOL    HW226349   4.308   5.744   1.692
 8484SOL     OW26350   6.880   5.191   3.084
 8484SOL    HW126351   6.829   5.150   3.008
 8484SOL    HW226352   6.846   5.153   3.170
 8485SOL     OW26353   2.768   3.625   6.452
 8485SOL    HW126354   2.691   3.621   6.388
 8485SOL    HW226355   2.831   3.549   6.434
 8486SOL     OW26356   5.004   1.413   3.176
 8486SOL    HW126357   5.024   1.409   3.274
 8486SOL    HW226358   5.010   1.507   3.144
 8487SOL     OW26359   5.663   0.399   0.532
 8487SOL    HW126360   5.664   0.339   0.451
 8487SOL    HW226361   5.751   0.394   0.579
 8488SOL     OW26362   5.627   4.958   4.901
 8488SOL    HW126363   5.544   4.902   4.905
 8488SOL    HW226364   5.699   4.915   4.956
 8489SOL     OW26365   6.585   0.641   1.311
 8489SOL    HW126366   6.621   0.714   1.369
 8489SOL    HW226367   6.485   0.647   1.308
 8490SOL     OW26368   4.008   6.517   4.349
 8490SOL    HW126369   3.913   6.545   4.362
 8490SOL    HW226370   4.017   6.466   4.264
 8491SOL     OW26371   1.914   0.146   1.753
 8491SOL    HW126372   1.976   0.127   1.677
 8491SOL    HW226373   1.885   0.241   1.749
 8492SOL     OW26374   4.474   4.284   6.476
 8492SOL    HW126375   4.410   4.218   6.515
 8492SOL    HW226376   4.526   4.241   6.403
 8493SOL     OW26377   3.078   1.836   6.212
 8493SOL    HW126378   3.008   1.783   6.165
 8493SOL    HW226379   3.055   1.934   6.205
 8494SOL     OW26380   2.461   4.699   0.270
 8494SOL    HW126381   2.415   4.660   0.350
 8494SOL    HW226382   2.537   4.757   0.301
 8495SOL     OW26383   6.720   3.670   0.214
 8495SOL    HW126384   6.642   3.680   0.276
 8495SOL    HW226385   6.804   3.663   0.267
 8496SOL     OW26386   0.427   1.782   1.932
 8496SOL    HW126387   0.524   1.792   1.906
 8496SOL    HW226388   0.384   1.872   1.932
 8497SOL     OW26389   6.551   0.458   4.432
 8497SOL    HW126390   6.539   0.371   4.384
 8497SOL    HW226391   6.502   0.531   4.382
 8498SOL     OW26392   0.283   6.002   2.665
 8498SOL    HW126393   0.281   6.078   2.729
 8498SOL    HW226394   0.364   5.946   2.681
 8499SOL     OW26395   2.073   5.536   6.844
 8499SOL    HW126396   2.010   5.482   6.900
 8499SOL    HW226397   2.105   5.615   6.896
 8500SOL     OW26398   1.757   0.815   5.860
 8500SOL    HW126399   1.777   0.847   5.952
 8500SOL    HW226400   1.819   0.859   5.795
 8501SOL     OW26401   1.186   2.500   0.484
 8501SOL    HW126402   1.198   2.523   0.387
 8501SOL    HW226403   1.109   2.438   0.495
 8502SOL     OW26404   1.822   4.918   1.295
 8502SOL    HW126405   1.732   4.880   1.274
 8502SOL    HW226406   1.887   4.844   1.312
 8503SOL     OW26407   1.183   5.826   2.698
 8503SOL    HW126408   1.239   5.908   2.711
 8503SOL    HW226409   1.094   5.840   2.742
 8504SOL     OW26410   2.012   6.246   3.737
 8504SOL    HW126411   2.057   6.193   3.808
 8504SOL    HW226412   2.047   6.218   3.647
 8505SOL     OW26413   4.902   3.821   3.897
 8505SOL    HW126414   4.839   3.891   3.929
 8505SOL    HW226415   4.901   3.743   3.960
 8506SOL     OW26416   0.200   0.796   0.968
 8506SOL    HW126417   0.115   0.818   0.922
 8506SOL    HW226418   0.199   0.832   1.061
 8507SOL     OW26419   3.429   0.733   5.371
 8507SOL    HW126420   3.359   0.674   5.331
 8507SOL    HW226421   3.386   0.800   5.431
 8508SOL     OW26422   6.755   2.287   4.595
 8508SOL    HW126423   6.828   2.253   4.536
 8508SOL    HW226424   6.728   2.378   4.565
 8509SOL     OW26425   5.390   1.102   3.920
 8509SOL    HW126426   5.369   1.032   3.852
 8509SOL    HW226427   5.313   1.110   3.983
 8510SOL     OW26428   5.379   4.499   3.023
 8510SOL    HW126429   5.348   4.458   2.937
 8510SOL    HW226430   5.374   4.430   3.096
 8511SOL     OW26431   5.665   3.458   1.451
 8511SOL    HW126432   5.725   3.379   1.450
 8511SOL    HW226433   5.572   3.430   1.424
 8512SOL     OW26434   2.686   2.301   0.422
 8512SOL    HW126435   2.654   2.209   0.400
 8512SOL    HW226436   2.737   2.299   0.507
 8513SOL     OW26437   4.664   3.732   1.393
 8513SOL    HW126438   4.694   3.638   1.411
 8513SOL    HW226439   4.738   3.783   1.349
 8514SOL     OW26440   2.756   2.341   3.694
 8514SOL    HW126441   2.746   2.388   3.782
 8514SOL    HW226442   2.782   2.408   3.624
 8515SOL     OW26443   6.174   0.905   6.888
 8515SOL    HW126444   6.154   0.815   6.925
 8515SOL    HW226445   6.265   0.935   6.918
 8516SOL     OW26446   6.565   2.597   1.851
 8516SOL    HW126447   6.609   2.629   1.935
 8516SOL    HW226448   6.604   2.645   1.772
 8517SOL     OW26449   2.396   2.442   5.861
 8517SOL    HW126450   2.493   2.460   5.848
 8517SOL    HW226451   2.343   2.521   5.831
 8518SOL     OW26452   4.956   4.324   6.179
 8518SOL    HW126453   4.991   4.382   6.252
 8518SOL    HW226454   4.947   4.230   6.212
 8519SOL     OW26455   1.429   5.342   1.601
 8519SOL    HW126456   1.358   5.306   1.541
 8519SOL    HW226457   1.505   5.378   1.547
 8520SOL     OW26458   3.056   2.670   6.704
 8520SOL    HW126459   3.084   2.729   6.780
 8520SOL    HW226460   3.099   2.703   6.620
 8521SOL     OW26461   2.126   5.477   5.876
 8521SOL    HW126462   2.154   5.573   5.866
 8521SOL    HW226463   2.195   5.427   5.927
 8522SOL     OW26464   0.598   7.007   1.609
 8522SOL    HW126465   0.672   0.047   1.635
 8522SOL    HW226466   0.510   0.029   1.626
 8523SOL     OW26467   2.294   6.116   6.874
 8523SOL    HW126468   2.240   6.179   6.818
 8523SOL    HW226469   2.277   6.022   6.845
 8524SOL     OW26470   0.401   3.085   5.902
 8524SOL    HW126471   0.320   3.033   5.929
 8524SOL    HW226472   0.483   3.032   5.922
 8525SOL     OW26473   6.402   5.237   1.928
 8525SOL    HW126474   6.421   5.143   1.956
 8525SOL    HW226475   6.392   5.241   1.829
 8526SOL     OW26476   3.351   6.240   1.080
 8526SOL    HW126477   3.291   6.253   1.002
 8526SOL    HW226478   3.366   6.143   1.095
 8527SOL     OW26479   2.875   1.152   6.908
 8527SOL    HW126480   2.836   1.139   6.999
 8527SOL    HW226481   2.967   1.113   6.906
 8528SOL     OW26482   4.083   1.253   6.908
 8528SOL    HW126483   4.134   1.168   6.922
 8528SOL    HW226484   3.993   1.245   6.951
 8529SOL     OW26485   0.776   0.678   0.726
 8529SOL    HW126486   0.727   0.725   0.652
 8529SOL    HW226487   0.829   0.745   0.778
 8530SOL     OW26488   4.300   3.768   5.238
 8530SOL    HW126489   4.217   3.822   5.222
 8530SOL    HW226490   4.282   3.672   5.213
 8531SOL     OW26491   0.037   4.949   2.767
 8531SOL    HW126492   0.030   4.962   2.668
 8531SOL    HW226493   0.129   4.919   2.791
 8532SOL     OW26494   4.408   5.418   4.500
 8532SOL    HW126495   4.329   5.359   4.481
 8532SOL    HW226496   4.475   5.409   4.427
 8533SOL     OW26497   1.839   5.725   0.351
 8533SOL    HW126498   1.876   5.727   0.444
 8533SOL    HW226499   1.756   5.782   0.347
 8534SOL     OW26500   5.374   2.267   4.553
 8534SOL    HW126501   5.418   2.342   4.602
 8534SOL    HW226502   5.300   2.303   4.495
 8535SOL     OW26503   5.827   1.286   3.521
 8535SOL    HW126504   5.795   1.335   3.602
 8535SOL    HW226505   5.887   1.211   3.549
 8536SOL     OW26506   0.136   1.525   4.633
 8536SOL    HW126507   0.161   1.534   4.536
 8536SOL    HW226508   0.077   1.602   4.659
 8537SOL     OW26509   5.222   0.821   3.256
 8537SOL    HW126510   5.240   0.914   3.223
 8537SOL    HW226511   5.225   0.819   3.356
 8538SOL     OW26512   1.610   0.960   0.250
 8538SOL    HW126513   1.631   0.904   0.330
 8538SOL    HW226514   1.681   1.031   0.239
 8539SOL     OW26515   6.575   1.080   3.003
 8539SOL    HW126516   6.520   1.163   2.991
 8539SOL    HW226517   6.517   1.006   3.039
 8540SOL     OW26518   5.597   0.354   6.375
 8540SOL    HW126519   5.551   0.268   6.354
 8540SOL    HW226520   5.572   0.423   6.307
 8541SOL     OW26521   3.167   2.073   3.578
 8541SOL    HW126522   3.205   1.981   3.574
 8541SOL    HW226523   3.101   2.085   3.504
 8542SOL     OW26524   4.245   5.308   6.402
 8542SOL    HW126525   4.343   5.293   6.415
 8542SOL    HW226526   4.196   5.221   6.415
 8543SOL     OW26527   2.218   1.996   1.196
 8543SOL    HW126528   2.120   2.014   1.205
 8543SOL    HW226529   2.248   2.020   1.104
 8544SOL     OW26530   5.522   3.527   4.232
 8544SOL    HW126531   5.614   3.539   4.195
 8544SOL    HW226532   5.479   3.616   4.246
 8545SOL     OW26533   4.135   0.434   5.518
 8545SOL    HW126534   4.232   0.440   5.497
 8545SOL    HW226535   4.082   0.468   5.440
 8546SOL     OW26536   5.439   1.988   4.525
 8546SOL    HW126537   5.525   1.993   4.574
 8546SOL    HW226538   5.387   2.072   4.540
 8547SOL     OW26539   1.075   6.522   5.867
 8547SOL    HW126540   1.053   6.615   5.837
 8547SOL    HW226541   1.002   6.489   5.927
 8548SOL     OW26542   6.415   2.558   5.935
 8548SOL    HW126543   6.489   2.613   5.972
 8548SOL    HW226544   6.451   2.499   5.862
 8549SOL     OW26545   0.593   3.310   3.957
 8549SOL    HW126546   0.652   3.293   4.036
 8549SOL    HW226547   0.635   3.270   3.875
 8550SOL     OW26548   1.761   4.815   6.824
 8550SOL    HW126549   1.759   4.846   6.728
 8550SOL    HW226550   1.854   4.821   6.859
 8551SOL     OW26551   3.835   3.751   5.825
 8551SOL    HW126552   3.750   3.708   5.854
 8551SOL    HW226553   3.909   3.684   5.830
 8552SOL     OW26554   2.741   6.409   3.650
 8552SOL    HW126555   2.749   6.466   3.568
 8552SOL    HW226556   2.731   6.314   3.623
 8553SOL     OW26557   5.063   5.297   5.894
 8553SOL    HW126558   4.992   5.237   5.930
 8553SOL    HW226559   5.060   5.385   5.941
 8554SOL     OW26560   0.854   5.311   0.186
 8554SOL    HW126561   0.796   5.366   0.246
 8554SOL    HW226562   0.801   5.280   0.108
 8555SOL     OW26563   0.915   7.000   2.874
 8555SOL    HW126564   0.951   0.050   2.814
 8555SOL    HW226565   0.939   7.020   2.969
 8556SOL     OW26566   0.720   6.530   4.063
 8556SOL    HW126567   0.755   6.580   3.983
 8556SOL    HW226568   0.737   6.433   4.052
 8557SOL     OW26569   6.203   0.599   2.493
 8557SOL    HW126570   6.165   0.612   2.585
 8557SOL    HW226571   6.240   0.686   2.460
 8558SOL     OW26572   2.648   5.790   3.525
 8558SOL    HW126573   2.734   5.765   3.481
 8558SOL    HW226574   2.598   5.853   3.467
 8559SOL     OW26575   6.485   0.864   2.504
 8559SOL    HW126576   6.389   0.859   2.476
 8559SOL    HW226577   6.541   0.807   2.443
 8560SOL     OW26578   0.147   6.713   1.868
 8560SOL    HW126579   0.047   6.724   1.865
 8560SOL    HW226580   0.191   6.801   1.849
 8561SOL     OW26581   3.741   6.634   1.860
 8561SOL    HW126582   3.814   6.660   1.923
 8561SOL    HW226583   3.753   6.539   1.831
 8562SOL     OW26584   5.052   6.299   4.679
 8562SOL    HW126585   5.121   6.317   4.749
 8562SOL    HW226586   5.003   6.215   4.703
 8563SOL     OW26587   2.663   4.535   6.808
 8563SOL    HW126588   2.671   4.635   6.805
 8563SOL    HW226589   2.579   4.507   6.763
 8564SOL     OW26590   2.836   1.505   3.380
 8564SOL    HW126591   2.881   1.417   3.399
 8564SOL    HW226592   2.737   1.492   3.380
 8565SOL     OW26593   4.923   6.357   1.484
 8565SOL    HW126594   4.938   6.454   1.463
 8565SOL    HW226595   4.832   6.331   1.452
 8566SOL     OW26596   0.949   0.625   1.658
 8566SOL    HW126597   0.904   0.672   1.734
 8566SOL    HW226598   1.042   0.660   1.648
 8567SOL     OW26599   6.650   1.300   2.431
 8567SOL    HW126600   6.737   1.293   2.383
 8567SOL    HW226601   6.627   1.212   2.471
 8568SOL     OW26602   5.155   1.272   5.918
 8568SOL    HW126603   5.071   1.320   5.941
 8568SOL    HW226604   5.225   1.293   5.986
 8569SOL     OW26605   5.285   1.763   5.561
 8569SOL    HW126606   5.303   1.836   5.627
 8569SOL    HW226607   5.194   1.775   5.521
 8570SOL     OW26608   1.003   2.429   5.536
 8570SOL    HW126609   0.943   2.464   5.464
 8570SOL    HW226610   0.988   2.479   5.620
 8571SOL     OW26611   0.776   5.175   5.902
 8571SOL    HW126612   0.776   5.200   5.999
 8571SOL    HW226613   0.692   5.209   5.859
 8572SOL     OW26614   3.305   5.176   6.226
 8572SOL    HW126615   3.357   5.179   6.311
 8572SOL    HW226616   3.208   5.181   6.246
 8573SOL     OW26617   3.416   0.211   6.187
 8573SOL    HW126618   3.420   0.185   6.284
 8573SOL    HW226619   3.323   0.238   6.164
 8574SOL     OW26620   0.241   5.769   5.860
 8574SOL    HW126621   0.272   5.674   5.854
 8574SOL    HW226622   0.160   5.781   5.803
 8575SOL     OW26623   3.118   2.622   6.135
 8575SOL    HW126624   3.059   2.655   6.061
 8575SOL    HW226625   3.071   2.550   6.186
 8576SOL     OW26626   1.018   6.359   0.266
 8576SOL    HW126627   1.105   6.405   0.284
 8576SOL    HW226628   0.977   6.397   0.183
 8577SOL     OW26629   6.668   5.523   4.273
 8577SOL    HW126630   6.596   5.564   4.216
 8577SOL    HW226631   6.744   5.588   4.282
 8578SOL     OW26632   4.675   0.480   4.358
 8578SOL    HW126633   4.774   0.479   4.371
 8578SOL    HW226634   4.640   0.572   4.374
 8579SOL     OW26635   1.578   6.058   3.580
 8579SOL    HW126636   1.489   6.099   3.602
 8579SOL    HW226637   1.580   6.035   3.483
 8580SOL     OW26638   1.977   6.802   2.134
 8580SOL    HW126639   1.994   6.870   2.063
 8580SOL    HW226640   2.055   6.741   2.141
 8581SOL     OW26641   3.423   3.120   1.866
 8581SOL    HW126642   3.375   3.106   1.780
 8581SOL    HW226643   3.438   3.032   1.911
 8582SOL     OW26644   4.203   4.917   1.859
 8582SOL    HW126645   4.129   4.955   1.914
 8582SOL    HW226646   4.170   4.899   1.766
 8583SOL     OW26647   5.637   1.065   5.799
 8583SOL    HW126648   5.598   1.039   5.888
 8583SOL    HW226649   5.612   0.996   5.731
 8584SOL     OW26650   0.229   3.814   6.113
 8584SOL    HW126651   0.142   3.839   6.071
 8584SOL    HW226652   0.265   3.731   6.070
 8585SOL     OW26653   0.229   6.735   5.969
 8585SOL    HW126654   0.162   6.780   5.911
 8585SOL    HW226655   0.258   6.649   5.926
 8586SOL     OW26656   2.875   6.835   3.673
 8586SOL    HW126657   2.799   6.889   3.710
 8586SOL    HW226658   2.961   6.869   3.711
 8587SOL     OW26659   1.898   0.307   2.936
 8587SOL    HW126660   1.810   0.264   2.958
 8587SOL    HW226661   1.884   0.376   2.865
 8588SOL     OW26662   2.330   0.729   6.768
 8588SOL    HW126663   2.360   0.823   6.755
 8588SOL    HW226664   2.406   0.673   6.801
 8589SOL     OW26665   4.622   2.674   4.215
 8589SOL    HW126666   4.639   2.665   4.313
 8589SOL    HW226667   4.545   2.736   4.200
 8590SOL     OW26668   6.456   5.971   4.320
 8590SOL    HW126669   6.364   6.011   4.319
 8590SOL    HW226670   6.478   5.936   4.229
 8591SOL     OW26671   1.130   5.004   6.667
 8591SOL    HW126672   1.117   5.102   6.682
 8591SOL    HW226673   1.203   4.971   6.727
 8592SOL     OW26674   0.054   4.042   0.242
 8592SOL    HW126675   0.045   4.015   0.146
 8592SOL    HW226676   0.009   3.974   0.300
 8593SOL     OW26677   1.237   0.100   2.622
 8593SOL    HW126678   1.146   0.106   2.665
 8593SOL    HW226679   1.227   0.112   2.524
 8594SOL     OW26680   3.591   3.101   5.152
 8594SOL    HW126681   3.570   3.014   5.107
 8594SOL    HW226682   3.624   3.167   5.084
 8595SOL     OW26683   2.133   1.647   2.942
 8595SOL    HW126684   2.198   1.597   2.885
 8595SOL    HW226685   2.139   1.745   2.921
 8596SOL     OW26686   6.080   5.770   3.314
 8596SOL    HW126687   6.178   5.779   3.333
 8596SOL    HW226688   6.042   5.859   3.289
 8597SOL     OW26689   4.541   2.015   1.056
 8597SOL    HW126690   4.572   2.089   1.116
 8597SOL    HW226691   4.491   2.054   0.979
 8598SOL     OW26692   6.936   5.889   1.434
 8598SOL    HW126693   6.860   5.929   1.384
 8598SOL    HW226694   6.902   5.830   1.507
 8599SOL     OW26695   0.680   2.946   4.024
 8599SOL    HW126696   0.597   2.978   4.072
 8599SOL    HW226697   0.731   3.025   3.991
 8600SOL     OW26698   5.004   5.107   6.255
 8600SOL    HW126699   4.986   5.179   6.188
 8600SOL    HW226700   5.083   5.053   6.225
 8601SOL     OW26701   1.425   0.573   5.193
 8601SOL    HW126702   1.381   0.540   5.277
 8601SOL    HW226703   1.377   0.654   5.159
 8602SOL     OW26704   3.058   5.975   3.142
 8602SOL    HW126705   3.093   6.036   3.213
 8602SOL    HW226706   3.076   6.015   3.052
 8603SOL     OW26707   3.288   4.638   0.131
 8603SOL    HW126708   3.221   4.566   0.150
 8603SOL    HW226709   3.357   4.605   0.067
 8604SOL     OW26710   0.177   2.841   3.533
 8604SOL    HW126711   0.236   2.879   3.461
 8604SOL    HW226712   0.180   2.900   3.614
 8605SOL     OW26713   3.259   4.944   3.950
 8605SOL    HW126714   3.205   4.886   3.889
 8605SOL    HW226715   3.223   4.937   4.043
 8606SOL     OW26716   2.150   4.357   5.355
 8606SOL    HW126717   2.192   4.410   5.428
 8606SOL    HW226718   2.221   4.325   5.292
 8607SOL     OW26719   3.280   5.187   0.500
 8607SOL    HW126720   3.276   5.087   0.499
 8607SOL    HW226721   3.346   5.217   0.568
 8608SOL     OW26722   4.498   5.006   3.027
 8608SOL    HW126723   4.499   4.944   2.949
 8608SOL    HW226724   4.474   4.955   3.110
 8609SOL     OW26725   4.793   0.712   3.517
 8609SOL    HW126726   4.712   0.752   3.559
 8609SOL    HW226727   4.789   0.612   3.524
 8610SOL     OW26728   1.497   1.072   3.031
 8610SOL    HW126729   1.573   1.109   3.083
 8610SOL    HW226730   1.426   1.141   3.021
 8611SOL     OW26731   2.388   2.580   4.015
 8611SOL    HW126732   2.399   2.666   4.065
 8611SOL    HW226733   2.300   2.539   4.038
 8612SOL     OW26734   2.994   3.462   0.112
 8612SOL    HW126735   2.993   3.391   0.041
 8612SOL    HW226736   3.052   3.433   0.188
 8613SOL     OW26737   2.687   2.443   1.800
 8613SOL    HW126738   2.786   2.441   1.807
 8613SOL    HW226739   2.648   2.363   1.846
 8614SOL     OW26740   0.467   3.201   2.555
 8614SOL    HW126741   0.417   3.271   2.505
 8614SOL    HW226742   0.564   3.209   2.536
 8615SOL     OW26743   5.048   1.788   5.407
 8615SOL    HW126744   4.971   1.740   5.449
 8615SOL    HW226745   5.015   1.871   5.361
 8616SOL     OW26746   1.921   5.306   1.361
 8616SOL    HW126747   1.999   5.273   1.414
 8616SOL    HW226748   1.843   5.319   1.422
 8617SOL     OW26749   6.638   1.034   6.629
 8617SOL    HW126750   6.676   1.032   6.722
 8617SOL    HW226751   6.599   0.945   6.607
 8618SOL     OW26752   5.230   6.726   0.900
 8618SOL    HW126753   5.225   6.640   0.849
 8618SOL    HW226754   5.320   6.767   0.888
 8619SOL     OW26755   3.180   5.208   1.693
 8619SOL    HW126756   3.280   5.208   1.699
 8619SOL    HW226757   3.141   5.167   1.775
 8620SOL     OW26758   6.536   7.002   3.205
 8620SOL    HW126759   6.541   0.080   3.215
 8620SOL    HW226760   6.499   6.979   3.116
 8621SOL     OW26761   6.054   1.754   3.122
 8621SOL    HW126762   6.148   1.724   3.108
 8621SOL    HW226763   6.049   1.810   3.205
 8622SOL     OW26764   4.778   4.117   0.662
 8622SOL    HW126765   4.726   4.186   0.712
 8622SOL    HW226766   4.874   4.124   0.687
 8623SOL     OW26767   0.839   3.844   3.490
 8623SOL    HW126768   0.799   3.753   3.502
 8623SOL    HW226769   0.808   3.883   3.404
 8624SOL     OW26770   1.089   3.726   3.683
 8624SOL    HW126771   1.076   3.825   3.694
 8624SOL    HW226772   1.014   3.677   3.728
 8625SOL     OW26773   5.101   6.757   4.677
 8625SOL    HW126774   5.098   6.699   4.758
 8625SOL    HW226775   5.091   6.852   4.703
 8626SOL     OW26776   3.576   2.836   4.984
 8626SOL    HW126777   3.595   2.894   4.904
 8626SOL    HW226778   3.477   2.829   4.997
 8627SOL     OW26779   0.842   0.461   3.542
 8627SOL    HW126780   0.804   0.442   3.632
 8627SOL    HW226781   0.793   0.409   3.473
 8628SOL     OW26782   6.215   6.893   1.486
 8628SOL    HW126783   6.270   6.833   1.544
 8628SOL    HW226784   6.247   6.988   1.496
 8629SOL     OW26785   1.670   5.472   5.189
 8629SOL    HW126786   1.572   5.471   5.209
 8629SOL    HW226787   1.686   5.522   5.104
 8630SOL     OW26788   5.834   4.192   4.493
 8630SOL    HW126789   5.825   4.096   4.521
 8630SOL    HW226790   5.743   4.234   4.488
 8631SOL     OW26791   3.260   5.491   6.395
 8631SOL    HW126792   3.294   5.405   6.432
 8631SOL    HW226793   3.173   5.514   6.438
 8632SOL     OW26794   3.382   6.406   4.126
 8632SOL    HW126795   3.297   6.383   4.079
 8632SOL    HW226796   3.424   6.323   4.161
 8633SOL     OW26797   5.034   1.305   4.859
 8633SOL    HW126798   4.947   1.295   4.809
 8633SOL    HW226799   5.066   1.214   4.885
 8634SOL     OW26800   5.749   3.073   0.412
 8634SOL    HW126801   5.748   3.005   0.338
 8634SOL    HW226802   5.702   3.037   0.492
 8635SOL     OW26803   6.028   4.385   6.203
 8635SOL    HW126804   5.939   4.369   6.246
 8635SOL    HW226805   6.014   4.420   6.111
 8636SOL     OW26806   5.503   5.854   0.086
 8636SOL    HW126807   5.426   5.794   0.067
 8636SOL    HW226808   5.515   5.918   0.010
 8637SOL     OW26809   2.086   1.112   0.235
 8637SOL    HW126810   2.147   1.179   0.192
 8637SOL    HW226811   2.071   1.137   0.331
 8638SOL     OW26812   2.018   3.327   6.746
 8638SOL    HW126813   2.011   3.233   6.711
 8638SOL    HW226814   1.933   3.376   6.726
 8639SOL     OW26815   6.228   1.879   1.904
 8639SOL    HW126816   6.213   1.795   1.852
 8639SOL    HW226817   6.305   1.930   1.864
 8640SOL     OW26818   4.573   3.935   0.393
 8640SOL    HW126819   4.518   3.853   0.377
 8640SOL    HW226820   4.588   3.982   0.306
 8641SOL     OW26821   6.476   4.649   4.187
 8641SOL    HW126822   6.465   4.585   4.110
 8641SOL    HW226823   6.547   4.715   4.166
 8642SOL     OW26824   4.004   1.114   2.270
 8642SOL    HW126825   4.031   1.032   2.221
 8642SOL    HW226826   3.915   1.145   2.238
 8643SOL     OW26827   3.962   0.116   0.136
 8643SOL    HW126828   3.977   0.215   0.142
 8643SOL    HW226829   4.020   0.078   0.064
 8644SOL     OW26830   4.572   2.560   5.998
 8644SOL    HW126831   4.637   2.510   6.054
 8644SOL    HW226832   4.598   2.657   5.996
 8645SOL     OW26833   5.173   4.339   1.396
 8645SOL    HW126834   5.238   4.278   1.440
 8645SOL    HW226835   5.192   4.342   1.298
 8646SOL     OW26836   6.638   1.517   1.247
 8646SOL    HW126837   6.735   1.534   1.263
 8646SOL    HW226838   6.583   1.580   1.302
 8647SOL     OW26839   2.663   5.221   6.185
 8647SOL    HW126840   2.607   5.303   6.173
 8647SOL    HW226841   2.744   5.244   6.238
 8648SOL     OW26842   6.066   0.858   4.246
 8648SOL    HW126843   5.997   0.829   4.180
 8648SOL    HW226844   6.157   0.849   4.206
 8649SOL     OW26845   5.942   4.811   6.609
 8649SOL    HW126846   5.950   4.760   6.694
 8649SOL    HW226847   5.890   4.757   6.542
 8650SOL     OW26848   1.423   4.204   5.265
 8650SOL    HW126849   1.375   4.122   5.298
 8650SOL    HW226850   1.495   4.229   5.331
 8651SOL     OW26851   3.607   0.427   0.681
 8651SOL    HW126852   3.509   0.408   0.680
 8651SOL    HW226853   3.624   0.518   0.643
 8652SOL     OW26854   1.136   3.890   3.259
 8652SOL    HW126855   1.090   3.978   3.246
 8652SOL    HW226856   1.168   3.856   3.170
 8653SOL     OW26857   6.004   1.338   5.575
 8653SOL    HW126858   5.937   1.396   5.530
 8653SOL    HW226859   6.084   1.326   5.516
 8654SOL     OW26860   1.597   6.031   1.932
 8654SOL    HW126861   1.621   5.983   2.016
 8654SOL    HW226862   1.499   6.022   1.915
 8655SOL     OW26863   5.879   0.813   4.032
 8655SOL    HW126864   5.897   0.880   3.961
 8655SOL    HW226865   5.813   0.746   3.999
 8656SOL     OW26866   6.559   0.984   0.774
 8656SOL    HW126867   6.603   0.970   0.863
 8656SOL    HW226868   6.624   0.966   0.701
 8657SOL     OW26869   4.512   4.964   6.765
 8657SOL    HW126870   4.497   5.062   6.773
 8657SOL    HW226871   4.608   4.943   6.786
 8658SOL     OW26872   4.257   6.357   0.170
 8658SOL    HW126873   4.171   6.408   0.172
 8658SOL    HW226874   4.333   6.422   0.163
 8659SOL     OW26875   4.272   1.279   3.559
 8659SOL    HW126876   4.364   1.300   3.528
 8659SOL    HW226877   4.252   1.182   3.545
 8660SOL     OW26878   5.790   3.590   0.893
 8660SOL    HW126879   5.838   3.546   0.969
 8660SOL    HW226880   5.722   3.654   0.928
 8661SOL     OW26881   5.958   3.729   1.175
 8661SOL    HW126882   5.963   3.639   1.131
 8661SOL    HW226883   5.877   3.733   1.233
 8662SOL     OW26884   5.176   5.754   1.476
 8662SOL    HW126885   5.094   5.697   1.471
 8662SOL    HW226886   5.243   5.722   1.409
 8663SOL     OW26887   2.300   6.198   1.064
 8663SOL    HW126888   2.364   6.246   1.003
 8663SOL    HW226889   2.211   6.191   1.019
 8664SOL     OW26890   3.562   6.003   1.029
 8664SOL    HW126891   3.513   6.005   0.942
 8664SOL    HW226892   3.548   5.915   1.073
 8665SOL     OW26893   5.624   5.920   5.278
 8665SOL    HW126894   5.555   5.848   5.279
 8665SOL    HW226895   5.624   5.969   5.365
 8666SOL     OW26896   4.933   1.770   4.976
 8666SOL    HW126897   5.024   1.773   5.017
 8666SOL    HW226898   4.937   1.807   4.883
 8667SOL     OW26899   4.535   2.274   3.182
 8667SOL    HW126900   4.460   2.257   3.118
 8667SOL    HW226901   4.602   2.200   3.176
 8668SOL     OW26902   5.739   3.080   3.059
 8668SOL    HW126903   5.788   3.023   2.992
 8668SOL    HW226904   5.667   3.130   3.012
 8669SOL     OW26905   2.765   6.306   6.809
 8669SOL    HW126906   2.790   6.345   6.897
 8669SOL    HW226907   2.808   6.359   6.735
 8670SOL     OW26908   3.800   4.457   5.737
 8670SOL    HW126909   3.772   4.441   5.832
 8670SOL    HW226910   3.789   4.373   5.685
 8671SOL     OW26911   5.522   1.992   3.341
 8671SOL    HW126912   5.490   1.900   3.362
 8671SOL    HW226913   5.617   1.988   3.310
 8672SOL     OW26914   2.501   5.210   3.839
 8672SOL    HW126915   2.467   5.127   3.796
 8672SOL    HW226916   2.521   5.278   3.769
 8673SOL     OW26917   6.849   1.841   6.842
 8673SOL    HW126918   6.775   1.871   6.903
 8673SOL    HW226919   6.868   1.744   6.860
 8674SOL     OW26920   6.007   5.563   1.741
 8674SOL    HW126921   5.987   5.467   1.720
 8674SOL    HW226922   6.093   5.589   1.697
 8675SOL     OW26923   4.013   2.109   5.068
 8675SOL    HW126924   4.105   2.138   5.042
 8675SOL    HW226925   3.992   2.021   5.025
 8676SOL     OW26926   4.057   6.772   2.950
 8676SOL    HW126927   4.059   6.785   3.049
 8676SOL    HW226928   4.147   6.742   2.919
 8677SOL     OW26929   2.470   6.568   5.556
 8677SOL    HW126930   2.561   6.556   5.596
 8677SOL    HW226931   2.406   6.504   5.598
 8678SOL     OW26932   0.128   0.524   0.992
 8678SOL    HW126933   0.093   0.469   0.916
 8678SOL    HW226934   0.165   0.610   0.955
 8679SOL     OW26935   6.536   3.268   4.455
 8679SOL    HW126936   6.606   3.276   4.384
 8679SOL    HW226937   6.471   3.196   4.430
 8680SOL     OW26938   0.539   4.368   1.449
 8680SOL    HW126939   0.636   4.352   1.427
 8680SOL    HW226940   0.482   4.311   1.389
 8681SOL     OW26941   4.536   5.403   6.982
 8681SOL    HW126942   4.615   5.463   6.967
 8681SOL    HW226943   4.473   5.446   0.024
 8682SOL     OW26944   4.550   6.672   1.609
 8682SOL    HW126945   4.469   6.633   1.653
 8682SOL    HW226946   4.608   6.716   1.677
 8683SOL     OW26947   1.544   2.407   2.281
 8683SOL    HW126948   1.579   2.313   2.277
 8683SOL    HW226949   1.528   2.432   2.376
 8684SOL     OW26950   0.833   2.705   4.932
 8684SOL    HW126951   0.757   2.748   4.883
 8684SOL    HW226952   0.840   2.745   5.023
 8685SOL     OW26953   0.734   2.727   5.707
 8685SOL    HW126954   0.729   2.779   5.622
 8685SOL    HW226955   0.816   2.670   5.706
 8686SOL     OW26956   0.188   1.546   1.329
 8686SOL    HW126957   0.223   1.467   1.278
 8686SOL    HW226958   0.230   1.630   1.293
 8687SOL     OW26959   3.562   5.641   3.056
 8687SOL    HW126960   3.659   5.658   3.073
 8687SOL    HW226961   3.511   5.651   3.141
 8688SOL     OW26962   3.455   6.782   6.657
 8688SOL    HW126963   3.441   6.881   6.653
 8688SOL    HW226964   3.385   6.736   6.602
 8689SOL     OW26965   3.275   4.496   0.884
 8689SOL    HW126966   3.241   4.414   0.928
 8689SOL    HW226967   3.282   4.481   0.785
 8690SOL     OW26968   2.248   2.421   2.895
 8690SOL    HW126969   2.302   2.344   2.863
 8690SOL    HW226970   2.171   2.436   2.833
 8691SOL     OW26971   3.446   2.281   6.607
 8691SOL    HW126972   3.370   2.332   6.647
 8691SOL    HW226973   3.455   2.193   6.653
 8692SOL     OW26974   3.610   2.143   3.032
 8692SOL    HW126975   3.585   2.110   3.123
 8692SOL    HW226976   3.709   2.141   3.021
 8693SOL     OW26977   6.378   1.356   0.774
 8693SOL    HW126978   6.338   1.420   0.709
 8693SOL    HW226979   6.321   1.274   0.779
 8694SOL     OW26980   3.552   1.536   5.170
 8694SOL    HW126981   3.573   1.515   5.266
 8694SOL    HW226982   3.570   1.455   5.114
 8695SOL     OW26983   4.405   3.146   6.208
 8695SOL    HW126984   4.473   3.210   6.171
 8695SOL    HW226985   4.343   3.119   6.135
 8696SOL     OW26986   2.939   5.773   0.675
 8696SOL    HW126987   2.972   5.735   0.761
 8696SOL    HW226988   2.917   5.699   0.611
 8697SOL     OW26989   6.432   3.129   6.911
 8697SOL    HW126990   6.482   3.213   6.931
 8697SOL    HW226991   6.464   3.091   6.824
 8698SOL     OW26992   6.024   5.578   4.299
 8698SOL    HW126993   5.928   5.602   4.284
 8698SOL    HW226994   6.039   5.483   4.271
 8699SOL     OW26995   1.845   2.857   5.647
 8699SOL    HW126996   1.845   2.766   5.688
 8699SOL    HW226997   1.859   2.926   5.718
 8700SOL     OW26998   1.241   0.876   4.535
 8700SOL    HW126999   1.212   0.946   4.600
 8700SOL    HW227000   1.312   0.913   4.475
 8701SOL     OW27001   1.334   0.357   6.843
 8701SOL    HW127002   1.260   0.317   6.897
 8701SOL    HW227003   1.403   0.287   6.824
 8702SOL     OW27004   5.492   4.298   0.648
 8702SOL    HW127005   5.590   4.288   0.667
 8702SOL    HW227006   5.477   4.301   0.549
 8703SOL     OW27007   3.002   5.522   1.257
 8703SOL    HW127008   3.100   5.516   1.241
 8703SOL    HW227009   2.979   5.613   1.290
 8704SOL     OW27010   6.670   3.682   3.034
 8704SOL    HW127011   6.621   3.745   3.094
 8704SOL    HW227012   6.766   3.677   3.062
 8705SOL     OW27013   5.461   0.570   0.633
 8705SOL    HW127014   5.530   0.506   0.600
 8705SOL    HW227015   5.445   0.554   0.731
 8706SOL     OW27016   4.867   1.913   6.233
 8706SOL    HW127017   4.780   1.954   6.206
 8706SOL    HW227018   4.850   1.837   6.295
 8707SOL     OW27019   6.283   2.229   6.993
 8707SOL    HW127020   6.245   2.211   0.062
 8707SOL    HW227021   6.230   2.302   6.949
 8708SOL     OW27022   4.220   1.858   2.217
 8708SOL    HW127023   4.187   1.952   2.223
 8708SOL    HW227024   4.151   1.796   2.254
 8709SOL     OW27025   6.772   5.983   6.462
 8709SOL    HW127026   6.794   5.887   6.446
 8709SOL    HW227027   6.676   5.999   6.439
 8710SOL     OW27028   2.162   3.369   3.590
 8710SOL    HW127029   2.206   3.283   3.615
 8710SOL    HW227030   2.145   3.371   3.492
 8711SOL     OW27031   0.768   5.617   2.919
 8711SOL    HW127032   0.762   5.686   2.847
 8711SOL    HW227033   0.725   5.532   2.887
 8712SOL     OW27034   4.161   2.101   4.641
 8712SOL    HW127035   4.191   2.020   4.691
 8712SOL    HW227036   4.193   2.183   4.688
 8713SOL     OW27037   0.300   4.005   3.752
 8713SOL    HW127038   0.390   3.971   3.728
 8713SOL    HW227039   0.287   3.998   3.851
 8714SOL     OW27040   0.894   1.460   6.087
 8714SOL    HW127041   0.937   1.473   6.176
 8714SOL    HW227042   0.873   1.550   6.047
 8715SOL     OW27043   5.106   0.279   0.753
 8715SOL    HW127044   5.013   0.251   0.730
 8715SOL    HW227045   5.153   0.310   0.671
 8716SOL     OW27046   0.796   0.123   0.985
 8716SOL    HW127047   0.703   0.091   1.003
 8716SOL    HW227048   0.839   0.062   0.918
 8717SOL     OW27049   3.787   3.475   3.389
 8717SOL    HW127050   3.818   3.542   3.458
 8717SOL    HW227051   3.726   3.409   3.433
 8718SOL     OW27052   0.160   3.652   4.610
 8718SOL    HW127053   0.127   3.709   4.685
 8718SOL    HW227054   0.253   3.622   4.630
 8719SOL     OW27055   2.118   7.013   6.333
 8719SOL    HW127056   2.156   0.013   6.423
 8719SOL    HW227057   2.125   0.072   6.274
 8720SOL     OW27058   6.437   4.855   5.312
 8720SOL    HW127059   6.459   4.848   5.410
 8720SOL    HW227060   6.511   4.812   5.259
 8721SOL     OW27061   6.060   1.960   3.334
 8721SOL    HW127062   6.133   1.916   3.387
 8721SOL    HW227063   6.083   2.056   3.319
 8722SOL     OW27064   4.117   1.056   0.150
 8722SOL    HW127065   4.108   1.118   0.228
 8722SOL    HW227066   4.211   1.060   0.115
 8723SOL     OW27067   4.876   5.274   1.371
 8723SOL    HW127068   4.843   5.259   1.278
 8723SOL    HW227069   4.810   5.332   1.421
 8724SOL     OW27070   6.127   6.933   5.763
 8724SOL    HW127071   6.155   6.837   5.760
 8724SOL    HW227072   6.087   6.953   5.852
 8725SOL     OW27073   2.051   0.259   6.539
 8725SOL    HW127074   2.132   0.250   6.596
 8725SOL    HW227075   2.072   0.316   6.460
 8726SOL     OW27076   6.194   0.628   1.765
 8726SOL    HW127077   6.216   0.725   1.773
 8726SOL    HW227078   6.110   0.617   1.712
 8727SOL     OW27079   6.906   6.403   2.034
 8727SOL    HW127080   6.812   6.372   2.023
 8727SOL    HW227081   6.957   6.340   2.092
 8728SOL     OW27082   3.871   0.525   4.300
 8728SOL    HW127083   3.935   0.505   4.374
 8728SOL    HW227084   3.837   0.439   4.261
 8729SOL     OW27085   4.659   5.672   3.405
 8729SOL    HW127086   4.727   5.721   3.348
 8729SOL    HW227087   4.627   5.733   3.477
 8730SOL     OW27088   6.595   4.322   2.515
 8730SOL    HW127089   6.540   4.251   2.560
 8730SOL    HW227090   6.678   4.281   2.476
 8731SOL     OW27091   2.016   2.346   2.417
 8731SOL    HW127092   2.038   2.355   2.513
 8731SOL    HW227093   2.029   2.434   2.371
 8732SOL     OW27094   5.634   3.931   1.517
 8732SOL    HW127095   5.661   3.971   1.604
 8732SOL    HW227096   5.710   3.879   1.479
 8733SOL     OW27097   2.001   5.943   2.534
 8733SOL    HW127098   1.983   5.953   2.632
 8733SOL    HW227099   1.937   5.877   2.495
 8734SOL     OW27100   1.109   4.645   1.866
 8734SOL    HW127101   1.142   4.730   1.908
 8734SOL    HW227102   1.061   4.590   1.935
 8735SOL     OW27103   0.958   1.811   6.983
 8735SOL    HW127104   0.928   1.772   6.896
 8735SOL    HW227105   0.884   1.868   7.020
 8736SOL     OW27106   0.373   6.526   5.802
 8736SOL    HW127107   0.287   6.481   5.779
 8736SOL    HW227108   0.410   6.570   5.720
 8737SOL     OW27109   2.126   6.973   5.943
 8737SOL    HW127110   2.113   6.953   5.846
 8737SOL    HW227111   2.161   6.891   5.989
 8738SOL     OW27112   2.145   5.473   4.581
 8738SOL    HW127113   2.170   5.382   4.613
 8738SOL    HW227114   2.046   5.484   4.587
 8739SOL     OW27115   6.148   5.416   6.051
 8739SOL    HW127116   6.201   5.424   5.966
 8739SOL    HW227117   6.054   5.447   6.033
 8740SOL     OW27118   5.100   0.701   5.031
 8740SOL    HW127119   5.169   0.732   5.097
 8740SOL    HW227120   5.082   0.604   5.045
 8741SOL     OW27121   2.542   0.932   1.857
 8741SOL    HW127122   2.553   0.980   1.944
 8741SOL    HW227123   2.519   0.998   1.786
 8742SOL     OW27124   5.625   6.155   1.738
 8742SOL    HW127125   5.533   6.163   1.776
 8742SOL    HW227126   5.678   6.090   1.792
 8743SOL     OW27127   1.559   0.451   2.358
 8743SOL    HW127128   1.547   0.352   2.366
 8743SOL    HW227129   1.646   0.471   2.312
 8744SOL     OW27130   3.625   2.536   6.095
 8744SOL    HW127131   3.662   2.486   6.017
 8744SOL    HW227132   3.525   2.530   6.093
 8745SOL     OW27133   6.154   2.836   5.837
 8745SOL    HW127134   6.075   2.835   5.776
 8745SOL    HW227135   6.228   2.889   5.795
 8746SOL     OW27136   4.915   3.802   5.127
 8746SOL    HW127137   4.868   3.731   5.074
 8746SOL    HW227138   4.972   3.856   5.066
 8747SOL     OW27139   0.208   2.234   2.898
 8747SOL    HW127140   0.162   2.323   2.907
 8747SOL    HW227141   0.296   2.246   2.853
 8748SOL     OW27142   0.636   1.501   5.799
 8748SOL    HW127143   0.680   1.489   5.710
 8748SOL    HW227144   0.616   1.411   5.838
 8749SOL     OW27145   2.781   0.396   6.383
 8749SOL    HW127146   2.753   0.478   6.433
 8749SOL    HW227147   2.776   0.316   6.443
 8750SOL     OW27148   2.987   3.128   5.562
 8750SOL    HW127149   3.002   3.166   5.471
 8750SOL    HW227150   3.073   3.130   5.613
 8751SOL     OW27151   6.337   0.202   3.017
 8751SOL    HW127152   6.292   0.244   2.938
 8751SOL    HW227153   6.417   0.151   2.987
 8752SOL     OW27154   2.664   5.046   6.667
 8752SOL    HW127155   2.565   5.047   6.680
 8752SOL    HW227156   2.708   4.997   6.743
 8753SOL     OW27157   4.685   1.754   5.079
 8753SOL    HW127158   4.780   1.745   5.048
 8753SOL    HW227159   4.683   1.761   5.179
 8754SOL     OW27160   1.300   2.262   4.922
 8754SOL    HW127161   1.303   2.361   4.931
 8754SOL    HW227162   1.385   2.229   4.883
 8755SOL     OW27163   2.267   1.184   6.382
 8755SOL    HW127164   2.184   1.237   6.368
 8755SOL    HW227165   2.315   1.218   6.463
 8756SOL     OW27166   2.018   3.399   3.286
 8756SOL    HW127167   2.062   3.482   3.320
 8756SOL    HW227168   1.951   3.367   3.353
 8757SOL     OW27169   5.345   6.748   5.822
 8757SOL    HW127170   5.379   6.804   5.746
 8757SOL    HW227171   5.260   6.704   5.795
 8758SOL     OW27172   4.682   6.508   1.819
 8758SOL    HW127173   4.717   6.466   1.903
 8758SOL    HW227174   4.627   6.589   1.842
 8759SOL     OW27175   3.617   2.353   6.961
 8759SOL    HW127176   3.642   2.379   6.868
 8759SOL    HW227177   3.531   2.397   6.986
 8760SOL     OW27178   1.692   1.701   5.072
 8760SOL    HW127179   1.731   1.620   5.028
 8760SOL    HW227180   1.760   1.774   5.073
 8761SOL     OW27181   4.832   1.434   1.916
 8761SOL    HW127182   4.746   1.451   1.870
 8761SOL    HW227183   4.842   1.336   1.934
 8762SOL     OW27184   0.778   4.387   2.538
 8762SOL    HW127185   0.681   4.396   2.514
 8762SOL    HW227186   0.785   4.334   2.623
 8763SOL     OW27187   5.818   5.971   5.808
 8763SOL    HW127188   5.784   5.924   5.889
 8763SOL    HW227189   5.918   5.964   5.805
 8764SOL     OW27190   4.732   0.908   4.304
 8764SOL    HW127191   4.673   0.829   4.324
 8764SOL    HW227192   4.810   0.908   4.366
 8765SOL     OW27193   6.173   6.542   5.050
 8765SOL    HW127194   6.204   6.585   5.135
 8765SOL    HW227195   6.122   6.458   5.072
 8766SOL     OW27196   4.053   5.181   2.793
 8766SOL    HW127197   4.064   5.157   2.889
 8766SOL    HW227198   4.102   5.266   2.774
 8767SOL     OW27199   3.849   0.036   3.064
 8767SOL    HW127200   3.902   0.056   2.982
 8767SOL    HW227201   3.751   0.050   3.045
 8768SOL     OW27202   0.825   3.270   0.622
 8768SOL    HW127203   0.898   3.253   0.689
 8768SOL    HW227204   0.761   3.194   0.622
 8769SOL     OW27205   1.614   6.797   3.797
 8769SOL    HW127206   1.661   6.721   3.752
 8769SOL    HW227207   1.518   6.798   3.769
 8770SOL     OW27208   5.135   3.649   1.982
 8770SOL    HW127209   5.044   3.689   1.974
 8770SOL    HW227210   5.152   3.588   1.904
 8771SOL     OW27211   1.094   0.355   5.716
 8771SOL    HW127212   1.095   0.430   5.782
 8771SOL    HW227213   1.187   0.332   5.689
 8772SOL     OW27214   5.561   6.746   6.702
 8772SOL    HW127215   5.610   6.758   6.616
 8772SOL    HW227216   5.620   6.772   6.778
 8773SOL     OW27217   4.635   2.449   4.030
 8773SOL    HW127218   4.641   2.520   4.100
 8773SOL    HW227219   4.597   2.366   4.071
 8774SOL     OW27220   2.469   1.876   0.585
 8774SOL    HW127221   2.518   1.826   0.514
 8774SOL    HW227222   2.483   1.830   0.673
 8775SOL     OW27223   6.544   0.346   5.542
 8775SOL    HW127224   6.540   0.257   5.496
 8775SOL    HW227225   6.501   0.415   5.485
 8776SOL     OW27226   3.273   4.099   4.280
 8776SOL    HW127227   3.346   4.088   4.348
 8776SOL    HW227228   3.314   4.116   4.190
 8777SOL     OW27229   0.193   3.986   1.593
 8777SOL    HW127230   0.210   3.938   1.506
 8777SOL    HW227231   0.106   3.957   1.631
 8778SOL     OW27232   5.701   1.990   4.636
 8778SOL    HW127233   5.788   1.961   4.677
 8778SOL    HW227234   5.697   2.090   4.634
 8779SOL     OW27235   2.929   5.180   2.005
 8779SOL    HW127236   3.028   5.167   1.993
 8779SOL    HW227237   2.899   5.255   1.946
 8780SOL     OW27238   1.235   5.279   3.605
 8780SOL    HW127239   1.223   5.375   3.579
 8780SOL    HW227240   1.331   5.253   3.594
 8781SOL     OW27241   6.344   1.572   4.153
 8781SOL    HW127242   6.431   1.571   4.104
 8781SOL    HW227243   6.341   1.496   4.218
 8782SOL     OW27244   5.380   0.331   1.832
 8782SOL    HW127245   5.447   0.258   1.842
 8782SOL    HW227246   5.371   0.381   1.918
 8783SOL     OW27247   6.549   4.416   3.795
 8783SOL    HW127248   6.592   4.326   3.786
 8783SOL    HW227249   6.577   4.474   3.719
 8784SOL     OW27250   5.772   4.110   5.914
 8784SOL    HW127251   5.717   4.095   5.997
 8784SOL    HW227252   5.800   4.022   5.876
 8785SOL     OW27253   6.727   3.512   6.746
 8785SOL    HW127254   6.814   3.562   6.749
 8785SOL    HW227255   6.730   3.435   6.808
 8786SOL     OW27256   2.514   6.275   0.318
 8786SOL    HW127257   2.565   6.359   0.301
 8786SOL    HW227258   2.446   6.291   0.389
 8787SOL     OW27259   1.857   2.913   2.395
 8787SOL    HW127260   1.902   2.841   2.447
 8787SOL    HW227261   1.864   3.000   2.444
 8788SOL     OW27262   6.980   2.181   5.540
 8788SOL    HW127263   7.012   2.251   5.604
 8788SOL    HW227264   7.015   2.201   5.448
 8789SOL     OW27265   6.150   6.805   5.441
 8789SOL    HW127266   6.119   6.894   5.408
 8789SOL    HW227267   6.076   6.738   5.432
 8790SOL     OW27268   0.105   1.101   6.980
 8790SOL    HW127269   0.152   1.189   6.984
 8790SOL    HW227270   0.146   1.046   6.907
 8791SOL     OW27271   5.464   6.827   4.919
 8791SOL    HW127272   5.505   6.867   5.000
 8791SOL    HW227273   5.405   6.751   4.946
 8792SOL     OW27274   3.602   6.105   3.933
 8792SOL    HW127275   3.629   6.054   3.851
 8792SOL    HW227276   3.590   6.201   3.910
 8793SOL     OW27277   1.639   5.649   4.015
 8793SOL    HW127278   1.675   5.712   3.946
 8793SOL    HW227279   1.687   5.664   4.102
 8794SOL     OW27280   4.103   6.833   1.466
 8794SOL    HW127281   4.072   6.900   1.533
 8794SOL    HW227282   4.101   6.741   1.506
 8795SOL     OW27283   1.130   6.622   4.576
 8795SOL    HW127284   1.227   6.641   4.557
 8795SOL    HW227285   1.120   6.589   4.670
 8796SOL     OW27286   3.917   0.730   4.835
 8796SOL    HW127287   3.863   0.691   4.761
 8796SOL    HW227288   3.867   0.723   4.921
 8797SOL     OW27289   1.228   6.939   4.901
 8797SOL    HW127290   1.254   7.002   4.975
 8797SOL    HW227291   1.219   6.847   4.937
 8798SOL     OW27292   5.078   5.183   4.849
 8798SOL    HW127293   5.169   5.194   4.889
 8798SOL    HW227294   5.012   5.159   4.921
 8799SOL     OW27295   1.796   4.138   3.615
 8799SOL    HW127296   1.823   4.081   3.692
 8799SOL    HW227297   1.752   4.080   3.546
 8800SOL     OW27298   6.109   4.334   5.307
 8800SOL    HW127299   6.139   4.239   5.301
 8800SOL    HW227300   6.082   4.355   5.401
 8801SOL     OW27301   1.102   1.397   4.315
 8801SOL    HW127302   1.170   1.326   4.296
 8801SOL    HW227303   1.145   1.487   4.306
 8802SOL     OW27304   1.748   0.285   0.355
 8802SOL    HW127305   1.739   0.377   0.319
 8802SOL    HW227306   1.727   0.218   0.283
 8803SOL     OW27307   0.264   5.480   5.810
 8803SOL    HW127308   0.237   5.424   5.731
 8803SOL    HW227309   0.287   5.421   5.887
 8804SOL     OW27310   3.312   0.056   1.713
 8804SOL    HW127311   3.248   0.023   1.782
 8804SOL    HW227312   3.362   0.135   1.749
 8805SOL     OW27313   2.466   0.359   4.303
 8805SOL    HW127314   2.447   0.270   4.262
 8805SOL    HW227315   2.544   0.351   4.365
 8806SOL     OW27316   2.005   5.112   1.774
 8806SOL    HW127317   2.066   5.056   1.830
 8806SOL    HW227318   1.955   5.054   1.710
 8807SOL     OW27319   6.406   6.559   6.386
 8807SOL    HW127320   6.323   6.529   6.338
 8807SOL    HW227321   6.402   6.528   6.481
 8808SOL     OW27322   5.638   2.399   0.907
 8808SOL    HW127323   5.642   2.302   0.932
 8808SOL    HW227324   5.551   2.417   0.860
 8809SOL     OW27325   4.815   4.737   3.084
 8809SOL    HW127326   4.914   4.738   3.074
 8809SOL    HW227327   4.789   4.777   3.171
 8810SOL     OW27328   5.513   1.049   6.496
 8810SOL    HW127329   5.430   1.102   6.484
 8810SOL    HW227330   5.591   1.110   6.508
 8811SOL     OW27331   3.233   1.803   3.568
 8811SOL    HW127332   3.303   1.735   3.547
 8811SOL    HW227333   3.143   1.765   3.547
 8812SOL     OW27334   1.719   0.677   1.037
 8812SOL    HW127335   1.774   0.723   1.108
 8812SOL    HW227336   1.686   0.590   1.072
 8813SOL     OW27337   1.244   4.419   1.482
 8813SOL    HW127338   1.271   4.454   1.392
 8813SOL    HW227339   1.267   4.487   1.552
 8814SOL     OW27340   6.162   0.719   0.610
 8814SOL    HW127341   6.219   0.638   0.603
 8814SOL    HW227342   6.212   0.791   0.660
 8815SOL     OW27343   6.481   6.356   0.742
 8815SOL    HW127344   6.445   6.314   0.825
 8815SOL    HW227345   6.444   6.449   0.733
 8816SOL     OW27346   2.049   0.859   0.387
 8816SOL    HW127347   2.145   0.885   0.397
 8816SOL    HW227348   2.008   0.911   0.313
 8817SOL     OW27349   0.767   6.162   5.542
 8817SOL    HW127350   0.672   6.174   5.571
 8817SOL    HW227351   0.810   6.251   5.528
 8818SOL     OW27352   0.096   2.842   4.186
 8818SOL    HW127353   0.189   2.813   4.161
 8818SOL    HW227354   0.066   2.791   4.266
 8819SOL     OW27355   4.577   5.144   4.389
 8819SOL    HW127356   4.487   5.145   4.344
 8819SOL    HW227357   4.577   5.075   4.462
 8820SOL     OW27358   2.422   1.501   4.558
 8820SOL    HW127359   2.410   1.536   4.650
 8820SOL    HW227360   2.480   1.563   4.505
 8821SOL     OW27361   2.951   6.132   0.144
 8821SOL    HW127362   2.858   6.145   0.109
 8821SOL    HW227363   2.974   6.206   0.206
 8822SOL     OW27364   0.801   7.009   3.985
 8822SOL    HW127365   0.735   0.062   3.981
 8822SOL    HW227366   0.887   0.020   4.023
 8823SOL     OW27367   1.971   1.031   0.621
 8823SOL    HW127368   1.994   0.969   0.546
 8823SOL    HW227369   1.986   0.985   0.709
 8824SOL     OW27370   1.423   3.298   1.323
 8824SOL    HW127371   1.357   3.283   1.250
 8824SOL    HW227372   1.508   3.335   1.284
 8825SOL     OW27373   1.815   0.207   3.233
 8825SOL    HW127374   1.891   0.242   3.178
 8825SOL    HW227375   1.817   0.248   3.324
 8826SOL     OW27376   6.664   2.806   0.343
 8826SOL    HW127377   6.748   2.848   0.379
 8826SOL    HW227378   6.594   2.877   0.331
 8827SOL     OW27379   3.609   1.227   2.725
 8827SOL    HW127380   3.665   1.291   2.778
 8827SOL    HW227381   3.644   1.134   2.737
 8828SOL     OW27382   4.355   5.653   4.924
 8828SOL    HW127383   4.314   5.628   4.836
 8828SOL    HW227384   4.455   5.649   4.917
 8829SOL     OW27385   0.203   2.187   0.412
 8829SOL    HW127386   0.291   2.146   0.437
 8829SOL    HW227387   0.143   2.187   0.492
 8830SOL     OW27388   0.529   1.472   1.457
 8830SOL    HW127389   0.607   1.528   1.429
 8830SOL    HW227390   0.550   1.425   1.543
 8831SOL     OW27391   5.505   0.748   3.594
 8831SOL    HW127392   5.591   0.705   3.568
 8831SOL    HW227393   5.491   0.831   3.540
 8832SOL     OW27394   6.762   5.890   3.087
 8832SOL    HW127395   6.680   5.847   3.049
 8832SOL    HW227396   6.764   5.987   3.060
 8833SOL     OW27397   2.088   6.505   5.692
 8833SOL    HW127398   2.125   6.422   5.650
 8833SOL    HW227399   2.059   6.569   5.621
 8834SOL     OW27400   5.421   3.084   4.492
 8834SOL    HW127401   5.473   3.147   4.435
 8834SOL    HW227402   5.326   3.116   4.498
 8835SOL     OW27403   6.334   1.382   6.004
 8835SOL    HW127404   6.254   1.407   5.949
 8835SOL    HW227405   6.320   1.411   6.098
 8836SOL     OW27406   4.687   1.837   6.694
 8836SOL    HW127407   4.622   1.816   6.620
 8836SOL    HW227408   4.668   1.927   6.731
 8837SOL     OW27409   0.172   6.243   3.078
 8837SOL    HW127410   0.230   6.297   3.139
 8837SOL    HW227411   0.135   6.165   3.128
 8838SOL     OW27412   2.993   4.783   2.838
 8838SOL    HW127413   3.021   4.698   2.792
 8838SOL    HW227414   2.917   4.764   2.900
 8839SOL     OW27415   4.934   5.339   2.111
 8839SOL    HW127416   4.844   5.298   2.124
 8839SOL    HW227417   4.949   5.357   2.014
 8840SOL     OW27418   6.610   1.689   1.841
 8840SOL    HW127419   6.679   1.617   1.840
 8840SOL    HW227420   6.519   1.647   1.835
 8841SOL     OW27421   1.205   0.382   4.838
 8841SOL    HW127422   1.231   0.418   4.748
 8841SOL    HW227423   1.178   0.458   4.897
 8842SOL     OW27424   3.001   3.094   1.746
 8842SOL    HW127425   2.941   3.173   1.755
 8842SOL    HW227426   3.096   3.125   1.741
 8843SOL     OW27427   1.785   3.284   5.155
 8843SOL    HW127428   1.797   3.199   5.102
 8843SOL    HW227429   1.860   3.346   5.136
 8844SOL     OW27430   6.044   1.872   6.795
 8844SOL    HW127431   5.993   1.912   6.872
 8844SOL    HW227432   6.009   1.910   6.709
 8845SOL     OW27433   4.496   3.824   6.709
 8845SOL    HW127434   4.434   3.783   6.776
 8845SOL    HW227435   4.467   3.798   6.617
 8846SOL     OW27436   2.950   5.725   3.523
 8846SOL    HW127437   2.891   5.662   3.574
 8846SOL    HW227438   3.046   5.704   3.543
 8847SOL     OW27439   3.307   1.030   2.411
 8847SOL    HW127440   3.311   1.065   2.505
 8847SOL    HW227441   3.393   1.052   2.365
 8848SOL     OW27442   2.541   0.069   2.069
 8848SOL    HW127443   2.497   0.035   2.152
 8848SOL    HW227444   2.518   0.165   2.056
 8849SOL     OW27445   3.357   5.724   2.850
 8849SOL    HW127446   3.409   5.710   2.934
 8849SOL    HW227447   3.403   5.792   2.793
 8850SOL     OW27448   1.561   2.149   0.136
 8850SOL    HW127449   1.478   2.165   0.189
 8850SOL    HW227450   1.628   2.221   0.155
 8851SOL     OW27451   1.943   4.085   2.485
 8851SOL    HW127452   1.940   4.179   2.520
 8851SOL    HW227453   1.938   4.021   2.561
 8852SOL     OW27454   0.557   1.969   4.628
 8852SOL    HW127455   0.594   2.005   4.714
 8852SOL    HW227456   0.464   2.003   4.615
 8853SOL     OW27457   3.014   0.417   1.528
 8853SOL    HW127458   2.931   0.364   1.511
 8853SOL    HW227459   3.055   0.443   1.440
 8854SOL     OW27460   2.089   3.459   4.808
 8854SOL    HW127461   1.997   3.435   4.778
 8854SOL    HW227462   2.105   3.556   4.792
 8855SOL     OW27463   6.613   5.209   1.154
 8855SOL    HW127464   6.700   5.218   1.203
 8855SOL    HW227465   6.575   5.117   1.169
 8856SOL     OW27466   0.518   6.216   6.476
 8856SOL    HW127467   0.437   6.174   6.435
 8856SOL    HW227468   0.505   6.225   6.574
 8857SOL     OW27469   6.501   1.554   4.548
 8857SOL    HW127470   6.583   1.539   4.492
 8857SOL    HW227471   6.490   1.479   4.612
 8858SOL     OW27472   0.039   4.183   4.144
 8858SOL    HW127473   0.053   4.282   4.146
 8858SOL    HW227474   0.119   4.139   4.103
 8859SOL     OW27475   1.012   1.163   3.846
 8859SOL    HW127476   0.926   1.143   3.893
 8859SOL    HW227477   1.036   1.087   3.785
 8860SOL     OW27478   6.810   1.949   1.435
 8860SOL    HW127479   6.806   1.907   1.526
 8860SOL    HW227480   6.751   2.029   1.433
 8861SOL     OW27481   4.350   1.204   6.638
 8861SOL    HW127482   4.380   1.186   6.544
 8861SOL    HW227483   4.276   1.271   6.638
 8862SOL     OW27484   5.693   6.679   3.835
 8862SOL    HW127485   5.704   6.590   3.879
 8862SOL    HW227486   5.680   6.749   3.905
 8863SOL     OW27487   2.401   4.770   3.256
 8863SOL    HW127488   2.375   4.736   3.346
 8863SOL    HW227489   2.320   4.809   3.211
 8864SOL     OW27490   3.893   4.312   6.214
 8864SOL    HW127491   3.820   4.379   6.201
 8864SOL    HW227492   3.946   4.336   6.295
 8865SOL     OW27493   3.591   0.821   4.736
 8865SOL    HW127494   3.642   0.897   4.777
 8865SOL    HW227495   3.495   0.846   4.728
 8866SOL     OW27496   5.723   6.645   2.975
 8866SOL    HW127497   5.766   6.608   2.892
 8866SOL    HW227498   5.724   6.575   3.047
 8867SOL     OW27499   5.629   4.400   3.519
 8867SOL    HW127500   5.535   4.415   3.550
 8867SOL    HW227501   5.628   4.345   3.436
 8868SOL     OW27502   6.905   3.461   2.328
 8868SOL    HW127503   6.833   3.421   2.272
 8868SOL    HW227504   6.994   3.434   2.291
 8869SOL     OW27505   4.182   5.828   5.357
 8869SOL    HW127506   4.150   5.909   5.309
 8869SOL    HW227507   4.250   5.780   5.300
 8870SOL     OW27508   1.748   6.609   1.716
 8870SOL    HW127509   1.809   6.548   1.766
 8870SOL    HW227510   1.755   6.701   1.754
 8871SOL     OW27511   2.069   0.614   3.457
 8871SOL    HW127512   2.102   0.644   3.546
 8871SOL    HW227513   2.023   0.690   3.411
 8872SOL     OW27514   0.941   4.955   5.865
 8872SOL    HW127515   0.982   4.952   5.956
 8872SOL    HW227516   0.863   5.017   5.867
 8873SOL     OW27517   1.622   6.918   2.004
 8873SOL    HW127518   1.708   6.937   1.957
 8873SOL    HW227519   1.641   6.877   2.093
 8874SOL     OW27520   1.627   5.624   2.426
 8874SOL    HW127521   1.586   5.600   2.514
 8874SOL    HW227522   1.618   5.547   2.363
 8875SOL     OW27523   6.909   3.376   4.669
 8875SOL    HW127524   7.003   3.371   4.703
 8875SOL    HW227525   6.856   3.299   4.706
 8876SOL     OW27526   2.490   0.936   6.434
 8876SOL    HW127527   2.423   0.895   6.496
 8876SOL    HW227528   2.479   1.035   6.434
 8877SOL     OW27529   1.929   2.871   3.153
 8877SOL    HW127530   1.885   2.804   3.094
 8877SOL    HW227531   2.028   2.869   3.139
 8878SOL     OW27532   3.372   5.207   1.134
 8878SOL    HW127533   3.386   5.133   1.199
 8878SOL    HW227534   3.381   5.295   1.181
 8879SOL     OW27535   5.500   4.907   2.537
 8879SOL    HW127536   5.579   4.847   2.545
 8879SOL    HW227537   5.512   4.986   2.598
 8880SOL     OW27538   4.157   6.030   5.186
 8880SOL    HW127539   4.196   6.108   5.137
 8880SOL    HW227540   4.094   5.981   5.125
 8881SOL     OW27541   5.230   5.563   4.396
 8881SOL    HW127542   5.308   5.504   4.420
 8881SOL    HW227543   5.262   5.635   4.335
 8882SOL     OW27544   4.267   0.932   1.043
 8882SOL    HW127545   4.274   0.981   0.956
 8882SOL    HW227546   4.348   0.874   1.055
 8883SOL     OW27547   1.290   6.357   5.820
 8883SOL    HW127548   1.233   6.433   5.852
 8883SOL    HW227549   1.238   6.300   5.756
 8884SOL     OW27550   5.958   3.930   5.781
 8884SOL    HW127551   6.023   4.002   5.754
 8884SOL    HW227552   5.903   3.903   5.702
 8885SOL     OW27553   4.850   4.696   0.899
 8885SOL    HW127554   4.775   4.682   0.834
 8885SOL    HW227555   4.908   4.615   0.901
 8886SOL     OW27556   3.567   5.873   6.171
 8886SOL    HW127557   3.589   5.796   6.111
 8886SOL    HW227558   3.620   5.953   6.144
 8887SOL     OW27559   3.717   0.865   0.850
 8887SOL    HW127560   3.659   0.941   0.878
 8887SOL    HW227561   3.789   0.851   0.918
 8888SOL     OW27562   2.017   2.484   4.571
 8888SOL    HW127563   2.079   2.534   4.632
 8888SOL    HW227564   1.965   2.417   4.623
 8889SOL     OW27565   0.253   6.338   6.153
 8889SOL    HW127566   0.281   6.246   6.182
 8889SOL    HW227567   0.153   6.340   6.144
 8890SOL     OW27568   0.978   6.066   6.099
 8890SOL    HW127569   0.891   6.084   6.053
 8890SOL    HW227570   0.983   6.122   6.182
 8891SOL     OW27571   4.043   4.504   0.232
 8891SOL    HW127572   4.095   4.419   0.246
 8891SOL    HW227573   4.104   4.582   0.241
 8892SOL     OW27574   3.621   5.005   3.326
 8892SOL    HW127575   3.652   5.066   3.398
 8892SOL    HW227576   3.525   4.980   3.340
 8893SOL     OW27577   1.310   5.145   4.980
 8893SOL    HW127578   1.368   5.159   5.060
 8893SOL    HW227579   1.214   5.159   5.006
 8894SOL     OW27580   3.482   1.912   6.758
 8894SOL    HW127581   3.576   1.939   6.741
 8894SOL    HW227582   3.433   1.986   6.804
 8895SOL     OW27583   0.407   2.278   1.072
 8895SOL    HW127584   0.324   2.307   1.024
 8895SOL    HW227585   0.434   2.350   1.136
 8896SOL     OW27586   1.779   3.453   4.444
 8896SOL    HW127587   1.735   3.527   4.394
 8896SOL    HW227588   1.756   3.365   4.401
 8897SOL     OW27589   2.029   2.686   3.568
 8897SOL    HW127590   2.060   2.615   3.504
 8897SOL    HW227591   1.980   2.757   3.517
 8898SOL     OW27592   5.385   3.468   2.095
 8898SOL    HW127593   5.465   3.489   2.038
 8898SOL    HW227594   5.308   3.524   2.066
 8899SOL     OW27595   1.243   4.643   0.295
 8899SOL    HW127596   1.271   4.556   0.254
 8899SOL    HW227597   1.188   4.625   0.377
 8900SOL     OW27598   5.384   2.806   3.378
 8900SOL    HW127599   5.403   2.884   3.318
 8900SOL    HW227600   5.372   2.838   3.472
 8901SOL     OW27601   0.800   1.152   3.993
 8901SOL    HW127602   0.826   1.198   4.078
 8901SOL    HW227603   0.721   1.198   3.953
 8902SOL     OW27604   1.317   5.865   6.967
 8902SOL    HW127605   1.324   5.910   6.878
 8902SOL    HW227606   1.362   5.776   6.963
 8903SOL     OW27607   0.743   2.152   4.471
 8903SOL    HW127608   0.680   2.087   4.512
 8903SOL    HW227609   0.830   2.150   4.520
 8904SOL     OW27610   0.696   1.559   4.185
 8904SOL    HW127611   0.699   1.599   4.094
 8904SOL    HW227612   0.755   1.611   4.247
 8905SOL     OW27613   2.260   2.911   2.808
 8905SOL    HW127614   2.231   3.002   2.835
 8905SOL    HW227615   2.216   2.843   2.866
 8906SOL     OW27616   1.399   6.014   0.915
 8906SOL    HW127617   1.461   6.040   0.990
 8906SOL    HW227618   1.335   6.089   0.897
 8907SOL     OW27619   3.326   2.873   5.306
 8907SOL    HW127620   3.277   2.947   5.351
 8907SOL    HW227621   3.400   2.841   5.366
 8908SOL     OW27622   1.745   5.638   6.999
 8908SOL    HW127623   1.773   5.559   0.032
 8908SOL    HW227624   1.794   5.719   0.009
 8909SOL     OW27625   2.856   1.135   6.419
 8909SOL    HW127626   2.799   1.082   6.357
 8909SOL    HW227627   2.820   1.128   6.513
 8910SOL     OW27628   0.388   2.635   5.450
 8910SOL    HW127629   0.472   2.603   5.495
 8910SOL    HW227630   0.344   2.559   5.403
 8911SOL     OW27631   5.240   3.453   4.734
 8911SOL    HW127632   5.199   3.484   4.820
 8911SOL    HW227633   5.234   3.525   4.666
 8912SOL     OW27634   2.401   3.330   6.267
 8912SOL    HW127635   2.438   3.380   6.189
 8912SOL    HW227636   2.310   3.296   6.245
 8913SOL     OW27637   4.453   5.252   6.785
 8913SOL    HW127638   4.481   5.310   6.861
 8913SOL    HW227639   4.486   5.293   6.699
 8914SOL     OW27640   5.095   6.831   4.282
 8914SOL    HW127641   5.161   6.778   4.335
 8914SOL    HW227642   5.116   6.928   4.291
 8915SOL     OW27643   1.147   1.951   4.345
 8915SOL    HW127644   1.247   1.953   4.353
 8915SOL    HW227645   1.116   2.032   4.296
 8916SOL     OW27646   6.619   2.609   6.976
 8916SOL    HW127647   6.578   2.683   6.923
 8916SOL    HW227648   6.569   2.524   6.959
 8917SOL     OW27649   5.472   2.744   1.237
 8917SOL    HW127650   5.382   2.721   1.276
 8917SOL    HW227651   5.540   2.745   1.310
 8918SOL     OW27652   1.009   5.152   0.326
 8918SOL    HW127653   0.964   5.072   0.367
 8918SOL    HW227654   0.945   5.199   0.266
 8919SOL     OW27655   5.225   4.522   6.777
 8919SOL    HW127656   5.297   4.493   6.840
 8919SOL    HW227657   5.137   4.520   6.824
 8920SOL     OW27658   0.574   2.206   0.271
 8920SOL    HW127659   0.641   2.167   0.208
 8920SOL    HW227660   0.539   2.292   0.233
 8921SOL     OW27661   1.788   3.177   1.984
 8921SOL    HW127662   1.761   3.253   2.043
 8921SOL    HW227663   1.773   3.091   2.031
 8922SOL     OW27664   4.526   5.837   1.917
 8922SOL    HW127665   4.520   5.901   1.993
 8922SOL    HW227666   4.562   5.749   1.950
 8923SOL     OW27667   1.590   0.886   6.293
 8923SOL    HW127668   1.570   0.797   6.334
 8923SOL    HW227669   1.682   0.885   6.253
 8924SOL     OW27670   4.494   5.127   5.197
 8924SOL    HW127671   4.415   5.112   5.256
 8924SOL    HW227672   4.575   5.083   5.237
 8925SOL     OW27673   6.847   0.433   2.911
 8925SOL    HW127674   6.899   0.423   2.826
 8925SOL    HW227675   6.864   0.524   2.950
 8926SOL     OW27676   6.763   3.161   4.751
 8926SOL    HW127677   6.778   3.167   4.849
 8926SOL    HW227678   6.708   3.080   4.731
 8927SOL     OW27679   6.018   1.611   4.791
 8927SOL    HW127680   5.971   1.524   4.802
 8927SOL    HW227681   6.052   1.642   4.881
 8928SOL     OW27682   1.714   0.176   6.009
 8928SOL    HW127683   1.727   0.184   6.108
 8928SOL    HW227684   1.653   0.249   5.977
 8929SOL     OW27685   6.539   1.855   5.195
 8929SOL    HW127686   6.451   1.899   5.212
 8929SOL    HW227687   6.524   1.766   5.152
 8930SOL     OW27688   0.478   2.657   2.963
 8930SOL    HW127689   0.420   2.617   3.035
 8930SOL    HW227690   0.574   2.645   2.987
 8931SOL     OW27691   3.100   3.841   1.566
 8931SOL    HW127692   3.149   3.764   1.526
 8931SOL    HW227693   3.003   3.833   1.545
 8932SOL     OW27694   6.513   1.990   2.546
 8932SOL    HW127695   6.435   1.972   2.487
 8932SOL    HW227696   6.593   2.009   2.489
 8933SOL     OW27697   2.985   2.443   6.328
 8933SOL    HW127698   2.890   2.470   6.309
 8933SOL    HW227699   2.993   2.344   6.322
 8934SOL     OW27700   3.551   4.845   5.212
 8934SOL    HW127701   3.481   4.902   5.169
 8934SOL    HW227702   3.509   4.760   5.246
 8935SOL     OW27703   0.106   3.830   0.443
 8935SOL    HW127704   0.185   3.776   0.472
 8935SOL    HW227705   0.095   3.909   0.503
 8936SOL     OW27706   1.630   4.210   1.503
 8936SOL    HW127707   1.571   4.161   1.567
 8936SOL    HW227708   1.659   4.297   1.545
 8937SOL     OW27709   0.238   0.637   5.157
 8937SOL    HW127710   0.228   0.725   5.202
 8937SOL    HW227711   0.327   0.632   5.112
 8938SOL     OW27712   0.276   5.549   0.786
 8938SOL    HW127713   0.183   5.584   0.792
 8938SOL    HW227714   0.302   5.508   0.873
 8939SOL     OW27715   4.870   2.749   4.081
 8939SOL    HW127716   4.835   2.726   3.990
 8939SOL    HW227717   4.794   2.760   4.144
 8940SOL     OW27718   0.183   1.131   3.129
 8940SOL    HW127719   0.269   1.178   3.109
 8940SOL    HW227720   0.156   1.076   3.049
 8941SOL     OW27721   6.299   2.759   5.157
 8941SOL    HW127722   6.287   2.856   5.177
 8941SOL    HW227723   6.210   2.717   5.139
 8942SOL     OW27724   0.142   4.609   5.147
 8942SOL    HW127725   0.212   4.550   5.185
 8942SOL    HW227726   0.055   4.591   5.192
 8943SOL     OW27727   3.964   4.530   6.763
 8943SOL    HW127728   3.868   4.557   6.770
 8943SOL    HW227729   3.970   4.433   6.740
 8944SOL     OW27730   5.416   4.781   4.912
 8944SOL    HW127731   5.353   4.842   4.959
 8944SOL    HW227732   5.378   4.689   4.907
 8945SOL     OW27733   1.344   0.817   3.658
 8945SOL    HW127734   1.278   0.880   3.697
 8945SOL    HW227735   1.297   0.748   3.603
 8946SOL     OW27736   2.951   1.253   4.939
 8946SOL    HW127737   3.045   1.217   4.939
 8946SOL    HW227738   2.924   1.275   5.032
 8947SOL     OW27739   1.686   3.654   4.835
 8947SOL    HW127740   1.769   3.694   4.873
 8947SOL    HW227741   1.645   3.592   4.902
 8948SOL     OW27742   6.536   6.247   4.026
 8948SOL    HW127743   6.486   6.310   3.966
 8948SOL    HW227744   6.629   6.280   4.041
 8949SOL     OW27745   2.397   6.945   0.998
 8949SOL    HW127746   2.450   7.019   1.039
 8949SOL    HW227747   2.397   6.866   1.059
 8950SOL     OW27748   4.931   3.579   6.112
 8950SOL    HW127749   4.870   3.520   6.163
 8950SOL    HW227750   4.962   3.532   6.029
 8951SOL     OW27751   0.382   1.946   4.925
 8951SOL    HW127752   0.370   1.853   4.892
 8951SOL    HW227753   0.293   1.990   4.935
 8952SOL     OW27754   1.426   6.876   2.323
 8952SOL    HW127755   1.520   6.844   2.320
 8952SOL    HW227756   1.391   6.872   2.416
 8953SOL     OW27757   1.170   3.981   6.618
 8953SOL    HW127758   1.101   4.032   6.566
 8953SOL    HW227759   1.236   4.045   6.657
 8954SOL     OW27760   1.436   6.761   5.883
 8954SOL    HW127761   1.451   6.860   5.890
 8954SOL    HW227762   1.524   6.715   5.872
 8955SOL     OW27763   0.599   4.835   2.169
 8955SOL    HW127764   0.558   4.744   2.179
 8955SOL    HW227765   0.649   4.840   2.083
 8956SOL     OW27766   0.429   1.694   6.905
 8956SOL    HW127767   0.368   1.617   6.886
 8956SOL    HW227768   0.444   1.746   6.820
 8957SOL     OW27769   2.951   4.382   1.676
 8957SOL    HW127770   2.888   4.426   1.740
 8957SOL    HW227771   2.956   4.284   1.697
 8958SOL     OW27772   1.005   0.289   4.378
 8958SOL    HW127773   0.954   0.308   4.463
 8958SOL    HW227774   1.031   0.376   4.336
 8959SOL     OW27775   1.446   4.610   1.698
 8959SOL    HW127776   1.456   4.625   1.796
 8959SOL    HW227777   1.359   4.649   1.667
 8960SOL     OW27778   4.636   5.550   2.831
 8960SOL    HW127779   4.639   5.490   2.751
 8960SOL    HW227780   4.609   5.642   2.803
 8961SOL     OW27781   2.428   2.231   4.540
 8961SOL    HW127782   2.473   2.278   4.616
 8961SOL    HW227783   2.344   2.279   4.517
 8962SOL     OW27784   6.788   6.378   2.581
 8962SOL    HW127785   6.796   6.449   2.511
 8962SOL    HW227786   6.849   6.400   2.657
 8963SOL     OW27787   5.351   6.674   4.001
 8963SOL    HW127788   5.252   6.662   4.008
 8963SOL    HW227789   5.382   6.642   3.911
 8964SOL     OW27790   5.421   3.800   3.132
 8964SOL    HW127791   5.446   3.885   3.179
 8964SOL    HW227792   5.325   3.780   3.148
 8965SOL     OW27793   2.444   4.630   0.547
 8965SOL    HW127794   2.364   4.625   0.607
 8965SOL    HW227795   2.526   4.636   0.604
 8966SOL     OW27796   0.622   4.236   5.845
 8966SOL    HW127797   0.638   4.234   5.747
 8966SOL    HW227798   0.592   4.146   5.877
 8967SOL     OW27799   3.788   6.160   2.295
 8967SOL    HW127800   3.760   6.237   2.353
 8967SOL    HW227801   3.887   6.146   2.303
 8968SOL     OW27802   5.104   4.622   2.962
 8968SOL    HW127803   5.117   4.624   2.863
 8968SOL    HW227804   5.189   4.651   3.007
 8969SOL     OW27805   6.786   0.252   4.231
 8969SOL    HW127806   6.845   0.293   4.162
 8969SOL    HW227807   6.691   0.261   4.204
 8970SOL     OW27808   2.617   3.018   0.387
 8970SOL    HW127809   2.569   3.097   0.427
 8970SOL    HW227810   2.550   2.947   0.363
 8971SOL     OW27811   4.940   5.305   1.810
 8971SOL    HW127812   4.875   5.359   1.756
 8971SOL    HW227813   4.913   5.209   1.810
 8972SOL     OW27814   5.068   4.852   6.667
 8972SOL    HW127815   5.029   4.767   6.631
 8972SOL    HW227816   5.147   4.831   6.724
 8973SOL     OW27817   1.124   3.355   2.106
 8973SOL    HW127818   1.132   3.257   2.125
 8973SOL    HW227819   1.173   3.407   2.175
 8974SOL     OW27820   1.746   4.644   5.656
 8974SOL    HW127821   1.817   4.622   5.724
 8974SOL    HW227822   1.656   4.639   5.699
 8975SOL     OW27823   2.254   0.177   6.822
 8975SOL    HW127824   2.242   0.273   6.846
 8975SOL    HW227825   2.253   0.121   6.905
 8976SOL     OW27826   0.222   4.707   4.866
 8976SOL    HW127827   0.135   4.754   4.854
 8976SOL    HW227828   0.230   4.676   4.960
 8977SOL     OW27829   5.634   1.411   7.007
 8977SOL    HW127830   5.540   1.417   0.020
 8977SOL    HW227831   5.660   1.315   6.997
 8978SOL     OW27832   5.392   0.050   5.892
 8978SOL    HW127833   5.482   0.021   5.860
 8978SOL    HW227834   5.388   0.045   5.992
 8979SOL     OW27835   1.467   2.971   4.908
 8979SOL    HW127836   1.437   2.916   4.830
 8979SOL    HW227837   1.389   3.023   4.943
 8980SOL     OW27838   2.276   3.013   5.410
 8980SOL    HW127839   2.208   2.950   5.371
 8980SOL    HW227840   2.346   3.033   5.343
 8981SOL     OW27841   4.498   1.705   5.498
 8981SOL    HW127842   4.559   1.681   5.574
 8981SOL    HW227843   4.551   1.741   5.422
 8982SOL     OW27844   1.960   1.735   0.685
 8982SOL    HW127845   1.901   1.736   0.765
 8982SOL    HW227846   2.049   1.696   0.709
 8983SOL     OW27847   1.685   5.981   6.607
 8983SOL    HW127848   1.713   6.061   6.554
 8983SOL    HW227849   1.634   5.918   6.548
 8984SOL     OW27850   0.536   7.018   4.199
 8984SOL    HW127851   0.579   6.929   4.181
 8984SOL    HW227852   0.526   0.047   4.114
 8985SOL     OW27853   2.652   3.341   0.668
 8985SOL    HW127854   2.638   3.316   0.572
 8985SOL    HW227855   2.611   3.272   0.727
 8986SOL     OW27856   4.390   5.501   2.353
 8986SOL    HW127857   4.390   5.586   2.407
 8986SOL    HW227858   4.314   5.503   2.288
 8987SOL     OW27859   4.485   6.953   1.730
 8987SOL    HW127860   4.543   6.946   1.650
 8987SOL    HW227861   4.497   0.022   1.772
 8988SOL     OW27862   1.318   4.560   5.073
 8988SOL    HW127863   1.289   4.464   5.077
 8988SOL    HW227864   1.319   4.598   5.166
 8989SOL     OW27865   5.028   3.334   0.547
 8989SOL    HW127866   5.059   3.243   0.517
 8989SOL    HW227867   5.098   3.402   0.526
 8990SOL     OW27868   1.511   5.428   4.898
 8990SOL    HW127869   1.548   5.347   4.942
 8990SOL    HW227870   1.580   5.501   4.900
 8991SOL     OW27871   1.227   2.302   5.606
 8991SOL    HW127872   1.300   2.342   5.551
 8991SOL    HW227873   1.141   2.350   5.588
 8992SOL     OW27874   5.033   1.082   0.134
 8992SOL    HW127875   5.132   1.071   0.131
 8992SOL    HW227876   4.989   0.995   0.114
 8993SOL     OW27877   5.013   2.512   1.804
 8993SOL    HW127878   5.094   2.492   1.749
 8993SOL    HW227879   4.998   2.611   1.806
 8994SOL     OW27880   0.757   3.742   4.738
 8994SOL    HW127881   0.814   3.783   4.808
 8994SOL    HW227882   0.755   3.801   4.657
 8995SOL     OW27883   1.703   2.417   0.131
 8995SOL    HW127884   1.728   2.473   0.211
 8995SOL    HW227885   1.695   2.476   0.051
 8996SOL     OW27886   4.985   4.669   0.182
 8996SOL    HW127887   4.894   4.692   0.217
 8996SOL    HW227888   5.000   4.571   0.192
 8997SOL     OW27889   5.232   1.653   6.116
 8997SOL    HW127890   5.263   1.609   6.032
 8997SOL    HW227891   5.305   1.651   6.184
 8998SOL     OW27892   6.377   3.523   3.759
 8998SOL    HW127893   6.398   3.518   3.661
 8998SOL    HW227894   6.399   3.614   3.793
 8999SOL     OW27895   4.526   6.332   6.293
 8999SOL    HW127896   4.589   6.382   6.233
 8999SOL    HW227897   4.450   6.392   6.319
 9000SOL     OW27898   1.463   3.429   1.617
 9000SOL    HW127899   1.514   3.454   1.699
 9000SOL    HW227900   1.442   3.331   1.620
 9001SOL     OW27901   1.220   5.440   2.362
 9001SOL    HW127902   1.223   5.422   2.460
 9001SOL    HW227903   1.290   5.386   2.315
 9002SOL     OW27904   1.421   5.116   5.259
 9002SOL    HW127905   1.441   5.163   5.344
 9002SOL    HW227906   1.344   5.053   5.273
 9003SOL     OW27907   5.765   3.200   1.604
 9003SOL    HW127908   5.836   3.136   1.575
 9003SOL    HW227909   5.808   3.281   1.646
 9004SOL     OW27910   3.956   5.853   1.055
 9004SOL    HW127911   3.944   5.952   1.063
 9004SOL    HW227912   4.025   5.833   0.985
 9005SOL     OW27913   6.004   2.421   4.626
 9005SOL    HW127914   6.101   2.396   4.624
 9005SOL    HW227915   5.995   2.515   4.659
 9006SOL     OW27916   2.231   5.451   1.038
 9006SOL    HW127917   2.308   5.402   0.998
 9006SOL    HW227918   2.246   5.462   1.136
 9007SOL     OW27919   3.507   0.888   3.575
 9007SOL    HW127920   3.556   0.907   3.490
 9007SOL    HW227921   3.569   0.902   3.653
 9008SOL     OW27922   1.534   5.446   3.683
 9008SOL    HW127923   1.600   5.439   3.758
 9008SOL    HW227924   1.525   5.358   3.638
 9009SOL     OW27925   2.996   6.492   0.553
 9009SOL    HW127926   3.038   6.573   0.514
 9009SOL    HW227927   3.009   6.492   0.652
 9010SOL     OW27928   1.263   6.526   3.942
 9010SOL    HW127929   1.308   6.583   3.874
 9010SOL    HW227930   1.332   6.481   3.998
 9011SOL     OW27931   5.095   1.648   1.545
 9011SOL    HW127932   5.107   1.572   1.609
 9011SOL    HW227933   5.169   1.647   1.477
 9012SOL     OW27934   1.819   4.456   0.311
 9012SOL    HW127935   1.771   4.541   0.332
 9012SOL    HW227936   1.873   4.468   0.227
 9013SOL     OW27937   0.510   6.593   5.538
 9013SOL    HW127938   0.595   6.557   5.498
 9013SOL    HW227939   0.492   6.684   5.501
 9014SOL     OW27940   6.819   2.468   0.621
 9014SOL    HW127941   6.854   2.470   0.714
 9014SOL    HW227942   6.725   2.433   0.621
 9015SOL     OW27943   4.527   2.198   1.629
 9015SOL    HW127944   4.568   2.220   1.717
 9015SOL    HW227945   4.436   2.160   1.643
 9016SOL     OW27946   0.103   6.795   6.390
 9016SOL    HW127947   0.043   6.832   6.320
 9016SOL    HW227948   0.197   6.792   6.356
 9017SOL     OW27949   4.594   1.941   3.806
 9017SOL    HW127950   4.657   1.874   3.766
 9017SOL    HW227951   4.605   1.941   3.906
 9018SOL     OW27952   3.472   2.850   6.743
 9018SOL    HW127953   3.517   2.815   6.661
 9018SOL    HW227954   3.427   2.937   6.723
 9019SOL     OW27955   1.524   5.321   2.434
 9019SOL    HW127956   1.508   5.402   2.491
 9019SOL    HW227957   1.470   5.328   2.350
 9020SOL     OW27958   6.817   4.261   0.935
 9020SOL    HW127959   6.853   4.294   1.022
 9020SOL    HW227960   6.805   4.162   0.939
 9021SOL     OW27961   0.069   0.028   3.817
 9021SOL    HW127962   7.012   7.002   3.779
 9021SOL    HW227963   0.120   6.987   3.875
 9022SOL     OW27964   3.175   1.428   6.616
 9022SOL    HW127965   3.245   1.493   6.645
 9022SOL    HW227966   3.119   1.401   6.695
 9023SOL     OW27967   3.722   2.954   2.543
 9023SOL    HW127968   3.627   2.967   2.517
 9023SOL    HW227969   3.729   2.944   2.642
 9024SOL     OW27970   0.833   3.953   5.127
 9024SOL    HW127971   0.734   3.961   5.137
 9024SOL    HW227972   0.877   3.985   5.211
 9025SOL     OW27973   0.953   5.547   0.894
 9025SOL    HW127974   0.916   5.487   0.823
 9025SOL    HW227975   0.892   5.625   0.907
 9026SOL     OW27976   3.689   2.674   0.823
 9026SOL    HW127977   3.647   2.764   0.830
 9026SOL    HW227978   3.724   2.647   0.913
 9027SOL     OW27979   1.453   2.797   3.247
 9027SOL    HW127980   1.516   2.874   3.254
 9027SOL    HW227981   1.501   2.712   3.268
 9028SOL     OW27982   3.002   3.217   5.282
 9028SOL    HW127983   2.969   3.299   5.329
 9028SOL    HW227984   3.060   3.243   5.205
 9029SOL     OW27985   3.935   6.830   4.700
 9029SOL    HW127986   3.860   6.846   4.764
 9029SOL    HW227987   4.019   6.813   4.750
 9030SOL     OW27988   2.951   1.919   3.115
 9030SOL    HW127989   2.914   1.827   3.125
 9030SOL    HW227990   3.016   1.921   3.039
 9031SOL     OW27991   4.165   5.737   4.479
 9031SOL    HW127992   4.080   5.782   4.504
 9031SOL    HW227993   4.167   5.721   4.380
 9032SOL     OW27994   3.694   3.786   0.978
 9032SOL    HW127995   3.710   3.742   1.067
 9032SOL    HW227996   3.640   3.869   0.991
 9033SOL     OW27997   6.970   4.245   3.077
 9033SOL    HW127998   6.935   4.300   3.153
 9033SOL    HW227999   0.045   4.263   3.064
 9034SOL     OW28000   3.100   6.257   4.546
 9034SOL    HW128001   3.069   6.317   4.473
 9034SOL    HW228002   3.200   6.259   4.550
 9035SOL     OW28003   2.585   4.250   0.057
 9035SOL    HW128004   2.679   4.217   0.066
 9035SOL    HW228005   2.567   4.318   0.129
 9036SOL     OW28006   2.382   2.684   5.464
 9036SOL    HW128007   2.450   2.611   5.461
 9036SOL    HW228008   2.412   2.755   5.527
 9037SOL     OW28009   0.963   3.868   4.899
 9037SOL    HW128010   0.925   3.902   4.985
 9037SOL    HW228011   1.041   3.809   4.919
 9038SOL     OW28012   4.135   0.615   6.413
 9038SOL    HW128013   4.087   0.693   6.372
 9038SOL    HW228014   4.127   0.536   6.351
 9039SOL     OW28015   2.150   5.780   5.970
 9039SOL    HW128016   2.234   5.796   6.021
 9039SOL    HW228017   2.165   5.800   5.873
 9040SOL     OW28018   3.083   2.176   2.838
 9040SOL    HW128019   3.008   2.233   2.874
 9040SOL    HW228020   3.147   2.233   2.787
 9041SOL     OW28021   1.076   1.780   1.730
 9041SOL    HW128022   1.152   1.720   1.704
 9041SOL    HW228023   0.990   1.743   1.694
 9042SOL     OW28024   3.935   6.514   4.693
 9042SOL    HW128025   3.932   6.608   4.660
 9042SOL    HW228026   3.877   6.506   4.774
 9043SOL     OW28027   1.182   0.567   6.914
 9043SOL    HW128028   1.097   0.516   6.906
 9043SOL    HW228029   1.257   0.513   6.875
 9044SOL     OW28030   6.515   0.202   0.492
 9044SOL    HW128031   6.445   0.170   0.555
 9044SOL    HW228032   6.472   0.241   0.410
 9045SOL     OW28033   3.011   1.818   2.562
 9045SOL    HW128034   3.103   1.833   2.597
 9045SOL    HW228035   3.010   1.738   2.503
 9046SOL     OW28036   3.333   3.794   2.774
 9046SOL    HW128037   3.350   3.773   2.678
 9046SOL    HW228038   3.419   3.786   2.825
 9047SOL     OW28039   1.814   3.598   5.192
 9047SOL    HW128040   1.858   3.671   5.244
 9047SOL    HW228041   1.884   3.537   5.154
 9048SOL     OW28042   5.796   3.092   5.654
 9048SOL    HW128043   5.763   3.026   5.721
 9048SOL    HW228044   5.722   3.155   5.629
 9049SOL     OW28045   3.511   0.003   5.923
 9049SOL    HW128046   3.518   6.943   5.866
 9049SOL    HW228047   3.542   0.082   5.871
 9050SOL     OW28048   1.320   3.309   0.823
 9050SOL    HW128049   1.363   3.397   0.840
 9050SOL    HW228050   1.337   3.281   0.729
 9051SOL     OW28051   3.739   6.907   1.161
 9051SOL    HW128052   3.796   6.825   1.152
 9051SOL    HW228053   3.777   6.965   1.233
 9052SOL     OW28054   2.448   2.294   3.440
 9052SOL    HW128055   2.538   2.257   3.418
 9052SOL    HW228056   2.379   2.222   3.428
 9053SOL     OW28057   1.599   1.274   2.714
 9053SOL    HW128058   1.550   1.248   2.631
 9053SOL    HW228059   1.673   1.209   2.730
 9054SOL     OW28060   2.923   5.713   3.970
 9054SOL    HW128061   2.836   5.723   3.922
 9054SOL    HW228062   2.989   5.780   3.934
 9055SOL     OW28063   5.999   3.007   4.568
 9055SOL    HW128064   5.943   2.993   4.650
 9055SOL    HW228065   6.083   2.954   4.575
 9056SOL     OW28066   0.822   2.554   2.038
 9056SOL    HW128067   0.849   2.612   2.116
 9056SOL    HW228068   0.722   2.555   2.029
 9057SOL     OW28069   5.247   3.213   5.944
 9057SOL    HW128070   5.221   3.227   5.849
 9057SOL    HW228071   5.346   3.225   5.954
 9058SOL     OW28072   2.026   0.750   1.948
 9058SOL    HW128073   2.037   0.651   1.950
 9058SOL    HW228074   2.039   0.784   1.854
 9059SOL     OW28075   1.805   1.600   3.418
 9059SOL    HW128076   1.830   1.615   3.322
 9059SOL    HW228077   1.711   1.565   3.423
 9060SOL     OW28078   6.388   3.021   4.419
 9060SOL    HW128079   6.453   3.008   4.344
 9060SOL    HW228080   6.338   2.936   4.434
 9061SOL     OW28081   2.255   5.495   2.115
 9061SOL    HW128082   2.312   5.527   2.039
 9061SOL    HW228083   2.304   5.510   2.201
 9062SOL     OW28084   1.492   6.517   2.159
 9062SOL    HW128085   1.437   6.507   2.241
 9062SOL    HW228086   1.552   6.597   2.169
 9063SOL     OW28087   3.235   0.698   4.070
 9063SOL    HW128088   3.262   0.633   4.140
 9063SOL    HW228089   3.180   0.771   4.112
 9064SOL     OW28090   6.237   2.326   6.035
 9064SOL    HW128091   6.286   2.394   5.981
 9064SOL    HW228092   6.197   2.370   6.116
 9065SOL     OW28093   3.723   1.041   6.792
 9065SOL    HW128094   3.705   1.071   6.886
 9065SOL    HW228095   3.662   0.966   6.768
 9066SOL     OW28096   5.339   6.814   0.492
 9066SOL    HW128097   5.439   6.819   0.491
 9066SOL    HW228098   5.310   6.745   0.559
 9067SOL     OW28099   0.978   0.503   4.219
 9067SOL    HW128100   1.014   0.582   4.270
 9067SOL    HW228101   0.976   0.525   4.121
 9068SOL     OW28102   1.648   6.305   4.197
 9068SOL    HW128103   1.722   6.329   4.133
 9068SOL    HW228104   1.615   6.213   4.176
 9069SOL     OW28105   1.433   2.851   1.643
 9069SOL    HW128106   1.446   2.849   1.544
 9069SOL    HW228107   1.522   2.857   1.689
 9070SOL     OW28108   1.517   3.216   5.172
 9070SOL    HW128109   1.451   3.285   5.143
 9070SOL    HW228110   1.603   3.261   5.198
 9071SOL     OW28111   6.616   6.916   1.901
 9071SOL    HW128112   6.688   6.915   1.970
 9071SOL    HW228113   6.605   6.825   1.861
 9072SOL     OW28114   0.539   2.281   0.848
 9072SOL    HW128115   0.483   2.283   0.931
 9072SOL    HW228116   0.636   2.281   0.873
 9073SOL     OW28117   2.698   6.613   2.485
 9073SOL    HW128118   2.726   6.546   2.416
 9073SOL    HW228119   2.616   6.580   2.532
 9074SOL     OW28120   0.953   0.517   2.377
 9074SOL    HW128121   1.048   0.535   2.402
 9074SOL    HW228122   0.932   0.563   2.291
 9075SOL     OW28123   6.988   0.710   2.134
 9075SOL    HW128124   6.968   0.739   2.041
 9075SOL    HW228125   0.047   0.759   2.167
 9076SOL     OW28126   0.181   2.044   6.059
 9076SOL    HW128127   0.104   2.037   6.123
 9076SOL    HW228128   0.147   2.061   5.967
 9077SOL     OW28129   4.958   0.531   0.781
 9077SOL    HW128130   5.042   0.477   0.769
 9077SOL    HW228131   4.884   0.489   0.729
 9078SOL     OW28132   3.550   3.518   5.039
 9078SOL    HW128133   3.579   3.589   4.975
 9078SOL    HW228134   3.454   3.495   5.022
 9079SOL     OW28135   2.526   0.728   4.384
 9079SOL    HW128136   2.597   0.698   4.447
 9079SOL    HW228137   2.536   0.679   4.297
 9080SOL     OW28138   5.045   2.530   6.535
 9080SOL    HW128139   5.014   2.446   6.492
 9080SOL    HW228140   4.966   2.587   6.556
 9081SOL     OW28141   4.192   6.778   2.219
 9081SOL    HW128142   4.166   6.842   2.292
 9081SOL    HW228143   4.203   6.828   2.133
 9082SOL     OW28144   2.469   0.354   5.489
 9082SOL    HW128145   2.462   0.378   5.392
 9082SOL    HW228146   2.383   0.313   5.520
 9083SOL     OW28147   3.702   5.180   6.222
 9083SOL    HW128148   3.730   5.268   6.262
 9083SOL    HW228149   3.623   5.194   6.162
 9084SOL     OW28150   3.200   3.609   2.952
 9084SOL    HW128151   3.263   3.659   2.893
 9084SOL    HW228152   3.137   3.555   2.897
 9085SOL     OW28153   2.154   0.414   1.118
 9085SOL    HW128154   2.076   0.362   1.152
 9085SOL    HW228155   2.237   0.359   1.124
 9086SOL     OW28156   0.592   4.492   0.215
 9086SOL    HW128157   0.691   4.484   0.225
 9086SOL    HW228158   0.568   4.481   0.118
 9087SOL     OW28159   4.648   2.379   1.221
 9087SOL    HW128160   4.587   2.397   1.144
 9087SOL    HW228161   4.715   2.453   1.228
 9088SOL     OW28162   6.538   6.952   1.197
 9088SOL    HW128163   6.455   6.898   1.181
 9088SOL    HW228164   6.560   6.951   1.295
 9089SOL     OW28165   5.152   6.372   5.580
 9089SOL    HW128166   5.234   6.324   5.548
 9089SOL    HW228167   5.079   6.361   5.514
 9090SOL     OW28168   6.089   1.118   5.388
 9090SOL    HW128169   6.075   1.019   5.384
 9090SOL    HW228170   6.048   1.161   5.308
 9091SOL     OW28171   2.944   4.085   6.919
 9091SOL    HW128172   2.902   4.134   6.996
 9091SOL    HW228173   2.993   4.150   6.862
 9092SOL     OW28174   6.562   0.655   6.815
 9092SOL    HW128175   6.532   0.731   6.757
 9092SOL    HW228176   6.589   0.578   6.758
 9093SOL     OW28177   1.566   6.252   5.191
 9093SOL    HW128178   1.491   6.316   5.209
 9093SOL    HW228179   1.562   6.223   5.096
 9094SOL     OW28180   6.232   4.484   2.848
 9094SOL    HW128181   6.136   4.473   2.872
 9094SOL    HW228182   6.265   4.571   2.884
 9095SOL     OW28183   4.662   4.745   6.540
 9095SOL    HW128184   4.685   4.790   6.626
 9095SOL    HW228185   4.594   4.800   6.491
 9096SOL     OW28186   6.339   5.528   3.009
 9096SOL    HW128187   6.369   5.623   3.001
 9096SOL    HW228188   6.245   5.520   2.976
 9097SOL     OW28189   2.070   2.222   0.421
 9097SOL    HW128190   2.009   2.250   0.495
 9097SOL    HW228191   2.064   2.123   0.408
 9098SOL     OW28192   2.879   1.899   4.858
 9098SOL    HW128193   2.827   1.865   4.779
 9098SOL    HW228194   2.914   1.990   4.838
 9099SOL     OW28195   2.667   3.275   6.306
 9099SOL    HW128196   2.683   3.295   6.403
 9099SOL    HW228197   2.572   3.296   6.283
 9100SOL     OW28198   0.884   3.559   2.971
 9100SOL    HW128199   0.968   3.556   2.917
 9100SOL    HW228200   0.903   3.526   3.064
 9101SOL     OW28201   2.712   1.541   2.246
 9101SOL    HW128202   2.721   1.641   2.245
 9101SOL    HW228203   2.618   1.516   2.265
 9102SOL     OW28204   3.016   6.507   1.973
 9102SOL    HW128205   3.019   6.607   1.978
 9102SOL    HW228206   2.962   6.478   1.894
 9103SOL     OW28207   5.699   1.522   0.440
 9103SOL    HW128208   5.603   1.518   0.464
 9103SOL    HW228209   5.708   1.531   0.340
 9104SOL     OW28210   0.043   6.748   1.515
 9104SOL    HW128211   0.078   6.800   1.593
 9104SOL    HW228212   0.050   6.804   1.432
 9105SOL     OW28213   1.280   0.079   5.138
 9105SOL    HW128214   1.242   0.092   5.229
 9105SOL    HW228215   1.292   0.168   5.094
 9106SOL     OW28216   0.078   2.784   0.952
 9106SOL    HW128217   0.051   2.793   0.856
 9106SOL    HW228218   0.003   2.742   1.004
 9107SOL     OW28219   1.932   0.657   0.028
 9107SOL    HW128220   1.953   0.664   0.126
 9107SOL    HW228221   1.857   0.720   0.006
 9108SOL     OW28222   4.574   4.083   5.681
 9108SOL    HW128223   4.508   4.078   5.606
 9108SOL    HW228224   4.537   4.141   5.754
 9109SOL     OW28225   4.974   3.221   3.223
 9109SOL    HW128226   4.944   3.274   3.144
 9109SOL    HW228227   5.074   3.226   3.231
 9110SOL     OW28228   1.274   5.391   4.063
 9110SOL    HW128229   1.344   5.369   4.131
 9110SOL    HW228230   1.308   5.463   4.002
 9111SOL     OW28231   4.443   2.656   6.974
 9111SOL    HW128232   4.475   2.714   0.028
 9111SOL    HW228233   4.356   2.691   6.941
 9112SOL     OW28234   1.507   5.164   2.698
 9112SOL    HW128235   1.448   5.090   2.667
 9112SOL    HW228236   1.563   5.196   2.622
 9113SOL     OW28237   4.954   2.676   3.672
 9113SOL    HW128238   5.028   2.701   3.735
 9113SOL    HW228239   4.987   2.606   3.609
 9114SOL     OW28240   0.761   5.637   4.185
 9114SOL    HW128241   0.727   5.555   4.139
 9114SOL    HW228242   0.744   5.717   4.128
 9115SOL     OW28243   6.142   5.344   4.613
 9115SOL    HW128244   6.121   5.394   4.697
 9115SOL    HW228245   6.232   5.372   4.579
 9116SOL     OW28246   6.687   0.248   3.069
 9116SOL    HW128247   6.747   0.281   2.997
 9116SOL    HW228248   6.701   0.302   3.152
 9117SOL     OW28249   4.640   2.331   6.577
 9117SOL    HW128250   4.703   2.408   6.583
 9117SOL    HW228251   4.582   2.341   6.497
 9118SOL     OW28252   6.360   3.408   0.087
 9118SOL    HW128253   6.295   3.343   0.126
 9118SOL    HW228254   6.310   3.484   0.044
 9119SOL     OW28255   4.303   0.800   1.575
 9119SOL    HW128256   4.264   0.892   1.578
 9119SOL    HW228257   4.231   0.734   1.554
 9120SOL     OW28258   6.676   2.734   5.608
 9120SOL    HW128259   6.740   2.659   5.624
 9120SOL    HW228260   6.630   2.721   5.521
 9121SOL     OW28261   4.291   6.648   5.425
 9121SOL    HW128262   4.296   6.557   5.384
 9121SOL    HW228263   4.255   6.641   5.518
 9122SOL     OW28264   2.180   4.011   2.015
 9122SOL    HW128265   2.149   4.032   2.108
 9122SOL    HW228266   2.269   4.054   1.999
 9123SOL     OW28267   1.424   0.168   3.975
 9123SOL    HW128268   1.513   0.125   3.990
 9123SOL    HW228269   1.352   0.099   3.982
 9124SOL     OW28270   4.078   5.525   1.856
 9124SOL    HW128271   4.073   5.434   1.815
 9124SOL    HW228272   4.155   5.575   1.816
 9125SOL     OW28273   3.528   4.245   1.074
 9125SOL    HW128274   3.529   4.274   0.978
 9125SOL    HW228275   3.457   4.296   1.123
 9126SOL     OW28276   4.795   3.819   0.813
 9126SOL    HW128277   4.756   3.869   0.890
 9126SOL    HW228278   4.805   3.723   0.837
 9127SOL     OW28279   6.448   2.778   4.861
 9127SOL    HW128280   6.379   2.727   4.808
 9127SOL    HW228281   6.520   2.715   4.889
 9128SOL     OW28282   6.278   2.365   4.642
 9128SOL    HW128283   6.317   2.317   4.721
 9128SOL    HW228284   6.350   2.380   4.574
 9129SOL     OW28285   0.983   2.484   0.796
 9129SOL    HW128286   0.947   2.493   0.703
 9129SOL    HW228287   0.956   2.565   0.850
 9130SOL     OW28288   0.750   4.406   6.076
 9130SOL    HW128289   0.692   4.351   6.015
 9130SOL    HW228290   0.810   4.344   6.128
 9131SOL     OW28291   5.549   2.886   0.098
 9131SOL    HW128292   5.550   2.843   0.008
 9131SOL    HW228293   5.494   2.831   0.161
 9132SOL     OW28294   0.767   4.967   4.069
 9132SOL    HW128295   0.700   4.896   4.044
 9132SOL    HW228296   0.850   4.923   4.103
 9133SOL     OW28297   3.121   1.017   1.223
 9133SOL    HW128298   3.057   1.081   1.180
 9133SOL    HW228299   3.170   1.064   1.297
 9134SOL     OW28300   4.431   5.523   0.856
 9134SOL    HW128301   4.475   5.501   0.769
 9134SOL    HW228302   4.356   5.586   0.840
 9135SOL     OW28303   1.587   6.564   1.506
 9135SOL    HW128304   1.491   6.562   1.533
 9135SOL    HW228305   1.644   6.579   1.587
 9136SOL     OW28306   4.402   5.606   5.724
 9136SOL    HW128307   4.362   5.682   5.672
 9136SOL    HW228308   4.479   5.640   5.778
 9137SOL     OW28309   4.529   6.516   5.525
 9137SOL    HW128310   4.580   6.602   5.529
 9137SOL    HW228311   4.457   6.517   5.594
 9138SOL     OW28312   2.005   3.228   0.531
 9138SOL    HW128313   1.969   3.253   0.441
 9138SOL    HW228314   2.059   3.144   0.523
 9139SOL     OW28315   0.798   1.229   1.646
 9139SOL    HW128316   0.844   1.263   1.564
 9139SOL    HW228317   0.699   1.241   1.637
 9140SOL     OW28318   0.545   4.659   1.959
 9140SOL    HW128319   0.467   4.657   1.896
 9140SOL    HW228320   0.588   4.569   1.961
 9141SOL     OW28321   6.771   5.951   6.752
 9141SOL    HW128322   6.731   5.983   6.666
 9141SOL    HW228323   6.870   5.959   6.748
 9142SOL     OW28324   0.334   2.601   2.725
 9142SOL    HW128325   0.366   2.632   2.814
 9142SOL    HW228326   0.321   2.679   2.665
 9143SOL     OW28327   0.079   3.638   1.440
 9143SOL    HW128328   0.157   3.687   1.479
 9143SOL    HW228329   0.101   3.609   1.346
 9144SOL     OW28330   2.896   4.801   4.746
 9144SOL    HW128331   2.881   4.766   4.839
 9144SOL    HW228332   2.809   4.829   4.707
 9145SOL     OW28333   1.296   0.306   6.535
 9145SOL    HW128334   1.296   0.338   6.630
 9145SOL    HW228335   1.364   0.234   6.524
 9146SOL     OW28336   5.719   2.336   3.732
 9146SOL    HW128337   5.724   2.330   3.832
 9146SOL    HW228338   5.645   2.278   3.700
 9147SOL     OW28339   5.818   0.360   5.266
 9147SOL    HW128340   5.821   0.401   5.357
 9147SOL    HW228341   5.911   0.338   5.236
 9148SOL     OW28342   6.030   0.248   1.879
 9148SOL    HW128343   6.051   0.345   1.888
 9148SOL    HW228344   6.040   0.221   1.783
 9149SOL     OW28345   5.718   3.049   1.997
 9149SOL    HW128346   5.671   2.966   2.026
 9149SOL    HW228347   5.668   3.091   1.921
 9150SOL     OW28348   2.920   4.686   0.166
 9150SOL    HW128349   2.914   4.734   0.078
 9150SOL    HW228350   2.980   4.607   0.157
 9151SOL     OW28351   2.248   4.141   4.070
 9151SOL    HW128352   2.254   4.066   4.135
 9151SOL    HW228353   2.318   4.209   4.091
 9152SOL     OW28354   1.782   4.107   4.195
 9152SOL    HW128355   1.749   4.175   4.130
 9152SOL    HW228356   1.869   4.137   4.233
 9153SOL     OW28357   0.650   2.794   6.539
 9153SOL    HW128358   0.734   2.746   6.564
 9153SOL    HW228359   0.672   2.888   6.513
 9154SOL     OW28360   5.172   5.054   2.950
 9154SOL    HW128361   5.143   4.966   2.914
 9154SOL    HW228362   5.092   5.112   2.968
 9155SOL     OW28363   2.087   4.846   2.130
 9155SOL    HW128364   2.119   4.910   2.199
 9155SOL    HW228365   2.110   4.753   2.158
 9156SOL     OW28366   6.842   2.896   1.263
 9156SOL    HW128367   6.911   2.961   1.298
 9156SOL    HW228368   6.751   2.926   1.290
 9157SOL     OW28369   3.074   4.116   6.106
 9157SOL    HW128370   3.123   4.108   6.193
 9157SOL    HW228371   2.976   4.129   6.124
 9158SOL     OW28372   6.254   4.261   3.998
 9158SOL    HW128373   6.269   4.341   4.056
 9158SOL    HW228374   6.277   4.283   3.903
 9159SOL     OW28375   2.667   6.965   3.242
 9159SOL    HW128376   2.755   7.001   3.274
 9159SOL    HW228377   2.680   6.919   3.154
 9160SOL     OW28378   0.025   5.092   6.478
 9160SOL    HW128379   0.019   4.998   6.512
 9160SOL    HW228380   0.013   5.156   6.554
 9161SOL     OW28381   5.765   4.229   2.037
 9161SOL    HW128382   5.721   4.288   1.969
 9161SOL    HW228383   5.797   4.284   2.114
 9162SOL     OW28384   3.787   1.410   2.797
 9162SOL    HW128385   3.865   1.464   2.827
 9162SOL    HW228386   3.796   1.389   2.700
 9163SOL     OW28387   6.827   2.365   1.790
 9163SOL    HW128388   6.843   2.351   1.692
 9163SOL    HW228389   6.729   2.355   1.809
 9164SOL     OW28390   2.521   0.558   6.893
 9164SOL    HW128391   2.505   0.462   6.915
 9164SOL    HW228392   2.611   0.585   6.928
 9165SOL     OW28393   4.736   2.227   5.712
 9165SOL    HW128394   4.758   2.229   5.615
 9165SOL    HW228395   4.704   2.318   5.741
 9166SOL     OW28396   4.145   5.580   1.268
 9166SOL    HW128397   4.154   5.511   1.196
 9166SOL    HW228398   4.164   5.671   1.230
 9167SOL     OW28399   1.119   1.928   6.457
 9167SOL    HW128400   1.182   1.855   6.482
 9167SOL    HW228401   1.035   1.888   6.420
 9168SOL     OW28402   6.005   4.784   6.241
 9168SOL    HW128403   6.103   4.768   6.255
 9168SOL    HW228404   5.953   4.729   6.307
 9169SOL     OW28405   6.942   6.402   6.564
 9169SOL    HW128406   6.940   6.311   6.523
 9169SOL    HW228407   6.849   6.440   6.566
 9170SOL     OW28408   1.978   1.796   5.937
 9170SOL    HW128409   1.992   1.887   5.899
 9170SOL    HW228410   2.064   1.746   5.936
 9171SOL     OW28411   2.682   5.142   1.111
 9171SOL    HW128412   2.756   5.198   1.074
 9171SOL    HW228413   2.662   5.170   1.205
 9172SOL     OW28414   4.928   1.471   5.045
 9172SOL    HW128415   4.937   1.417   4.961
 9172SOL    HW228416   4.924   1.568   5.022
 9173SOL     OW28417   6.878   2.596   4.072
 9173SOL    HW128418   6.978   2.589   4.072
 9173SOL    HW228419   6.849   2.660   4.001
 9174SOL     OW28420   0.412   6.144   0.295
 9174SOL    HW128421   0.486   6.123   0.359
 9174SOL    HW228422   0.446   6.207   0.225
 9175SOL     OW28423   1.659   6.657   0.593
 9175SOL    HW128424   1.574   6.667   0.541
 9175SOL    HW228425   1.713   6.741   0.586
 9176SOL     OW28426   2.235   1.059   2.908
 9176SOL    HW128427   2.295   1.126   2.950
 9176SOL    HW228428   2.229   1.076   2.809
 9177SOL     OW28429   0.867   3.237   3.651
 9177SOL    HW128430   0.793   3.186   3.606
 9177SOL    HW228431   0.951   3.226   3.598
 9178SOL     OW28432   2.179   6.253   6.672
 9178SOL    HW128433   2.129   6.340   6.678
 9178SOL    HW228434   2.151   6.204   6.590
 9179SOL     OW28435   3.528   5.851   5.188
 9179SOL    HW128436   3.454   5.813   5.133
 9179SOL    HW228437   3.604   5.786   5.193
 9180SOL     OW28438   6.521   2.202   4.459
 9180SOL    HW128439   6.563   2.111   4.454
 9180SOL    HW228440   6.579   2.262   4.514
 9181SOL     OW28441   4.748   2.412   3.789
 9181SOL    HW128442   4.717   2.426   3.883
 9181SOL    HW228443   4.694   2.468   3.727
 9182SOL     OW28444   1.796   1.082   2.693
 9182SOL    HW128445   1.791   0.994   2.741
 9182SOL    HW228446   1.850   1.070   2.609
 9183SOL     OW28447   4.777   2.857   6.792
 9183SOL    HW128448   4.827   2.793   6.851
 9183SOL    HW228449   4.714   2.806   6.734
 9184SOL     OW28450   3.257   2.619   0.974
 9184SOL    HW128451   3.219   2.578   0.891
 9184SOL    HW228452   3.187   2.673   1.020
 9185SOL     OW28453   6.923   0.206   6.017
 9185SOL    HW128454   6.932   0.303   6.040
 9185SOL    HW228455   6.837   0.171   6.053
 9186SOL     OW28456   4.410   0.418   6.316
 9186SOL    HW128457   4.436   0.497   6.372
 9186SOL    HW228458   4.491   0.382   6.270
 9187SOL     OW28459   4.938   2.178   6.760
 9187SOL    HW128460   4.846   2.140   6.774
 9187SOL    HW228461   4.941   2.224   6.671
 9188SOL     OW28462   1.437   0.523   0.980
 9188SOL    HW128463   1.401   0.605   1.025
 9188SOL    HW228464   1.396   0.513   0.890
 9189SOL     OW28465   2.973   1.178   3.159
 9189SOL    HW128466   3.053   1.127   3.191
 9189SOL    HW228467   2.896   1.163   3.222
 9190SOL     OW28468   5.741   3.431   5.282
 9190SOL    HW128469   5.674   3.493   5.240
 9190SOL    HW228470   5.698   3.343   5.300
 9191SOL     OW28471   5.482   6.325   6.834
 9191SOL    HW128472   5.395   6.339   6.786
 9191SOL    HW228473   5.467   6.263   6.911
 9192SOL     OW28474   6.229   4.071   5.342
 9192SOL    HW128475   6.288   4.036   5.270
 9192SOL    HW228476   6.153   4.008   5.358
 9193SOL     OW28477   3.352   3.223   4.018
 9193SOL    HW128478   3.390   3.210   3.926
 9193SOL    HW228479   3.258   3.192   4.021
 9194SOL     OW28480   3.573   6.017   2.226
 9194SOL    HW128481   3.651   6.076   2.249
 9194SOL    HW228482   3.606   5.924   2.208
 9195SOL     OW28483   0.756   2.892   3.354
 9195SOL    HW128484   0.781   2.883   3.257
 9195SOL    HW228485   0.709   2.810   3.384
 9196SOL     OW28486   3.600   0.329   3.828
 9196SOL    HW128487   3.618   0.231   3.825
 9196SOL    HW228488   3.585   0.363   3.735
 9197SOL     OW28489   2.519   3.354   0.157
 9197SOL    HW128490   2.427   3.385   0.131
 9197SOL    HW228491   2.587   3.400   0.101
 9198SOL     OW28492   5.567   4.381   5.837
 9198SOL    HW128493   5.483   4.329   5.854
 9198SOL    HW228494   5.624   4.380   5.919
 9199SOL     OW28495   0.949   3.759   5.909
 9199SOL    HW128496   0.975   3.822   5.982
 9199SOL    HW228497   0.975   3.666   5.934
 9200SOL     OW28498   0.450   6.168   0.862
 9200SOL    HW128499   0.455   6.176   0.961
 9200SOL    HW228500   0.363   6.127   0.836
 9201SOL     OW28501   0.327   4.291   1.900
 9201SOL    HW128502   0.296   4.352   1.973
 9201SOL    HW228503   0.382   4.344   1.834
 9202SOL     OW28504   2.010   5.113   4.394
 9202SOL    HW128505   2.006   5.171   4.313
 9202SOL    HW228506   1.955   5.152   4.467
 9203SOL     OW28507   5.366   1.649   6.644
 9203SOL    HW128508   5.395   1.670   6.550
 9203SOL    HW228509   5.415   1.569   6.677
 9204SOL     OW28510   5.740   4.016   2.863
 9204SOL    HW128511   5.719   4.034   2.959
 9204SOL    HW228512   5.825   3.965   2.857
 9205SOL     OW28513   5.167   3.309   2.723
 9205SOL    HW128514   5.090   3.335   2.665
 9205SOL    HW228515   5.185   3.211   2.713
 9206SOL     OW28516   2.691   6.155   4.901
 9206SOL    HW128517   2.623   6.225   4.880
 9206SOL    HW228518   2.771   6.168   4.842
 9207SOL     OW28519   3.675   6.345   5.981
 9207SOL    HW128520   3.655   6.441   5.966
 9207SOL    HW228521   3.699   6.301   5.894
 9208SOL     OW28522   4.889   3.353   2.337
 9208SOL    HW128523   4.884   3.258   2.306
 9208SOL    HW228524   4.960   3.401   2.285
 9209SOL     OW28525   4.292   0.818   2.530
 9209SOL    HW128526   4.355   0.824   2.607
 9209SOL    HW228527   4.202   0.789   2.562
 9210SOL     OW28528   2.305   6.513   1.528
 9210SOL    HW128529   2.211   6.515   1.494
 9210SOL    HW228530   2.365   6.472   1.459
 9211SOL     OW28531   5.803   1.452   6.181
 9211SOL    HW128532   5.824   1.365   6.137
 9211SOL    HW228533   5.846   1.454   6.272
 9212SOL     OW28534   4.650   4.397   4.618
 9212SOL    HW128535   4.602   4.459   4.679
 9212SOL    HW228536   4.655   4.306   4.659
 9213SOL     OW28537   5.822   0.162   4.631
 9213SOL    HW128538   5.912   0.119   4.637
 9213SOL    HW228539   5.833   0.261   4.617
 9214SOL     OW28540   1.501   2.622   4.838
 9214SOL    HW128541   1.582   2.634   4.895
 9214SOL    HW228542   1.521   2.558   4.764
 9215SOL     OW28543   0.519   4.370   2.454
 9215SOL    HW128544   0.450   4.384   2.383
 9215SOL    HW228545   0.476   4.382   2.544
 9216SOL     OW28546   2.911   5.887   4.767
 9216SOL    HW128547   2.886   5.810   4.827
 9216SOL    HW228548   2.948   5.962   4.823
 9217SOL     OW28549   5.167   0.919   6.271
 9217SOL    HW128550   5.095   0.983   6.243
 9217SOL    HW228551   5.138   0.873   6.356
 9218SOL     OW28552   4.722   0.037   6.747
 9218SOL    HW128553   4.706   6.961   6.739
 9218SOL    HW228554   4.819   0.056   6.733
 9219SOL     OW28555   3.801   3.289   5.335
 9219SOL    HW128556   3.739   3.234   5.280
 9219SOL    HW228557   3.815   3.244   5.424
 9220SOL     OW28558   2.342   6.221   3.098
 9220SOL    HW128559   2.331   6.259   3.006
 9220SOL    HW228560   2.280   6.269   3.161
 9221SOL     OW28561   2.638   0.448   5.951
 9221SOL    HW128562   2.713   0.402   5.998
 9221SOL    HW228563   2.608   0.526   6.006
 9222SOL     OW28564   2.546   4.843   4.169
 9222SOL    HW128565   2.600   4.777   4.117
 9222SOL    HW228566   2.449   4.828   4.152
 9223SOL     OW28567   0.925   4.006   4.334
 9223SOL    HW128568   1.021   4.020   4.358
 9223SOL    HW228569   0.901   4.068   4.259
 9224SOL     OW28570   1.165   4.109   3.995
 9224SOL    HW128571   1.264   4.112   4.010
 9224SOL    HW228572   1.142   4.162   3.913
 9225SOL     OW28573   3.697   6.347   5.698
 9225SOL    HW128574   3.703   6.277   5.627
 9225SOL    HW228575   3.789   6.366   5.733
 9226SOL     OW28576   0.992   0.290   1.065
 9226SOL    HW128577   1.015   0.262   1.158
 9226SOL    HW228578   0.917   0.233   1.031
 9227SOL     OW28579   1.721   5.577   1.020
 9227SOL    HW128580   1.735   5.552   0.924
 9227SOL    HW228581   1.805   5.562   1.071
 9228SOL     OW28582   2.012   2.685   5.815
 9228SOL    HW128583   1.944   2.681   5.888
 9228SOL    HW228584   2.102   2.706   5.854
 9229SOL     OW28585   0.582   4.770   6.549
 9229SOL    HW128586   0.556   4.842   6.613
 9229SOL    HW228587   0.501   4.719   6.521
 9230SOL     OW28588   5.088   2.526   4.615
 9230SOL    HW128589   5.042   2.598   4.563
 9230SOL    HW228590   5.113   2.451   4.553
 9231SOL     OW28591   0.377   4.778   5.449
 9231SOL    HW128592   0.432   4.834   5.387
 9231SOL    HW228593   0.280   4.793   5.431
 9232SOL     OW28594   2.063   5.498   1.884
 9232SOL    HW128595   2.128   5.461   1.817
 9232SOL    HW228596   2.063   5.440   1.966
 9233SOL     OW28597   0.564   6.451   0.476
 9233SOL    HW128598   0.640   6.488   0.423
 9233SOL    HW228599   0.563   6.352   0.467
 9234SOL     OW28600   2.277   5.231   1.425
 9234SOL    HW128601   2.223   5.148   1.410
 9234SOL    HW228602   2.294   5.242   1.523
 9235SOL     OW28603   2.259   2.424   3.169
 9235SOL    HW128604   2.229   2.402   3.076
 9235SOL    HW228605   2.341   2.481   3.166
 9236SOL     OW28606   1.918   4.034   0.182
 9236SOL    HW128607   1.959   4.048   0.092
 9236SOL    HW228608   1.948   3.945   0.217
 9237SOL     OW28609   6.762   5.591   3.134
 9237SOL    HW128610   6.758   5.659   3.208
 9237SOL    HW228611   6.836   5.615   3.072
 9238SOL     OW28612   1.777   3.231   5.430
 9238SOL    HW128613   1.812   3.137   5.425
 9238SOL    HW228614   1.790   3.277   5.343
 9239SOL     OW28615   6.779   4.310   0.167
 9239SOL    HW128616   6.734   4.260   0.240
 9239SOL    HW228617   6.762   4.408   0.178
 9240SOL     OW28618   5.228   3.121   3.068
 9240SOL    HW128619   5.131   3.104   3.051
 9240SOL    HW228620   5.283   3.070   3.002
 9241SOL     OW28621   0.165   5.602   6.984
 9241SOL    HW128622   0.094   5.581   0.029
 9241SOL    HW228623   0.179   5.701   6.979
 9242SOL     OW28624   1.891   2.309   1.786
 9242SOL    HW128625   1.964   2.314   1.854
 9242SOL    HW228626   1.860   2.402   1.763
 9243SOL     OW28627   0.469   6.522   1.613
 9243SOL    HW128628   0.538   6.518   1.685
 9243SOL    HW228629   0.491   6.454   1.543
 9244SOL     OW28630   3.188   6.538   5.725
 9244SOL    HW128631   3.269   6.480   5.716
 9244SOL    HW228632   3.215   6.633   5.715
 9245SOL     OW28633   1.040   4.235   3.754
 9245SOL    HW128634   1.102   4.266   3.682
 9245SOL    HW228635   0.968   4.178   3.715
 9246SOL     OW28636   6.057   0.012   4.603
 9246SOL    HW128637   6.120   6.991   4.668
 9246SOL    HW228638   6.090   7.019   4.510
 9247SOL     OW28639   3.562   5.398   2.943
 9247SOL    HW128640   3.546   5.481   2.996
 9247SOL    HW228641   3.660   5.385   2.930
 9248SOL     OW28642   2.726   1.234   4.778
 9248SOL    HW128643   2.644   1.203   4.827
 9248SOL    HW228644   2.807   1.218   4.834
 9249SOL     OW28645   3.641   4.790   1.640
 9249SOL    HW128646   3.604   4.882   1.634
 9249SOL    HW228647   3.596   4.740   1.714
 9250SOL     OW28648   6.924   4.781   3.985
 9250SOL    HW128649   6.898   4.832   3.903
 9250SOL    HW228650   7.016   4.744   3.974
 9251SOL     OW28651   3.914   2.751   1.452
 9251SOL    HW128652   3.857   2.820   1.406
 9251SOL    HW228653   3.874   2.661   1.437
 9252SOL     OW28654   4.271   0.409   5.009
 9252SOL    HW128655   4.194   0.471   4.994
 9252SOL    HW228656   4.279   0.345   4.933
 9253SOL     OW28657   6.152   5.020   5.823
 9253SOL    HW128658   6.113   4.993   5.910
 9253SOL    HW228659   6.150   4.942   5.760
 9254SOL     OW28660   5.680   4.719   2.579
 9254SOL    HW128661   5.776   4.728   2.553
 9254SOL    HW228662   5.656   4.622   2.584
 9255SOL     OW28663   6.351   3.700   6.736
 9255SOL    HW128664   6.258   3.731   6.756
 9255SOL    HW228665   6.348   3.609   6.694
 9256SOL     OW28666   1.788   6.859   1.781
 9256SOL    HW128667   1.709   6.899   1.736
 9256SOL    HW228668   1.865   6.856   1.717
 9257SOL     OW28669   5.991   5.624   3.530
 9257SOL    HW128670   5.927   5.556   3.493
 9257SOL    HW228671   6.028   5.679   3.454
 9258SOL     OW28672   3.328   3.640   0.222
 9258SOL    HW128673   3.381   3.555   0.227
 9258SOL    HW228674   3.333   3.687   0.310
 9259SOL     OW28675   1.976   1.727   0.130
 9259SOL    HW128676   2.003   1.822   0.118
 9259SOL    HW228677   1.876   1.721   0.134
 9260SOL     OW28678   6.297   2.987   5.633
 9260SOL    HW128679   6.239   3.066   5.654
 9260SOL    HW228680   6.304   2.976   5.534
 9261SOL     OW28681   4.468   1.259   0.549
 9261SOL    HW128682   4.387   1.220   0.505
 9261SOL    HW228683   4.540   1.189   0.552
 9262SOL     OW28684   0.265   6.479   4.560
 9262SOL    HW128685   0.201   6.405   4.538
 9262SOL    HW228686   0.215   6.553   4.605
 9263SOL     OW28687   3.147   5.563   2.963
 9263SOL    HW128688   3.210   5.639   2.947
 9263SOL    HW228689   3.079   5.560   2.890
 9264SOL     OW28690   5.558   3.954   6.598
 9264SOL    HW128691   5.601   3.865   6.581
 9264SOL    HW228692   5.523   3.957   6.692
 9265SOL     OW28693   3.363   2.179   6.349
 9265SOL    HW128694   3.436   2.171   6.416
 9265SOL    HW228695   3.396   2.146   6.260
 9266SOL     OW28696   0.568   4.951   1.816
 9266SOL    HW128697   0.611   5.037   1.788
 9266SOL    HW228698   0.544   4.956   1.913
 9267SOL     OW28699   0.457   1.893   3.969
 9267SOL    HW128700   0.407   1.966   3.921
 9267SOL    HW228701   0.554   1.897   3.944
 9268SOL     OW28702   0.359   6.342   2.090
 9268SOL    HW128703   0.358   6.266   2.025
 9268SOL    HW228704   0.276   6.398   2.077
 9269SOL     OW28705   4.712   0.497   6.982
 9269SOL    HW128706   4.640   0.539   6.926
 9269SOL    HW228707   4.780   0.567   7.006
 9270SOL     OW28708   3.608   1.538   5.830
 9270SOL    HW128709   3.695   1.577   5.797
 9270SOL    HW228710   3.547   1.613   5.858
 9271SOL     OW28711   1.112   0.574   0.160
 9271SOL    HW128712   1.117   0.577   0.060
 9271SOL    HW228713   1.192   0.621   0.198
 9272SOL     OW28714   0.711   6.355   5.790
 9272SOL    HW128715   0.729   6.448   5.759
 9272SOL    HW228716   0.656   6.308   5.721
 9273SOL     OW28717   5.309   5.934   4.031
 9273SOL    HW128718   5.273   5.926   3.938
 9273SOL    HW228719   5.408   5.921   4.030
 9274SOL     OW28720   0.407   3.208   0.454
 9274SOL    HW128721   0.411   3.307   0.442
 9274SOL    HW228722   0.495   3.175   0.488
 9275SOL     OW28723   0.908   6.535   1.073
 9275SOL    HW128724   0.908   6.437   1.093
 9275SOL    HW228725   0.973   6.582   1.133
 9276SOL     OW28726   3.552   4.812   6.467
 9276SOL    HW128727   3.467   4.841   6.422
 9276SOL    HW228728   3.535   4.799   6.564
 9277SOL     OW28729   4.025   4.897   2.337
 9277SOL    HW128730   4.061   4.923   2.427
 9277SOL    HW228731   3.928   4.872   2.346
 9278SOL     OW28732   0.427   0.289   4.714
 9278SOL    HW128733   0.489   0.214   4.736
 9278SOL    HW228734   0.353   0.255   4.656
 9279SOL     OW28735   3.586   5.915   1.547
 9279SOL    HW128736   3.672   5.865   1.555
 9279SOL    HW228737   3.605   6.012   1.535
 9280SOL     OW28738   1.610   1.626   2.318
 9280SOL    HW128739   1.637   1.704   2.374
 9280SOL    HW228740   1.521   1.645   2.276
 9281SOL     OW28741   3.456   3.727   6.191
 9281SOL    HW128742   3.413   3.816   6.173
 9281SOL    HW228743   3.409   3.657   6.137
 9282SOL     OW28744   3.773   0.652   4.633
 9282SOL    HW128745   3.805   0.690   4.547
 9282SOL    HW228746   3.696   0.706   4.667
 9283SOL     OW28747   5.503   0.089   6.296
 9283SOL    HW128748   5.420   0.077   6.351
 9283SOL    HW228749   5.493   0.040   6.210
 9284SOL     OW28750   3.510   3.581   5.333
 9284SOL    HW128751   3.434   3.537   5.380
 9284SOL    HW228752   3.522   3.540   5.243
 9285SOL     OW28753   5.414   3.125   2.018
 9285SOL    HW128754   5.460   3.111   1.930
 9285SOL    HW228755   5.428   3.220   2.048
 9286SOL     OW28756   4.970   6.360   0.263
 9286SOL    HW128757   4.991   6.320   0.174
 9286SOL    HW228758   5.050   6.353   0.322
 9287SOL     OW28759   2.206   4.436   6.046
 9287SOL    HW128760   2.240   4.523   6.083
 9287SOL    HW228761   2.267   4.404   5.974
 9288SOL     OW28762   4.400   2.336   3.672
 9288SOL    HW128763   4.473   2.271   3.691
 9288SOL    HW228764   4.335   2.295   3.608
 9289SOL     OW28765   4.174   0.049   5.988
 9289SOL    HW128766   4.103   0.042   6.059
 9289SOL    HW228767   4.264   0.053   6.032
 9290SOL     OW28768   5.403   0.754   4.493
 9290SOL    HW128769   5.455   0.816   4.552
 9290SOL    HW228770   5.390   0.797   4.403
 9291SOL     OW28771   1.478   6.510   5.641
 9291SOL    HW128772   1.405   6.579   5.636
 9291SOL    HW228773   1.558   6.550   5.686
 9292SOL     OW28774   1.584   1.455   5.758
 9292SOL    HW128775   1.639   1.520   5.707
 9292SOL    HW228776   1.643   1.387   5.802
 9293SOL     OW28777   4.822   3.008   6.352
 9293SOL    HW128778   4.864   3.089   6.311
 9293SOL    HW228779   4.782   3.032   6.440
 9294SOL     OW28780   4.879   1.152   0.526
 9294SOL    HW128781   4.847   1.236   0.480
 9294SOL    HW228782   4.802   1.088   0.533
 9295SOL     OW28783   1.260   0.767   5.094
 9295SOL    HW128784   1.208   0.852   5.081
 9295SOL    HW228785   1.206   0.690   5.062
 9296SOL     OW28786   2.613   3.631   1.256
 9296SOL    HW128787   2.525   3.674   1.274
 9296SOL    HW228788   2.661   3.684   1.186
 9297SOL     OW28789   0.377   5.396   3.065
 9297SOL    HW128790   0.422   5.372   3.151
 9297SOL    HW228791   0.347   5.492   3.069
 9298SOL     OW28792   1.180   0.023   5.791
 9298SOL    HW128793   1.096   0.007   5.739
 9298SOL    HW228794   1.172   7.000   5.881
 9299SOL     OW28795   2.188   1.669   3.938
 9299SOL    HW128796   2.233   1.674   4.027
 9299SOL    HW228797   2.110   1.731   3.936
 9300SOL     OW28798   1.266   6.128   4.951
 9300SOL    HW128799   1.214   6.120   5.036
 9300SOL    HW228800   1.249   6.048   4.894
 9301SOL     OW28801   0.142   4.142   4.561
 9301SOL    HW128802   0.151   4.060   4.506
 9301SOL    HW228803   0.057   4.138   4.613
 9302SOL     OW28804   1.837   3.080   4.990
 9302SOL    HW128805   1.877   3.000   5.035
 9302SOL    HW228806   1.860   3.079   4.893
 9303SOL     OW28807   3.254   4.143   6.615
 9303SOL    HW128808   3.206   4.170   6.699
 9303SOL    HW228809   3.343   4.104   6.639
 9304SOL     OW28810   4.986   5.159   0.469
 9304SOL    HW128811   4.945   5.074   0.502
 9304SOL    HW228812   5.085   5.148   0.463
 9305SOL     OW28813   2.831   1.683   1.223
 9305SOL    HW128814   2.826   1.770   1.272
 9305SOL    HW228815   2.903   1.626   1.262
 9306SOL     OW28816   6.880   4.032   4.328
 9306SOL    HW128817   6.845   4.114   4.374
 9306SOL    HW228818   6.938   4.059   4.251
 9307SOL     OW28819   1.876   3.906   0.739
 9307SOL    HW128820   1.970   3.895   0.709
 9307SOL    HW228821   1.856   4.003   0.753
 9308SOL     OW28822   1.455   4.972   1.776
 9308SOL    HW128823   1.455   4.982   1.676
 9308SOL    HW228824   1.489   5.057   1.817
 9309SOL     OW28825   5.091   5.917   5.994
 9309SOL    HW128826   5.012   5.857   6.010
 9309SOL    HW228827   5.070   5.981   5.920
 9310SOL     OW28828   4.767   5.593   5.712
 9310SOL    HW128829   4.701   5.661   5.742
 9310SOL    HW228830   4.723   5.503   5.710
 9311SOL     OW28831   4.505   3.381   1.387
 9311SOL    HW128832   4.498   3.282   1.390
 9311SOL    HW228833   4.492   3.419   1.478
 9312SOL     OW28834   1.566   2.087   0.937
 9312SOL    HW128835   1.532   1.997   0.966
 9312SOL    HW228836   1.630   2.076   0.862
 9313SOL     OW28837   1.361   0.642   1.870
 9313SOL    HW128838   1.393   0.558   1.914
 9313SOL    HW228839   1.320   0.621   1.782
 9314SOL     OW28840   5.622   2.958   0.612
 9314SOL    HW128841   5.582   2.870   0.640
 9314SOL    HW228842   5.581   3.031   0.666
 9315SOL     OW28843   5.930   0.907   6.460
 9315SOL    HW128844   6.026   0.912   6.435
 9315SOL    HW228845   5.922   0.898   6.559
 9316SOL     OW28846   5.105   0.048   5.271
 9316SOL    HW128847   5.008   0.075   5.274
 9316SOL    HW228848   5.148   0.089   5.191
 9317SOL     OW28849   3.201   5.165   3.215
 9317SOL    HW128850   3.119   5.117   3.246
 9317SOL    HW228851   3.189   5.193   3.120
 9318SOL     OW28852   5.714   5.763   0.222
 9318SOL    HW128853   5.801   5.809   0.209
 9318SOL    HW228854   5.639   5.826   0.200
 9319SOL     OW28855   2.788   3.777   1.083
 9319SOL    HW128856   2.769   3.727   0.998
 9319SOL    HW228857   2.842   3.858   1.063
 9320SOL     OW28858   5.246   0.420   6.303
 9320SOL    HW128859   5.254   0.483   6.225
 9320SOL    HW228860   5.274   0.328   6.275
 9321SOL     OW28861   0.683   2.124   5.657
 9321SOL    HW128862   0.631   2.077   5.729
 9321SOL    HW228863   0.691   2.063   5.578
 9322SOL     OW28864   6.439   4.474   6.048
 9322SOL    HW128865   6.373   4.474   6.123
 9322SOL    HW228866   6.405   4.534   5.975
 9323SOL     OW28867   1.890   2.916   3.942
 9323SOL    HW128868   1.903   2.824   3.978
 9323SOL    HW228869   1.977   2.966   3.947
 9324SOL     OW28870   0.890   3.905   0.547
 9324SOL    HW128871   0.832   3.922   0.467
 9324SOL    HW228872   0.834   3.906   0.630
 9325SOL     OW28873   2.140   5.709   1.620
 9325SOL    HW128874   2.219   5.744   1.569
 9325SOL    HW228875   2.166   5.694   1.716
 9326SOL     OW28876   3.943   4.859   0.709
 9326SOL    HW128877   4.029   4.832   0.754
 9326SOL    HW228878   3.961   4.877   0.613
 9327SOL     OW28879   4.428   0.511   3.134
 9327SOL    HW128880   4.510   0.520   3.077
 9327SOL    HW228881   4.454   0.522   3.230
 9328SOL     OW28882   3.041   6.833   4.789
 9328SOL    HW128883   3.047   6.767   4.863
 9328SOL    HW228884   2.945   6.852   4.768
 9329SOL     OW28885   0.094   5.927   6.550
 9329SOL    HW128886   0.116   5.854   6.615
 9329SOL    HW228887   0.006   5.908   6.506
 9330SOL     OW28888   0.319   0.061   6.285
 9330SOL    HW128889   0.415   0.082   6.304
 9330SOL    HW228890   0.307   6.984   6.281
 9331SOL     OW28891   1.650   2.769   5.111
 9331SOL    HW128892   1.666   2.820   5.195
 9331SOL    HW228893   1.599   2.827   5.047
 9332SOL     OW28894   4.102   5.694   0.466
 9332SOL    HW128895   4.151   5.781   0.475
 9332SOL    HW228896   4.145   5.626   0.526
 9333SOL     OW28897   3.499   5.301   0.765
 9333SOL    HW128898   3.402   5.320   0.749
 9333SOL    HW228899   3.509   5.211   0.808
 9334SOL     OW28900   4.877   6.688   4.178
 9334SOL    HW128901   4.852   6.629   4.254
 9334SOL    HW228902   4.961   6.738   4.200
 9335SOL     OW28903   1.822   2.300   0.978
 9335SOL    HW128904   1.764   2.239   1.032
 9335SOL    HW228905   1.909   2.254   0.958
 9336SOL     OW28906   6.033   0.273   5.108
 9336SOL    HW128907   6.119   0.264   5.057
 9336SOL    HW228908   5.959   0.229   5.057
 9337SOL     OW28909   4.312   0.081   6.806
 9337SOL    HW128910   4.381   0.130   6.858
 9337SOL    HW228911   4.341   0.073   6.710
 9338SOL     OW28912   0.172   6.017   0.220
 9338SOL    HW128913   0.264   6.055   0.232
 9338SOL    HW228914   0.107   6.091   0.204
 9339SOL     OW28915   5.692   5.290   6.582
 9339SOL    HW128916   5.636   5.213   6.555
 9339SOL    HW228917   5.633   5.368   6.604
 9340SOL     OW28918   3.833   6.071   2.673
 9340SOL    HW128919   3.789   5.994   2.627
 9340SOL    HW228920   3.764   6.141   2.694
 9341SOL     OW28921   6.260   4.515   6.319
 9341SOL    HW128922   6.290   4.451   6.389
 9341SOL    HW228923   6.172   4.486   6.282
 9342SOL     OW28924   2.988   0.582   4.778
 9342SOL    HW128925   2.889   0.599   4.777
 9342SOL    HW228926   3.024   0.587   4.685
 9343SOL     OW28927   4.703   3.906   1.770
 9343SOL    HW128928   4.782   3.968   1.769
 9343SOL    HW228929   4.732   3.817   1.805
 9344SOL     OW28930   5.479   5.237   6.241
 9344SOL    HW128931   5.512   5.144   6.252
 9344SOL    HW228932   5.404   5.253   6.306
 9345SOL     OW28933   6.715   5.978   7.017
 9345SOL    HW128934   6.719   5.946   6.922
 9345SOL    HW228935   6.745   6.073   0.001
 9346SOL     OW28936   5.305   6.371   2.691
 9346SOL    HW128937   5.285   6.363   2.788
 9346SOL    HW228938   5.283   6.285   2.645
 9347SOL     OW28939   3.607   5.497   0.933
 9347SOL    HW128940   3.562   5.433   0.871
 9347SOL    HW228941   3.700   5.516   0.901
 9348SOL     OW28942   2.793   5.917   3.244
 9348SOL    HW128943   2.718   5.963   3.196
 9348SOL    HW228944   2.881   5.948   3.207
 9349SOL     OW28945   0.019   5.603   2.294
 9349SOL    HW128946   0.078   5.589   2.214
 9349SOL    HW228947   0.009   5.701   2.311
 9350SOL     OW28948   6.895   1.338   4.573
 9350SOL    HW128949   6.912   1.255   4.520
 9350SOL    HW228950   6.982   1.375   4.605
 9351SOL     OW28951   1.879   1.082   5.482
 9351SOL    HW128952   1.857   1.051   5.574
 9351SOL    HW228953   1.978   1.089   5.472
 9352SOL     OW28954   1.135   2.784   5.654
 9352SOL    HW128955   1.186   2.827   5.729
 9352SOL    HW228956   1.175   2.812   5.567
 9353SOL     OW28957   1.614   4.035   2.016
 9353SOL    HW128958   1.653   3.942   2.021
 9353SOL    HW228959   1.668   4.096   2.074
 9354SOL     OW28960   6.720   2.231   1.166
 9354SOL    HW128961   6.802   2.264   1.121
 9354SOL    HW228962   6.694   2.143   1.128
 9355SOL     OW28963   6.259   1.038   4.429
 9355SOL    HW128964   6.203   0.960   4.402
 9355SOL    HW228965   6.200   1.114   4.456
 9356SOL     OW28966   4.848   5.023   1.836
 9356SOL    HW128967   4.848   5.003   1.934
 9356SOL    HW228968   4.797   4.952   1.787
 9357SOL     OW28969   2.564   4.022   0.260
 9357SOL    HW128970   2.599   4.064   0.177
 9357SOL    HW228971   2.511   3.941   0.236
 9358SOL     OW28972   5.653   3.705   2.058
 9358SOL    HW128973   5.582   3.759   2.104
 9358SOL    HW228974   5.708   3.657   2.127
 9359SOL     OW28975   6.741   3.598   5.672
 9359SOL    HW128976   6.733   3.550   5.584
 9359SOL    HW228977   6.837   3.622   5.687
 9360SOL     OW28978   1.696   0.175   5.737
 9360SOL    HW128979   1.684   0.079   5.711
 9360SOL    HW228980   1.716   0.180   5.835
 9361SOL     OW28981   2.903   6.689   3.063
 9361SOL    HW128982   2.864   6.615   3.117
 9361SOL    HW228983   2.833   6.725   3.001
 9362SOL     OW28984   1.775   1.188   1.898
 9362SOL    HW128985   1.748   1.104   1.850
 9362SOL    HW228986   1.865   1.175   1.939
 9363SOL     OW28987   3.781   5.721   1.534
 9363SOL    HW128988   3.876   5.718   1.565
 9363SOL    HW228989   3.736   5.634   1.556
 9364SOL     OW28990   3.591   3.132   6.207
 9364SOL    HW128991   3.615   3.219   6.250
 9364SOL    HW228992   3.673   3.089   6.169
 9365SOL     OW28993   2.371   2.490   4.833
 9365SOL    HW128994   2.361   2.550   4.912
 9365SOL    HW228995   2.457   2.440   4.839
 9366SOL     OW28996   3.015   1.950   0.085
 9366SOL    HW128997   3.040   2.042   0.114
 9366SOL    HW228998   2.948   1.955   0.011
 9367SOL     OW28999   6.845   5.777   3.766
 9367SOL    HW129000   6.752   5.773   3.729
 9367SOL    HW229001   6.870   5.687   3.802
 9368SOL     OW29002   3.441   1.963   2.920
 9368SOL    HW129003   3.490   2.043   2.952
 9368SOL    HW229004   3.489   1.880   2.948
 9369SOL     OW29005   0.149   1.007   5.932
 9369SOL    HW129006   0.116   0.919   5.899
 9369SOL    HW229007   0.074   1.059   5.971
 9370SOL     OW29008   5.453   0.582   2.597
 9370SOL    HW129009   5.548   0.571   2.626
 9370SOL    HW229010   5.422   0.674   2.621
 9371SOL     OW29011   1.883   5.382   6.983
 9371SOL    HW129012   1.830   5.349   0.040
 9371SOL    HW229013   1.827   5.378   6.901
 9372SOL     OW29014   6.223   6.293   2.923
 9372SOL    HW129015   6.303   6.309   2.982
 9372SOL    HW229016   6.178   6.380   2.904
 9373SOL     OW29017   4.353   2.223   2.984
 9373SOL    HW129018   4.400   2.143   2.948
 9373SOL    HW229019   4.389   2.305   2.940
 9374SOL     OW29020   6.221   2.922   6.936
 9374SOL    HW129021   6.269   3.009   6.951
 9374SOL    HW229022   6.269   2.849   6.986
 9375SOL     OW29023   6.916   1.606   3.446
 9375SOL    HW129024   6.843   1.538   3.446
 9375SOL    HW229025   6.944   1.624   3.540
 9376SOL     OW29026   3.005   3.757   0.846
 9376SOL    HW129027   3.089   3.714   0.878
 9376SOL    HW229028   2.933   3.688   0.837
 9377SOL     OW29029   0.833   5.112   3.519
 9377SOL    HW129030   0.772   5.061   3.458
 9377SOL    HW229031   0.876   5.187   3.469
 9378SOL     OW29032   1.576   0.266   5.512
 9378SOL    HW129033   1.653   0.236   5.568
 9378SOL    HW229034   1.559   0.200   5.439
 9379SOL     OW29035   4.857   4.820   5.097
 9379SOL    HW129036   4.818   4.885   5.031
 9379SOL    HW229037   4.934   4.773   5.056
 9380SOL     OW29038   6.100   5.285   5.086
 9380SOL    HW129039   6.108   5.332   5.174
 9380SOL    HW229040   6.012   5.237   5.082
 9381SOL     OW29041   2.613   3.289   5.997
 9381SOL    HW129042   2.592   3.302   6.094
 9381SOL    HW229043   2.542   3.334   5.942
 9382SOL     OW29044   3.346   1.356   2.655
 9382SOL    HW129045   3.434   1.315   2.677
 9382SOL    HW229046   3.350   1.454   2.675
 9383SOL     OW29047   3.303   6.184   5.075
 9383SOL    HW129048   3.230   6.242   5.111
 9383SOL    HW229049   3.391   6.229   5.088
 9384SOL     OW29050   4.240   6.422   1.391
 9384SOL    HW129051   4.282   6.510   1.369
 9384SOL    HW229052   4.265   6.356   1.320
 9385SOL     OW29053   3.972   1.789   1.997
 9385SOL    HW129054   4.056   1.827   2.036
 9385SOL    HW229055   3.898   1.796   2.063
 9386SOL     OW29056   2.262   6.061   5.050
 9386SOL    HW129057   2.211   6.020   5.126
 9386SOL    HW229058   2.310   6.142   5.083
 9387SOL     OW29059   4.227   0.293   0.230
 9387SOL    HW129060   4.247   0.196   0.216
 9387SOL    HW229061   4.196   0.334   0.144
 9388SOL     OW29062   1.546   5.965   2.651
 9388SOL    HW129063   1.473   6.007   2.706
 9388SOL    HW229064   1.592   5.894   2.705
 9389SOL     OW29065   2.568   0.545   5.700
 9389SOL    HW129066   2.558   0.463   5.644
 9389SOL    HW229067   2.591   0.518   5.794
 9390SOL     OW29068   3.788   6.211   4.338
 9390SOL    HW129069   3.816   6.124   4.298
 9390SOL    HW229070   3.861   6.246   4.396
 9391SOL     OW29071   2.157   1.066   5.507
 9391SOL    HW129072   2.247   1.108   5.492
 9391SOL    HW229073   2.164   1.000   5.582
 9392SOL     OW29074   0.112   0.101   5.083
 9392SOL    HW129075   0.153   0.035   5.147
 9392SOL    HW229076   0.116   0.064   4.991
 9393SOL     OW29077   3.601   1.425   4.738
 9393SOL    HW129078   3.654   1.387   4.813
 9393SOL    HW229079   3.583   1.522   4.755
 9394SOL     OW29080   6.378   1.390   3.167
 9394SOL    HW129081   6.389   1.313   3.230
 9394SOL    HW229082   6.353   1.356   3.076
 9395SOL     OW29083   2.801   2.537   0.074
 9395SOL    HW129084   2.722   2.477   0.088
 9395SOL    HW229085   2.802   2.569   7.001
 9396SOL     OW29086   0.109   5.905   4.406
 9396SOL    HW129087   0.150   5.860   4.485
 9396SOL    HW229088   0.178   5.960   4.359
 9397SOL     OW29089   2.735   0.356   0.105
 9397SOL    HW129090   2.788   0.275   0.129
 9397SOL    HW229091   2.671   0.333   0.031
 9398SOL     OW29092   1.937   0.610   6.024
 9398SOL    HW129093   1.982   0.558   5.952
 9398SOL    HW229094   1.857   0.559   6.056
 9399SOL     OW29095   0.761   1.713   6.830
 9399SOL    HW129096   0.694   1.678   6.765
 9399SOL    HW229097   0.727   1.700   6.923
 9400SOL     OW29098   5.217   3.026   1.375
 9400SOL    HW129099   5.151   2.960   1.340
 9400SOL    HW229100   5.280   3.053   1.302
 9401SOL     OW29101   3.780   6.347   3.229
 9401SOL    HW129102   3.829   6.276   3.179
 9401SOL    HW229103   3.750   6.311   3.317
 9402SOL     OW29104   1.033   4.945   4.925
 9402SOL    HW129105   0.945   4.948   4.877
 9402SOL    HW229106   1.044   5.027   4.980
 9403SOL     OW29107   5.129   2.072   2.976
 9403SOL    HW129108   5.137   1.983   3.021
 9403SOL    HW229109   5.186   2.139   3.025
 9404SOL     OW29110   0.724   4.304   6.405
 9404SOL    HW129111   0.744   4.228   6.343
 9404SOL    HW229112   0.798   4.371   6.400
 9405SOL     OW29113   0.139   6.811   2.780
 9405SOL    HW129114   0.142   6.834   2.878
 9405SOL    HW229115   0.218   6.850   2.734
 9406SOL     OW29116   0.051   2.335   6.027
 9406SOL    HW129117   0.149   2.318   6.016
 9406SOL    HW229118   0.013   2.270   6.093
 9407SOL     OW29119   2.379   5.396   3.336
 9407SOL    HW129120   2.315   5.321   3.348
 9407SOL    HW229121   2.429   5.411   3.421
 9408SOL     OW29122   3.978   1.984   6.376
 9408SOL    HW129123   4.037   2.059   6.405
 9408SOL    HW229124   3.884   2.002   6.408
 9409SOL     OW29125   5.450   4.556   5.644
 9409SOL    HW129126   5.490   4.512   5.724
 9409SOL    HW229127   5.402   4.639   5.672
 9410SOL     OW29128   4.051   5.686   1.502
 9410SOL    HW129129   4.119   5.682   1.575
 9410SOL    HW229130   4.081   5.628   1.426
 9411SOL     OW29131   3.799   4.071   1.013
 9411SOL    HW129132   3.865   3.999   0.994
 9411SOL    HW229133   3.835   4.159   0.980
 9412SOL     OW29134   0.217   3.626   1.784
 9412SOL    HW129135   0.277   3.696   1.745
 9412SOL    HW229136   0.154   3.669   1.849
 9413SOL     OW29137   4.255   5.566   4.653
 9413SOL    HW129138   4.212   5.625   4.585
 9413SOL    HW229139   4.322   5.507   4.608
 9414SOL     OW29140   3.333   1.051   3.710
 9414SOL    HW129141   3.395   1.000   3.650
 9414SOL    HW229142   3.377   1.137   3.737
 9415SOL     OW29143   2.404   6.552   2.559
 9415SOL    HW129144   2.326   6.611   2.578
 9415SOL    HW229145   2.389   6.502   2.473
 9416SOL     OW29146   0.684   1.670   1.706
 9416SOL    HW129147   0.721   1.630   1.622
 9416SOL    HW229148   0.696   1.606   1.781
 9417SOL     OW29149   3.916   0.183   5.877
 9417SOL    HW129150   3.992   0.221   5.823
 9417SOL    HW229151   3.905   0.236   5.961
 9418SOL     OW29152   3.170   6.663   0.822
 9418SOL    HW129153   3.086   6.646   0.872
 9418SOL    HW229154   3.228   6.726   0.875
 9419SOL     OW29155   3.488   5.043   5.905
 9419SOL    HW129156   3.471   4.949   5.935
 9419SOL    HW229157   3.570   5.046   5.849
 9420SOL     OW29158   0.238   2.267   4.394
 9420SOL    HW129159   0.227   2.203   4.318
 9420SOL    HW229160   0.271   2.355   4.359
 9421SOL     OW29161   2.346   6.320   5.124
 9421SOL    HW129162   2.254   6.359   5.115
 9421SOL    HW229163   2.413   6.386   5.091
 9422SOL     OW29164   4.821   6.412   2.951
 9422SOL    HW129165   4.747   6.445   3.009
 9422SOL    HW229166   4.883   6.355   3.005
 9423SOL     OW29167   3.418   0.275   3.458
 9423SOL    HW129168   3.473   0.316   3.385
 9423SOL    HW229169   3.337   0.331   3.473
 9424SOL     OW29170   4.720   0.624   4.726
 9424SOL    HW129171   4.810   0.668   4.735
 9424SOL    HW229172   4.648   0.692   4.739
 9425SOL     OW29173   6.992   3.920   6.059
 9425SOL    HW129174   6.915   3.860   6.035
 9425SOL    HW229175   6.957   4.012   6.080
 9426SOL     OW29176   2.851   1.868   0.344
 9426SOL    HW129177   2.820   1.930   0.272
 9426SOL    HW229178   2.948   1.849   0.332
 9427SOL     OW29179   3.128   5.291   4.910
 9427SOL    HW129180   3.057   5.222   4.920
 9427SOL    HW229181   3.200   5.256   4.851
 9428SOL     OW29182   5.208   1.064   1.295
 9428SOL    HW129183   5.194   1.137   1.361
 9428SOL    HW229184   5.249   0.985   1.341
 9429SOL     OW29185   1.644   4.837   1.923
 9429SOL    HW129186   1.592   4.763   1.966
 9429SOL    HW229187   1.586   4.885   1.857
 9430SOL     OW29188   0.705   5.459   2.054
 9430SOL    HW129189   0.735   5.432   1.962
 9430SOL    HW229190   0.785   5.490   2.106
 9431SOL     OW29191   5.766   4.791   1.143
 9431SOL    HW129192   5.703   4.838   1.081
 9431SOL    HW229193   5.713   4.744   1.214
 9432SOL     OW29194   5.899   0.794   3.174
 9432SOL    HW129195   5.888   0.733   3.253
 9432SOL    HW229196   5.994   0.826   3.170
 9433SOL     OW29197   3.187   5.340   3.832
 9433SOL    HW129198   3.100   5.295   3.816
 9433SOL    HW229199   3.247   5.278   3.883
 9434SOL     OW29200   5.711   4.632   3.171
 9434SOL    HW129201   5.681   4.681   3.253
 9434SOL    HW229202   5.810   4.616   3.177
 9435SOL     OW29203   0.763   1.697   3.965
 9435SOL    HW129204   0.700   1.716   3.890
 9435SOL    HW229205   0.824   1.775   3.977
 9436SOL     OW29206   0.861   4.643   2.719
 9436SOL    HW129207   0.776   4.591   2.718
 9436SOL    HW229208   0.910   4.626   2.804
 9437SOL     OW29209   1.229   6.045   3.785
 9437SOL    HW129210   1.274   6.095   3.859
 9437SOL    HW229211   1.134   6.025   3.811
 9438SOL     OW29212   1.046   6.747   1.251
 9438SOL    HW129213   1.118   6.770   1.186
 9438SOL    HW229214   0.980   6.822   1.255
 9439SOL     OW29215   0.006   3.090   2.454
 9439SOL    HW129216   6.937   3.121   2.426
 9439SOL    HW229217   0.056   3.057   2.373
 9440SOL     OW29218   4.195   6.120   4.146
 9440SOL    HW129219   4.225   6.064   4.069
 9440SOL    HW229220   4.276   6.150   4.198
 9441SOL     OW29221   1.233   4.279   4.577
 9441SOL    HW129222   1.323   4.320   4.565
 9441SOL    HW229223   1.231   4.227   4.662
 9442SOL     OW29224   5.706   3.321   0.256
 9442SOL    HW129225   5.804   3.324   0.277
 9442SOL    HW229226   5.662   3.248   0.308
 9443SOL     OW29227   2.628   5.195   1.399
 9443SOL    HW129228   2.571   5.203   1.480
 9443SOL    HW229229   2.656   5.286   1.368
 9444SOL     OW29230   0.782   4.030   6.354
 9444SOL    HW129231   0.760   3.954   6.415
 9444SOL    HW229232   0.866   4.074   6.386
 9445SOL     OW29233   5.277   3.308   2.381
 9445SOL    HW129234   5.211   3.233   2.377
 9445SOL    HW229235   5.239   3.382   2.436
 9446SOL     OW29236   6.231   6.538   4.237
 9446SOL    HW129237   6.184   6.626   4.233
 9446SOL    HW229238   6.278   6.521   4.151
 9447SOL     OW29239   6.084   3.359   3.074
 9447SOL    HW129240   6.175   3.383   3.041
 9447SOL    HW229241   6.090   3.283   3.138
 9448SOL     OW29242   6.393   6.602   6.024
 9448SOL    HW129243   6.479   6.590   6.073
 9448SOL    HW229244   6.390   6.693   5.984
 9449SOL     OW29245   0.343   5.905   6.451
 9449SOL    HW129246   0.258   5.957   6.466
 9449SOL    HW229247   0.321   5.810   6.430
 9450SOL     OW29248   3.526   4.973   4.385
 9450SOL    HW129249   3.428   4.978   4.405
 9450SOL    HW229250   3.570   5.058   4.413
 9451SOL     OW29251   3.716   6.111   6.121
 9451SOL    HW129252   3.698   6.201   6.082
 9451SOL    HW229253   3.702   6.114   6.220
 9452SOL     OW29254   0.587   3.477   0.675
 9452SOL    HW129255   0.642   3.544   0.726
 9452SOL    HW229256   0.647   3.420   0.619
 9453SOL     OW29257   1.992   4.706   3.541
 9453SOL    HW129258   2.022   4.665   3.627
 9453SOL    HW229259   1.949   4.636   3.484
 9454SOL     OW29260   1.624   3.341   5.888
 9454SOL    HW129261   1.723   3.327   5.882
 9454SOL    HW229262   1.589   3.368   5.798
 9455SOL     OW29263   3.354   1.621   2.750
 9455SOL    HW129264   3.319   1.693   2.690
 9455SOL    HW229265   3.444   1.647   2.785
 9456SOL     OW29266   1.050   3.629   6.899
 9456SOL    HW129267   1.098   3.662   6.818
 9456SOL    HW229268   1.114   3.581   6.958
 9457SOL     OW29269   1.813   3.873   5.978
 9457SOL    HW129270   1.764   3.829   5.902
 9457SOL    HW229271   1.758   3.949   6.012
 9458SOL     OW29272   1.126   3.106   5.893
 9458SOL    HW129273   1.186   3.026   5.890
 9458SOL    HW229274   1.181   3.189   5.897
 9459SOL     OW29275   5.588   4.468   2.652
 9459SOL    HW129276   5.614   4.374   2.676
 9459SOL    HW229277   5.490   4.479   2.661
 9460SOL     OW29278   7.002   1.175   4.075
 9460SOL    HW129279   6.952   1.213   3.998
 9460SOL    HW229280   7.011   1.076   4.063
 9461SOL     OW29281   6.251   1.539   3.376
 9461SOL    HW129282   6.261   1.501   3.284
 9461SOL    HW229283   6.155   1.561   3.393
 9462SOL     OW29284   2.122   3.633   3.390
 9462SOL    HW129285   2.135   3.719   3.341
 9462SOL    HW229286   2.138   3.648   3.488
 9463SOL     OW29287   6.994   0.969   1.479
 9463SOL    HW129288   6.936   1.046   1.454
 9463SOL    HW229289   6.954   0.920   1.557
 9464SOL     OW29290   5.670   6.106   0.172
 9464SOL    HW129291   5.706   6.155   0.251
 9464SOL    HW229292   5.744   6.059   0.125
 9465SOL     OW29293   7.005   6.574   3.448
 9465SOL    HW129294   6.952   6.589   3.532
 9465SOL    HW229295   7.013   6.659   3.397
 9466SOL     OW29296   4.062   3.985   5.283
 9466SOL    HW129297   4.035   4.049   5.354
 9466SOL    HW229298   4.039   3.892   5.311
 9467SOL     OW29299   1.092   2.713   1.936
 9467SOL    HW129300   1.035   2.793   1.914
 9467SOL    HW229301   1.035   2.640   1.972
 9468SOL     OW29302   6.053   2.393   6.509
 9468SOL    HW129303   5.976   2.337   6.537
 9468SOL    HW229304   6.136   2.338   6.509
 9469SOL     OW29305   5.891   5.798   1.207
 9469SOL    HW129306   5.934   5.784   1.296
 9469SOL    HW229307   5.800   5.755   1.206
 9470SOL     OW29308   4.957   3.486   5.471
 9470SOL    HW129309   5.031   3.536   5.516
 9470SOL    HW229310   4.892   3.550   5.431
 9471SOL     OW29311   5.849   2.064   4.951
 9471SOL    HW129312   5.892   2.150   4.925
 9471SOL    HW229313   5.899   1.987   4.911
 9472SOL     OW29314   6.188   3.467   4.293
 9472SOL    HW129315   6.197   3.384   4.348
 9472SOL    HW229316   6.269   3.476   4.235
 9473SOL     OW29317   2.896   5.664   6.121
 9473SOL    HW129318   2.891   5.568   6.095
 9473SOL    HW229319   2.991   5.688   6.142
 9474SOL     OW29320   6.889   3.195   0.291
 9474SOL    HW129321   6.854   3.140   0.215
 9474SOL    HW229322   6.820   3.260   0.321
 9475SOL     OW29323   2.636   3.316   0.392
 9475SOL    HW129324   2.594   3.322   0.301
 9475SOL    HW229325   2.721   3.369   0.393
 9476SOL     OW29326   3.237   3.445   4.971
 9476SOL    HW129327   3.213   3.366   5.027
 9476SOL    HW229328   3.263   3.414   4.880
 9477SOL     OW29329   0.376   3.306   2.258
 9477SOL    HW129330   0.457   3.364   2.264
 9477SOL    HW229331   0.385   3.246   2.178
 9478SOL     OW29332   5.404   3.275   6.466
 9478SOL    HW129333   5.489   3.317   6.498
 9478SOL    HW229334   5.378   3.200   6.526
 9479SOL     OW29335   5.820   6.566   6.318
 9479SOL    HW129336   5.865   6.538   6.233
 9479SOL    HW229337   5.855   6.511   6.393
 9480SOL     OW29338   4.949   4.430   0.305
 9480SOL    HW129339   5.028   4.370   0.293
 9480SOL    HW229340   4.865   4.379   0.287
 9481SOL     OW29341   5.665   3.111   1.259
 9481SOL    HW129342   5.744   3.058   1.229
 9481SOL    HW229343   5.649   3.095   1.357
 9482SOL     OW29344   6.045   1.240   2.997
 9482SOL    HW129345   6.041   1.207   3.091
 9482SOL    HW229346   6.038   1.340   2.996
 9483SOL     OW29347   1.648   2.036   0.593
 9483SOL    HW129348   1.628   2.125   0.552
 9483SOL    HW229349   1.562   1.989   0.612
 9484SOL     OW29350   4.371   1.464   2.964
 9484SOL    HW129351   4.344   1.369   2.977
 9484SOL    HW229352   4.295   1.515   2.922
 9485SOL     OW29353   1.030   0.098   1.954
 9485SOL    HW129354   0.982   0.157   2.020
 9485SOL    HW229355   1.092   0.037   2.004
 9486SOL     OW29356   2.219   4.851   1.583
 9486SOL    HW129357   2.206   4.769   1.639
 9486SOL    HW229358   2.316   4.877   1.584
 9487SOL     OW29359   2.878   3.614   2.527
 9487SOL    HW129360   2.785   3.604   2.493
 9487SOL    HW229361   2.888   3.560   2.611
 9488SOL     OW29362   2.514   6.345   0.959
 9488SOL    HW129363   2.601   6.376   0.997
 9488SOL    HW229364   2.512   6.365   0.861
 9489SOL     OW29365   3.835   4.234   1.489
 9489SOL    HW129366   3.844   4.172   1.411
 9489SOL    HW229367   3.823   4.181   1.572
 9490SOL     OW29368   6.262   6.515   0.312
 9490SOL    HW129369   6.231   6.545   0.403
 9490SOL    HW229370   6.361   6.500   0.314
 9491SOL     OW29371   0.282   4.480   3.795
 9491SOL    HW129372   0.334   4.399   3.769
 9491SOL    HW229373   0.243   4.522   3.713
 9492SOL     OW29374   3.626   3.448   2.741
 9492SOL    HW129375   3.647   3.371   2.802
 9492SOL    HW229376   3.535   3.435   2.701
 9493SOL     OW29377   4.264   4.971   3.827
 9493SOL    HW129378   4.191   4.906   3.804
 9493SOL    HW229379   4.229   5.064   3.819
 9494SOL     OW29380   4.121   4.129   1.148
 9494SOL    HW129381   4.218   4.127   1.171
 9494SOL    HW229382   4.079   4.209   1.192
 9495SOL     OW29383   5.374   1.758   4.320
 9495SOL    HW129384   5.453   1.776   4.379
 9495SOL    HW229385   5.291   1.791   4.365
 9496SOL     OW29386   5.319   4.711   0.897
 9496SOL    HW129387   5.298   4.798   0.941
 9496SOL    HW229388   5.238   4.677   0.850
 9497SOL     OW29389   5.387   4.562   0.458
 9497SOL    HW129390   5.415   4.602   0.545
 9497SOL    HW229391   5.318   4.620   0.416
 9498SOL     OW29392   5.567   0.963   6.042
 9498SOL    HW129393   5.535   0.893   6.105
 9498SOL    HW229394   5.583   1.048   6.092
 9499SOL     OW29395   2.397   3.684   5.621
 9499SOL    HW129396   2.465   3.618   5.654
 9499SOL    HW229397   2.435   3.734   5.543
 9500SOL     OW29398   3.745   6.858   1.465
 9500SOL    HW129399   3.660   6.871   1.515
 9500SOL    HW229400   3.762   6.937   1.407
 9501SOL     OW29401   2.419   0.824   4.743
 9501SOL    HW129402   2.387   0.909   4.701
 9501SOL    HW229403   2.409   0.749   4.677
 9502SOL     OW29404   0.178   1.449   4.356
 9502SOL    HW129405   0.269   1.463   4.317
 9502SOL    HW229406   0.110   1.446   4.283
 9503SOL     OW29407   0.997   1.349   1.817
 9503SOL    HW129408   1.018   1.282   1.888
 9503SOL    HW229409   0.930   1.311   1.754
 9504SOL     OW29410   0.847   1.705   1.146
 9504SOL    HW129411   0.753   1.732   1.124
 9504SOL    HW229412   0.911   1.756   1.088
 9505SOL     OW29413   5.356   4.229   3.489
 9505SOL    HW129414   5.367   4.159   3.559
 9505SOL    HW229415   5.337   4.317   3.532
 9506SOL     OW29416   0.331   3.365   6.654
 9506SOL    HW129417   0.236   3.348   6.679
 9506SOL    HW229418   0.336   3.446   6.595
 9507SOL     OW29419   1.168   1.118   3.455
 9507SOL    HW129420   1.112   1.096   3.375
 9507SOL    HW229421   1.164   1.216   3.473
 9508SOL     OW29422   6.041   2.922   0.718
 9508SOL    HW129423   5.991   3.006   0.736
 9508SOL    HW229424   6.110   2.939   0.647
 9509SOL     OW29425   1.312   0.260   5.626
 9509SOL    HW129426   1.409   0.283   5.615
 9509SOL    HW229427   1.304   0.168   5.664
 9510SOL     OW29428   0.969   4.434   1.512
 9510SOL    HW129429   0.903   4.371   1.473
 9510SOL    HW229430   1.061   4.410   1.480
 9511SOL     OW29431   0.793   1.429   0.364
 9511SOL    HW129432   0.800   1.348   0.422
 9511SOL    HW229433   0.812   1.403   0.269
 9512SOL     OW29434   5.890   1.468   2.461
 9512SOL    HW129435   5.862   1.374   2.441
 9512SOL    HW229436   5.882   1.485   2.559
 9513SOL     OW29437   1.186   3.679   4.954
 9513SOL    HW129438   1.216   3.599   4.902
 9513SOL    HW229439   1.266   3.733   4.982
 9514SOL     OW29440   2.058   3.748   6.762
 9514SOL    HW129441   2.134   3.792   6.713
 9514SOL    HW229442   1.976   3.806   6.755
 9515SOL     OW29443   1.510   5.449   0.197
 9515SOL    HW129444   1.528   5.369   0.141
 9515SOL    HW229445   1.589   5.467   0.257
 9516SOL     OW29446   5.029   3.684   4.429
 9516SOL    HW129447   4.973   3.722   4.503
 9516SOL    HW229448   5.118   3.658   4.465
 9517SOL     OW29449   1.764   4.730   0.081
 9517SOL    HW129450   1.858   4.733   0.115
 9517SOL    HW229451   1.759   4.776   7.014
 9518SOL     OW29452   0.639   2.080   6.509
 9518SOL    HW129453   0.712   2.113   6.449
 9518SOL    HW229454   0.646   2.127   6.598
 9519SOL     OW29455   3.970   3.349   3.929
 9519SOL    HW129456   4.019   3.414   3.988
 9519SOL    HW229457   3.972   3.258   3.972
 9520SOL     OW29458   6.824   1.108   3.146
 9520SOL    HW129459   6.734   1.065   3.135
 9520SOL    HW229460   6.813   1.206   3.159
 9521SOL     OW29461   3.262   4.285   1.303
 9521SOL    HW129462   3.236   4.195   1.338
 9521SOL    HW229463   3.354   4.308   1.336
 9522SOL     OW29464   4.179   6.022   2.737
 9522SOL    HW129465   4.228   5.938   2.758
 9522SOL    HW229466   4.129   6.054   2.818
 9523SOL     OW29467   2.639   5.024   4.988
 9523SOL    HW129468   2.617   4.972   4.905
 9523SOL    HW229469   2.675   4.962   5.058
 9524SOL     OW29470   1.749   2.647   0.706
 9524SOL    HW129471   1.702   2.562   0.726
 9524SOL    HW229472   1.682   2.721   0.699
 9525SOL     OW29473   1.747   2.426   5.056
 9525SOL    HW129474   1.762   2.504   4.995
 9525SOL    HW229475   1.834   2.380   5.073
 9526SOL     OW29476   6.335   4.480   1.503
 9526SOL    HW129477   6.313   4.491   1.406
 9526SOL    HW229478   6.365   4.386   1.519
 9527SOL     OW29479   2.974   0.465   5.178
 9527SOL    HW129480   2.904   0.423   5.236
 9527SOL    HW229481   2.973   0.564   5.192
 9528SOL     OW29482   6.579   1.618   0.956
 9528SOL    HW129483   6.601   1.569   1.040
 9528SOL    HW229484   6.639   1.587   0.882
 9529SOL     OW29485   5.876   3.505   0.012
 9529SOL    HW129486   5.840   3.414   0.035
 9529SOL    HW229487   5.975   3.504   0.020
 9530SOL     OW29488   0.875   3.570   3.731
 9530SOL    HW129489   0.782   3.603   3.747
 9530SOL    HW229490   0.883   3.476   3.765
 9531SOL     OW29491   4.969   3.961   1.916
 9531SOL    HW129492   4.988   4.058   1.903
 9531SOL    HW229493   4.942   3.944   2.011
 9532SOL     OW29494   0.266   5.155   0.839
 9532SOL    HW129495   0.201   5.186   0.769
 9532SOL    HW229496   0.332   5.228   0.857
 9533SOL     OW29497   1.018   5.495   4.016
 9533SOL    HW129498   1.104   5.445   4.003
 9533SOL    HW229499   0.941   5.432   4.012
 9534SOL     OW29500   5.672   4.306   4.945
 9534SOL    HW129501   5.730   4.317   4.865
 9534SOL    HW229502   5.633   4.394   4.971
 9535SOL     OW29503   2.108   0.741   6.165
 9535SOL    HW129504   2.041   0.685   6.118
 9535SOL    HW229505   2.091   0.738   6.264
 9536SOL     OW29506   3.205   3.884   5.302
 9536SOL    HW129507   3.144   3.805   5.302
 9536SOL    HW229508   3.202   3.929   5.213
 9537SOL     OW29509   2.209   0.853   4.202
 9537SOL    HW129510   2.213   0.952   4.194
 9537SOL    HW229511   2.220   0.826   4.298
 9538SOL     OW29512   5.164   0.664   4.447
 9538SOL    HW129513   5.185   0.647   4.351
 9538SOL    HW229514   5.244   0.704   4.492
 9539SOL     OW29515   3.119   3.923   4.407
 9539SOL    HW129516   3.184   3.987   4.366
 9539SOL    HW229517   3.155   3.888   4.493
 9540SOL     OW29518   5.203   4.726   4.359
 9540SOL    HW129519   5.287   4.683   4.325
 9540SOL    HW229520   5.226   4.796   4.426
 9541SOL     OW29521   2.830   0.884   6.174
 9541SOL    HW129522   2.800   0.838   6.258
 9541SOL    HW229523   2.775   0.966   6.160
 9542SOL     OW29524   5.065   4.698   4.988
 9542SOL    HW129525   5.079   4.754   4.906
 9542SOL    HW229526   5.143   4.638   5.002
 9543SOL     OW29527   3.797   0.882   6.479
 9543SOL    HW129528   3.706   0.892   6.439
 9543SOL    HW229529   3.854   0.825   6.420
 9544SOL     OW29530   5.778   2.879   3.899
 9544SOL    HW129531   5.872   2.845   3.894
 9544SOL    HW229532   5.724   2.837   3.827
 9545SOL     OW29533   5.661   5.509   2.583
 9545SOL    HW129534   5.579   5.459   2.552
 9545SOL    HW229535   5.637   5.605   2.600
 9546SOL     OW29536   4.287   1.558   6.222
 9546SOL    HW129537   4.385   1.550   6.204
 9546SOL    HW229538   4.270   1.638   6.280
 9547SOL     OW29539   2.518   5.692   4.003
 9547SOL    HW129540   2.557   5.771   4.051
 9547SOL    HW229541   2.592   5.630   3.976
 9548SOL     OW29542   6.985   4.861   4.845
 9548SOL    HW129543   6.931   4.931   4.892
 9548SOL    HW229544   6.938   4.833   4.761
 9549SOL     OW29545   3.552   1.732   1.592
 9549SOL    HW129546   3.483   1.671   1.631
 9549SOL    HW229547   3.536   1.742   1.494
 9550SOL     OW29548   6.980   1.349   0.162
 9550SOL    HW129549   6.998   1.322   0.257
 9550SOL    HW229550   0.039   1.330   0.107
 9551SOL     OW29551   5.880   3.237   5.875
 9551SOL    HW129552   5.862   3.195   5.963
 9551SOL    HW229553   5.882   3.167   5.804
 9552SOL     OW29554   2.674   5.805   5.138
 9552SOL    HW129555   2.643   5.749   5.061
 9552SOL    HW229556   2.687   5.746   5.218
 9553SOL     OW29557   5.900   2.148   0.193
 9553SOL    HW129558   5.904   2.246   0.177
 9553SOL    HW229559   5.882   2.101   0.106
 9554SOL     OW29560   1.924   6.222   2.887
 9554SOL    HW129561   1.962   6.285   2.819
 9554SOL    HW229562   1.949   6.128   2.863
 9555SOL     OW29563   0.462   1.200   2.761
 9555SOL    HW129564   0.449   1.166   2.668
 9555SOL    HW229565   0.376   1.238   2.796
 9556SOL     OW29566   1.525   4.283   1.873
 9556SOL    HW129567   1.549   4.189   1.893
 9556SOL    HW229568   1.607   4.336   1.852
 9557SOL     OW29569   6.134   6.586   1.196
 9557SOL    HW129570   6.185   6.505   1.225
 9557SOL    HW229571   6.104   6.575   1.101
 9558SOL     OW29572   6.105   5.977   5.769
 9558SOL    HW129573   6.202   5.953   5.772
 9558SOL    HW229574   6.066   5.948   5.681
 9559SOL     OW29575   0.610   5.330   0.555
 9559SOL    HW129576   0.523   5.377   0.569
 9559SOL    HW229577   0.604   5.272   0.474
 9560SOL     OW29578   2.500   1.212   2.638
 9560SOL    HW129579   2.566   1.164   2.580
 9560SOL    HW229580   2.435   1.145   2.676
 9561SOL     OW29581   1.168   0.762   1.601
 9561SOL    HW129582   1.161   0.788   1.505
 9561SOL    HW229583   1.153   0.843   1.658
 9562SOL     OW29584   3.374   0.403   4.953
 9562SOL    HW129585   3.402   0.490   4.993
 9562SOL    HW229586   3.276   0.403   4.939
 9563SOL     OW29587   0.092   6.824   0.524
 9563SOL    HW129588   0.152   6.802   0.446
 9563SOL    HW229589   0.006   6.775   0.514
 9564SOL     OW29590   2.613   1.164   0.447
 9564SOL    HW129591   2.612   1.116   0.534
 9564SOL    HW229592   2.658   1.253   0.458
 9565SOL     OW29593   4.122   0.583   4.706
 9565SOL    HW129594   4.066   0.650   4.754
 9565SOL    HW229595   4.148   0.510   4.770
 9566SOL     OW29596   3.396   5.572   6.858
 9566SOL    HW129597   3.336   5.495   6.880
 9566SOL    HW229598   3.404   5.581   6.759
 9567SOL     OW29599   5.115   4.647   0.681
 9567SOL    HW129600   5.124   4.746   0.668
 9567SOL    HW229601   5.038   4.613   0.627
 9568SOL     OW29602   4.351   2.585   6.400
 9568SOL    HW129603   4.271   2.550   6.352
 9568SOL    HW229604   4.380   2.671   6.358
 9569SOL     OW29605   6.604   0.731   2.752
 9569SOL    HW129606   6.556   0.756   2.668
 9569SOL    HW229607   6.537   0.705   2.822
 9570SOL     OW29608   0.305   3.153   1.508
 9570SOL    HW129609   0.295   3.214   1.429
 9570SOL    HW229610   0.264   3.196   1.589
 9571SOL     OW29611   3.310   3.328   6.318
 9571SOL    HW129612   3.380   3.356   6.383
 9571SOL    HW229613   3.301   3.228   6.320
 9572SOL     OW29614   2.195   5.024   1.937
 9572SOL    HW129615   2.240   5.094   1.993
 9572SOL    HW229616   2.166   4.948   1.995
 9573SOL     OW29617   1.003   2.134   6.747
 9573SOL    HW129618   1.025   2.175   6.836
 9573SOL    HW229619   0.963   2.044   6.761
 9574SOL     OW29620   4.119   3.488   3.440
 9574SOL    HW129621   4.092   3.398   3.405
 9574SOL    HW229622   4.122   3.486   3.540
 9575SOL     OW29623   0.722   0.895   1.678
 9575SOL    HW129624   0.749   0.847   1.762
 9575SOL    HW229625   0.776   0.978   1.668
 9576SOL     OW29626   2.225   1.673   0.702
 9576SOL    HW129627   2.225   1.750   0.639
 9576SOL    HW229628   2.285   1.693   0.780
 9577SOL     OW29629   1.273   0.344   5.945
 9577SOL    HW129630   1.312   0.313   5.858
 9577SOL    HW229631   1.333   0.413   5.986
 9578SOL     OW29632   0.809   3.824   3.123
 9578SOL    HW129633   0.857   3.900   3.079
 9578SOL    HW229634   0.837   3.738   3.080
 9579SOL     OW29635   0.680   4.565   3.232
 9579SOL    HW129636   0.699   4.488   3.171
 9579SOL    HW229637   0.708   4.542   3.325
 9580SOL     OW29638   4.302   3.418   0.754
 9580SOL    HW129639   4.384   3.362   0.744
 9580SOL    HW229640   4.296   3.454   0.847
 9581SOL     OW29641   0.629   6.930   5.723
 9581SOL    HW129642   0.727   6.934   5.704
 9581SOL    HW229643   0.602   7.010   5.777
 9582SOL     OW29644   4.896   4.655   5.327
 9582SOL    HW129645   4.889   4.699   5.238
 9582SOL    HW229646   4.806   4.619   5.354
 9583SOL     OW29647   3.235   4.029   1.399
 9583SOL    HW129648   3.290   3.984   1.328
 9583SOL    HW229649   3.177   3.960   1.444
 9584SOL     OW29650   0.331   4.946   6.346
 9584SOL    HW129651   0.236   4.956   6.316
 9584SOL    HW229652   0.341   4.860   6.397
 9585SOL     OW29653   6.444   6.554   4.424
 9585SOL    HW129654   6.358   6.527   4.380
 9585SOL    HW229655   6.506   6.476   4.426
 9586SOL     OW29656   5.204   4.782   2.245
 9586SOL    HW129657   5.244   4.738   2.165
 9586SOL    HW229658   5.248   4.747   2.328
 9587SOL     OW29659   1.030   0.535   1.260
 9587SOL    HW129660   0.984   0.538   1.171
 9587SOL    HW229661   1.065   0.443   1.276
 9588SOL     OW29662   6.396   0.577   1.572
 9588SOL    HW129663   6.471   0.516   1.595
 9588SOL    HW229664   6.318   0.557   1.632
 9589SOL     OW29665   2.128   4.664   6.539
 9589SOL    HW129666   2.200   4.676   6.608
 9589SOL    HW229667   2.084   4.752   6.521
 9590SOL     OW29668   6.341   3.027   2.181
 9590SOL    HW129669   6.354   2.976   2.266
 9590SOL    HW229670   6.273   2.980   2.125
 9591SOL     OW29671   3.121   5.818   5.691
 9591SOL    HW129672   3.148   5.864   5.776
 9591SOL    HW229673   3.077   5.731   5.713
 9592SOL     OW29674   3.106   4.433   0.153
 9592SOL    HW129675   3.159   4.395   0.229
 9592SOL    HW229676   3.144   4.400   0.067
 9593SOL     OW29677   0.349   0.744   5.632
 9593SOL    HW129678   0.292   0.688   5.572
 9593SOL    HW229679   0.389   0.819   5.579
 9594SOL     OW29680   1.902   5.040   3.211
 9594SOL    HW129681   1.957   5.031   3.294
 9594SOL    HW229682   1.847   4.957   3.199
 9595SOL     OW29683   0.453   3.091   4.884
 9595SOL    HW129684   0.388   3.069   4.957
 9595SOL    HW229685   0.456   3.016   4.818
 9596SOL     OW29686   0.474   5.313   5.924
 9596SOL    HW129687   0.548   5.348   5.980
 9596SOL    HW229688   0.438   5.229   5.964
 9597SOL     OW29689   0.839   4.446   1.013
 9597SOL    HW129690   0.896   4.465   1.093
 9597SOL    HW229691   0.886   4.479   0.931
 9598SOL     OW29692   1.395   4.277   3.791
 9598SOL    HW129693   1.466   4.276   3.720
 9598SOL    HW229694   1.378   4.183   3.822
 9599SOL     OW29695   2.941   0.214   4.695
 9599SOL    HW129696   3.019   0.156   4.673
 9599SOL    HW229697   2.939   0.232   4.793
 9600SOL     OW29698   2.979   6.436   6.657
 9600SOL    HW129699   2.990   6.534   6.644
 9600SOL    HW229700   3.021   6.409   6.744
 9601SOL     OW29701   4.567   3.683   0.595
 9601SOL    HW129702   4.553   3.594   0.550
 9601SOL    HW229703   4.511   3.687   0.678
 9602SOL     OW29704   6.358   4.519   5.607
 9602SOL    HW129705   6.454   4.495   5.621
 9602SOL    HW229706   6.332   4.502   5.511
 9603SOL     OW29707   4.126   1.568   4.746
 9603SOL    HW129708   4.035   1.610   4.737
 9603SOL    HW229709   4.190   1.615   4.686
 9604SOL     OW29710   4.547   0.206   6.881
 9604SOL    HW129711   4.543   0.301   6.852
 9604SOL    HW229712   4.615   0.157   6.828
 9605SOL     OW29713   0.477   5.772   3.841
 9605SOL    HW129714   0.481   5.673   3.859
 9605SOL    HW229715   0.405   5.789   3.773
 9606SOL     OW29716   1.781   6.235   6.550
 9606SOL    HW129717   1.724   6.294   6.493
 9606SOL    HW229718   1.786   6.272   6.642
 9607SOL     OW29719   1.706   1.792   6.997
 9607SOL    HW129720   1.675   1.739   0.054
 9607SOL    HW229721   1.761   1.870   0.007
 9608SOL     OW29722   6.673   5.063   2.883
 9608SOL    HW129723   6.737   5.092   2.813
 9608SOL    HW229724   6.698   4.972   2.916
 9609SOL     OW29725   2.549   3.892   6.879
 9609SOL    HW129726   2.642   3.887   6.915
 9609SOL    HW229727   2.550   3.873   6.781
 9610SOL     OW29728   1.678   4.545   3.903
 9610SOL    HW129729   1.634   4.635   3.905
 9610SOL    HW229730   1.679   4.511   3.809
 9611SOL     OW29731   0.957   6.668   6.710
 9611SOL    HW129732   0.996   6.581   6.739
 9611SOL    HW229733   0.859   6.669   6.731
 9612SOL     OW29734   0.291   4.172   1.310
 9612SOL    HW129735   0.231   4.182   1.390
 9612SOL    HW229736   0.368   4.113   1.334
 9613SOL     OW29737   5.570   0.152   3.318
 9613SOL    HW129738   5.608   0.154   3.225
 9613SOL    HW229739   5.510   0.231   3.331
 9614SOL     OW29740   3.309   2.433   1.197
 9614SOL    HW129741   3.389   2.452   1.254
 9614SOL    HW229742   3.310   2.493   1.117
 9615SOL     OW29743   2.083   6.498   6.704
 9615SOL    HW129744   2.104   6.580   6.757
 9615SOL    HW229745   1.987   6.499   6.677
 9616SOL     OW29746   4.386   4.073   1.239
 9616SOL    HW129747   4.484   4.089   1.246
 9616SOL    HW229748   4.348   4.055   1.329
 9617SOL     OW29749   1.661   2.959   3.166
 9617SOL    HW129750   1.643   3.030   3.098
 9617SOL    HW229751   1.753   2.922   3.153
 9618SOL     OW29752   3.970   6.894   5.823
 9618SOL    HW129753   4.005   6.973   5.872
 9618SOL    HW229754   3.910   6.924   5.749
 9619SOL     OW29755   1.293   6.982   0.469
 9619SOL    HW129756   1.224   6.975   0.397
 9619SOL    HW229757   1.250   7.015   0.553
 9620SOL     OW29758   5.008   1.483   6.572
 9620SOL    HW129759   4.925   1.474   6.517
 9620SOL    HW229760   5.030   1.579   6.584
 9621SOL     OW29761   0.827   1.201   2.138
 9621SOL    HW129762   0.817   1.124   2.200
 9621SOL    HW229763   0.780   1.281   2.176
 9622SOL     OW29764   6.690   1.092   0.326
 9622SOL    HW129765   6.744   1.133   0.400
 9622SOL    HW229766   6.660   1.164   0.263
 9623SOL     OW29767   3.088   4.532   5.695
 9623SOL    HW129768   3.136   4.524   5.607
 9623SOL    HW229769   2.993   4.502   5.683
 9624SOL     OW29770   0.048   4.624   2.599
 9624SOL    HW129771   7.004   4.700   2.606
 9624SOL    HW229772   0.083   4.602   2.690
 9625SOL     OW29773   5.437   5.121   6.828
 9625SOL    HW129774   5.394   5.109   6.918
 9625SOL    HW229775   5.450   5.032   6.785
 9626SOL     OW29776   3.425   5.436   0.241
 9626SOL    HW129777   3.453   5.340   0.233
 9626SOL    HW229778   3.338   5.441   0.290
 9627SOL     OW29779   6.362   6.044   3.827
 9627SOL    HW129780   6.455   6.049   3.791
 9627SOL    HW229781   6.329   5.949   3.820
 9628SOL     OW29782   5.036   4.693   6.945
 9628SOL    HW129783   5.126   4.728   6.919
 9628SOL    HW229784   5.028   4.692   0.023
 9629SOL     OW29785   0.287   6.941   2.461
 9629SOL    HW129786   0.353   6.867   2.462
 9629SOL    HW229787   0.296   6.993   2.376
 9630SOL     OW29788   6.211   6.442   5.575
 9630SOL    HW129789   6.226   6.367   5.510
 9630SOL    HW229790   6.240   6.412   5.666
 9631SOL     OW29791   6.941   6.994   6.805
 9631SOL    HW129792   0.004   7.010   6.754
 9631SOL    HW229793   6.873   0.040   6.778
 9632SOL     OW29794   1.444   6.817   2.832
 9632SOL    HW129795   1.395   6.748   2.886
 9632SOL    HW229796   1.413   6.812   2.737
 9633SOL     OW29797   5.502   5.091   6.523
 9633SOL    HW129798   5.512   5.037   6.607
 9633SOL    HW229799   5.420   5.062   6.474
 9634SOL     OW29800   1.310   5.784   3.763
 9634SOL    HW129801   1.233   5.731   3.728
 9634SOL    HW229802   1.278   5.874   3.793
 9635SOL     OW29803   1.692   5.129   5.676
 9635SOL    HW129804   1.620   5.186   5.636
 9635SOL    HW229805   1.756   5.100   5.604
 9636SOL     OW29806   3.854   1.408   6.380
 9636SOL    HW129807   3.846   1.440   6.475
 9636SOL    HW229808   3.879   1.311   6.380
 9637SOL     OW29809   2.912   2.176   6.037
 9637SOL    HW129810   2.974   2.132   5.971
 9637SOL    HW229811   2.956   2.180   6.126
 9638SOL     OW29812   6.582   3.337   6.559
 9638SOL    HW129813   6.625   3.400   6.623
 9638SOL    HW229814   6.630   3.342   6.471
 9639SOL     OW29815   3.604   1.490   2.158
 9639SOL    HW129816   3.642   1.582   2.151
 9639SOL    HW229817   3.516   1.493   2.206
 9640SOL     OW29818   2.464   2.225   2.908
 9640SOL    HW129819   2.537   2.228   2.840
 9640SOL    HW229820   2.464   2.136   2.952
 9641SOL     OW29821   4.758   6.485   0.632
 9641SOL    HW129822   4.720   6.393   0.621
 9641SOL    HW229823   4.784   6.521   0.542
 9642SOL     OW29824   3.464   6.403   5.120
 9642SOL    HW129825   3.488   6.486   5.069
 9642SOL    HW229826   3.367   6.406   5.144
 9643SOL     OW29827   5.597   5.159   4.024
 9643SOL    HW129828   5.692   5.127   4.027
 9643SOL    HW229829   5.561   5.168   4.117
 9644SOL     OW29830   1.116   4.344   5.649
 9644SOL    HW129831   1.194   4.394   5.612
 9644SOL    HW229832   1.031   4.380   5.609
 9645SOL     OW29833   3.945   5.157   3.106
 9645SOL    HW129834   3.993   5.099   3.171
 9645SOL    HW229835   3.859   5.113   3.079
 9646SOL     OW29836   2.789   4.754   2.266
 9646SOL    HW129837   2.800   4.692   2.189
 9646SOL    HW229838   2.825   4.844   2.242
 9647SOL     OW29839   6.263   5.567   1.433
 9647SOL    HW129840   6.284   5.620   1.352
 9647SOL    HW229841   6.303   5.611   1.513
 9648SOL     OW29842   3.983   2.057   6.743
 9648SOL    HW129843   4.068   2.107   6.726
 9648SOL    HW229844   3.989   1.966   6.703
 9649SOL     OW29845   2.954   6.003   6.722
 9649SOL    HW129846   3.001   6.034   6.640
 9649SOL    HW229847   3.011   6.020   6.803
 9650SOL     OW29848   5.454   5.024   2.805
 9650SOL    HW129849   5.391   4.957   2.843
 9650SOL    HW229850   5.418   5.116   2.820
 9651SOL     OW29851   0.224   0.848   6.283
 9651SOL    HW129852   0.303   0.792   6.259
 9651SOL    HW229853   0.163   0.855   6.204
 9652SOL     OW29854   2.348   4.977   0.534
 9652SOL    HW129855   2.308   4.916   0.466
 9652SOL    HW229856   2.276   5.013   0.593
 9653SOL     OW29857   3.811   5.360   4.716
 9653SOL    HW129858   3.760   5.278   4.744
 9653SOL    HW229859   3.782   5.387   4.624
 9654SOL     OW29860   3.585   3.218   1.277
 9654SOL    HW129861   3.658   3.165   1.234
 9654SOL    HW229862   3.520   3.155   1.321
 9655SOL     OW29863   0.121   1.710   6.885
 9655SOL    HW129864   0.083   1.755   6.966
 9655SOL    HW229865   0.221   1.714   6.889
 9656SOL     OW29866   3.053   2.751   1.135
 9656SOL    HW129867   2.959   2.739   1.102
 9656SOL    HW229868   3.062   2.841   1.178
 9657SOL     OW29869   6.523   1.038   3.918
 9657SOL    HW129870   6.430   1.044   3.882
 9657SOL    HW229871   6.576   0.974   3.863
 9658SOL     OW29872   5.857   1.883   3.012
 9658SOL    HW129873   5.932   1.832   3.054
 9658SOL    HW229874   5.848   1.972   3.058
 9659SOL     OW29875   6.541   4.673   6.979
 9659SOL    HW129876   6.633   4.705   6.956
 9659SOL    HW229877   6.501   4.628   6.899
 9660SOL     OW29878   0.497   6.017   1.447
 9660SOL    HW129879   0.552   5.965   1.511
 9660SOL    HW229880   0.474   5.960   1.368
 9661SOL     OW29881   4.056   6.093   2.313
 9661SOL    HW129882   4.101   6.117   2.227
 9661SOL    HW229883   4.089   6.152   2.386
 9662SOL     OW29884   4.873   2.476   5.338
 9662SOL    HW129885   4.812   2.516   5.270
 9662SOL    HW229886   4.950   2.538   5.354
 9663SOL     OW29887   0.879   5.616   4.441
 9663SOL    HW129888   0.845   5.604   4.347
 9663SOL    HW229889   0.979   5.613   4.440
 9664SOL     OW29890   6.345   6.714   3.759
 9664SOL    HW129891   6.434   6.718   3.715
 9664SOL    HW229892   6.274   6.699   3.690
 9665SOL     OW29893   5.294   6.008   6.160
 9665SOL    HW129894   5.235   5.978   6.086
 9665SOL    HW229895   5.271   6.102   6.186
 9666SOL     OW29896   6.119   4.315   1.699
 9666SOL    HW129897   6.167   4.388   1.649
 9666SOL    HW229898   6.022   4.339   1.706
 9667SOL     OW29899   2.944   3.642   3.936
 9667SOL    HW129900   3.042   3.628   3.918
 9667SOL    HW229901   2.932   3.683   4.026
 9668SOL     OW29902   5.639   1.112   7.013
 9668SOL    HW129903   5.729   1.131   6.975
 9668SOL    HW229904   5.590   1.049   6.954
 9669SOL     OW29905   0.836   6.974   1.781
 9669SOL    HW129906   0.756   0.010   1.797
 9669SOL    HW229907   0.912   7.009   1.836
 9670SOL     OW29908   5.445   4.565   6.604
 9670SOL    HW129909   5.477   4.653   6.571
 9670SOL    HW229910   5.363   4.578   6.660
 9671SOL     OW29911   6.762   5.352   6.485
 9671SOL    HW129912   6.782   5.361   6.583
 9671SOL    HW229913   6.666   5.371   6.468
 9672SOL     OW29914   1.265   5.659   4.663
 9672SOL    HW129915   1.224   5.610   4.739
 9672SOL    HW229916   1.243   5.612   4.577
 9673SOL     OW29917   5.684   4.072   6.881
 9673SOL    HW129918   5.717   4.004   6.947
 9673SOL    HW229919   5.715   4.163   6.909
 9674SOL     OW29920   2.724   6.137   3.595
 9674SOL    HW129921   2.804   6.093   3.635
 9674SOL    HW229922   2.701   6.093   3.509
 9675SOL     OW29923   6.122   2.004   1.107
 9675SOL    HW129924   6.220   2.015   1.119
 9675SOL    HW229925   6.075   2.041   1.188
 9676SOL     OW29926   1.193   3.595   5.347
 9676SOL    HW129927   1.137   3.594   5.265
 9676SOL    HW229928   1.289   3.577   5.323
 9677SOL     OW29929   2.023   6.008   5.496
 9677SOL    HW129930   2.038   6.062   5.579
 9677SOL    HW229931   1.996   5.915   5.520
 9678SOL     OW29932   3.359   3.462   2.704
 9678SOL    HW129933   3.357   3.535   2.635
 9678SOL    HW229934   3.273   3.412   2.703
 9679SOL     OW29935   2.209   1.095   2.635
 9679SOL    HW129936   2.137   1.046   2.586
 9679SOL    HW229937   2.185   1.192   2.640
 9680SOL     OW29938   6.036   0.324   3.985
 9680SOL    HW129939   6.028   0.224   3.980
 9680SOL    HW229940   5.964   0.359   4.045
 9681SOL     OW29941   3.465   1.102   0.653
 9681SOL    HW129942   3.558   1.136   0.636
 9681SOL    HW229943   3.400   1.175   0.634
 9682SOL     OW29944   4.979   5.017   3.944
 9682SOL    HW129945   5.053   5.012   4.010
 9682SOL    HW229946   4.949   5.112   3.935
 9683SOL     OW29947   2.780   5.581   0.860
 9683SOL    HW129948   2.867   5.626   0.877
 9683SOL    HW229949   2.706   5.649   0.865
 9684SOL     OW29950   0.132   2.060   4.945
 9684SOL    HW129951   0.038   2.026   4.947
 9684SOL    HW229952   0.133   2.157   4.970
 9685SOL     OW29953   2.098   3.455   0.656
 9685SOL    HW129954   2.089   3.370   0.604
 9685SOL    HW229955   2.027   3.520   0.627
 9686SOL     OW29956   6.278   2.514   0.962
 9686SOL    HW129957   6.215   2.488   1.035
 9686SOL    HW229958   6.229   2.522   0.876
 9687SOL     OW29959   1.872   1.283   3.792
 9687SOL    HW129960   1.947   1.217   3.799
 9687SOL    HW229961   1.870   1.322   3.700
 9688SOL     OW29962   6.578   2.119   3.324
 9688SOL    HW129963   6.562   2.102   3.227
 9688SOL    HW229964   6.600   2.215   3.338
 9689SOL     OW29965   1.709   6.190   0.775
 9689SOL    HW129966   1.729   6.285   0.751
 9689SOL    HW229967   1.756   6.167   0.861
 9690SOL     OW29968   5.644   5.595   6.391
 9690SOL    HW129969   5.546   5.577   6.382
 9690SOL    HW229970   5.659   5.661   6.465
 9691SOL     OW29971   2.874   4.881   1.638
 9691SOL    HW129972   2.954   4.822   1.645
 9691SOL    HW229973   2.835   4.895   1.729
 9692SOL     OW29974   3.123   5.214   2.329
 9692SOL    HW129975   3.182   5.281   2.284
 9692SOL    HW229976   3.099   5.246   2.420
 9693SOL     OW29977   6.310   5.688   1.203
 9693SOL    HW129978   6.388   5.719   1.148
 9693SOL    HW229979   6.226   5.727   1.165
 9694SOL     OW29980   2.117   1.230   5.914
 9694SOL    HW129981   2.123   1.132   5.931
 9694SOL    HW229982   2.196   1.260   5.861
 9695SOL     OW29983   6.996   3.877   1.715
 9695SOL    HW129984   6.976   3.819   1.636
 9695SOL    HW229985   6.964   3.831   1.798
 9696SOL     OW29986   5.233   2.789   0.848
 9696SOL    HW129987   5.196   2.864   0.904
 9696SOL    HW229988   5.173   2.710   0.857
 9697SOL     OW29989   6.671   6.032   0.468
 9697SOL    HW129990   6.640   6.043   0.373
 9697SOL    HW229991   6.754   5.976   0.469
 9698SOL     OW29992   5.759   1.741   6.165
 9698SOL    HW129993   5.756   1.641   6.153
 9698SOL    HW229994   5.853   1.769   6.183
 9699SOL     OW29995   0.097   4.460   7.020
 9699SOL    HW129996   0.141   4.478   0.086
 9699SOL    HW229997   0.164   4.417   6.958
 9700SOL     OW29998   4.174   5.130   5.057
 9700SOL    HW129999   4.212   5.092   4.973
 9700SOL    HW230000   4.190   5.229   5.059
 9701SOL     OW30001   3.862   4.987   4.911
 9701SOL    HW130002   3.859   4.993   5.011
 9701SOL    HW230003   3.953   5.015   4.879
 9702SOL     OW30004   4.776   0.757   0.289
 9702SOL    HW130005   4.818   0.720   0.372
 9702SOL    HW230006   4.821   0.717   0.209
 9703SOL     OW30007   3.857   5.280   3.948
 9703SOL    HW130008   3.803   5.215   3.896
 9703SOL    HW230009   3.798   5.329   4.012
 9704SOL     OW30010   3.089   1.166   2.345
 9704SOL    HW130011   3.049   1.219   2.420
 9704SOL    HW230012   3.163   1.110   2.380
 9705SOL     OW30013   4.821   5.761   6.809
 9705SOL    HW130014   4.892   5.810   6.860
 9705SOL    HW230015   4.810   5.669   6.847
 9706SOL     OW30016   0.880   2.458   0.478
 9706SOL    HW130017   0.881   2.479   0.380
 9706SOL    HW230018   0.860   2.360   0.490
 9707SOL     OW30019   6.921   4.191   1.564
 9707SOL    HW130020   6.841   4.177   1.623
 9707SOL    HW230021   7.004   4.192   1.619
 9708SOL     OW30022   1.221   2.096   2.619
 9708SOL    HW130023   1.210   2.022   2.685
 9708SOL    HW230024   1.305   2.083   2.567
 9709SOL     OW30025   5.900   5.551   2.449
 9709SOL    HW130026   5.940   5.476   2.397
 9709SOL    HW230027   5.836   5.513   2.517
 9710SOL     OW30028   0.290   1.422   2.355
 9710SOL    HW130029   0.316   1.506   2.307
 9710SOL    HW230030   0.372   1.376   2.389
 9711SOL     OW30031   1.583   3.137   6.087
 9711SOL    HW130032   1.611   3.183   6.003
 9711SOL    HW230033   1.484   3.141   6.097
 9712SOL     OW30034   5.654   4.192   5.591
 9712SOL    HW130035   5.708   4.191   5.674
 9712SOL    HW230036   5.561   4.225   5.611
 9713SOL     OW30037   1.035   4.528   3.524
 9713SOL    HW130038   1.120   4.514   3.574
 9713SOL    HW230039   1.055   4.557   3.431
 9714SOL     OW30040   2.614   1.702   1.976
 9714SOL    HW130041   2.539   1.713   1.911
 9714SOL    HW230042   2.645   1.792   2.007
 9715SOL     OW30043   5.352   5.144   5.984
 9715SOL    HW130044   5.327   5.199   5.905
 9715SOL    HW230045   5.362   5.203   6.064
 9716SOL     OW30046   3.960   2.565   6.615
 9716SOL    HW130047   3.894   2.637   6.595
 9716SOL    HW230048   4.033   2.601   6.673
 9717SOL     OW30049   5.591   5.427   5.482
 9717SOL    HW130050   5.594   5.478   5.569
 9717SOL    HW230051   5.670   5.453   5.426
 9718SOL     OW30052   4.602   2.761   1.823
 9718SOL    HW130053   4.597   2.824   1.901
 9718SOL    HW230054   4.697   2.755   1.791
 9719SOL     OW30055   0.484   1.977   0.031
 9719SOL    HW130056   0.408   1.995   0.093
 9719SOL    HW230057   0.453   1.988   6.958
 9720SOL     OW30058   0.163   5.697   1.630
 9720SOL    HW130059   0.166   5.792   1.661
 9720SOL    HW230060   0.194   5.637   1.703
 9721SOL     OW30061   0.905   3.143   0.978
 9721SOL    HW130062   0.815   3.099   0.970
 9721SOL    HW230063   0.956   3.102   1.053
 9722SOL     OW30064   0.440   0.647   3.405
 9722SOL    HW130065   0.357   0.593   3.394
 9722SOL    HW230066   0.512   0.610   3.345
 9723SOL     OW30067   2.204   6.065   3.854
 9723SOL    HW130068   2.261   6.096   3.777
 9723SOL    HW230069   2.208   5.966   3.860
 9724SOL     OW30070   2.382   3.535   0.399
 9724SOL    HW130071   2.296   3.487   0.380
 9724SOL    HW230072   2.458   3.485   0.357
 9725SOL     OW30073   3.947   4.249   6.719
 9725SOL    HW130074   3.902   4.207   6.640
 9725SOL    HW230075   4.043   4.220   6.722
 9726SOL     OW30076   4.531   6.824   3.856
 9726SOL    HW130077   4.614   6.873   3.880
 9726SOL    HW230078   4.498   6.773   3.935
 9727SOL     OW30079   0.177   3.165   5.009
 9727SOL    HW130080   0.119   3.242   4.982
 9727SOL    HW230081   0.256   3.199   5.060
 9728SOL     OW30082   0.759   0.311   5.921
 9728SOL    HW130083   0.827   0.262   5.976
 9728SOL    HW230084   0.798   0.330   5.831
 9729SOL     OW30085   0.976   4.472   2.949
 9729SOL    HW130086   0.893   4.468   3.004
 9729SOL    HW230087   1.022   4.384   2.950
 9730SOL     OW30088   0.276   3.433   2.495
 9730SOL    HW130089   0.262   3.383   2.410
 9730SOL    HW230090   0.218   3.514   2.496
 9731SOL     OW30091   4.466   4.050   0.726
 9731SOL    HW130092   4.401   3.977   0.750
 9731SOL    HW230093   4.415   4.129   0.690
 9732SOL     OW30094   5.315   5.897   3.327
 9732SOL    HW130095   5.384   5.892   3.255
 9732SOL    HW230096   5.310   5.990   3.363
 9733SOL     OW30097   5.518   4.895   6.711
 9733SOL    HW130098   5.473   4.830   6.772
 9733SOL    HW230099   5.509   4.863   6.616
 9734SOL     OW30100   5.634   2.082   3.579
 9734SOL    HW130101   5.598   2.132   3.500
 9734SOL    HW230102   5.730   2.061   3.565
 9735SOL     OW30103   1.524   4.610   2.637
 9735SOL    HW130104   1.479   4.543   2.577
 9735SOL    HW230105   1.587   4.562   2.699
 9736SOL     OW30106   6.014   1.776   6.408
 9736SOL    HW130107   6.077   1.780   6.330
 9736SOL    HW230108   6.027   1.857   6.465
 9737SOL     OW30109   6.831   2.977   5.186
 9737SOL    HW130110   6.790   2.993   5.097
 9737SOL    HW230111   6.931   2.985   5.179
 9738SOL     OW30112   2.120   0.123   2.900
 9738SOL    HW130113   2.108   0.211   2.853
 9738SOL    HW230114   2.177   0.136   2.980
 9739SOL     OW30115   6.475   5.418   2.110
 9739SOL    HW130116   6.439   5.345   2.052
 9739SOL    HW230117   6.546   5.468   2.060
 9740SOL     OW30118   6.737   3.015   4.031
 9740SOL    HW130119   6.788   2.978   4.109
 9740SOL    HW230120   6.657   3.065   4.064
 9741SOL     OW30121   4.502   1.446   2.596
 9741SOL    HW130122   4.523   1.491   2.509
 9741SOL    HW230123   4.421   1.388   2.586
 9742SOL     OW30124   4.029   0.074   2.069
 9742SOL    HW130125   4.128   0.066   2.057
 9742SOL    HW230126   3.982   0.043   1.987
 9743SOL     OW30127   1.569   1.822   4.547
 9743SOL    HW130128   1.604   1.747   4.602
 9743SOL    HW230129   1.514   1.786   4.472
 9744SOL     OW30130   0.354   0.288   3.109
 9744SOL    HW130131   0.359   0.200   3.157
 9744SOL    HW230132   0.260   0.321   3.112
 9745SOL     OW30133   6.803   2.986   6.298
 9745SOL    HW130134   6.804   3.044   6.216
 9745SOL    HW230135   6.897   2.962   6.323
 9746SOL     OW30136   6.143   0.902   6.214
 9746SOL    HW130137   6.060   0.910   6.159
 9746SOL    HW230138   6.206   0.977   6.192
 9747SOL     OW30139   2.050   0.456   1.872
 9747SOL    HW130140   2.041   0.409   1.784
 9747SOL    HW230141   2.012   0.399   1.944
 9748SOL     OW30142   1.118   1.408   3.473
 9748SOL    HW130143   1.033   1.386   3.521
 9748SOL    HW230144   1.184   1.447   3.537
 9749SOL     OW30145   2.375   2.039   4.795
 9749SOL    HW130146   2.383   1.971   4.868
 9749SOL    HW230147   2.433   2.013   4.718
 9750SOL     OW30148   5.380   4.767   3.416
 9750SOL    HW130149   5.348   4.799   3.327
 9750SOL    HW230150   5.479   4.758   3.415
 9751SOL     OW30151   2.209   1.204   0.899
 9751SOL    HW130152   2.205   1.243   0.807
 9751SOL    HW230153   2.117   1.201   0.938
 9752SOL     OW30154   5.286   1.024   0.072
 9752SOL    HW130155   5.360   0.985   0.017
 9752SOL    HW230156   5.272   0.966   0.152
 9753SOL     OW30157   5.549   5.215   5.159
 9753SOL    HW130158   5.635   5.191   5.113
 9753SOL    HW230159   5.473   5.200   5.096
 9754SOL     OW30160   0.853   1.681   0.458
 9754SOL    HW130161   0.953   1.674   0.451
 9754SOL    HW230162   0.811   1.604   0.409
 9755SOL     OW30163   4.179   3.620   4.940
 9755SOL    HW130164   4.121   3.699   4.960
 9755SOL    HW230165   4.226   3.591   5.023
 9756SOL     OW30166   6.338   3.051   0.365
 9756SOL    HW130167   6.242   3.059   0.339
 9756SOL    HW230168   6.396   3.064   0.284
 9757SOL     OW30169   5.792   3.449   3.322
 9757SOL    HW130170   5.741   3.503   3.255
 9757SOL    HW230171   5.763   3.353   3.316
 9758SOL     OW30172   2.600   0.273   6.769
 9758SOL    HW130173   2.516   0.268   6.823
 9758SOL    HW230174   2.578   0.292   6.674
 9759SOL     OW30175   2.329   0.043   0.009
 9759SOL    HW130176   2.373   6.985   0.051
 9759SOL    HW230177   2.249   0.069   0.063
 9760SOL     OW30178   4.526   3.424   5.333
 9760SOL    HW130179   4.547   3.472   5.247
 9760SOL    HW230180   4.578   3.339   5.336
 9761SOL     OW30181   6.153   6.701   1.770
 9761SOL    HW130182   6.062   6.704   1.727
 9761SOL    HW230183   6.221   6.675   1.702
 9762SOL     OW30184   2.588   2.551   4.358
 9762SOL    HW130185   2.649   2.546   4.278
 9762SOL    HW230186   2.625   2.493   4.431
 9763SOL     OW30187   4.455   2.391   1.482
 9763SOL    HW130188   4.521   2.464   1.499
 9763SOL    HW230189   4.478   2.312   1.539
 9764SOL     OW30190   1.169   2.811   2.686
 9764SOL    HW130191   1.218   2.770   2.609
 9764SOL    HW230192   1.072   2.790   2.678
 9765SOL     OW30193   6.309   1.909   3.216
 9765SOL    HW130194   6.330   1.947   3.306
 9765SOL    HW230195   6.298   1.810   3.223
 9766SOL     OW30196   2.743   0.527   3.057
 9766SOL    HW130197   2.763   0.458   3.127
 9766SOL    HW230198   2.807   0.603   3.067
 9767SOL     OW30199   4.866   2.011   5.217
 9767SOL    HW130200   4.892   2.106   5.204
 9767SOL    HW230201   4.862   1.965   5.129
 9768SOL     OW30202   4.380   1.531   2.084
 9768SOL    HW130203   4.344   1.563   1.996
 9768SOL    HW230204   4.439   1.601   2.123
 9769SOL     OW30205   2.169   1.184   1.977
 9769SOL    HW130206   2.242   1.170   2.045
 9769SOL    HW230207   2.139   1.280   1.981
 9770SOL     OW30208   5.171   7.000   0.088
 9770SOL    HW130209   5.239   0.046   0.060
 9770SOL    HW230210   5.129   0.007   0.174
 9771SOL     OW30211   3.945   5.089   1.435
 9771SOL    HW130212   3.931   5.180   1.473
 9771SOL    HW230213   3.869   5.066   1.374
 9772SOL     OW30214   1.157   6.300   2.686
 9772SOL    HW130215   1.111   6.304   2.598
 9772SOL    HW230216   1.152   6.390   2.730
 9773SOL     OW30217   5.670   6.820   4.089
 9773SOL    HW130218   5.579   6.856   4.110
 9773SOL    HW230219   5.689   6.742   4.149
 9774SOL     OW30220   6.366   5.128   2.211
 9774SOL    HW130221   6.443   5.178   2.251
 9774SOL    HW230222   6.398   5.042   2.173
 9775SOL     OW30223   3.292   1.327   3.504
 9775SOL    HW130224   3.300   1.412   3.556
 9775SOL    HW230225   3.197   1.294   3.507
 9776SOL     OW30226   6.736   5.280   4.393
 9776SOL    HW130227   6.698   5.364   4.354
 9776SOL    HW230228   6.836   5.287   4.397
 9777SOL     OW30229   5.811   5.210   6.227
 9777SOL    HW130230   5.871   5.258   6.292
 9777SOL    HW230231   5.740   5.273   6.196
 9778SOL     OW30232   6.675   0.493   3.761
 9778SOL    HW130233   6.654   0.487   3.859
 9778SOL    HW230234   6.657   0.405   3.718
 9779SOL     OW30235   2.366   1.594   4.826
 9779SOL    HW130236   2.360   1.682   4.873
 9779SOL    HW230237   2.459   1.558   4.834
 9780SOL     OW30238   2.304   2.018   0.941
 9780SOL    HW130239   2.303   1.918   0.937
 9780SOL    HW230240   2.221   2.054   0.897
 9781SOL     OW30241   1.367   3.744   3.604
 9781SOL    HW130242   1.414   3.693   3.675
 9781SOL    HW230243   1.268   3.729   3.611
 9782SOL     OW30244   6.950   0.703   1.342
 9782SOL    HW130245   6.966   0.797   1.372
 9782SOL    HW230246   6.946   0.700   1.242
 9783SOL     OW30247   4.676   1.949   1.877
 9783SOL    HW130248   4.577   1.959   1.884
 9783SOL    HW230249   4.701   1.930   1.782
 9784SOL     OW30250   4.491   1.314   3.869
 9784SOL    HW130251   4.527   1.341   3.780
 9784SOL    HW230252   4.411   1.371   3.891
 9785SOL     OW30253   0.330   4.360   4.900
 9785SOL    HW130254   0.374   4.304   4.969
 9785SOL    HW230255   0.239   4.388   4.932
 9786SOL     OW30256   2.055   4.941   6.469
 9786SOL    HW130257   2.045   4.982   6.560
 9786SOL    HW230258   2.139   4.975   6.426
 9787SOL     OW30259   5.204   3.421   1.196
 9787SOL    HW130260   5.272   3.487   1.164
 9787SOL    HW230261   5.119   3.469   1.217
 9788SOL     OW30262   0.769   0.425   3.784
 9788SOL    HW130263   0.769   0.437   3.884
 9788SOL    HW230264   0.824   0.345   3.761
 9789SOL     OW30265   1.510   5.846   6.464
 9789SOL    HW130266   1.469   5.806   6.546
 9789SOL    HW230267   1.494   5.785   6.386
 9790SOL     OW30268   5.781   3.942   5.565
 9790SOL    HW130269   5.711   4.011   5.585
 9790SOL    HW230270   5.748   3.881   5.492
 9791SOL     OW30271   0.398   0.940   3.189
 9791SOL    HW130272   0.476   0.973   3.243
 9791SOL    HW230273   0.315   0.989   3.218
 9792SOL     OW30274   5.113   4.986   1.229
 9792SOL    HW130275   5.114   5.076   1.272
 9792SOL    HW230276   5.206   4.961   1.200
 9793SOL     OW30277   5.226   5.793   3.561
 9793SOL    HW130278   5.188   5.702   3.542
 9793SOL    HW230279   5.285   5.820   3.485
 9794SOL     OW30280   6.340   3.760   6.330
 9794SOL    HW130281   6.378   3.723   6.246
 9794SOL    HW230282   6.244   3.731   6.339
 9795SOL     OW30283   1.431   1.990   4.293
 9795SOL    HW130284   1.502   1.926   4.323
 9795SOL    HW230285   1.423   1.985   4.193
 9796SOL     OW30286   3.406   3.901   0.683
 9796SOL    HW130287   3.504   3.919   0.692
 9796SOL    HW230288   3.359   3.928   0.767
 9797SOL     OW30289   3.864   4.116   6.477
 9797SOL    HW130290   3.952   4.160   6.457
 9797SOL    HW230291   3.842   4.051   6.404
 9798SOL     OW30292   2.370   0.750   0.720
 9798SOL    HW130293   2.279   0.710   0.713
 9798SOL    HW230294   2.367   0.832   0.778
 9799SOL     OW30295   3.406   3.483   3.096
 9799SOL    HW130296   3.354   3.467   3.012
 9799SOL    HW230297   3.502   3.501   3.073
 9800SOL     OW30298   3.165   6.187   5.617
 9800SOL    HW130299   3.252   6.232   5.634
 9800SOL    HW230300   3.180   6.103   5.565
 9801SOL     OW30301   4.685   4.914   0.503
 9801SOL    HW130302   4.653   4.974   0.576
 9801SOL    HW230303   4.783   4.898   0.514
 9802SOL     OW30304   0.000   2.492   2.412
 9802SOL    HW130305   0.015   2.482   2.510
 9802SOL    HW230306   6.940   2.443   2.384
 9803SOL     OW30307   6.383   1.060   0.307
 9803SOL    HW130308   6.303   1.031   0.359
 9803SOL    HW230309   6.405   1.155   0.331
 9804SOL     OW30310   0.359   5.509   3.551
 9804SOL    HW130311   0.322   5.515   3.644
 9804SOL    HW230312   0.319   5.581   3.494
 9805SOL     OW30313   1.207   5.813   6.349
 9805SOL    HW130314   1.288   5.758   6.367
 9805SOL    HW230315   1.127   5.770   6.392
 9806SOL     OW30316   1.234   1.367   0.800
 9806SOL    HW130317   1.170   1.345   0.873
 9806SOL    HW230318   1.240   1.290   0.736
 9807SOL     OW30319   2.499   2.839   0.001
 9807SOL    HW130320   2.458   2.749   0.013
 9807SOL    HW230321   2.599   2.831   0.005
 9808SOL     OW30322   5.571   0.873   5.556
 9808SOL    HW130323   5.537   0.781   5.575
 9808SOL    HW230324   5.632   0.870   5.476
 9809SOL     OW30325   0.494   1.611   6.068
 9809SOL    HW130326   0.494   1.549   6.146
 9809SOL    HW230327   0.424   1.681   6.080
 9810SOL     OW30328   2.616   2.385   3.086
 9810SOL    HW130329   2.527   2.355   3.052
 9810SOL    HW230330   2.676   2.405   3.008
 9811SOL     OW30331   5.769   5.326   3.799
 9811SOL    HW130332   5.844   5.270   3.834
 9811SOL    HW230333   5.747   5.298   3.706
 9812SOL     OW30334   3.289   2.215   6.082
 9812SOL    HW130335   3.293   2.314   6.095
 9812SOL    HW230336   3.382   2.178   6.074
 9813SOL     OW30337   5.660   6.473   6.697
 9813SOL    HW130338   5.613   6.414   6.763
 9813SOL    HW230339   5.598   6.548   6.671
 9814SOL     OW30340   0.781   0.793   5.789
 9814SOL    HW130341   0.832   0.880   5.788
 9814SOL    HW230342   0.716   0.792   5.714
 9815SOL     OW30343   7.006   2.020   1.997
 9815SOL    HW130344   0.019   2.001   1.905
 9815SOL    HW230345   6.915   1.980   2.007
 9816SOL     OW30346   6.817   1.329   6.775
 9816SOL    HW130347   6.794   1.308   6.680
 9816SOL    HW230348   6.754   1.282   6.836
 9817SOL     OW30349   2.838   5.389   1.846
 9817SOL    HW130350   2.884   5.415   1.761
 9817SOL    HW230351   2.869   5.447   1.920
 9818SOL     OW30352   1.470   1.253   3.465
 9818SOL    HW130353   1.477   1.248   3.565
 9818SOL    HW230354   1.467   1.161   3.427
 9819SOL     OW30355   5.099   3.562   4.992
 9819SOL    HW130356   5.107   3.486   5.057
 9819SOL    HW230357   5.005   3.596   4.991
 9820SOL     OW30358   3.044   2.246   6.906
 9820SOL    HW130359   3.092   2.315   6.852
 9820SOL    HW230360   2.961   2.218   6.858
 9821SOL     OW30361   4.033   1.969   0.806
 9821SOL    HW130362   3.953   2.000   0.857
 9821SOL    HW230363   4.004   1.918   0.725
 9822SOL     OW30364   3.881   5.520   3.826
 9822SOL    HW130365   3.892   5.422   3.844
 9822SOL    HW230366   3.948   5.571   3.880
 9823SOL     OW30367   1.151   0.137   2.315
 9823SOL    HW130368   1.133   0.039   2.307
 9823SOL    HW230369   1.191   0.171   2.230
 9824SOL     OW30370   2.610   5.833   5.595
 9824SOL    HW130371   2.524   5.787   5.615
 9824SOL    HW230372   2.671   5.825   5.674
 9825SOL     OW30373   5.808   5.496   5.032
 9825SOL    HW130374   5.853   5.412   5.001
 9825SOL    HW230375   5.745   5.528   4.961
 9826SOL     OW30376   3.756   6.354   5.169
 9826SOL    HW130377   3.795   6.264   5.191
 9826SOL    HW230378   3.663   6.360   5.206
 9827SOL     OW30379   2.181   4.929   3.190
 9827SOL    HW130380   2.197   5.024   3.162
 9827SOL    HW230381   2.114   4.927   3.264
 9828SOL     OW30382   3.613   2.030   5.034
 9828SOL    HW130383   3.528   1.985   5.007
 9828SOL    HW230384   3.666   2.054   4.953
 9829SOL     OW30385   4.847   6.415   6.476
 9829SOL    HW130386   4.882   6.322   6.466
 9829SOL    HW230387   4.823   6.451   6.386
 9830SOL     OW30388   5.360   1.340   2.061
 9830SOL    HW130389   5.441   1.281   2.065
 9830SOL    HW230390   5.370   1.414   2.128
 9831SOL     OW30391   0.460   4.461   1.746
 9831SOL    HW130392   0.542   4.429   1.794
 9831SOL    HW230393   0.477   4.459   1.647
 9832SOL     OW30394   4.798   5.622   3.991
 9832SOL    HW130395   4.733   5.623   4.067
 9832SOL    HW230396   4.875   5.682   4.012
 9833SOL     OW30397   3.621   3.317   3.525
 9833SOL    HW130398   3.589   3.241   3.581
 9833SOL    HW230399   3.566   3.398   3.542
 9834SOL     OW30400   1.871   5.004   6.103
 9834SOL    HW130401   1.949   4.952   6.068
 9834SOL    HW230402   1.806   5.020   6.030
 9835SOL     OW30403   3.965   3.088   4.040
 9835SOL    HW130404   4.043   3.030   4.065
 9835SOL    HW230405   3.909   3.105   4.121
 9836SOL     OW30406   0.336   4.250   5.190
 9836SOL    HW130407   0.343   4.154   5.217
 9836SOL    HW230408   0.298   4.303   5.266
 9837SOL     OW30409   5.604   1.909   2.372
 9837SOL    HW130410   5.696   1.945   2.355
 9837SOL    HW230411   5.603   1.811   2.350
 9838SOL     OW30412   1.464   6.767   1.161
 9838SOL    HW130413   1.440   6.817   1.244
 9838SOL    HW230414   1.391   6.702   1.140
 9839SOL     OW30415   4.463   0.588   3.412
 9839SOL    HW130416   4.499   0.641   3.489
 9839SOL    HW230417   4.414   0.508   3.447
 9840SOL     OW30418   4.749   1.601   6.820
 9840SOL    HW130419   4.846   1.584   6.839
 9840SOL    HW230420   4.739   1.687   6.770
 9841SOL     OW30421   0.655   4.856   3.620
 9841SOL    HW130422   0.653   4.930   3.688
 9841SOL    HW230423   0.671   4.895   3.530
 9842SOL     OW30424   3.515   3.396   0.196
 9842SOL    HW130425   3.458   3.314   0.208
 9842SOL    HW230426   3.550   3.426   0.284
 9843SOL     OW30427   6.975   0.366   1.940
 9843SOL    HW130428   7.003   0.433   1.871
 9843SOL    HW230429   6.977   0.407   2.031
 9844SOL     OW30430   6.123   0.364   4.531
 9844SOL    HW130431   6.195   0.332   4.593
 9844SOL    HW230432   6.131   0.463   4.520
 9845SOL     OW30433   0.925   2.303   2.618
 9845SOL    HW130434   0.917   2.204   2.617
 9845SOL    HW230435   0.892   2.341   2.531
 9846SOL     OW30436   4.879   1.680   0.533
 9846SOL    HW130437   4.953   1.689   0.599
 9846SOL    HW230438   4.800   1.637   0.578
 9847SOL     OW30439   4.175   3.361   2.047
 9847SOL    HW130440   4.121   3.357   2.130
 9847SOL    HW230441   4.255   3.301   2.055
 9848SOL     OW30442   3.535   4.380   5.527
 9848SOL    HW130443   3.538   4.441   5.606
 9848SOL    HW230444   3.600   4.411   5.458
 9849SOL     OW30445   0.753   6.935   6.451
 9849SOL    HW130446   0.693   6.928   6.372
 9849SOL    HW230447   0.699   6.953   6.533
 9850SOL     OW30448   0.276   0.322   4.076
 9850SOL    HW130449   0.284   0.420   4.091
 9850SOL    HW230450   0.193   0.303   4.024
 9851SOL     OW30451   2.898   5.689   4.955
 9851SOL    HW130452   2.944   5.618   4.902
 9851SOL    HW230453   2.902   5.665   5.052
 9852SOL     OW30454   1.427   1.838   5.072
 9852SOL    HW130455   1.430   1.934   5.099
 9852SOL    HW230456   1.521   1.802   5.066
 9853SOL     OW30457   0.065   3.439   5.020
 9853SOL    HW130458   7.012   3.501   4.997
 9853SOL    HW230459   0.152   3.489   5.017
 9854SOL     OW30460   0.683   5.714   5.193
 9854SOL    HW130461   0.607   5.690   5.133
 9854SOL    HW230462   0.681   5.657   5.275
 9855SOL     OW30463   1.113   3.589   0.956
 9855SOL    HW130464   1.127   3.581   1.055
 9855SOL    HW230465   1.023   3.555   0.932
 9856SOL     OW30466   5.450   4.566   4.274
 9856SOL    HW130467   5.508   4.621   4.334
 9856SOL    HW230468   5.492   4.560   4.184
 9857SOL     OW30469   5.702   2.586   2.985
 9857SOL    HW130470   5.686   2.657   3.054
 9857SOL    HW230471   5.753   2.624   2.908
 9858SOL     OW30472   0.654   6.482   1.833
 9858SOL    HW130473   0.732   6.543   1.848
 9858SOL    HW230474   0.682   6.388   1.850
 9859SOL     OW30475   6.571   4.792   4.957
 9859SOL    HW130476   6.624   4.850   5.018
 9859SOL    HW230477   6.570   4.698   4.992
 9860SOL     OW30478   1.938   2.207   4.943
 9860SOL    HW130479   2.028   2.223   4.983
 9860SOL    HW230480   1.931   2.256   4.855
 9861SOL     OW30481   3.479   1.266   3.811
 9861SOL    HW130482   3.473   1.301   3.904
 9861SOL    HW230483   3.575   1.253   3.786
 9862SOL     OW30484   2.634   4.295   0.946
 9862SOL    HW130485   2.657   4.321   1.039
 9862SOL    HW230486   2.613   4.197   0.942
 9863SOL     OW30487   3.194   5.945   0.964
 9863SOL    HW130488   3.254   5.974   0.889
 9863SOL    HW230489   3.144   5.863   0.937
 9864SOL     OW30490   2.957   6.831   5.261
 9864SOL    HW130491   2.893   6.901   5.228
 9864SOL    HW230492   2.917   6.783   5.339
 9865SOL     OW30493   0.478   6.801   5.002
 9865SOL    HW130494   0.512   6.798   4.907
 9865SOL    HW230495   0.526   6.733   5.057
 9866SOL     OW30496   6.152   4.205   4.986
 9866SOL    HW130497   6.083   4.174   5.052
 9866SOL    HW230498   6.110   4.269   4.921
 9867SOL     OW30499   4.863   2.378   3.100
 9867SOL    HW130500   4.823   2.470   3.097
 9867SOL    HW230501   4.792   2.311   3.118
 9868SOL     OW30502   0.507   3.862   3.680
 9868SOL    HW130503   0.538   3.948   3.721
 9868SOL    HW230504   0.566   3.788   3.712
 9869SOL     OW30505   0.503   2.526   1.420
 9869SOL    HW130506   0.599   2.537   1.443
 9869SOL    HW230507   0.451   2.504   1.503
 9870SOL     OW30508   4.369   1.248   1.962
 9870SOL    HW130509   4.380   1.293   2.051
 9870SOL    HW230510   4.423   1.164   1.960
 9871SOL     OW30511   6.667   2.320   6.001
 9871SOL    HW130512   6.646   2.255   5.928
 9871SOL    HW230513   6.755   2.363   5.983
 9872SOL     OW30514   2.028   5.486   5.563
 9872SOL    HW130515   2.053   5.390   5.549
 9872SOL    HW230516   2.047   5.538   5.479
 9873SOL     OW30517   1.994   2.161   5.341
 9873SOL    HW130518   1.898   2.185   5.329
 9873SOL    HW230519   2.008   2.125   5.434
 9874SOL     OW30520   0.755   3.101   4.597
 9874SOL    HW130521   0.715   3.013   4.572
 9874SOL    HW230522   0.699   3.175   4.560
 9875SOL     OW30523   0.174   6.223   1.393
 9875SOL    HW130524   0.206   6.205   1.486
 9875SOL    HW230525   0.235   6.289   1.349
 9876SOL     OW30526   3.806   7.018   3.560
 9876SOL    HW130527   3.774   6.982   3.472
 9876SOL    HW230528   3.883   6.962   3.592
 9877SOL     OW30529   6.995   4.110   3.825
 9877SOL    HW130530   6.992   4.028   3.768
 9877SOL    HW230531   0.038   4.175   3.786
 9878SOL     OW30532   1.688   3.202   6.920
 9878SOL    HW130533   1.671   3.111   6.884
 9878SOL    HW230534   1.730   3.195   7.011
 9879SOL     OW30535   0.984   4.573   6.019
 9879SOL    HW130536   0.972   4.646   5.952
 9879SOL    HW230537   0.910   4.507   6.010
 9880SOL     OW30538   2.713   0.870   6.692
 9880SOL    HW130539   2.618   0.883   6.720
 9880SOL    HW230540   2.750   0.957   6.659
 9881SOL     OW30541   5.691   0.410   4.338
 9881SOL    HW130542   5.742   0.437   4.420
 9881SOL    HW230543   5.668   0.313   4.343
 9882SOL     OW30544   3.376   3.294   4.367
 9882SOL    HW130545   3.342   3.290   4.274
 9882SOL    HW230546   3.299   3.298   4.431
 9883SOL     OW30547   1.892   6.152   1.981
 9883SOL    HW130548   1.959   6.226   1.990
 9883SOL    HW230549   1.869   6.141   1.884
 9884SOL     OW30550   2.145   2.980   6.917
 9884SOL    HW130551   2.228   3.023   6.954
 9884SOL    HW230552   2.071   2.987   6.984
 9885SOL     OW30553   0.284   3.134   3.992
 9885SOL    HW130554   0.331   3.154   3.906
 9885SOL    HW230555   0.298   3.210   4.056
 9886SOL     OW30556   6.322   6.627   1.564
 9886SOL    HW130557   6.267   6.549   1.536
 9886SOL    HW230558   6.405   6.632   1.508
 9887SOL     OW30559   3.985   6.958   0.636
 9887SOL    HW130560   3.901   6.909   0.613
 9887SOL    HW230561   3.985   0.025   0.589
 9888SOL     OW30562   5.818   5.876   3.064
 9888SOL    HW130563   5.846   5.970   3.085
 9888SOL    HW230564   5.773   5.837   3.145
 9889SOL     OW30565   0.420   4.673   3.132
 9889SOL    HW130566   0.512   4.639   3.149
 9889SOL    HW230567   0.380   4.626   3.054
 9890SOL     OW30568   6.455   2.887   0.909
 9890SOL    HW130569   6.551   2.897   0.934
 9890SOL    HW230570   6.418   2.978   0.887
 9891SOL     OW30571   5.367   4.847   1.191
 9891SOL    HW130572   5.441   4.895   1.144
 9891SOL    HW230573   5.401   4.760   1.227
 9892SOL     OW30574   2.121   4.772   3.870
 9892SOL    HW130575   2.050   4.842   3.859
 9892SOL    HW230576   2.101   4.717   3.951
 9893SOL     OW30577   6.395   5.828   3.065
 9893SOL    HW130578   6.361   5.896   3.001
 9893SOL    HW230579   6.437   5.874   3.144
 9894SOL     OW30580   3.141   2.113   5.885
 9894SOL    HW130581   3.143   2.190   5.821
 9894SOL    HW230582   3.170   2.144   5.975
 9895SOL     OW30583   5.854   2.214   6.592
 9895SOL    HW130584   5.796   2.168   6.525
 9895SOL    HW230585   5.798   2.246   6.668
 9896SOL     OW30586   3.945   3.287   0.924
 9896SOL    HW130587   3.899   3.375   0.909
 9896SOL    HW230588   3.937   3.230   0.842
 9897SOL     OW30589   5.339   1.454   3.125
 9897SOL    HW130590   5.361   1.538   3.074
 9897SOL    HW230591   5.296   1.388   3.063
 9898SOL     OW30592   1.202   4.848   5.574
 9898SOL    HW130593   1.266   4.821   5.502
 9898SOL    HW230594   1.132   4.908   5.536
 9899SOL     OW30595   5.766   4.434   2.234
 9899SOL    HW130596   5.825   4.505   2.194
 9899SOL    HW230597   5.783   4.429   2.332
 9900SOL     OW30598   1.391   2.041   3.053
 9900SOL    HW130599   1.295   2.018   3.065
 9900SOL    HW230600   1.401   2.109   2.981
 9901SOL     OW30601   1.488   1.784   6.337
 9901SOL    HW130602   1.437   1.841   6.271
 9901SOL    HW230603   1.431   1.706   6.364
 9902SOL     OW30604   3.858   3.131   0.690
 9902SOL    HW130605   3.903   3.055   0.644
 9902SOL    HW230606   3.760   3.112   0.699
 9903SOL     OW30607   4.771   0.647   2.305
 9903SOL    HW130608   4.829   0.608   2.234
 9903SOL    HW230609   4.691   0.690   2.264
 9904SOL     OW30610   0.067   3.687   6.619
 9904SOL    HW130611   0.033   3.594   6.608
 9904SOL    HW230612   0.090   3.726   6.530
 9905SOL     OW30613   1.552   6.375   0.176
 9905SOL    HW130614   1.619   6.442   0.210
 9905SOL    HW230615   1.598   6.311   0.114
 9906SOL     OW30616   1.642   3.181   6.353
 9906SOL    HW130617   1.640   3.153   6.258
 9906SOL    HW230618   1.552   3.216   6.380
 9907SOL     OW30619   2.732   6.303   3.918
 9907SOL    HW130620   2.735   6.336   3.824
 9907SOL    HW230621   2.707   6.207   3.920
 9908SOL     OW30622   0.710   3.042   6.548
 9908SOL    HW130623   0.735   3.077   6.638
 9908SOL    HW230624   0.636   3.097   6.509
 9909SOL     OW30625   3.416   0.909   3.041
 9909SOL    HW130626   3.457   0.818   3.046
 9909SOL    HW230627   3.486   0.977   3.021
 9910SOL     OW30628   0.566   4.996   0.990
 9910SOL    HW130629   0.539   4.950   0.905
 9910SOL    HW230630   0.582   5.093   0.972
 9911SOL     OW30631   5.092   4.918   2.626
 9911SOL    HW130632   5.160   4.851   2.655
 9911SOL    HW230633   5.007   4.904   2.678
 9912SOL     OW30634   3.748   0.640   2.715
 9912SOL    HW130635   3.748   0.566   2.649
 9912SOL    HW230636   3.784   0.608   2.803
 9913SOL     OW30637   5.709   2.726   2.467
 9913SOL    HW130638   5.633   2.675   2.426
 9913SOL    HW230639   5.727   2.808   2.412
 9914SOL     OW30640   1.516   0.759   5.765
 9914SOL    HW130641   1.599   0.780   5.816
 9914SOL    HW230642   1.492   0.836   5.706
 9915SOL     OW30643   5.610   3.915   3.892
 9915SOL    HW130644   5.600   3.846   3.820
 9915SOL    HW230645   5.526   3.920   3.946
 9916SOL     OW30646   2.451   2.653   3.143
 9916SOL    HW130647   2.468   2.628   3.239
 9916SOL    HW230648   2.528   2.623   3.087
 9917SOL     OW30649   3.656   3.757   4.894
 9917SOL    HW130650   3.556   3.760   4.882
 9917SOL    HW230651   3.681   3.813   4.973
 9918SOL     OW30652   1.849   1.470   6.576
 9918SOL    HW130653   1.826   1.519   6.660
 9918SOL    HW230654   1.766   1.445   6.528
 9919SOL     OW30655   1.924   5.504   2.583
 9919SOL    HW130656   2.008   5.525   2.633
 9919SOL    HW230657   1.909   5.573   2.513
 9920SOL     OW30658   3.635   6.787   2.066
 9920SOL    HW130659   3.709   6.792   2.132
 9920SOL    HW230660   3.667   6.739   1.984
 9921SOL     OW30661   6.148   6.457   3.532
 9921SOL    HW130662   6.216   6.411   3.588
 9921SOL    HW230663   6.191   6.532   3.482
 9922SOL     OW30664   4.623   4.312   0.802
 9922SOL    HW130665   4.549   4.293   0.737
 9922SOL    HW230666   4.608   4.261   0.886
 9923SOL     OW30667   6.901   2.461   6.666
 9923SOL    HW130668   6.928   2.549   6.706
 9923SOL    HW230669   6.955   2.445   6.583
 9924SOL     OW30670   5.760   1.434   1.907
 9924SOL    HW130671   5.746   1.457   2.003
 9924SOL    HW230672   5.707   1.352   1.883
 9925SOL     OW30673   1.889   3.710   5.623
 9925SOL    HW130674   1.863   3.799   5.585
 9925SOL    HW230675   1.846   3.637   5.569
 9926SOL     OW30676   2.529   2.026   1.098
 9926SOL    HW130677   2.492   2.062   1.184
 9926SOL    HW230678   2.459   2.031   1.027
 9927SOL     OW30679   1.014   2.235   1.965
 9927SOL    HW130680   1.065   2.165   2.014
 9927SOL    HW230681   1.067   2.320   1.962
 9928SOL     OW30682   6.992   4.751   1.864
 9928SOL    HW130683   7.007   4.675   1.801
 9928SOL    HW230684   6.937   4.720   1.942
 9929SOL     OW30685   3.173   4.459   5.455
 9929SOL    HW130686   3.080   4.426   5.445
 9929SOL    HW230687   3.231   4.416   5.386
 9930SOL     OW30688   0.019   0.731   5.535
 9930SOL    HW130689   0.080   0.664   5.491
 9930SOL    HW230690   0.020   0.816   5.483
 9931SOL     OW30691   0.424   6.127   4.569
 9931SOL    HW130692   0.391   6.033   4.557
 9931SOL    HW230693   0.519   6.126   4.598
 9932SOL     OW30694   1.833   2.012   0.796
 9932SOL    HW130695   1.823   1.920   0.835
 9932SOL    HW230696   1.796   2.014   0.704
 9933SOL     OW30697   2.746   0.748   3.356
 9933SOL    HW130698   2.783   0.675   3.413
 9933SOL    HW230699   2.647   0.754   3.369
 9934SOL     OW30700   5.782   1.795   0.572
 9934SOL    HW130701   5.748   1.720   0.516
 9934SOL    HW230702   5.705   1.841   0.616
 9935SOL     OW30703   2.718   2.489   0.989
 9935SOL    HW130704   2.748   2.426   1.060
 9935SOL    HW230705   2.766   2.577   0.999
 9936SOL     OW30706   5.209   4.949   6.169
 9936SOL    HW130707   5.264   4.988   6.095
 9936SOL    HW230708   5.256   4.869   6.206
 9937SOL     OW30709   0.085   0.315   3.136
 9937SOL    HW130710   0.077   0.225   3.179
 9937SOL    HW230711   0.028   0.318   3.053
 9938SOL     OW30712   5.995   0.665   4.420
 9938SOL    HW130713   6.007   0.731   4.495
 9938SOL    HW230714   6.031   0.704   4.336
 9939SOL     OW30715   1.304   3.706   0.775
 9939SOL    HW130716   1.229   3.665   0.827
 9939SOL    HW230717   1.391   3.670   0.808
 9940SOL     OW30718   6.868   6.933   3.589
 9940SOL    HW130719   6.820   6.929   3.676
 9940SOL    HW230720   6.818   6.881   3.520
 9941SOL     OW30721   3.736   5.019   5.772
 9941SOL    HW130722   3.767   4.951   5.706
 9941SOL    HW230723   3.763   5.110   5.741
 9942SOL     OW30724   4.782   5.078   2.349
 9942SOL    HW130725   4.854   5.011   2.367
 9942SOL    HW230726   4.810   5.166   2.387
 9943SOL     OW30727   1.553   3.985   5.983
 9943SOL    HW130728   1.552   3.979   6.083
 9943SOL    HW230729   1.507   3.906   5.944
 9944SOL     OW30730   0.692   4.982   6.182
 9944SOL    HW130731   0.755   4.921   6.229
 9944SOL    HW230732   0.633   5.027   6.249
 9945SOL     OW30733   6.044   3.974   6.681
 9945SOL    HW130734   6.118   3.990   6.616
 9945SOL    HW230735   6.061   4.028   6.764
 9946SOL     OW30736   5.954   0.166   3.161
 9946SOL    HW130737   5.982   0.262   3.156
 9946SOL    HW230738   5.856   0.159   3.144
 9947SOL     OW30739   1.157   1.691   4.273
 9947SOL    HW130740   1.146   1.786   4.302
 9947SOL    HW230741   1.090   1.670   4.202
 9948SOL     OW30742   6.826   6.399   4.875
 9948SOL    HW130743   6.836   6.477   4.814
 9948SOL    HW230744   6.784   6.323   4.826
 9949SOL     OW30745   6.834   4.598   4.325
 9949SOL    HW130746   6.771   4.656   4.273
 9949SOL    HW230747   6.928   4.617   4.297
 9950SOL     OW30748   6.405   4.737   6.287
 9950SOL    HW130749   6.350   4.659   6.316
 9950SOL    HW230750   6.390   4.813   6.351
 9951SOL     OW30751   1.214   2.963   2.898
 9951SOL    HW130752   1.207   2.897   2.823
 9951SOL    HW230753   1.212   2.914   2.986
 9952SOL     OW30754   0.855   3.767   1.715
 9952SOL    HW130755   0.789   3.692   1.719
 9952SOL    HW230756   0.945   3.735   1.745
 9953SOL     OW30757   6.453   2.678   3.764
 9953SOL    HW130758   6.461   2.747   3.692
 9953SOL    HW230759   6.366   2.629   3.754
 9954SOL     OW30760   2.623   1.668   5.066
 9954SOL    HW130761   2.717   1.702   5.070
 9954SOL    HW230762   2.610   1.617   4.980
 9955SOL     OW30763   4.415   3.257   6.918
 9955SOL    HW130764   4.501   3.207   6.902
 9955SOL    HW230765   4.431   3.355   6.904
 9956SOL     OW30766   0.418   4.587   2.248
 9956SOL    HW130767   0.367   4.530   2.183
 9956SOL    HW230768   0.360   4.604   2.328
 9957SOL     OW30769   5.442   6.780   1.364
 9957SOL    HW130770   5.346   6.778   1.391
 9957SOL    HW230771   5.499   6.800   1.444
 9958SOL     OW30772   3.375   5.270   6.507
 9958SOL    HW130773   3.431   5.188   6.492
 9958SOL    HW230774   3.353   5.278   6.604
 9959SOL     OW30775   4.329   3.730   1.652
 9959SOL    HW130776   4.406   3.774   1.607
 9959SOL    HW230777   4.244   3.774   1.624
 9960SOL     OW30778   6.378   6.425   1.263
 9960SOL    HW130779   6.472   6.399   1.285
 9960SOL    HW230780   6.315   6.362   1.310
 9961SOL     OW30781   1.464   4.616   1.984
 9961SOL    HW130782   1.470   4.617   2.084
 9961SOL    HW230783   1.390   4.554   1.955
 9962SOL     OW30784   3.639   0.098   1.848
 9962SOL    HW130785   3.617   0.064   1.939
 9962SOL    HW230786   3.646   0.198   1.851
 9963SOL     OW30787   2.851   2.290   0.640
 9963SOL    HW130788   2.896   2.208   0.606
 9963SOL    HW230789   2.900   2.325   0.719
 9964SOL     OW30790   3.955   4.848   5.928
 9964SOL    HW130791   4.029   4.877   5.868
 9964SOL    HW230792   3.978   4.761   5.971
 9965SOL     OW30793   3.774   5.460   4.983
 9965SOL    HW130794   3.682   5.432   4.956
 9965SOL    HW230795   3.838   5.445   4.908
 9966SOL     OW30796   2.968   5.016   2.211
 9966SOL    HW130797   3.043   5.055   2.264
 9966SOL    HW230798   2.942   5.078   2.137
 9967SOL     OW30799   6.341   6.054   2.874
 9967SOL    HW130800   6.287   6.137   2.889
 9967SOL    HW230801   6.431   6.065   2.916
 9968SOL     OW30802   4.344   5.904   0.057
 9968SOL    HW130803   4.436   5.866   0.051
 9968SOL    HW230804   4.297   5.865   0.136
 9969SOL     OW30805   1.026   4.342   4.398
 9969SOL    HW130806   1.096   4.328   4.468
 9969SOL    HW230807   0.937   4.351   4.442
 9970SOL     OW30808   5.858   4.949   1.555
 9970SOL    HW130809   5.949   4.969   1.518
 9970SOL    HW230810   5.862   4.945   1.654
 9971SOL     OW30811   1.153   2.622   1.639
 9971SOL    HW130812   1.172   2.717   1.616
 9971SOL    HW230813   1.064   2.615   1.684
 9972SOL     OW30814   2.935   4.275   1.130
 9972SOL    HW130815   2.937   4.175   1.126
 9972SOL    HW230816   2.859   4.305   1.188
 9973SOL     OW30817   4.564   2.751   5.207
 9973SOL    HW130818   4.476   2.752   5.254
 9973SOL    HW230819   4.638   2.746   5.274
 9974SOL     OW30820   6.702   1.793   3.158
 9974SOL    HW130821   6.691   1.866   3.090
 9974SOL    HW230822   6.793   1.754   3.149
 9975SOL     OW30823   0.523   5.125   6.363
 9975SOL    HW130824   0.445   5.062   6.363
 9975SOL    HW230825   0.504   5.201   6.424
 9976SOL     OW30826   1.049   5.079   5.646
 9976SOL    HW130827   1.030   5.173   5.673
 9976SOL    HW230828   1.026   5.017   5.722
 9977SOL     OW30829   5.041   4.845   5.789
 9977SOL    HW130830   5.003   4.774   5.730
 9977SOL    HW230831   5.024   4.822   5.884
 9978SOL     OW30832   0.121   2.085   5.800
 9978SOL    HW130833   0.152   2.171   5.761
 9978SOL    HW230834   0.074   2.031   5.730
 9979SOL     OW30835   5.369   4.228   5.836
 9979SOL    HW130836   5.329   4.225   5.927
 9979SOL    HW230837   5.376   4.134   5.800
 9980SOL     OW30838   2.117   0.650   0.660
 9980SOL    HW130839   2.019   0.636   0.670
 9980SOL    HW230840   2.161   0.563   0.634
 9981SOL     OW30841   1.692   2.198   1.189
 9981SOL    HW130842   1.616   2.138   1.215
 9981SOL    HW230843   1.656   2.287   1.161
 9982SOL     OW30844   2.084   0.790   4.464
 9982SOL    HW130845   2.033   0.736   4.532
 9982SOL    HW230846   2.020   0.830   4.399
 9983SOL     OW30847   6.675   2.440   2.533
 9983SOL    HW130848   6.654   2.387   2.616
 9983SOL    HW230849   6.592   2.484   2.500
 9984SOL     OW30850   0.073   5.695   0.667
 9984SOL    HW130851   0.157   5.730   0.708
 9984SOL    HW230852   7.018   5.754   0.691
 9985SOL     OW30853   2.900   5.301   1.040
 9985SOL    HW130854   2.995   5.279   1.020
 9985SOL    HW230855   2.896   5.379   1.102
 9986SOL     OW30856   6.330   4.684   0.612
 9986SOL    HW130857   6.427   4.667   0.596
 9986SOL    HW230858   6.294   4.743   0.540
 9987SOL     OW30859   5.030   2.788   1.787
 9987SOL    HW130860   5.118   2.742   1.777
 9987SOL    HW230861   5.036   2.856   1.859
 9988SOL     OW30862   6.986   5.083   4.464
 9988SOL    HW130863   0.026   5.047   4.533
 9988SOL    HW230864   6.978   5.018   4.388
 9989SOL     OW30865   6.130   3.822   2.195
 9989SOL    HW130866   6.150   3.846   2.100
 9989SOL    HW230867   6.073   3.893   2.236
 9990SOL     OW30868   1.423   6.259   3.108
 9990SOL    HW130869   1.492   6.284   3.039
 9990SOL    HW230870   1.400   6.340   3.162
 9991SOL     OW30871   2.167   3.351   4.218
 9991SOL    HW130872   2.174   3.449   4.200
 9991SOL    HW230873   2.162   3.335   4.317
 9992SOL     OW30874   3.137   3.527   0.992
 9992SOL    HW130875   3.070   3.465   1.033
 9992SOL    HW230876   3.228   3.488   1.000
 9993SOL     OW30877   3.123   6.391   4.008
 9993SOL    HW130878   3.049   6.437   3.960
 9993SOL    HW230879   3.132   6.297   3.973
 9994SOL     OW30880   6.996   4.112   3.374
 9994SOL    HW130881   6.982   4.013   3.368
 9994SOL    HW230882   6.907   4.158   3.371
 9995SOL     OW30883   3.631   0.915   3.328
 9995SOL    HW130884   3.688   0.871   3.259
 9995SOL    HW230885   3.565   0.975   3.284
 9996SOL     OW30886   2.980   3.965   1.030
 9996SOL    HW130887   3.018   3.961   0.937
 9996SOL    HW230888   3.014   3.887   1.083
 9997SOL     OW30889   5.051   1.352   3.510
 9997SOL    HW130890   5.058   1.452   3.507
 9997SOL    HW230891   5.143   1.313   3.508
 9998SOL     OW30892   4.863   3.886   2.246
 9998SOL    HW130893   4.767   3.906   2.266
 9998SOL    HW230894   4.922   3.947   2.299
 9999SOL     OW30895   0.349   6.446   4.137
 9999SOL    HW130896   0.425   6.404   4.185
 9999SOL    HW230897   0.382   6.521   4.080
10000SOL     OW30898   5.886   1.821   1.544
10000SOL    HW130899   5.969   1.877   1.537
10000SOL    HW230900   5.884   1.755   1.470
10001SOL     OW30901   3.380   6.668   2.128
10001SOL    HW130902   3.302   6.728   2.112
10001SOL    HW230903   3.465   6.718   2.113
10002SOL     OW30904   2.568   1.323   0.990
10002SOL    HW130905   2.586   1.384   1.066
10002SOL    HW230906   2.489   1.265   1.011
10003SOL     OW30907   3.097   1.612   2.100
10003SOL    HW130908   3.169   1.682   2.103
10003SOL    HW230909   3.055   1.604   2.190
10004SOL     OW30910   5.243   3.771   4.831
10004SOL    HW130911   5.190   3.734   4.907
10004SOL    HW230912   5.324   3.714   4.816
10005SOL     OW30913   3.336   5.309   2.775
10005SOL    HW130914   3.412   5.355   2.822
10005SOL    HW230915   3.286   5.375   2.720
10006SOL     OW30916   5.333   6.988   5.392
10006SOL    HW130917   5.259   0.026   5.363
10006SOL    HW230918   5.329   6.902   5.341
10007SOL     OW30919   0.937   3.476   4.721
10007SOL    HW130920   0.937   3.377   4.705
10007SOL    HW230921   0.869   3.498   4.792
10008SOL     OW30922   5.251   2.018   3.569
10008SOL    HW130923   5.198   1.944   3.611
10008SOL    HW230924   5.335   2.033   3.620
10009SOL     OW30925   1.909   4.599   1.688
10009SOL    HW130926   1.864   4.671   1.635
10009SOL    HW230927   1.911   4.624   1.784
10010SOL     OW30928   3.124   5.779   0.120
10010SOL    HW130929   3.203   5.826   0.080
10010SOL    HW230930   3.128   5.786   0.220
10011SOL     OW30931   0.220   4.039   6.785
10011SOL    HW130932   0.136   4.004   6.743
10011SOL    HW230933   0.266   4.100   6.721
10012SOL     OW30934   5.031   7.014   2.406
10012SOL    HW130935   5.075   6.950   2.469
10012SOL    HW230936   5.025   0.082   2.450
10013SOL     OW30937   1.132   3.442   3.948
10013SOL    HW130938   1.053   3.455   4.008
10013SOL    HW230939   1.190   3.523   3.950
10014SOL     OW30940   0.898   6.752   1.673
10014SOL    HW130941   0.981   6.763   1.619
10014SOL    HW230942   0.870   6.841   1.709
10015SOL     OW30943   4.060   5.096   0.364
10015SOL    HW130944   4.150   5.095   0.320
10015SOL    HW230945   4.038   5.190   0.391
10016SOL     OW30946   2.476   1.184   4.879
10016SOL    HW130947   2.462   1.088   4.856
10016SOL    HW230948   2.388   1.226   4.900
10017SOL     OW30949   1.397   1.469   2.797
10017SOL    HW130950   1.330   1.475   2.722
10017SOL    HW230951   1.457   1.391   2.782
10018SOL     OW30952   6.381   4.106   5.563
10018SOL    HW130953   6.470   4.141   5.532
10018SOL    HW230954   6.317   4.106   5.487
10019SOL     OW30955   0.099   1.574   2.991
10019SOL    HW130956   0.070   1.648   2.931
10019SOL    HW230957   0.066   1.486   2.956
10020SOL     OW30958   0.273   0.929   2.033
10020SOL    HW130959   0.330   0.906   1.953
10020SOL    HW230960   0.274   0.853   2.097
10021SOL     OW30961   0.693   3.096   2.425
10021SOL    HW130962   0.727   3.038   2.499
10021SOL    HW230963   0.763   3.164   2.401
10022SOL     OW30964   3.165   5.759   0.397
10022SOL    HW130965   3.072   5.787   0.421
10022SOL    HW230966   3.196   5.687   0.460
10023SOL     OW30967   2.031   5.419   5.106
10023SOL    HW130968   2.126   5.394   5.089
10023SOL    HW230969   2.001   5.381   5.193
10024SOL     OW30970   0.956   5.303   3.026
10024SOL    HW130971   1.022   5.379   3.023
10024SOL    HW230972   0.998   5.225   3.072
10025SOL     OW30973   1.505   3.220   1.911
10025SOL    HW130974   1.467   3.261   1.828
10025SOL    HW230975   1.605   3.220   1.905
10026SOL     OW30976   4.929   6.956   3.466
10026SOL    HW130977   4.988   6.877   3.486
10026SOL    HW230978   4.914   7.009   3.549
10027SOL     OW30979   0.814   1.896   5.131
10027SOL    HW130980   0.716   1.914   5.146
10027SOL    HW230981   0.832   1.799   5.148
10028SOL     OW30982   2.298   1.591   1.578
10028SOL    HW130983   2.277   1.531   1.501
10028SOL    HW230984   2.228   1.662   1.585
10029SOL     OW30985   1.462   3.190   3.402
10029SOL    HW130986   1.396   3.228   3.467
10029SOL    HW230987   1.500   3.264   3.347
10030SOL     OW30988   3.460   0.650   5.070
10030SOL    HW130989   3.400   0.724   5.042
10030SOL    HW230990   3.461   0.644   5.170
10031SOL     OW30991   5.080   5.122   4.483
10031SOL    HW130992   5.083   5.177   4.400
10031SOL    HW230993   5.171   5.086   4.503
10032SOL     OW30994   4.453   0.467   5.707
10032SOL    HW130995   4.369   0.471   5.761
10032SOL    HW230996   4.435   0.505   5.616
10033SOL     OW30997   4.399   2.259   4.475
10033SOL    HW130998   4.334   2.271   4.550
10033SOL    HW230999   4.486   2.303   4.499
10034SOL     OW31000   2.556   0.581   3.732
10034SOL    HW131001   2.503   0.654   3.688
10034SOL    HW231002   2.653   0.594   3.711
10035SOL     OW31003   6.112   4.157   0.675
10035SOL    HW131004   6.173   4.197   0.744
10035SOL    HW231005   6.109   4.217   0.595
10036SOL     OW31006   0.241   0.510   0.439
10036SOL    HW131007   0.195   0.431   0.480
10036SOL    HW231008   0.333   0.520   0.478
10037SOL     OW31009   6.075   0.318   6.907
10037SOL    HW131010   6.052   0.266   6.825
10037SOL    HW231011   6.057   0.415   6.892
10038SOL     OW31012   4.390   0.133   6.135
10038SOL    HW131013   4.481   0.126   6.094
10038SOL    HW231014   4.379   0.062   6.204
10039SOL     OW31015   5.437   6.878   5.606
10039SOL    HW131016   5.513   6.936   5.638
10039SOL    HW231017   5.391   6.922   5.530
10040SOL     OW31018   4.492   5.978   5.837
10040SOL    HW131019   4.399   6.001   5.809
10040SOL    HW231020   4.549   5.968   5.756
10041SOL     OW31021   5.366   5.576   6.421
10041SOL    HW131022   5.369   5.483   6.456
10041SOL    HW231023   5.271   5.609   6.422
10042SOL     OW31024   0.838   1.246   5.395
10042SOL    HW131025   0.910   1.237   5.326
10042SOL    HW231026   0.759   1.291   5.354
10043SOL     OW31027   0.584   1.286   3.914
10043SOL    HW131028   0.504   1.311   3.970
10043SOL    HW231029   0.564   1.305   3.818
10044SOL     OW31030   2.628   2.049   3.492
10044SOL    HW131031   2.630   2.074   3.589
10044SOL    HW231032   2.709   1.995   3.471
10045SOL     OW31033   4.949   0.075   3.696
10045SOL    HW131034   4.917   0.158   3.740
10045SOL    HW231035   4.973   0.007   3.765
10046SOL     OW31036   1.491   2.733   1.060
10046SOL    HW131037   1.399   2.773   1.069
10046SOL    HW231038   1.559   2.806   1.062
10047SOL     OW31039   5.415   3.368   5.003
10047SOL    HW131040   5.423   3.299   4.931
10047SOL    HW231041   5.326   3.361   5.047
10048SOL     OW31042   3.744   1.862   2.390
10048SOL    HW131043   3.785   1.950   2.365
10048SOL    HW231044   3.666   1.878   2.451
10049SOL     OW31045   0.300   0.323   6.289
10049SOL    HW131046   0.374   0.354   6.350
10049SOL    HW231047   0.302   0.223   6.283
10050SOL     OW31048   6.354   2.498   5.215
10050SOL    HW131049   6.354   2.597   5.198
10050SOL    HW231050   6.291   2.477   5.289
10051SOL     OW31051   6.250   1.949   5.173
10051SOL    HW131052   6.197   2.006   5.235
10051SOL    HW231053   6.252   1.992   5.082
10052SOL     OW31054   2.617   1.988   3.012
10052SOL    HW131055   2.599   1.973   3.110
10052SOL    HW231056   2.645   1.902   2.970
10053SOL     OW31057   3.787   5.499   1.712
10053SOL    HW131058   3.857   5.485   1.782
10053SOL    HW231059   3.704   5.535   1.755
10054SOL     OW31060   4.605   5.726   5.898
10054SOL    HW131061   4.579   5.822   5.888
10054SOL    HW231062   4.617   5.704   5.995
10055SOL     OW31063   5.632   2.194   5.454
10055SOL    HW131064   5.690   2.188   5.373
10055SOL    HW231065   5.574   2.113   5.459
10056SOL     OW31066   6.536   4.933   1.263
10056SOL    HW131067   6.477   4.858   1.234
10056SOL    HW231068   6.606   4.897   1.325
10057SOL     OW31069   3.948   1.954   4.609
10057SOL    HW131070   3.946   1.917   4.516
10057SOL    HW231071   4.033   2.004   4.623
10058SOL     OW31072   0.182   3.895   4.457
10058SOL    HW131073   0.162   3.813   4.511
10058SOL    HW231074   0.147   3.883   4.364
10059SOL     OW31075   5.372   6.305   0.620
10059SOL    HW131076   5.356   6.230   0.555
10059SOL    HW231077   5.427   6.271   0.697
10060SOL     OW31078   2.036   1.846   1.851
10060SOL    HW131079   1.942   1.871   1.872
10060SOL    HW231080   2.094   1.928   1.856
10061SOL     OW31081   5.178   0.859   4.738
10061SOL    HW131082   5.163   0.878   4.641
10061SOL    HW231083   5.091   0.842   4.783
10062SOL     OW31084   6.570   0.133   4.744
10062SOL    HW131085   6.631   0.080   4.802
10062SOL    HW231086   6.600   0.229   4.744
10063SOL     OW31087   1.458   1.889   4.017
10063SOL    HW131088   1.407   1.804   3.999
10063SOL    HW231089   1.462   1.944   3.933
10064SOL     OW31090   5.227   6.098   6.597
10064SOL    HW131091   5.206   6.192   6.625
10064SOL    HW231092   5.142   6.051   6.572
10065SOL     OW31093   2.285   0.677   2.613
10065SOL    HW131094   2.211   0.672   2.545
10065SOL    HW231095   2.251   0.722   2.695
10066SOL     OW31096   1.488   1.265   3.765
10066SOL    HW131097   1.416   1.245   3.832
10066SOL    HW231098   1.560   1.196   3.773
10067SOL     OW31099   6.229   3.867   4.848
10067SOL    HW131100   6.311   3.921   4.827
10067SOL    HW231101   6.171   3.917   4.912
10068SOL     OW31102   6.207   3.164   3.581
10068SOL    HW131103   6.292   3.211   3.561
10068SOL    HW231104   6.135   3.231   3.598
10069SOL     OW31105   1.832   5.280   3.904
10069SOL    HW131106   1.908   5.255   3.963
10069SOL    HW231107   1.821   5.211   3.832
10070SOL     OW31108   6.716   0.166   5.019
10070SOL    HW131109   6.745   0.254   4.982
10070SOL    HW231110   6.658   0.181   5.099
10071SOL     OW31111   5.501   5.423   3.818
10071SOL    HW131112   5.501   5.457   3.723
10071SOL    HW231113   5.579   5.363   3.831
10072SOL     OW31114   0.244   5.806   3.682
10072SOL    HW131115   0.172   5.870   3.707
10072SOL    HW231116   0.222   5.715   3.719
10073SOL     OW31117   6.047   4.844   4.798
10073SOL    HW131118   6.118   4.821   4.863
10073SOL    HW231119   6.048   4.943   4.779
10074SOL     OW31120   1.510   1.257   5.092
10074SOL    HW131121   1.437   1.290   5.032
10074SOL    HW231122   1.483   1.270   5.187
10075SOL     OW31123   1.074   2.628   2.936
10075SOL    HW131124   1.164   2.606   2.898
10075SOL    HW231125   1.081   2.707   2.997
10076SOL     OW31126   6.403   0.148   3.666
10076SOL    HW131127   6.353   0.202   3.735
10076SOL    HW231128   6.377   0.052   3.674
10077SOL     OW31129   3.361   3.118   5.987
10077SOL    HW131130   3.280   3.172   6.008
10077SOL    HW231131   3.443   3.167   6.017
10078SOL     OW31132   0.170   5.549   3.786
10078SOL    HW131133   0.078   5.511   3.776
10078SOL    HW231134   0.204   5.531   3.878
10079SOL     OW31135   0.465   3.667   2.468
10079SOL    HW131136   0.441   3.610   2.389
10079SOL    HW231137   0.536   3.732   2.441
10080SOL     OW31138   3.515   1.469   5.469
10080SOL    HW131139   3.439   1.408   5.493
10080SOL    HW231140   3.486   1.564   5.477
10081SOL     OW31141   0.549   0.704   0.190
10081SOL    HW131142   0.607   0.682   0.111
10081SOL    HW231143   0.464   0.746   0.157
10082SOL     OW31144   0.005   4.965   2.228
10082SOL    HW131145   0.097   4.958   2.188
10082SOL    HW231146   6.971   5.027   2.173
10083SOL     OW31147   5.000   0.511   2.982
10083SOL    HW131148   4.971   0.486   3.075
10083SOL    HW231149   4.936   0.578   2.945
10084SOL     OW31150   3.107   1.291   6.135
10084SOL    HW131151   3.051   1.357   6.085
10084SOL    HW231152   3.087   1.297   6.233
10085SOL     OW31153   1.085   6.563   2.287
10085SOL    HW131154   1.161   6.549   2.223
10085SOL    HW231155   1.000   6.570   2.235
10086SOL     OW31156   5.683   5.240   1.788
10086SOL    HW131157   5.626   5.317   1.762
10086SOL    HW231158   5.631   5.180   1.849
10087SOL     OW31159   0.051   6.627   3.804
10087SOL    HW131160   0.076   6.702   3.743
10087SOL    HW231161   0.112   6.550   3.788
10088SOL     OW31162   6.965   0.558   0.107
10088SOL    HW131163   0.011   0.536   0.178
10088SOL    HW231164   6.970   0.655   0.085
10089SOL     OW31165   2.731   2.138   2.799
10089SOL    HW131166   2.706   2.073   2.871
10089SOL    HW231167   2.783   2.091   2.728
10090SOL     OW31168   0.972   5.113   0.694
10090SOL    HW131169   1.013   5.142   0.781
10090SOL    HW231170   0.876   5.091   0.707
10091SOL     OW31171   1.161   3.699   5.722
10091SOL    HW131172   1.085   3.749   5.764
10091SOL    HW231173   1.127   3.613   5.684
10092SOL     OW31174   1.592   3.396   4.902
10092SOL    HW131175   1.517   3.347   4.859
10092SOL    HW231176   1.625   3.343   4.981
10093SOL     OW31177   0.203   3.907   5.017
10093SOL    HW131178   0.282   3.903   4.955
10093SOL    HW231179   0.137   3.974   4.982
10094SOL     OW31180   1.635   6.233   2.142
10094SOL    HW131181   1.659   6.164   2.073
10094SOL    HW231182   1.590   6.311   2.097
10095SOL     OW31183   6.124   1.730   5.021
10095SOL    HW131184   6.064   1.673   5.077
10095SOL    HW231185   6.168   1.799   5.079
10096SOL     OW31186   5.348   5.121   2.359
10096SOL    HW131187   5.400   5.039   2.382
10096SOL    HW231188   5.368   5.148   2.264
10097SOL     OW31189   0.945   0.891   0.154
10097SOL    HW131190   0.988   0.824   0.215
10097SOL    HW231191   0.896   0.842   0.081
10098SOL     OW31192   2.651   0.778   5.534
10098SOL    HW131193   2.621   0.713   5.603
10098SOL    HW231194   2.571   0.817   5.487
10099SOL     OW31195   6.943   4.808   0.535
10099SOL    HW131196   6.920   4.893   0.582
10099SOL    HW231197   6.961   4.826   0.439
10100SOL     OW31198   5.076   0.074   4.287
10100SOL    HW131199   4.978   0.064   4.270
10100SOL    HW231200   5.092   0.158   4.339
10101SOL     OW31201   6.352   3.615   1.319
10101SOL    HW131202   6.378   3.615   1.222
10101SOL    HW231203   6.289   3.690   1.336
10102SOL     OW31204   1.449   0.516   2.592
10102SOL    HW131205   1.500   0.483   2.512
10102SOL    HW231206   1.457   0.615   2.598
10103SOL     OW31207   2.339   1.835   6.220
10103SOL    HW131208   2.403   1.759   6.207
10103SOL    HW231209   2.354   1.877   6.310
10104SOL     OW31210   1.226   2.617   4.167
10104SOL    HW131211   1.296   2.656   4.108
10104SOL    HW231212   1.143   2.601   4.114
10105SOL     OW31213   0.901   0.677   0.487
10105SOL    HW131214   0.888   0.621   0.569
10105SOL    HW231215   0.854   0.635   0.410
10106SOL     OW31216   4.473   6.858   0.711
10106SOL    HW131217   4.550   6.894   0.659
10106SOL    HW231218   4.489   6.762   0.733
10107SOL     OW31219   0.592   0.975   6.438
10107SOL    HW131220   0.587   0.900   6.371
10107SOL    HW231221   0.507   1.026   6.437
10108SOL     OW31222   6.866   6.500   0.298
10108SOL    HW131223   6.931   6.424   0.304
10108SOL    HW231224   6.818   6.496   0.211
10109SOL     OW31225   4.479   0.413   0.953
10109SOL    HW131226   4.417   0.359   0.897
10109SOL    HW231227   4.451   0.407   1.049
10110SOL     OW31228   4.522   6.112   4.729
10110SOL    HW131229   4.497   6.103   4.825
10110SOL    HW231230   4.480   6.039   4.676
10111SOL     OW31231   5.276   3.855   3.738
10111SOL    HW131232   5.244   3.823   3.648
10111SOL    HW231233   5.254   3.786   3.807
10112SOL     OW31234   5.656   4.118   3.663
10112SOL    HW131235   5.606   4.198   3.697
10112SOL    HW231236   5.637   4.040   3.723
10113SOL     OW31237   4.491   0.105   5.449
10113SOL    HW131238   4.414   0.074   5.506
10113SOL    HW231239   4.489   0.204   5.441
10114SOL     OW31240   5.936   1.260   1.183
10114SOL    HW131241   5.960   1.345   1.231
10114SOL    HW231242   5.841   1.236   1.203
10115SOL     OW31243   3.240   1.378   4.110
10115SOL    HW131244   3.330   1.340   4.089
10115SOL    HW231245   3.239   1.411   4.204
10116SOL     OW31246   6.903   5.891   0.492
10116SOL    HW131247   6.888   5.847   0.581
10116SOL    HW231248   6.979   5.846   0.445
10117SOL     OW31249   0.254   6.462   4.964
10117SOL    HW131250   0.277   6.537   4.904
10117SOL    HW231251   0.164   6.425   4.939
10118SOL     OW31252   1.889   5.149   2.944
10118SOL    HW131253   1.903   5.103   3.032
10118SOL    HW231254   1.912   5.246   2.953
10119SOL     OW31255   0.348   5.833   4.575
10119SOL    HW131256   0.428   5.814   4.518
10119SOL    HW231257   0.376   5.849   4.669
10120SOL     OW31258   1.811   4.195   5.078
10120SOL    HW131259   1.868   4.274   5.103
10120SOL    HW231260   1.854   4.147   5.001
10121SOL     OW31261   6.238   3.998   6.485
10121SOL    HW131262   6.267   3.915   6.437
10121SOL    HW231263   6.209   4.067   6.419
10122SOL     OW31264   6.241   2.715   1.475
10122SOL    HW131265   6.181   2.663   1.536
10122SOL    HW231266   6.256   2.662   1.391
10123SOL     OW31267   6.086   6.868   0.473
10123SOL    HW131268   6.120   6.942   0.531
10123SOL    HW231269   6.138   6.784   0.491
10124SOL     OW31270   1.733   3.704   6.825
10124SOL    HW131271   1.638   3.674   6.830
10124SOL    HW231272   1.770   3.684   6.734
10125SOL     OW31273   1.975   1.078   2.474
10125SOL    HW131274   2.006   1.166   2.510
10125SOL    HW231275   1.979   1.080   2.374
10126SOL     OW31276   0.662   6.669   5.867
10126SOL    HW131277   0.619   6.759   5.872
10126SOL    HW231278   0.638   6.616   5.949
10127SOL     OW31279   2.425   4.786   6.534
10127SOL    HW131280   2.399   4.699   6.577
10127SOL    HW231281   2.524   4.795   6.533
10128SOL     OW31282   1.892   1.106   1.430
10128SOL    HW131283   1.915   1.053   1.512
10128SOL    HW231284   1.937   1.195   1.435
10129SOL     OW31285   5.579   2.353   2.931
10129SOL    HW131286   5.643   2.429   2.940
10129SOL    HW231287   5.503   2.366   2.993
10130SOL     OW31288   1.358   3.927   2.187
10130SOL    HW131289   1.373   3.852   2.124
10130SOL    HW231290   1.282   3.906   2.247
10131SOL     OW31291   0.850   0.174   3.728
10131SOL    HW131292   0.809   0.163   3.638
10131SOL    HW231293   0.870   0.084   3.766
10132SOL     OW31294   3.337   0.011   4.893
10132SOL    HW131295   3.399   0.080   4.931
10132SOL    HW231296   3.368   7.008   4.801
10133SOL     OW31297   4.638   6.470   1.275
10133SOL    HW131298   4.662   6.452   1.371
10133SOL    HW231299   4.677   6.557   1.247
10134SOL     OW31300   7.007   5.977   3.996
10134SOL    HW131301   0.068   5.941   4.039
10134SOL    HW231302   7.004   5.949   3.900
10135SOL     OW31303   5.001   3.257   3.726
10135SOL    HW131304   4.931   3.298   3.785
10135SOL    HW231305   4.958   3.221   3.643
10136SOL     OW31306   4.927   0.441   3.228
10136SOL    HW131307   4.939   0.530   3.271
10136SOL    HW231308   4.866   0.384   3.283
10137SOL     OW31309   5.895   4.446   3.653
10137SOL    HW131310   5.913   4.356   3.693
10137SOL    HW231311   5.816   4.441   3.593
10138SOL     OW31312   5.166   2.982   0.663
10138SOL    HW131313   5.136   3.055   0.725
10138SOL    HW231314   5.202   2.906   0.716
10139SOL     OW31315   3.788   3.943   3.275
10139SOL    HW131316   3.720   3.870   3.266
10139SOL    HW231317   3.744   4.026   3.309
10140SOL     OW31318   6.053   6.195   6.601
10140SOL    HW131319   5.974   6.255   6.613
10140SOL    HW231320   6.085   6.199   6.507
10141SOL     OW31321   4.237   1.885   4.823
10141SOL    HW131322   4.315   1.894   4.885
10141SOL    HW231323   4.257   1.814   4.755
10142SOL     OW31324   6.449   6.758   5.123
10142SOL    HW131325   6.382   6.701   5.171
10142SOL    HW231326   6.404   6.843   5.094
10143SOL     OW31327   4.566   0.987   6.614
10143SOL    HW131328   4.587   0.930   6.693
10143SOL    HW231329   4.485   1.043   6.634
10144SOL     OW31330   3.715   0.263   6.581
10144SOL    HW131331   3.633   0.315   6.559
10144SOL    HW231332   3.714   0.238   6.677
10145SOL     OW31333   3.179   5.509   5.079
10145SOL    HW131334   3.147   5.419   5.049
10145SOL    HW231335   3.112   5.548   5.143
10146SOL     OW31336   4.115   5.079   4.782
10146SOL    HW131337   4.115   5.175   4.808
10146SOL    HW231338   4.187   5.063   4.715
10147SOL     OW31339   5.257   3.840   5.169
10147SOL    HW131340   5.340   3.889   5.142
10147SOL    HW231341   5.180   3.869   5.113
10148SOL     OW31342   4.792   5.509   6.884
10148SOL    HW131343   4.806   5.451   6.804
10148SOL    HW231344   4.866   5.493   6.950
10149SOL     OW31345   6.325   2.969   0.608
10149SOL    HW131346   6.320   3.040   0.679
10149SOL    HW231347   6.337   3.012   0.519
10150SOL     OW31348   4.030   3.997   0.314
10150SOL    HW131349   3.959   3.998   0.384
10150SOL    HW231350   3.990   4.013   0.224
10151SOL     OW31351   0.594   7.004   6.739
10151SOL    HW131352   0.668   6.983   6.803
10151SOL    HW231353   0.546   6.920   6.714
10152SOL     OW31354   6.681   6.062   4.482
10152SOL    HW131355   6.706   5.971   4.515
10152SOL    HW231356   6.606   6.054   4.417
10153SOL     OW31357   5.110   6.565   4.073
10153SOL    HW131358   5.018   6.541   4.042
10153SOL    HW231359   5.104   6.618   4.158
10154SOL     OW31360   5.022   6.756   5.475
10154SOL    HW131361   5.043   6.814   5.554
10154SOL    HW231362   4.969   6.809   5.408
10155SOL     OW31363   3.707   2.778   5.662
10155SOL    HW131364   3.670   2.788   5.754
10155SOL    HW231365   3.807   2.768   5.667
10156SOL     OW31366   5.874   0.777   2.848
10156SOL    HW131367   5.900   0.867   2.884
10156SOL    HW231368   5.796   0.742   2.899
10157SOL     OW31369   0.051   2.745   0.397
10157SOL    HW131370   0.064   2.772   0.302
10157SOL    HW231371   0.085   2.652   0.411
10158SOL     OW31372   5.878   4.179   0.841
10158SOL    HW131373   5.938   4.172   0.761
10158SOL    HW231374   5.885   4.095   0.895
10159SOL     OW31375   2.729   3.520   0.012
10159SOL    HW131376   2.825   3.493   0.014
10159SOL    HW231377   2.699   3.528   6.938
10160SOL     OW31378   1.742   2.960   2.162
10160SOL    HW131379   1.652   2.916   2.169
10160SOL    HW231380   1.789   2.954   2.250
10161SOL     OW31381   2.729   3.032   6.541
10161SOL    HW131382   2.707   2.939   6.571
10161SOL    HW231383   2.743   3.032   6.442
10162SOL     OW31384   3.575   4.566   0.620
10162SOL    HW131385   3.618   4.560   0.530
10162SOL    HW231386   3.624   4.634   0.675
10163SOL     OW31387   5.785   4.669   6.421
10163SOL    HW131388   5.762   4.594   6.483
10163SOL    HW231389   5.730   4.661   6.338
10164SOL     OW31390   5.853   3.891   4.909
10164SOL    HW131391   5.796   3.971   4.925
10164SOL    HW231392   5.918   3.910   4.836
10165SOL     OW31393   0.051   1.934   3.182
10165SOL    HW131394   0.022   1.839   3.181
10165SOL    HW231395   0.005   1.982   3.257
10166SOL     OW31396   3.282   1.922   1.828
10166SOL    HW131397   3.196   1.947   1.872
10166SOL    HW231398   3.340   2.003   1.820
10167SOL     OW31399   2.290   3.466   0.077
10167SOL    HW131400   2.229   3.470   7.020
10167SOL    HW231401   2.312   3.559   0.107
10168SOL     OW31402   5.655   3.628   6.299
10168SOL    HW131403   5.731   3.588   6.247
10168SOL    HW231404   5.630   3.567   6.374
10169SOL     OW31405   6.710   4.197   3.875
10169SOL    HW131406   6.803   4.164   3.893
10169SOL    HW231407   6.664   4.216   3.962
10170SOL     OW31408   0.622   5.529   5.383
10170SOL    HW131409   0.533   5.545   5.425
10170SOL    HW231410   0.691   5.514   5.454
10171SOL     OW31411   6.650   2.098   4.763
10171SOL    HW131412   6.672   2.133   4.854
10171SOL    HW231413   6.702   2.147   4.694
10172SOL     OW31414   0.018   6.254   4.924
10172SOL    HW131415   6.949   6.293   4.905
10172SOL    HW231416   0.013   6.200   5.008
10173SOL     OW31417   1.175   3.556   1.228
10173SOL    HW131418   1.132   3.578   1.315
10173SOL    HW231419   1.196   3.458   1.225
10174SOL     OW31420   5.315   5.263   2.844
10174SOL    HW131421   5.240   5.202   2.869
10174SOL    HW231422   5.328   5.332   2.915
10175SOL     OW31423   5.373   1.365   3.714
10175SOL    HW131424   5.337   1.411   3.633
10175SOL    HW231425   5.319   1.283   3.733
10176SOL     OW31426   0.642   3.583   5.364
10176SOL    HW131427   0.668   3.675   5.392
10176SOL    HW231428   0.543   3.578   5.352
10177SOL     OW31429   2.547   0.638   1.188
10177SOL    HW131430   2.475   0.707   1.195
10177SOL    HW231431   2.598   0.650   1.103
10178SOL     OW31432   0.789   0.607   6.018
10178SOL    HW131433   0.721   0.654   6.074
10178SOL    HW231434   0.765   0.618   5.921
10179SOL     OW31435   0.745   2.000   0.123
10179SOL    HW131436   0.651   2.000   0.089
10179SOL    HW231437   0.746   1.972   0.219
10180SOL     OW31438   4.395   0.766   5.603
10180SOL    HW131439   4.454   0.753   5.683
10180SOL    HW231440   4.299   0.767   5.633
10181SOL     OW31441   6.659   3.441   1.564
10181SOL    HW131442   6.622   3.468   1.476
10181SOL    HW231443   6.697   3.349   1.558
10182SOL     OW31444   4.487   0.991   1.418
10182SOL    HW131445   4.556   1.051   1.458
10182SOL    HW231446   4.515   0.896   1.431
10183SOL     OW31447   0.018   2.200   6.781
10183SOL    HW131448   7.014   2.214   6.877
10183SOL    HW231449   0.011   2.286   6.732
10184SOL     OW31450   4.730   1.119   6.070
10184SOL    HW131451   4.766   1.078   5.986
10184SOL    HW231452   4.632   1.136   6.060
10185SOL     OW31453   6.139   6.099   2.457
10185SOL    HW131454   6.109   6.034   2.527
10185SOL    HW231455   6.211   6.158   2.495
10186SOL     OW31456   6.115   3.437   3.694
10186SOL    HW131457   6.098   3.368   3.763
10186SOL    HW231458   6.183   3.503   3.728
10187SOL     OW31459   0.878   3.571   0.578
10187SOL    HW131460   0.959   3.614   0.538
10187SOL    HW231461   0.860   3.484   0.532
10188SOL     OW31462   3.980   5.342   0.706
10188SOL    HW131463   3.904   5.288   0.741
10188SOL    HW231464   3.949   5.436   0.692
10189SOL     OW31465   1.591   1.443   6.143
10189SOL    HW131466   1.641   1.428   6.229
10189SOL    HW231467   1.621   1.528   6.101
10190SOL     OW31468   4.988   3.009   1.958
10190SOL    HW131469   4.890   2.999   1.977
10190SOL    HW231470   5.003   3.092   1.904
10191SOL     OW31471   5.252   5.721   6.084
10191SOL    HW131472   5.204   5.800   6.047
10191SOL    HW231473   5.350   5.731   6.067
10192SOL     OW31474   4.252   1.150   5.395
10192SOL    HW131475   4.213   1.191   5.478
10192SOL    HW231476   4.337   1.103   5.418
10193SOL     OW31477   3.890   3.609   1.761
10193SOL    HW131478   3.826   3.548   1.806
10193SOL    HW231479   3.984   3.580   1.782
10194SOL     OW31480   5.583   6.062   5.517
10194SOL    HW131481   5.649   6.134   5.537
10194SOL    HW231482   5.558   6.015   5.601
10195SOL     OW31483   5.854   5.920   0.783
10195SOL    HW131484   5.864   5.972   0.698
10195SOL    HW231485   5.930   5.856   0.792
10196SOL     OW31486   4.971   1.369   3.794
10196SOL    HW131487   4.920   1.440   3.843
10196SOL    HW231488   4.908   1.315   3.738
10197SOL     OW31489   5.943   1.573   5.169
10197SOL    HW131490   5.920   1.598   5.263
10197SOL    HW231491   5.862   1.581   5.111
10198SOL     OW31492   2.445   6.998   2.282
10198SOL    HW131493   2.388   7.006   2.364
10198SOL    HW231494   2.534   6.960   2.307
10199SOL     OW31495   2.051   3.410   0.245
10199SOL    HW131496   2.080   3.437   0.153
10199SOL    HW231497   2.121   3.352   0.286
10200SOL     OW31498   5.240   2.261   6.844
10200SOL    HW131499   5.155   2.268   6.791
10200SOL    HW231500   5.246   2.338   6.907
10201SOL     OW31501   1.343   4.898   0.877
10201SOL    HW131502   1.250   4.907   0.913
10201SOL    HW231503   1.401   4.853   0.945
10202SOL     OW31504   3.603   4.416   0.867
10202SOL    HW131505   3.592   4.462   0.779
10202SOL    HW231506   3.700   4.404   0.887
10203SOL     OW31507   6.256   2.990   3.068
10203SOL    HW131508   6.208   2.928   3.005
10203SOL    HW231509   6.345   2.952   3.091
10204SOL     OW31510   4.805   6.541   6.894
10204SOL    HW131511   4.776   6.476   6.964
10204SOL    HW231512   4.896   6.575   6.915
10205SOL     OW31513   1.566   0.176   1.409
10205SOL    HW131514   1.498   0.237   1.367
10205SOL    HW231515   1.578   0.096   1.350
10206SOL     OW31516   6.743   0.434   0.018
10206SOL    HW131517   6.664   0.463   0.073
10206SOL    HW231518   6.827   0.460   0.064
10207SOL     OW31519   1.325   1.932   0.392
10207SOL    HW131520   1.336   1.916   0.490
10207SOL    HW231521   1.350   2.026   0.370
10208SOL     OW31522   6.055   4.523   3.854
10208SOL    HW131523   5.976   4.513   3.794
10208SOL    HW231524   6.025   4.556   3.944
10209SOL     OW31525   0.485   6.962   0.699
10209SOL    HW131526   0.489   6.876   0.648
10209SOL    HW231527   0.422   0.003   0.653
10210SOL     OW31528   4.870   6.826   1.597
10210SOL    HW131529   4.809   6.888   1.548
10210SOL    HW231530   4.846   6.826   1.694
10211SOL     OW31531   4.080   6.217   4.833
10211SOL    HW131532   4.000   6.236   4.890
10211SOL    HW231533   4.089   6.118   4.820
10212SOL     OW31534   0.891   0.459   5.217
10212SOL    HW131535   0.950   0.501   5.286
10212SOL    HW231536   0.798   0.451   5.253
10213SOL     OW31537   6.001   2.894   1.796
10213SOL    HW131538   5.949   2.965   1.845
10213SOL    HW231539   6.057   2.937   1.725
10214SOL     OW31540   1.245   1.354   2.280
10214SOL    HW131541   1.243   1.429   2.214
10214SOL    HW231542   1.272   1.270   2.233
10215SOL     OW31543   3.990   3.212   3.604
10215SOL    HW131544   4.033   3.299   3.629
10215SOL    HW231545   3.973   3.211   3.506
10216SOL     OW31546   0.235   1.213   1.582
10216SOL    HW131547   0.323   1.165   1.581
10216SOL    HW231548   0.193   1.202   1.672
10217SOL     OW31549   3.387   1.510   3.003
10217SOL    HW131550   3.373   1.545   2.910
10217SOL    HW231551   3.353   1.576   3.069
10218SOL     OW31552   1.895   1.528   1.502
10218SOL    HW131553   1.948   1.613   1.508
10218SOL    HW231554   1.954   1.455   1.464
10219SOL     OW31555   0.643   1.690   3.087
10219SOL    HW131556   0.594   1.609   3.120
10219SOL    HW231557   0.628   1.699   2.988
10220SOL     OW31558   5.206   1.969   0.960
10220SOL    HW131559   5.208   2.069   0.956
10220SOL    HW231560   5.220   1.932   0.868
10221SOL     OW31561   1.023   4.952   3.646
10221SOL    HW131562   0.959   4.995   3.583
10221SOL    HW231563   0.986   4.865   3.678
10222SOL     OW31564   3.114   4.119   5.464
10222SOL    HW131565   3.202   4.158   5.493
10222SOL    HW231566   3.086   4.049   5.530
10223SOL     OW31567   1.491   5.041   1.507
10223SOL    HW131568   1.554   5.105   1.463
10223SOL    HW231569   1.451   4.982   1.437
10224SOL     OW31570   6.354   3.041   4.978
10224SOL    HW131571   6.379   2.944   4.979
10224SOL    HW231572   6.326   3.067   4.886
10225SOL     OW31573   0.997   5.308   5.769
10225SOL    HW131574   1.041   5.316   5.859
10225SOL    HW231575   0.900   5.288   5.782
10226SOL     OW31576   2.645   1.099   6.211
10226SOL    HW131577   2.560   1.048   6.197
10226SOL    HW231578   2.651   1.172   6.142
10227SOL     OW31579   5.551   4.999   1.044
10227SOL    HW131580   5.559   5.088   1.091
10227SOL    HW231581   5.620   4.993   0.972
10228SOL     OW31582   0.261   6.932   2.164
10228SOL    HW131583   0.188   6.870   2.136
10228SOL    HW231584   0.341   6.879   2.192
10229SOL     OW31585   1.245   3.058   4.668
10229SOL    HW131586   1.288   2.973   4.700
10229SOL    HW231587   1.315   3.129   4.659
10230SOL     OW31588   5.754   6.169   3.189
10230SOL    HW131589   5.697   6.162   3.270
10230SOL    HW231590   5.698   6.193   3.110
10231SOL     OW31591   6.840   5.245   5.556
10231SOL    HW131592   6.901   5.177   5.597
10231SOL    HW231593   6.794   5.297   5.629
10232SOL     OW31594   3.139   1.070   3.532
10232SOL    HW131595   3.199   1.078   3.611
10232SOL    HW231596   3.194   1.071   3.448
10233SOL     OW31597   3.941   4.016   4.836
10233SOL    HW131598   3.851   4.024   4.794
10233SOL    HW231599   3.993   4.100   4.820
10234SOL     OW31600   6.262   0.891   1.352
10234SOL    HW131601   6.207   0.964   1.314
10234SOL    HW231602   6.339   0.872   1.291
10235SOL     OW31603   2.323   2.762   1.641
10235SOL    HW131604   2.310   2.858   1.665
10235SOL    HW231605   2.240   2.711   1.662
10236SOL     OW31606   2.861   0.841   0.074
10236SOL    HW131607   2.835   0.905   0.146
10236SOL    HW231608   2.936   0.880   0.020
10237SOL     OW31609   0.229   3.604   6.838
10237SOL    HW131610   0.174   3.643   6.764
10237SOL    HW231611   0.245   3.507   6.820
10238SOL     OW31612   3.646   4.384   1.681
10238SOL    HW131613   3.650   4.476   1.719
10238SOL    HW231614   3.632   4.318   1.755
10239SOL     OW31615   1.249   3.069   5.084
10239SOL    HW131616   1.239   3.168   5.084
10239SOL    HW231617   1.293   3.039   5.168
10240SOL     OW31618   2.166   5.287   2.326
10240SOL    HW131619   2.116   5.312   2.243
10240SOL    HW231620   2.211   5.369   2.363
10241SOL     OW31621   6.355   6.929   2.348
10241SOL    HW131622   6.342   6.846   2.293
10241SOL    HW231623   6.329   6.910   2.443
10242SOL     OW31624   0.569   1.778   1.096
10242SOL    HW131625   0.482   1.769   1.144
10242SOL    HW231626   0.560   1.846   1.023
10243SOL     OW31627   2.334   4.455   2.435
10243SOL    HW131628   2.368   4.470   2.343
10243SOL    HW231629   2.236   4.435   2.431
10244SOL     OW31630   1.892   4.456   0.624
10244SOL    HW131631   1.904   4.457   0.525
10244SOL    HW231632   1.976   4.488   0.668
10245SOL     OW31633   3.380   3.834   1.255
10245SOL    HW131634   3.412   3.861   1.164
10245SOL    HW231635   3.409   3.740   1.273
10246SOL     OW31636   3.489   3.678   4.066
10246SOL    HW131637   3.501   3.705   3.970
10246SOL    HW231638   3.398   3.706   4.097
10247SOL     OW31639   6.389   3.818   5.615
10247SOL    HW131640   6.403   3.776   5.525
10247SOL    HW231641   6.386   3.917   5.605
10248SOL     OW31642   1.584   6.288   2.630
10248SOL    HW131643   1.573   6.198   2.588
10248SOL    HW231644   1.655   6.339   2.581
10249SOL     OW31645   3.410   5.915   6.487
10249SOL    HW131646   3.432   5.830   6.535
10249SOL    HW231647   3.399   5.989   6.553
10250SOL     OW31648   6.775   3.526   1.901
10250SOL    HW131649   6.713   3.492   1.971
10250SOL    HW231650   6.731   3.520   1.811
10251SOL     OW31651   2.082   1.858   4.916
10251SOL    HW131652   2.151   1.920   4.879
10251SOL    HW231653   2.058   1.888   5.009
10252SOL     OW31654   4.427   4.490   6.315
10252SOL    HW131655   4.460   4.441   6.395
10252SOL    HW231656   4.504   4.537   6.271
10253SOL     OW31657   2.868   5.539   0.512
10253SOL    HW131658   2.957   5.501   0.489
10253SOL    HW231659   2.802   5.464   0.525
10254SOL     OW31660   5.037   1.079   5.465
10254SOL    HW131661   5.107   1.150   5.461
10254SOL    HW231662   5.050   1.015   5.389
10255SOL     OW31663   2.401   6.337   1.285
10255SOL    HW131664   2.498   6.315   1.294
10255SOL    HW231665   2.364   6.292   1.204
10256SOL     OW31666   4.401   1.951   1.937
10256SOL    HW131667   4.327   1.951   1.870
10256SOL    HW231668   4.396   2.034   1.993
10257SOL     OW31669   2.271   5.090   4.074
10257SOL    HW131670   2.327   5.065   4.153
10257SOL    HW231671   2.194   5.146   4.105
10258SOL     OW31672   3.945   1.991   3.721
10258SOL    HW131673   4.005   2.070   3.727
10258SOL    HW231674   3.857   2.012   3.764
10259SOL     OW31675   0.549   3.922   2.772
10259SOL    HW131676   0.620   3.855   2.794
10259SOL    HW231677   0.503   3.895   2.688
10260SOL     OW31678   1.189   1.535   3.235
10260SOL    HW131679   1.151   1.504   3.322
10260SOL    HW231680   1.273   1.485   3.216
10261SOL     OW31681   6.604   5.350   1.472
10261SOL    HW131682   6.518   5.300   1.483
10261SOL    HW231683   6.681   5.286   1.477
10262SOL     OW31684   2.736   0.307   5.470
10262SOL    HW131685   2.757   0.209   5.468
10262SOL    HW231686   2.640   0.320   5.495
10263SOL     OW31687   5.779   0.105   0.710
10263SOL    HW131688   5.768   0.080   0.614
10263SOL    HW231689   5.719   0.182   0.731
10264SOL     OW31690   6.589   6.716   6.897
10264SOL    HW131691   6.495   6.690   6.878
10264SOL    HW231692   6.642   6.716   6.812
10265SOL     OW31693   3.179   2.774   1.561
10265SOL    HW131694   3.135   2.767   1.471
10265SOL    HW231695   3.131   2.716   1.626
10266SOL     OW31696   3.616   2.918   3.934
10266SOL    HW131697   3.669   2.834   3.940
10266SOL    HW231698   3.611   2.961   4.023
10267SOL     OW31699   5.427   2.469   0.341
10267SOL    HW131700   5.372   2.550   0.362
10267SOL    HW231701   5.376   2.408   0.281
10268SOL     OW31702   6.486   6.438   2.261
10268SOL    HW131703   6.449   6.394   2.180
10268SOL    HW231704   6.570   6.392   2.289
10269SOL     OW31705   0.367   4.244   6.651
10269SOL    HW131706   0.339   4.226   6.557
10269SOL    HW231707   0.465   4.266   6.652
10270SOL     OW31708   3.216   4.887   2.317
10270SOL    HW131709   3.198   4.906   2.414
10270SOL    HW231710   3.135   4.845   2.276
10271SOL     OW31711   3.446   2.601   6.832
10271SOL    HW131712   3.354   2.569   6.856
10271SOL    HW231713   3.447   2.701   6.833
10272SOL     OW31714   1.204   0.867   5.560
10272SOL    HW131715   1.198   0.865   5.659
10272SOL    HW231716   1.297   0.893   5.532
10273SOL     OW31717   2.952   5.622   2.733
10273SOL    HW131718   2.860   5.600   2.767
10273SOL    HW231719   2.944   5.668   2.644
10274SOL     OW31720   0.445   4.727   6.075
10274SOL    HW131721   0.472   4.763   5.986
10274SOL    HW231722   0.345   4.719   6.079
10275SOL     OW31723   0.448   6.110   1.920
10275SOL    HW131724   0.433   6.011   1.926
10275SOL    HW231725   0.541   6.128   1.889
10276SOL     OW31726   5.522   6.145   5.107
10276SOL    HW131727   5.553   6.079   5.176
10276SOL    HW231728   5.507   6.098   5.020
10277SOL     OW31729   1.876   6.084   5.102
10277SOL    HW131730   1.837   6.156   5.045
10277SOL    HW231731   1.832   6.086   5.192
10278SOL     OW31732   1.544   1.545   3.509
10278SOL    HW131733   1.559   1.570   3.605
10278SOL    HW231734   1.481   1.469   3.504
10279SOL     OW31735   1.308   4.687   4.176
10279SOL    HW131736   1.301   4.591   4.148
10279SOL    HW231737   1.274   4.746   4.103
10280SOL     OW31738   0.203   2.511   6.636
10280SOL    HW131739   0.149   2.530   6.719
10280SOL    HW231740   0.168   2.566   6.560
10281SOL     OW31741   5.692   1.564   3.214
10281SOL    HW131742   5.619   1.496   3.220
10281SOL    HW231743   5.687   1.611   3.126
10282SOL     OW31744   5.414   3.380   4.526
10282SOL    HW131745   5.371   3.331   4.602
10282SOL    HW231746   5.365   3.466   4.510
10283SOL     OW31747   1.768   3.042   1.126
10283SOL    HW131748   1.816   3.128   1.110
10283SOL    HW231749   1.814   2.968   1.077
10284SOL     OW31750   4.837   2.228   5.475
10284SOL    HW131751   4.856   2.301   5.409
10284SOL    HW231752   4.910   2.160   5.472
10285SOL     OW31753   5.591   6.462   3.161
10285SOL    HW131754   5.606   6.427   3.253
10285SOL    HW231755   5.513   6.524   3.161
10286SOL     OW31756   3.548   1.761   4.185
10286SOL    HW131757   3.545   1.860   4.171
10286SOL    HW231758   3.640   1.727   4.163
10287SOL     OW31759   3.243   5.572   1.757
10287SOL    HW131760   3.222   5.669   1.770
10287SOL    HW231761   3.224   5.523   1.842
10288SOL     OW31762   5.023   5.825   2.906
10288SOL    HW131763   4.975   5.909   2.882
10288SOL    HW231764   5.047   5.827   3.003
10289SOL     OW31765   3.060   6.037   6.442
10289SOL    HW131766   3.139   6.023   6.383
10289SOL    HW231767   3.033   6.133   6.441
10290SOL     OW31768   2.924   3.755   2.903
10290SOL    HW131769   2.890   3.735   2.994
10290SOL    HW231770   2.966   3.846   2.902
10291SOL     OW31771   3.669   1.759   2.131
10291SOL    HW131772   3.650   1.831   2.063
10291SOL    HW231773   3.683   1.801   2.220
10292SOL     OW31774   1.502   2.419   5.206
10292SOL    HW131775   1.591   2.438   5.166
10292SOL    HW231776   1.465   2.334   5.167
10293SOL     OW31777   1.278   3.596   2.272
10293SOL    HW131778   1.188   3.599   2.314
10293SOL    HW231779   1.338   3.535   2.324
10294SOL     OW31780   4.988   2.467   3.406
10294SOL    HW131781   5.023   2.458   3.313
10294SOL    HW231782   4.912   2.532   3.407
10295SOL     OW31783   0.493   3.375   6.313
10295SOL    HW131784   0.519   3.408   6.222
10295SOL    HW231785   0.450   3.450   6.363
10296SOL     OW31786   5.294   1.267   6.930
10296SOL    HW131787   5.243   1.216   6.862
10296SOL    HW231788   5.276   1.229   7.021
10297SOL     OW31789   1.838   0.902   6.122
10297SOL    HW131790   1.874   0.943   6.206
10297SOL    HW231791   1.904   0.835   6.088
10298SOL     OW31792   2.896   4.593   0.986
10298SOL    HW131793   2.960   4.660   0.950
10298SOL    HW231794   2.866   4.621   1.078
10299SOL     OW31795   4.104   4.750   2.784
10299SOL    HW131796   4.019   4.743   2.731
10299SOL    HW231797   4.175   4.696   2.738
10300SOL     OW31798   1.693   4.432   2.448
10300SOL    HW131799   1.736   4.406   2.535
10300SOL    HW231800   1.594   4.442   2.462
10301SOL     OW31801   4.991   1.935   4.736
10301SOL    HW131802   4.993   1.841   4.700
10301SOL    HW231803   4.946   1.994   4.669
10302SOL     OW31804   1.937   6.338   4.940
10302SOL    HW131805   1.871   6.328   4.865
10302SOL    HW231806   2.015   6.277   4.923
10303SOL     OW31807   2.214   5.850   2.943
10303SOL    HW131808   2.264   5.827   2.859
10303SOL    HW231809   2.276   5.897   3.006
10304SOL     OW31810   5.594   6.817   1.591
10304SOL    HW131811   5.530   6.891   1.611
10304SOL    HW231812   5.579   6.741   1.654
10305SOL     OW31813   1.083   4.586   6.299
10305SOL    HW131814   1.038   4.565   6.212
10305SOL    HW231815   1.027   4.551   6.374
10306SOL     OW31816   5.187   5.648   6.949
10306SOL    HW131817   5.265   5.639   6.888
10306SOL    HW231818   5.164   5.745   6.960
10307SOL     OW31819   2.989   2.300   5.323
10307SOL    HW131820   3.066   2.322   5.262
10307SOL    HW231821   2.907   2.347   5.290
10308SOL     OW31822   1.848   3.897   3.304
10308SOL    HW131823   1.801   3.985   3.315
10308SOL    HW231824   1.792   3.825   3.345
10309SOL     OW31825   6.858   2.344   6.977
10309SOL    HW131826   6.798   2.294   0.017
10309SOL    HW231827   6.803   2.402   6.916
10310SOL     OW31828   3.288   4.063   0.856
10310SOL    HW131829   3.303   4.131   0.927
10310SOL    HW231830   3.202   4.083   0.808
10311SOL     OW31831   6.459   5.865   0.318
10311SOL    HW131832   6.488   5.933   0.251
10311SOL    HW231833   6.365   5.837   0.297
10312SOL     OW31834   3.898   5.862   2.321
10312SOL    HW131835   3.835   5.858   2.243
10312SOL    HW231836   3.948   5.949   2.319
10313SOL     OW31837   4.541   6.269   1.771
10313SOL    HW131838   4.466   6.277   1.707
10313SOL    HW231839   4.589   6.356   1.779
10314SOL     OW31840   6.584   0.544   1.889
10314SOL    HW131841   6.629   0.500   1.812
10314SOL    HW231842   6.510   0.485   1.922
10315SOL     OW31843   5.096   5.497   5.263
10315SOL    HW131844   5.194   5.483   5.274
10315SOL    HW231845   5.058   5.426   5.204
10316SOL     OW31846   6.260   1.517   5.289
10316SOL    HW131847   6.161   1.531   5.289
10316SOL    HW231848   6.281   1.432   5.337
10317SOL     OW31849   4.847   5.978   5.770
10317SOL    HW131850   4.775   5.947   5.709
10317SOL    HW231851   4.807   6.029   5.846
10318SOL     OW31852   4.986   0.049   6.684
10318SOL    HW131853   5.052   0.048   6.609
10318SOL    HW231854   4.990   6.984   6.733
10319SOL     OW31855   0.611   2.380   5.537
10319SOL    HW131856   0.513   2.386   5.558
10319SOL    HW231857   0.647   2.294   5.572
10320SOL     OW31858   0.746   6.907   2.280
10320SOL    HW131859   0.761   6.983   2.218
10320SOL    HW231860   0.833   6.876   2.319
10321SOL     OW31861   4.118   1.969   1.824
10321SOL    HW131862   4.043   2.019   1.867
10321SOL    HW231863   4.085   1.881   1.789
10322SOL     OW31864   6.063   5.529   5.216
10322SOL    HW131865   6.104   5.491   5.299
10322SOL    HW231866   5.965   5.543   5.229
10323SOL     OW31867   5.787   3.184   5.136
10323SOL    HW131868   5.782   3.271   5.086
10323SOL    HW231869   5.742   3.113   5.082
10324SOL     OW31870   3.217   3.033   2.202
10324SOL    HW131871   3.201   3.105   2.134
10324SOL    HW231872   3.160   2.954   2.182
10325SOL     OW31873   6.426   4.484   2.350
10325SOL    HW131874   6.457   4.479   2.255
10325SOL    HW231875   6.495   4.442   2.410
10326SOL     OW31876   3.582   4.985   0.595
10326SOL    HW131877   3.556   4.948   0.506
10326SOL    HW231878   3.647   5.059   0.584
10327SOL     OW31879   2.332   1.738   0.962
10327SOL    HW131880   2.432   1.747   0.954
10327SOL    HW231881   2.309   1.644   0.984
10328SOL     OW31882   6.869   2.679   1.469
10328SOL    HW131883   6.807   2.685   1.546
10328SOL    HW231884   6.882   2.769   1.428
10329SOL     OW31885   3.105   1.062   3.942
10329SOL    HW131886   3.194   1.018   3.932
10329SOL    HW231887   3.034   1.006   3.898
10330SOL     OW31888   4.342   0.927   2.262
10330SOL    HW131889   4.335   0.875   2.347
10330SOL    HW231890   4.407   1.002   2.273
10331SOL     OW31891   6.308   0.597   6.023
10331SOL    HW131892   6.294   0.498   6.024
10331SOL    HW231893   6.286   0.635   6.113
10332SOL     OW31894   6.557   0.362   1.354
10332SOL    HW131895   6.577   0.459   1.343
10332SOL    HW231896   6.532   0.322   1.265
10333SOL     OW31897   6.924   4.542   5.252
10333SOL    HW131898   6.896   4.590   5.335
10333SOL    HW231899   6.866   4.569   5.176
10334SOL     OW31900   3.294   0.067   3.368
10334SOL    HW131901   3.226   0.042   3.437
10334SOL    HW231902   3.353   0.139   3.404
10335SOL     OW31903   2.511   4.171   6.584
10335SOL    HW131904   2.531   4.218   6.498
10335SOL    HW231905   2.592   4.172   6.643
10336SOL     OW31906   6.557   0.279   2.207
10336SOL    HW131907   6.505   0.216   2.150
10336SOL    HW231908   6.498   0.355   2.236
10337SOL     OW31909   0.138   6.426   5.740
10337SOL    HW131910   0.050   6.406   5.783
10337SOL    HW231911   0.126   6.426   5.641
10338SOL     OW31912   2.008   6.127   2.349
10338SOL    HW131913   1.999   6.046   2.406
10338SOL    HW231914   1.919   6.152   2.311
10339SOL     OW31915   3.992   3.956   6.740
10339SOL    HW131916   4.085   3.991   6.738
10339SOL    HW231917   3.961   3.937   6.646
10340SOL     OW31918   1.699   4.061   1.286
10340SOL    HW131919   1.607   4.022   1.275
10340SOL    HW231920   1.706   4.104   1.375
10341SOL     OW31921   2.117   3.426   2.777
10341SOL    HW131922   2.028   3.381   2.779
10341SOL    HW231923   2.125   3.481   2.694
10342SOL     OW31924   1.778   0.019   4.749
10342SOL    HW131925   1.828   0.024   4.836
10342SOL    HW231926   1.686   7.007   4.765
10343SOL     OW31927   3.702   5.740   0.030
10343SOL    HW131928   3.697   5.811   6.982
10343SOL    HW231929   3.611   5.724   0.069
10344SOL     OW31930   4.435   3.746   1.118
10344SOL    HW131931   4.420   3.829   1.170
10344SOL    HW231932   4.515   3.698   1.154
10345SOL     OW31933   1.671   1.374   6.418
10345SOL    HW131934   1.599   1.434   6.452
10345SOL    HW231935   1.630   1.288   6.386
10346SOL     OW31936   6.916   5.414   1.665
10346SOL    HW131937   6.946   5.424   1.759
10346SOL    HW231938   6.991   5.438   1.603
10347SOL     OW31939   4.315   1.892   3.773
10347SOL    HW131940   4.285   1.875   3.680
10347SOL    HW231941   4.415   1.893   3.777
10348SOL     OW31942   6.370   2.219   0.743
10348SOL    HW131943   6.285   2.219   0.796
10348SOL    HW231944   6.349   2.239   0.647
10349SOL     OW31945   0.908   0.908   0.812
10349SOL    HW131946   0.980   0.965   0.772
10349SOL    HW231947   0.822   0.927   0.766
10350SOL     OW31948   2.320   6.785   5.021
10350SOL    HW131949   2.238   6.838   5.000
10350SOL    HW231950   2.372   6.769   4.937
10351SOL     OW31951   4.450   4.737   6.145
10351SOL    HW131952   4.383   4.795   6.099
10351SOL    HW231953   4.488   4.786   6.224
10352SOL     OW31954   3.954   1.787   5.916
10352SOL    HW131955   4.053   1.802   5.920
10352SOL    HW231956   3.914   1.813   6.004
10353SOL     OW31957   6.553   2.493   5.422
10353SOL    HW131958   6.531   2.587   5.397
10353SOL    HW231959   6.525   2.431   5.349
10354SOL     OW31960   5.593   2.820   2.072
10354SOL    HW131961   5.546   2.773   1.997
10354SOL    HW231962   5.596   2.760   2.152
10355SOL     OW31963   1.385   7.019   2.096
10355SOL    HW131964   1.470   6.997   2.048
10355SOL    HW231965   1.386   6.980   2.188
10356SOL     OW31966   1.034   4.567   5.367
10356SOL    HW131967   0.970   4.560   5.444
10356SOL    HW231968   1.116   4.615   5.396
10357SOL     OW31969   1.852   3.378   6.481
10357SOL    HW131970   1.805   3.467   6.487
10357SOL    HW231971   1.787   3.307   6.455
10358SOL     OW31972   6.115   3.128   3.262
10358SOL    HW131973   6.193   3.103   3.205
10358SOL    HW231974   6.141   3.122   3.358
10359SOL     OW31975   0.396   1.521   1.860
10359SOL    HW131976   0.391   1.611   1.903
10359SOL    HW231977   0.440   1.528   1.771
10360SOL     OW31978   4.883   5.456   3.263
10360SOL    HW131979   4.793   5.412   3.252
10360SOL    HW231980   4.878   5.522   3.338
10361SOL     OW31981   3.076   6.751   3.478
10361SOL    HW131982   3.064   6.791   3.387
10361SOL    HW231983   3.031   6.809   3.546
10362SOL     OW31984   0.479   5.010   4.799
10362SOL    HW131985   0.492   5.041   4.705
10362SOL    HW231986   0.417   4.932   4.799
10363SOL     OW31987   5.126   1.908   1.850
10363SOL    HW131988   5.216   1.899   1.892
10363SOL    HW231989   5.058   1.859   1.905
10364SOL     OW31990   3.029   3.438   1.308
10364SOL    HW131991   3.010   3.348   1.347
10364SOL    HW231992   2.967   3.506   1.348
10365SOL     OW31993   4.703   4.506   6.178
10365SOL    HW131994   4.705   4.409   6.202
10365SOL    HW231995   4.730   4.517   6.083
10366SOL     OW31996   3.397   1.000   4.185
10366SOL    HW131997   3.383   0.941   4.106
10366SOL    HW231998   3.461   0.957   4.248
10367SOL     OW31999   6.395   1.565   2.665
10367SOL    HW132000   6.333   1.625   2.616
10367SOL    HW232001   6.343   1.493   2.712
10368SOL     OW32002   2.166   0.800   1.690
10368SOL    HW132003   2.237   0.764   1.630
10368SOL    HW232004   2.169   0.900   1.689
10369SOL     OW32005   4.009   0.912   5.090
10369SOL    HW132006   4.030   0.989   5.149
10369SOL    HW232007   4.090   0.889   5.035
10370SOL     OW32008   5.640   1.541   5.396
10370SOL    HW132009   5.694   1.458   5.410
10370SOL    HW232010   5.546   1.525   5.426
10371SOL     OW32011   3.006   6.203   5.151
10371SOL    HW132012   2.948   6.125   5.129
10371SOL    HW232013   2.990   6.231   5.246
10372SOL     OW32014   1.191   1.699   6.632
10372SOL    HW132015   1.174   1.601   6.633
10372SOL    HW232016   1.183   1.735   6.725
10373SOL     OW32017   2.205   5.855   4.855
10373SOL    HW132018   2.109   5.869   4.879
10373SOL    HW232019   2.261   5.926   4.897
10374SOL     OW32020   3.926   1.141   2.548
10374SOL    HW132021   3.986   1.120   2.471
10374SOL    HW232022   3.981   1.176   2.624
10375SOL     OW32023   3.400   1.659   5.914
10375SOL    HW132024   3.328   1.592   5.897
10375SOL    HW232025   3.375   1.746   5.873
10376SOL     OW32026   1.044   6.261   3.546
10376SOL    HW132027   1.005   6.207   3.472
10376SOL    HW232028   1.141   6.278   3.528
10377SOL     OW32029   0.297   0.600   4.097
10377SOL    HW132030   0.366   0.622   4.166
10377SOL    HW232031   0.325   0.638   4.009
10378SOL     OW32032   6.581   0.457   6.063
10378SOL    HW132033   6.674   0.493   6.063
10378SOL    HW232034   6.516   0.533   6.074
10379SOL     OW32035   3.527   6.636   5.031
10379SOL    HW132036   3.620   6.634   4.994
10379SOL    HW232037   3.480   6.718   4.998
10380SOL     OW32038   0.354   1.001   3.867
10380SOL    HW132039   0.322   1.066   3.936
10380SOL    HW232040   0.297   1.008   3.785
10381SOL     OW32041   4.024   5.664   6.185
10381SOL    HW132042   4.082   5.591   6.149
10381SOL    HW232043   4.059   5.693   6.275
10382SOL     OW32044   2.225   4.365   6.825
10382SOL    HW132045   2.125   4.377   6.825
10382SOL    HW232046   2.254   4.333   6.915
10383SOL     OW32047   0.509   3.626   1.075
10383SOL    HW132048   0.599   3.630   1.118
10383SOL    HW232049   0.460   3.712   1.093
10384SOL     OW32050   0.751   0.346   0.781
10384SOL    HW132051   0.758   0.277   0.852
10384SOL    HW232052   0.705   0.427   0.817
10385SOL     OW32053   4.256   0.363   6.660
10385SOL    HW132054   4.240   0.274   6.618
10385SOL    HW232055   4.173   0.419   6.655
10386SOL     OW32056   5.577   3.056   5.358
10386SOL    HW132057   5.522   3.140   5.360
10386SOL    HW232058   5.640   3.058   5.281
10387SOL     OW32059   3.858   2.109   2.308
10387SOL    HW132060   3.818   2.169   2.239
10387SOL    HW232061   3.955   2.094   2.286
10388SOL     OW32062   1.391   5.735   3.434
10388SOL    HW132063   1.451   5.751   3.513
10388SOL    HW232064   1.333   5.816   3.419
10389SOL     OW32065   0.372   6.752   1.404
10389SOL    HW132066   0.436   6.742   1.328
10389SOL    HW232067   0.386   6.678   1.470
10390SOL     OW32068   1.389   3.690   1.594
10390SOL    HW132069   1.479   3.734   1.602
10390SOL    HW232070   1.397   3.593   1.618
10391SOL     OW32071   0.849   5.824   5.014
10391SOL    HW132072   0.798   5.758   5.070
10391SOL    HW232073   0.946   5.820   5.039
10392SOL     OW32074   6.332   3.795   0.188
10392SOL    HW132075   6.417   3.767   0.143
10392SOL    HW232076   6.348   3.880   0.239
10393SOL     OW32077   1.937   1.997   2.829
10393SOL    HW132078   2.015   1.990   2.767
10393SOL    HW232079   1.946   1.929   2.902
10394SOL     OW32080   2.618   6.365   6.255
10394SOL    HW132081   2.598   6.288   6.195
10394SOL    HW232082   2.574   6.351   6.344
10395SOL     OW32083   6.216   0.589   3.983
10395SOL    HW132084   6.161   0.556   4.059
10395SOL    HW232085   6.157   0.625   3.911
10396SOL     OW32086   1.806   0.039   4.350
10396SOL    HW132087   1.888   0.037   4.293
10396SOL    HW232088   1.732   0.084   4.301
10397SOL     OW32089   3.482   1.697   3.442
10397SOL    HW132090   3.561   1.653   3.399
10397SOL    HW232091   3.412   1.714   3.373
10398SOL     OW32092   6.094   2.741   0.431
10398SOL    HW132093   6.022   2.748   0.499
10398SOL    HW232094   6.183   2.757   0.474
10399SOL     OW32095   4.410   1.198   4.932
10399SOL    HW132096   4.352   1.239   5.002
10399SOL    HW232097   4.458   1.119   4.970
10400SOL     OW32098   3.454   5.800   1.919
10400SOL    HW132099   3.545   5.778   1.953
10400SOL    HW232100   3.449   5.896   1.894
10401SOL     OW32101   6.826   0.325   2.236
10401SOL    HW132102   6.734   0.332   2.198
10401SOL    HW232103   6.861   0.231   2.224
10402SOL     OW32104   0.328   2.284   5.561
10402SOL    HW132105   0.362   2.194   5.534
10402SOL    HW232106   0.318   2.287   5.660
10403SOL     OW32107   5.402   1.452   2.334
10403SOL    HW132108   5.348   1.527   2.296
10403SOL    HW232109   5.438   1.478   2.423
10404SOL     OW32110   0.603   6.400   3.209
10404SOL    HW132111   0.541   6.477   3.221
10404SOL    HW232112   0.604   6.344   3.291
10405SOL     OW32113   1.384   5.444   5.258
10405SOL    HW132114   1.354   5.478   5.347
10405SOL    HW232115   1.305   5.429   5.199
10406SOL     OW32116   2.150   3.826   5.103
10406SOL    HW132117   2.202   3.911   5.090
10406SOL    HW232118   2.118   3.821   5.197
10407SOL     OW32119   1.891   0.914   6.657
10407SOL    HW132120   1.964   0.880   6.716
10407SOL    HW232121   1.873   1.010   6.677
10408SOL     OW32122   4.528   5.802   2.775
10408SOL    HW132123   4.568   5.835   2.860
10408SOL    HW232124   4.428   5.807   2.780
10409SOL     OW32125   0.833   4.828   0.984
10409SOL    HW132126   0.843   4.773   0.901
10409SOL    HW232127   0.774   4.906   0.966
10410SOL     OW32128   5.244   1.592   1.309
10410SOL    HW132129   5.181   1.633   1.243
10410SOL    HW232130   5.311   1.536   1.261
10411SOL     OW32131   2.993   5.168   4.186
10411SOL    HW132132   3.077   5.172   4.132
10411SOL    HW232133   2.970   5.260   4.219
10412SOL     OW32134   0.553   1.492   0.995
10412SOL    HW132135   0.570   1.580   1.039
10412SOL    HW232136   0.549   1.419   1.064
10413SOL     OW32137   0.816   2.107   0.913
10413SOL    HW132138   0.871   2.107   0.830
10413SOL    HW232139   0.847   2.181   0.973
10414SOL     OW32140   4.701   6.122   6.338
10414SOL    HW132141   4.636   6.197   6.322
10414SOL    HW232142   4.653   6.044   6.377
10415SOL     OW32143   2.221   4.953   4.347
10415SOL    HW132144   2.139   5.006   4.370
10415SOL    HW232145   2.255   4.907   4.428
10416SOL     OW32146   6.808   1.921   6.059
10416SOL    HW132147   6.845   1.875   5.978
10416SOL    HW232148   6.744   1.993   6.031
10417SOL     OW32149   4.392   4.618   3.317
10417SOL    HW132150   4.409   4.660   3.227
10417SOL    HW232151   4.472   4.563   3.343
10418SOL     OW32152   6.668   4.168   5.219
10418SOL    HW132153   6.644   4.154   5.123
10418SOL    HW232154   6.642   4.086   5.271
10419SOL     OW32155   2.651   0.867   4.854
10419SOL    HW132156   2.560   0.854   4.814
10419SOL    HW232157   2.720   0.860   4.782
10420SOL     OW32158   6.599   4.017   2.363
10420SOL    HW132159   6.562   4.025   2.455
10420SOL    HW232160   6.533   3.971   2.304
10421SOL     OW32161   1.307   3.670   3.982
10421SOL    HW132162   1.381   3.687   4.047
10421SOL    HW232163   1.345   3.626   3.900
10422SOL     OW32164   6.379   3.604   5.460
10422SOL    HW132165   6.425   3.514   5.457
10422SOL    HW232166   6.301   3.599   5.521
10423SOL     OW32167   3.921   4.949   4.624
10423SOL    HW132168   4.010   4.972   4.662
10423SOL    HW232169   3.850   4.969   4.691
10424SOL     OW32170   5.029   1.897   0.304
10424SOL    HW132171   5.117   1.910   0.349
10424SOL    HW232172   4.955   1.923   0.366
10425SOL     OW32173   0.692   6.181   1.870
10425SOL    HW132174   0.721   6.222   1.956
10425SOL    HW232175   0.759   6.202   1.799
10426SOL     OW32176   4.778   3.337   5.657
10426SOL    HW132177   4.860   3.395   5.655
10426SOL    HW232178   4.755   3.309   5.564
10427SOL     OW32179   5.267   5.318   5.688
10427SOL    HW132180   5.230   5.315   5.595
10427SOL    HW232181   5.191   5.312   5.754
10428SOL     OW32182   1.074   1.868   3.810
10428SOL    HW132183   1.024   1.880   3.724
10428SOL    HW232184   1.010   1.878   3.887
10429SOL     OW32185   1.441   3.956   3.048
10429SOL    HW132186   1.359   3.902   3.028
10429SOL    HW232187   1.476   3.995   2.963
10430SOL     OW32188   3.541   5.685   4.437
10430SOL    HW132189   3.534   5.661   4.340
10430SOL    HW232190   3.534   5.784   4.448
10431SOL     OW32191   2.472   1.193   4.149
10431SOL    HW132192   2.520   1.276   4.177
10431SOL    HW232193   2.498   1.118   4.211
10432SOL     OW32194   0.981   0.860   5.241
10432SOL    HW132195   1.042   0.915   5.298
10432SOL    HW232196   1.020   0.852   5.149
10433SOL     OW32197   0.863   6.201   1.672
10433SOL    HW132198   0.875   6.124   1.609
10433SOL    HW232199   0.897   6.285   1.629
10434SOL     OW32200   5.089   6.424   4.429
10434SOL    HW132201   4.999   6.433   4.386
10434SOL    HW232202   5.087   6.348   4.494
10435SOL     OW32203   1.263   2.447   6.320
10435SOL    HW132204   1.356   2.412   6.313
10435SOL    HW232205   1.236   2.452   6.416
10436SOL     OW32206   6.183   3.678   4.526
10436SOL    HW132207   6.162   3.613   4.453
10436SOL    HW232208   6.242   3.634   4.594
10437SOL     OW32209   5.037   5.057   5.390
10437SOL    HW132210   5.074   4.965   5.404
10437SOL    HW232211   5.007   5.094   5.478
10438SOL     OW32212   6.877   6.457   5.125
10438SOL    HW132213   6.884   6.406   5.039
10438SOL    HW232214   6.781   6.464   5.152
10439SOL     OW32215   6.230   0.660   4.748
10439SOL    HW132216   6.238   0.730   4.676
10439SOL    HW232217   6.300   0.591   4.734
10440SOL     OW32218   6.837   0.810   6.800
10440SOL    HW132219   6.864   0.905   6.816
10440SOL    HW232220   6.917   0.750   6.811
10441SOL     OW32221   3.165   1.766   0.923
10441SOL    HW132222   3.233   1.829   0.888
10441SOL    HW232223   3.085   1.766   0.862
10442SOL     OW32224   3.368   1.046   5.205
10442SOL    HW132225   3.347   0.996   5.289
10442SOL    HW232226   3.467   1.048   5.191
10443SOL     OW32227   6.838   2.047   2.806
10443SOL    HW132228   6.906   2.040   2.879
10443SOL    HW232229   6.882   2.034   2.717
10444SOL     OW32230   3.365   4.973   3.388
10444SOL    HW132231   3.379   4.945   3.483
10444SOL    HW232232   3.328   5.065   3.385
10445SOL     OW32233   0.619   3.435   2.262
10445SOL    HW132234   0.600   3.509   2.197
10445SOL    HW232235   0.687   3.373   2.222
10446SOL     OW32236   1.776   4.307   5.751
10446SOL    HW132237   1.862   4.316   5.802
10446SOL    HW232238   1.761   4.389   5.697
10447SOL     OW32239   6.196   1.477   2.038
10447SOL    HW132240   6.183   1.439   2.130
10447SOL    HW232241   6.109   1.516   2.006
10448SOL     OW32242   3.228   0.749   3.685
10448SOL    HW132243   3.148   0.805   3.666
10448SOL    HW232244   3.310   0.806   3.681
10449SOL     OW32245   3.707   5.402   6.998
10449SOL    HW132246   3.796   5.436   0.005
10449SOL    HW232247   3.653   5.478   6.961
10450SOL     OW32248   6.260   0.658   6.283
10450SOL    HW132249   6.204   0.741   6.287
10450SOL    HW232250   6.356   0.683   6.299
10451SOL     OW32251   2.860   0.606   3.734
10451SOL    HW132252   2.901   0.567   3.817
10451SOL    HW232253   2.838   0.702   3.751
10452SOL     OW32254   0.030   2.428   2.931
10452SOL    HW132255   6.952   2.422   2.925
10452SOL    HW232256   0.055   2.506   2.989
10453SOL     OW32257   4.747   6.000   2.924
10453SOL    HW132258   4.714   5.991   2.830
10453SOL    HW232259   4.821   6.068   2.927
10454SOL     OW32260   6.390   0.982   0.023
10454SOL    HW132261   6.472   0.925   0.011
10454SOL    HW232262   6.386   1.016   0.117
10455SOL     OW32263   6.219   6.063   4.411
10455SOL    HW132264   6.195   6.158   4.392
10455SOL    HW232265   6.135   6.009   4.422
10456SOL     OW32266   6.934   5.462   0.102
10456SOL    HW132267   6.874   5.541   0.097
10456SOL    HW232268   6.947   5.435   0.197
10457SOL     OW32269   4.568   3.550   6.727
10457SOL    HW132270   4.567   3.581   6.822
10457SOL    HW232271   4.636   3.602   6.676
10458SOL     OW32272   6.782   0.788   5.961
10458SOL    HW132273   6.844   0.837   5.901
10458SOL    HW232274   6.690   0.826   5.952
10459SOL     OW32275   6.513   4.993   0.645
10459SOL    HW132276   6.557   4.924   0.588
10459SOL    HW232277   6.493   4.954   0.735
10460SOL     OW32278   6.699   4.206   1.984
10460SOL    HW132279   6.780   4.150   1.999
10460SOL    HW232280   6.680   4.211   1.886
10461SOL     OW32281   6.589   4.429   5.274
10461SOL    HW132282   6.644   4.480   5.340
10461SOL    HW232283   6.606   4.331   5.286
10462SOL     OW32284   4.971   1.611   2.093
10462SOL    HW132285   4.930   1.540   2.035
10462SOL    HW232286   4.939   1.701   2.063
10463SOL     OW32287   4.850   1.570   6.235
10463SOL    HW132288   4.914   1.623   6.180
10463SOL    HW232289   4.847   1.607   6.328
10464SOL     OW32290   5.739   6.014   2.142
10464SOL    HW132291   5.791   5.996   2.058
10464SOL    HW232292   5.784   5.968   2.219
10465SOL     OW32293   5.119   4.634   2.710
10465SOL    HW132294   5.023   4.656   2.693
10465SOL    HW232295   5.174   4.659   2.631
10466SOL     OW32296   4.897   4.629   6.578
10466SOL    HW132297   4.869   4.555   6.639
10466SOL    HW232298   4.816   4.677   6.545
10467SOL     OW32299   1.560   2.706   6.888
10467SOL    HW132300   1.658   2.692   6.907
10467SOL    HW232301   1.514   2.617   6.884
10468SOL     OW32302   3.868   5.261   3.429
10468SOL    HW132303   3.864   5.239   3.332
10468SOL    HW232304   3.843   5.180   3.483
10469SOL     OW32305   4.970   4.039   6.001
10469SOL    HW132306   5.032   4.010   5.928
10469SOL    HW232307   4.876   4.041   5.967
10470SOL     OW32308   2.388   1.999   3.375
10470SOL    HW132309   2.325   1.979   3.450
10470SOL    HW232310   2.482   1.988   3.406
10471SOL     OW32311   3.015   0.399   6.904
10471SOL    HW132312   3.082   0.394   6.978
10471SOL    HW232313   3.062   0.404   6.816
10472SOL     OW32314   2.629   5.644   1.167
10472SOL    HW132315   2.531   5.627   1.173
10472SOL    HW232316   2.655   5.659   1.072
10473SOL     OW32317   5.695   6.502   5.767
10473SOL    HW132318   5.651   6.413   5.776
10473SOL    HW232319   5.793   6.489   5.751
10474SOL     OW32320   5.078   0.911   3.748
10474SOL    HW132321   5.024   0.943   3.670
10474SOL    HW232322   5.024   0.847   3.802
10475SOL     OW32323   2.384   6.416   1.794
10475SOL    HW132324   2.365   6.441   1.699
10475SOL    HW232325   2.473   6.454   1.820
10476SOL     OW32326   4.878   6.411   6.017
10476SOL    HW132327   4.871   6.315   5.993
10476SOL    HW232328   4.967   6.428   6.061
10477SOL     OW32329   0.031   0.497   4.456
10477SOL    HW132330   6.997   0.500   4.539
10477SOL    HW232331   0.026   0.406   4.416
10478SOL     OW32332   6.857   6.716   0.443
10478SOL    HW132333   6.832   6.794   0.385
10478SOL    HW232334   6.850   6.631   0.391
10479SOL     OW32335   6.792   1.602   2.103
10479SOL    HW132336   6.890   1.610   2.084
10479SOL    HW232337   6.766   1.669   2.172
10480SOL     OW32338   1.227   0.339   1.795
10480SOL    HW132339   1.129   0.328   1.810
10480SOL    HW232340   1.243   0.380   1.705
10481SOL     OW32341   1.210   6.097   3.041
10481SOL    HW132342   1.274   6.163   3.078
10481SOL    HW232343   1.246   6.004   3.053
10482SOL     OW32344   6.282   4.875   4.924
10482SOL    HW132345   6.292   4.974   4.910
10482SOL    HW232346   6.372   4.833   4.930
10483SOL     OW32347   5.269   6.019   0.187
10483SOL    HW132348   5.334   6.043   0.260
10483SOL    HW232349   5.204   5.952   0.221
10484SOL     OW32350   4.635   1.555   1.300
10484SOL    HW132351   4.655   1.473   1.354
10484SOL    HW232352   4.721   1.601   1.278
10485SOL     OW32353   3.452   4.414   6.702
10485SOL    HW132354   3.370   4.461   6.667
10485SOL    HW232355   3.505   4.379   6.625
10486SOL     OW32356   6.749   1.307   0.870
10486SOL    HW132357   6.804   1.320   0.952
10486SOL    HW232358   6.676   1.241   0.888
10487SOL     OW32359   5.172   6.898   2.610
10487SOL    HW132360   5.146   6.911   2.706
10487SOL    HW232361   5.270   6.877   2.605
10488SOL     OW32362   2.725   2.545   6.227
10488SOL    HW132363   2.702   2.481   6.154
10488SOL    HW232364   2.723   2.639   6.191
10489SOL     OW32365   0.521   6.885   5.462
10489SOL    HW132366   0.467   6.967   5.444
10489SOL    HW232367   0.571   6.896   5.548
10490SOL     OW32368   6.347   1.522   1.800
10490SOL    HW132369   6.321   1.503   1.895
10490SOL    HW232370   6.288   1.592   1.762
10491SOL     OW32371   1.713   3.708   0.398
10491SOL    HW132372   1.700   3.726   0.495
10491SOL    HW232373   1.691   3.790   0.345
10492SOL     OW32374   5.758   3.486   5.896
10492SOL    HW132375   5.750   3.386   5.898
10492SOL    HW232376   5.812   3.513   5.816
10493SOL     OW32377   3.346   1.104   1.802
10493SOL    HW132378   3.354   1.170   1.877
10493SOL    HW232379   3.251   1.097   1.773
10494SOL     OW32380   4.962   2.974   5.643
10494SOL    HW132381   5.019   3.054   5.665
10494SOL    HW232382   4.870   3.004   5.620
10495SOL     OW32383   2.104   6.832   0.032
10495SOL    HW132384   2.115   6.867   0.125
10495SOL    HW232385   2.191   6.837   7.005
10496SOL     OW32386   0.720   6.071   1.009
10496SOL    HW132387   0.674   6.094   0.924
10496SOL    HW232388   0.733   6.154   1.063
10497SOL     OW32389   2.186   6.548   1.961
10497SOL    HW132390   2.256   6.522   1.895
10497SOL    HW232391   2.224   6.614   2.025
10498SOL     OW32392   2.967   6.629   1.403
10498SOL    HW132393   3.039   6.561   1.411
10498SOL    HW232394   2.878   6.583   1.401
10499SOL     OW32395   3.385   6.330   1.921
10499SOL    HW132396   3.405   6.420   1.882
10499SOL    HW232397   3.297   6.297   1.886
10500SOL     OW32398   0.618   0.958   6.117
10500SOL    HW132399   0.595   0.941   6.022
10500SOL    HW232400   0.591   1.051   6.142
10501SOL     OW32401   2.061   5.347   3.285
10501SOL    HW132402   2.007   5.335   3.202
10501SOL    HW232403   2.005   5.388   3.357
10502SOL     OW32404   3.093   0.564   1.020
10502SOL    HW132405   3.139   0.651   1.035
10502SOL    HW232406   3.039   0.568   0.935
10503SOL     OW32407   4.141   2.741   0.244
10503SOL    HW132408   4.219   2.684   0.269
10503SOL    HW232409   4.057   2.700   0.278
10504SOL     OW32410   2.214   1.973   0.168
10504SOL    HW132411   2.140   1.970   0.234
10504SOL    HW232412   2.202   1.899   0.101
10505SOL     OW32413   6.165   5.406   1.063
10505SOL    HW132414   6.256   5.413   1.103
10505SOL    HW232415   6.114   5.334   1.109
10506SOL     OW32416   0.153   5.235   5.984
10506SOL    HW132417   0.241   5.195   6.012
10506SOL    HW232418   0.132   5.312   6.044
10507SOL     OW32419   2.689   6.706   6.800
10507SOL    HW132420   2.709   6.691   6.703
10507SOL    HW232421   2.599   6.750   6.809
10508SOL     OW32422   5.750   5.955   4.824
10508SOL    HW132423   5.737   5.901   4.740
10508SOL    HW232424   5.848   5.968   4.840
10509SOL     OW32425   0.947   6.386   5.526
10509SOL    HW132426   1.040   6.423   5.516
10509SOL    HW232427   0.897   6.442   5.592
10510SOL     OW32428   5.099   5.619   6.312
10510SOL    HW132429   5.023   5.685   6.307
10510SOL    HW232430   5.178   5.656   6.263
10511SOL     OW32431   4.873   2.574   1.285
10511SOL    HW132432   4.906   2.484   1.310
10511SOL    HW232433   4.929   2.644   1.329
10512SOL     OW32434   3.737   0.519   5.838
10512SOL    HW132435   3.684   0.518   5.754
10512SOL    HW232436   3.690   0.467   5.909
10513SOL     OW32437   0.304   2.539   5.057
10513SOL    HW132438   0.369   2.559   4.984
10513SOL    HW232439   0.352   2.530   5.144
10514SOL     OW32440   0.067   3.957   6.999
10514SOL    HW132441   6.991   3.951   6.979
10514SOL    HW232442   0.111   4.017   6.932
10515SOL     OW32443   6.474   2.347   3.043
10515SOL    HW132444   6.568   2.378   3.030
10515SOL    HW232445   6.464   2.254   3.008
10516SOL     OW32446   4.547   0.850   6.352
10516SOL    HW132447   4.628   0.801   6.322
10516SOL    HW232448   4.572   0.920   6.418
10517SOL     OW32449   0.049   2.024   2.920
10517SOL    HW132450   0.090   2.114   2.909
10517SOL    HW232451   0.045   2.001   3.017
10518SOL     OW32452   0.725   4.579   6.699
10518SOL    HW132453   0.797   4.631   6.746
10518SOL    HW232454   0.670   4.641   6.644
10519SOL     OW32455   2.417   2.551   6.362
10519SOL    HW132456   2.401   2.505   6.274
10519SOL    HW232457   2.329   2.570   6.406
10520SOL     OW32458   2.065   2.260   6.432
10520SOL    HW132459   2.010   2.177   6.445
10520SOL    HW232460   2.153   2.249   6.479
10521SOL     OW32461   6.266   5.338   1.697
10521SOL    HW132462   6.241   5.317   1.603
10521SOL    HW232463   6.280   5.437   1.707
10522SOL     OW32464   6.129   0.664   0.124
10522SOL    HW132465   6.092   0.753   0.150
10522SOL    HW232466   6.227   0.661   0.144
10523SOL     OW32467   0.354   5.851   4.841
10523SOL    HW132468   0.300   5.786   4.893
10523SOL    HW232469   0.327   5.945   4.864
10524SOL     OW32470   2.206   1.274   4.896
10524SOL    HW132471   2.194   1.370   4.872
10524SOL    HW232472   2.120   1.239   4.935
10525SOL     OW32473   3.123   0.102   5.631
10525SOL    HW132474   3.170   0.033   5.686
10525SOL    HW232475   3.026   0.079   5.624
10526SOL     OW32476   0.697   6.849   2.809
10526SOL    HW132477   0.735   6.928   2.858
10526SOL    HW232478   0.769   6.780   2.798
10527SOL     OW32479   6.818   2.806   4.769
10527SOL    HW132480   6.777   2.805   4.677
10527SOL    HW232481   6.756   2.762   4.833
10528SOL     OW32482   0.331   3.603   5.949
10528SOL    HW132483   0.350   3.513   5.988
10528SOL    HW232484   0.386   3.615   5.866
10529SOL     OW32485   2.515   6.458   4.118
10529SOL    HW132486   2.437   6.410   4.158
10529SOL    HW232487   2.591   6.393   4.108
10530SOL     OW32488   1.919   1.434   5.970
10530SOL    HW132489   1.929   1.476   5.880
10530SOL    HW232490   1.999   1.378   5.990
10531SOL     OW32491   1.099   2.912   4.452
10531SOL    HW132492   1.151   2.955   4.525
10531SOL    HW232493   1.140   2.824   4.429
10532SOL     OW32494   2.181   4.079   0.473
10532SOL    HW132495   2.280   4.070   0.480
10532SOL    HW232496   2.146   4.134   0.549
10533SOL     OW32497   3.443   1.703   4.597
10533SOL    HW132498   3.402   1.788   4.630
10533SOL    HW232499   3.420   1.691   4.500
10534SOL     OW32500   6.294   5.611   1.716
10534SOL    HW132501   6.281   5.693   1.773
10534SOL    HW232502   6.391   5.602   1.693
10535SOL     OW32503   0.245   2.027   1.226
10535SOL    HW132504   0.319   2.075   1.273
10535SOL    HW232505   0.174   2.001   1.292
10536SOL     OW32506   3.810   0.873   3.119
10536SOL    HW132507   3.872   0.946   3.090
10536SOL    HW232508   3.833   0.788   3.071
10537SOL     OW32509   3.643   5.395   3.690
10537SOL    HW132510   3.740   5.403   3.664
10537SOL    HW232511   3.627   5.450   3.772
10538SOL     OW32512   4.731   3.072   0.075
10538SOL    HW132513   4.641   3.096   0.110
10538SOL    HW232514   4.754   2.979   0.103
10539SOL     OW32515   0.300   4.382   6.878
10539SOL    HW132516   0.397   4.378   6.902
10539SOL    HW232517   0.282   4.320   6.801
10540SOL     OW32518   1.658   2.112   5.368
10540SOL    HW132519   1.671   2.163   5.282
10540SOL    HW232520   1.572   2.062   5.363
10541SOL     OW32521   3.644   3.479   1.847
10541SOL    HW132522   3.629   3.387   1.881
10541SOL    HW232523   3.587   3.544   1.897
10542SOL     OW32524   6.775   1.812   0.225
10542SOL    HW132525   6.815   1.838   0.313
10542SOL    HW232526   6.836   1.750   0.177
10543SOL     OW32527   0.007   1.584   5.055
10543SOL    HW132528   0.076   1.516   5.081
10543SOL    HW232529   0.046   1.676   5.064
10544SOL     OW32530   1.341   6.850   2.574
10544SOL    HW132531   1.260   6.792   2.570
10544SOL    HW232532   1.314   6.944   2.594
10545SOL     OW32533   5.621   1.320   2.698
10545SOL    HW132534   5.668   1.368   2.773
10545SOL    HW232535   5.633   1.222   2.710
10546SOL     OW32536   0.894   0.954   6.179
10546SOL    HW132537   0.911   0.881   6.112
10546SOL    HW232538   0.798   0.980   6.176
10547SOL     OW32539   4.719   1.904   1.597
10547SOL    HW132540   4.776   1.878   1.520
10547SOL    HW232541   4.623   1.887   1.575
10548SOL     OW32542   5.109   3.979   4.666
10548SOL    HW132543   5.189   4.033   4.640
10548SOL    HW232544   5.139   3.892   4.705
10549SOL     OW32545   6.434   0.483   2.356
10549SOL    HW132546   6.368   0.497   2.430
10549SOL    HW232547   6.504   0.555   2.360
10550SOL     OW32548   4.584   6.298   4.384
10550SOL    HW132549   4.650   6.238   4.431
10550SOL    HW232550   4.535   6.353   4.452
10551SOL     OW32551   1.874   2.504   5.564
10551SOL    HW132552   1.849   2.407   5.563
10551SOL    HW232553   1.934   2.522   5.643
10552SOL     OW32554   4.026   2.425   5.899
10552SOL    HW132555   4.024   2.414   5.800
10552SOL    HW232556   4.059   2.341   5.941
10553SOL     OW32557   1.177   4.922   1.929
10553SOL    HW132558   1.135   5.012   1.918
10553SOL    HW232559   1.273   4.925   1.900
10554SOL     OW32560   5.012   5.177   6.781
10554SOL    HW132561   5.084   5.246   6.793
10554SOL    HW232562   5.031   5.124   6.699
10555SOL     OW32563   2.666   3.124   1.081
10555SOL    HW132564   2.626   3.212   1.108
10555SOL    HW232565   2.766   3.132   1.079
10556SOL     OW32566   2.063   2.883   5.300
10556SOL    HW132567   2.020   2.795   5.279
10556SOL    HW232568   2.104   2.921   5.217
10557SOL     OW32569   1.613   2.569   3.296
10557SOL    HW132570   1.708   2.544   3.281
10557SOL    HW232571   1.567   2.497   3.347
10558SOL     OW32572   4.174   0.184   4.092
10558SOL    HW132573   4.093   0.130   4.117
10558SOL    HW232574   4.145   0.266   4.043
10559SOL     OW32575   4.253   0.671   1.246
10559SOL    HW132576   4.165   0.684   1.199
10559SOL    HW232577   4.327   0.699   1.185
10560SOL     OW32578   2.734   6.723   4.121
10560SOL    HW132579   2.728   6.637   4.170
10560SOL    HW232580   2.724   6.707   4.023
10561SOL     OW32581   2.566   4.925   0.690
10561SOL    HW132582   2.588   4.828   0.705
10561SOL    HW232583   2.505   4.934   0.612
10562SOL     OW32584   5.189   6.384   0.426
10562SOL    HW132585   5.251   6.424   0.359
10562SOL    HW232586   5.239   6.367   0.511
10563SOL     OW32587   1.249   0.404   4.244
10563SOL    HW132588   1.260   0.501   4.264
10563SOL    HW232589   1.283   0.350   4.321
10564SOL     OW32590   6.025   6.543   2.256
10564SOL    HW132591   5.943   6.575   2.304
10564SOL    HW232592   6.008   6.452   2.218
10565SOL     OW32593   0.495   0.610   5.056
10565SOL    HW132594   0.583   0.656   5.071
10565SOL    HW232595   0.462   0.629   4.964
10566SOL     OW32596   3.878   2.873   0.103
10566SOL    HW132597   3.807   2.942   0.115
10566SOL    HW232598   3.961   2.917   0.068
10567SOL     OW32599   2.514   2.150   4.273
10567SOL    HW132600   2.559   2.223   4.223
10567SOL    HW232601   2.475   2.186   4.358
10568SOL     OW32602   5.642   0.965   1.550
10568SOL    HW132603   5.597   1.054   1.534
10568SOL    HW232604   5.727   0.961   1.498
10569SOL     OW32605   6.438   2.444   1.602
10569SOL    HW132606   6.462   2.475   1.510
10569SOL    HW232607   6.494   2.494   1.669
10570SOL     OW32608   1.772   4.799   3.130
10570SOL    HW132609   1.714   4.826   3.053
10570SOL    HW232610   1.719   4.744   3.195
10571SOL     OW32611   0.082   4.795   4.501
10571SOL    HW132612   0.135   4.879   4.514
10571SOL    HW232613   0.144   4.717   4.500
10572SOL     OW32614   6.851   3.828   3.368
10572SOL    HW132615   6.776   3.786   3.419
10572SOL    HW232616   6.886   3.764   3.301
10573SOL     OW32617   4.802   6.012   4.375
10573SOL    HW132618   4.880   5.952   4.393
10573SOL    HW232619   4.802   6.087   4.441
10574SOL     OW32620   1.754   1.567   4.316
10574SOL    HW132621   1.722   1.652   4.274
10574SOL    HW232622   1.827   1.587   4.381
10575SOL     OW32623   7.015   0.932   3.351
10575SOL    HW132624   0.064   0.996   3.378
10575SOL    HW232625   6.940   0.981   3.306
10576SOL     OW32626   0.164   6.536   5.484
10576SOL    HW132627   0.067   6.531   5.459
10576SOL    HW232628   0.218   6.485   5.418
10577SOL     OW32629   1.333   2.379   6.644
10577SOL    HW132630   1.325   2.280   6.649
10577SOL    HW232631   1.359   2.416   6.733
10578SOL     OW32632   6.240   0.360   3.816
10578SOL    HW132633   6.300   0.423   3.865
10578SOL    HW232634   6.154   0.351   3.866
10579SOL     OW32635   3.480   1.714   0.423
10579SOL    HW132636   3.412   1.720   0.351
10579SOL    HW232637   3.440   1.670   0.504
10580SOL     OW32638   0.211   0.588   0.180
10580SOL    HW132639   0.180   0.498   0.149
10580SOL    HW232640   0.248   0.581   0.273
10581SOL     OW32641   5.976   6.837   2.829
10581SOL    HW132642   5.928   6.885   2.903
10581SOL    HW232643   5.994   6.743   2.857
10582SOL     OW32644   4.407   5.023   0.122
10582SOL    HW132645   4.413   4.986   0.215
10582SOL    HW232646   4.353   4.962   0.065
10583SOL     OW32647   3.945   1.037   5.452
10583SOL    HW132648   3.967   1.080   5.364
10583SOL    HW232649   3.878   1.093   5.501
10584SOL     OW32650   6.337   6.810   1.116
10584SOL    HW132651   6.282   6.830   1.036
10584SOL    HW232652   6.312   6.721   1.153
10585SOL     OW32653   1.462   3.439   5.371
10585SOL    HW132654   1.479   3.480   5.461
10585SOL    HW232655   1.419   3.350   5.383
10586SOL     OW32656   1.402   5.732   5.179
10586SOL    HW132657   1.477   5.772   5.127
10586SOL    HW232658   1.425   5.731   5.276
10587SOL     OW32659   6.260   4.448   0.110
10587SOL    HW132660   6.160   4.440   0.104
10587SOL    HW232661   6.290   4.530   0.063
10588SOL     OW32662   0.989   4.255   2.381
10588SOL    HW132663   0.949   4.328   2.436
10588SOL    HW232664   0.926   4.230   2.308
10589SOL     OW32665   5.688   1.734   4.531
10589SOL    HW132666   5.693   1.823   4.575
10589SOL    HW232667   5.781   1.701   4.511
10590SOL     OW32668   0.748   0.198   1.631
10590SOL    HW132669   0.817   0.258   1.672
10590SOL    HW232670   0.708   0.243   1.551
10591SOL     OW32671   1.334   1.410   6.237
10591SOL    HW132672   1.274   1.337   6.202
10591SOL    HW232673   1.427   1.394   6.205
10592SOL     OW32674   5.642   2.551   0.205
10592SOL    HW132675   5.556   2.544   0.256
10592SOL    HW232676   5.686   2.638   0.226
10593SOL     OW32677   2.610   5.205   0.608
10593SOL    HW132678   2.642   5.269   0.679
10593SOL    HW232679   2.614   5.112   0.643
10594SOL     OW32680   5.670   0.917   3.062
10594SOL    HW132681   5.729   0.974   3.005
10594SOL    HW232682   5.727   0.864   3.126
10595SOL     OW32683   3.344   0.506   6.105
10595SOL    HW132684   3.244   0.500   6.102
10595SOL    HW232685   3.383   0.445   6.036
10596SOL     OW32686   4.749   0.301   1.098
10596SOL    HW132687   4.689   0.305   1.018
10596SOL    HW232688   4.844   0.300   1.068
10597SOL     OW32689   3.095   0.908   4.786
10597SOL    HW132690   3.061   0.970   4.716
10597SOL    HW232691   3.045   0.822   4.781
10598SOL     OW32692   2.779   2.849   0.058
10598SOL    HW132693   2.800   2.787   0.133
10598SOL    HW232694   2.829   2.821   6.998
10599SOL     OW32695   5.301   2.098   0.042
10599SOL    HW132696   5.398   2.099   0.016
10599SOL    HW232697   5.251   2.166   7.009
10600SOL     OW32698   1.815   3.416   0.368
10600SOL    HW132699   1.903   3.424   0.321
10600SOL    HW232700   1.766   3.503   0.362
10601SOL     OW32701   1.854   4.816   6.350
10601SOL    HW132702   1.812   4.869   6.277
10601SOL    HW232703   1.932   4.867   6.387
10602SOL     OW32704   5.136   1.630   3.451
10602SOL    HW132705   5.167   1.684   3.529
10602SOL    HW232706   5.210   1.570   3.420
10603SOL     OW32707   2.213   5.775   3.836
10603SOL    HW132708   2.249   5.738   3.750
10603SOL    HW232709   2.239   5.715   3.911
10604SOL     OW32710   5.954   4.044   5.141
10604SOL    HW132711   5.900   4.094   5.208
10604SOL    HW232712   5.910   3.956   5.122
10605SOL     OW32713   1.715   4.835   0.801
10605SOL    HW132714   1.709   4.929   0.770
10605SOL    HW232715   1.643   4.817   0.868
10606SOL     OW32716   6.022   6.862   2.189
10606SOL    HW132717   6.102   6.824   2.236
10606SOL    HW232718   6.051   6.910   2.107
10607SOL     OW32719   4.399   3.645   5.703
10607SOL    HW132720   4.325   3.704   5.672
10607SOL    HW232721   4.487   3.692   5.692
10608SOL     OW32722   5.445   2.038   5.292
10608SOL    HW132723   5.466   1.941   5.289
10608SOL    HW232724   5.346   2.051   5.283
10609SOL     OW32725   3.494   6.666   1.689
10609SOL    HW132726   3.572   6.656   1.751
10609SOL    HW232727   3.418   6.609   1.722
10610SOL     OW32728   0.101   3.806   6.370
10610SOL    HW132729   0.015   3.856   6.359
10610SOL    HW232730   0.154   3.811   6.285
10611SOL     OW32731   4.759   3.472   6.303
10611SOL    HW132732   4.726   3.385   6.266
10611SOL    HW232733   4.686   3.516   6.354
10612SOL     OW32734   2.820   6.918   5.804
10612SOL    HW132735   2.895   6.866   5.762
10612SOL    HW232736   2.749   6.855   5.835
10613SOL     OW32737   0.247   6.968   5.299
10613SOL    HW132738   0.182   6.992   5.372
10613SOL    HW232739   0.322   0.013   5.298
10614SOL     OW32740   6.684   1.941   4.173
10614SOL    HW132741   6.587   1.926   4.153
10614SOL    HW232742   6.727   1.988   4.096
10615SOL     OW32743   3.802   5.488   5.809
10615SOL    HW132744   3.856   5.486   5.893
10615SOL    HW232745   3.707   5.464   5.830
10616SOL     OW32746   3.256   6.354   0.850
10616SOL    HW132747   3.323   6.422   0.818
10616SOL    HW232748   3.208   6.315   0.771
10617SOL     OW32749   2.453   2.908   0.746
10617SOL    HW132750   2.464   2.991   0.801
10617SOL    HW232751   2.432   2.933   0.652
10618SOL     OW32752   5.688   3.511   6.769
10618SOL    HW132753   5.723   3.481   6.858
10618SOL    HW232754   5.756   3.569   6.724
10619SOL     OW32755   0.481   3.770   1.690
10619SOL    HW132756   0.505   3.703   1.620
10619SOL    HW232757   0.480   3.861   1.650
10620SOL     OW32758   1.224   5.978   5.769
10620SOL    HW132759   1.319   5.996   5.793
10620SOL    HW232760   1.180   5.927   5.843
10621SOL     OW32761   1.279   5.761   0.979
10621SOL    HW132762   1.289   5.859   0.958
10621SOL    HW232763   1.346   5.735   1.048
10622SOL     OW32764   4.972   1.391   1.324
10622SOL    HW132765   4.965   1.491   1.317
10622SOL    HW232766   5.043   1.367   1.389
10623SOL     OW32767   6.456   4.015   3.919
10623SOL    HW132768   6.419   4.079   3.987
10623SOL    HW232769   6.553   4.034   3.906
10624SOL     OW32770   1.117   1.436   4.769
10624SOL    HW132771   1.159   1.507   4.713
10624SOL    HW232772   1.033   1.472   4.811
10625SOL     OW32773   0.709   4.792   0.007
10625SOL    HW132774   0.706   4.692   7.019
10625SOL    HW232775   0.618   4.830   7.012
10626SOL     OW32776   1.114   2.597   1.278
10626SOL    HW132777   1.061   2.643   1.206
10626SOL    HW232778   1.074   2.619   1.367
10627SOL     OW32779   5.238   6.154   2.336
10627SOL    HW132780   5.252   6.246   2.373
10627SOL    HW232781   5.327   6.114   2.313
10628SOL     OW32782   5.676   5.456   6.136
10628SOL    HW132783   5.597   5.400   6.115
10628SOL    HW232784   5.660   5.507   6.221
10629SOL     OW32785   2.580   4.641   4.906
10629SOL    HW132786   2.676   4.650   4.934
10629SOL    HW232787   2.574   4.583   4.826
10630SOL     OW32788   6.191   1.028   3.907
10630SOL    HW132789   6.214   1.123   3.927
10630SOL    HW232790   6.091   1.018   3.906
10631SOL     OW32791   1.860   5.017   5.073
10631SOL    HW132792   1.813   4.933   5.101
10631SOL    HW232793   1.800   5.095   5.090
10632SOL     OW32794   5.357   2.087   4.271
10632SOL    HW132795   5.418   2.068   4.194
10632SOL    HW232796   5.397   2.049   4.355
10633SOL     OW32797   2.679   4.135   1.334
10633SOL    HW132798   2.681   4.160   1.431
10633SOL    HW232799   2.728   4.049   1.321
10634SOL     OW32800   3.151   5.181   0.976
10634SOL    HW132801   3.230   5.201   1.035
10634SOL    HW232802   3.148   5.082   0.957
10635SOL     OW32803   3.465   1.410   1.338
10635SOL    HW132804   3.537   1.342   1.327
10635SOL    HW232805   3.414   1.391   1.423
10636SOL     OW32806   1.395   1.983   1.911
10636SOL    HW132807   1.413   1.982   1.812
10636SOL    HW232808   1.457   2.047   1.956
10637SOL     OW32809   3.596   4.684   5.669
10637SOL    HW132810   3.636   4.704   5.758
10637SOL    HW232811   3.497   4.673   5.678
10638SOL     OW32812   0.139   5.587   2.539
10638SOL    HW132813   0.237   5.587   2.523
10638SOL    HW232814   0.090   5.576   2.453
10639SOL     OW32815   0.405   2.106   3.084
10639SOL    HW132816   0.325   2.062   3.044
10639SOL    HW232817   0.477   2.114   3.014
10640SOL     OW32818   4.202   0.009   6.474
10640SOL    HW132819   4.175   6.944   6.432
10640SOL    HW232820   4.184   0.084   6.410
10641SOL     OW32821   3.218   1.912   0.407
10641SOL    HW132822   3.256   1.884   0.319
10641SOL    HW232823   3.197   1.831   0.462
10642SOL     OW32824   0.572   2.539   2.046
10642SOL    HW132825   0.558   2.442   2.029
10642SOL    HW232826   0.526   2.565   2.131
10643SOL     OW32827   2.167   4.989   5.766
10643SOL    HW132828   2.084   4.966   5.714
10643SOL    HW232829   2.191   5.084   5.749
10644SOL     OW32830   5.234   2.177   3.356
10644SOL    HW132831   5.243   2.109   3.429
10644SOL    HW232832   5.292   2.152   3.279
10645SOL     OW32833   0.855   1.058   4.349
10645SOL    HW132834   0.878   1.095   4.440
10645SOL    HW232835   0.822   1.132   4.291
10646SOL     OW32836   0.442   1.666   5.089
10646SOL    HW132837   0.458   1.660   4.990
10646SOL    HW232838   0.528   1.655   5.138
10647SOL     OW32839   4.939   6.185   6.771
10647SOL    HW132840   4.891   6.257   6.821
10647SOL    HW232841   4.873   6.120   6.734
10648SOL     OW32842   5.164   2.991   6.497
10648SOL    HW132843   5.253   2.945   6.506
10648SOL    HW232844   5.165   3.048   6.415
10649SOL     OW32845   0.481   4.638   3.586
10649SOL    HW132846   0.516   4.730   3.601
10649SOL    HW232847   0.381   4.641   3.585
10650SOL     OW32848   1.580   5.987   3.034
10650SOL    HW132849   1.654   5.946   3.087
10650SOL    HW232850   1.617   6.051   2.967
10651SOL     OW32851   4.824   0.402   5.943
10651SOL    HW132852   4.760   0.397   6.020
10651SOL    HW232853   4.806   0.327   5.879
10652SOL     OW32854   3.658   0.296   6.970
10652SOL    HW132855   3.638   0.219   0.008
10652SOL    HW232856   3.574   0.325   6.923
10653SOL     OW32857   4.789   4.876   4.310
10653SOL    HW132858   4.856   4.822   4.259
10653SOL    HW232859   4.784   4.968   4.271
10654SOL     OW32860   4.750   1.169   0.957
10654SOL    HW132861   4.693   1.151   1.037
10654SOL    HW232862   4.708   1.126   0.877
10655SOL     OW32863   3.189   5.420   1.535
10655SOL    HW132864   3.228   5.492   1.592
10655SOL    HW232865   3.183   5.335   1.587
10656SOL     OW32866   6.035   2.299   0.677
10656SOL    HW132867   6.086   2.285   0.591
10656SOL    HW232868   6.066   2.234   0.746
10657SOL     OW32869   6.265   6.777   0.185
10657SOL    HW132870   6.187   6.835   0.209
10657SOL    HW232871   6.258   6.691   0.235
10658SOL     OW32872   0.066   4.111   4.894
10658SOL    HW132873   0.076   4.208   4.915
10658SOL    HW232874   0.007   4.100   4.814
10659SOL     OW32875   6.910   6.186   0.869
10659SOL    HW132876   6.902   6.222   0.963
10659SOL    HW232877   6.822   6.192   0.824
10660SOL     OW32878   5.058   4.446   6.408
10660SOL    HW132879   5.086   4.378   6.476
10660SOL    HW232880   5.000   4.515   6.452
10661SOL     OW32881   7.014   6.579   2.727
10661SOL    HW132882   0.062   6.646   2.750
10661SOL    HW232883   6.945   6.621   2.669
10662SOL     OW32884   5.815   0.742   2.558
10662SOL    HW132885   5.866   0.778   2.636
10662SOL    HW232886   5.875   0.738   2.478
10663SOL     OW32887   0.553   6.671   1.234
10663SOL    HW132888   0.585   6.691   1.142
10663SOL    HW232889   0.630   6.675   1.298
10664SOL     OW32890   1.941   4.320   6.444
10664SOL    HW132891   1.884   4.392   6.406
10664SOL    HW232892   2.037   4.337   6.421
10665SOL     OW32893   1.568   0.794   0.019
10665SOL    HW132894   1.545   0.701   0.047
10665SOL    HW232895   1.568   0.854   0.099
10666SOL     OW32896   3.906   4.679   0.011
10666SOL    HW132897   3.976   4.687   6.962
10666SOL    HW232898   3.941   4.623   0.086
10667SOL     OW32899   3.982   2.408   5.602
10667SOL    HW132900   4.012   2.313   5.592
10667SOL    HW232901   3.950   2.443   5.514
10668SOL     OW32902   1.265   1.645   4.972
10668SOL    HW132903   1.181   1.673   4.925
10668SOL    HW232904   1.309   1.724   5.012
10669SOL     OW32905   6.697   0.050   0.744
10669SOL    HW132906   6.790   0.023   0.769
10669SOL    HW232907   6.692   0.063   0.645
10670SOL     OW32908   4.922   4.684   5.622
10670SOL    HW132909   4.825   4.657   5.619
10670SOL    HW232910   4.959   4.685   5.530
10671SOL     OW32911   2.161   3.168   3.159
10671SOL    HW132912   2.140   3.110   3.238
10671SOL    HW232913   2.132   3.262   3.179
10672SOL     OW32914   7.004   2.825   0.717
10672SOL    HW132915   6.943   2.804   0.640
10672SOL    HW232916   6.991   2.920   0.745
10673SOL     OW32917   2.363   2.220   5.481
10673SOL    HW132918   2.368   2.212   5.382
10673SOL    HW232919   2.330   2.135   5.520
10674SOL     OW32920   4.144   3.716   0.166
10674SOL    HW132921   4.185   3.771   0.094
10674SOL    HW232922   4.097   3.775   0.231
10675SOL     OW32923   1.885   0.982   6.377
10675SOL    HW132924   1.851   1.061   6.426
10675SOL    HW232925   1.931   0.920   6.441
10676SOL     OW32926   5.848   0.187   6.435
10676SOL    HW132927   5.865   0.089   6.427
10676SOL    HW232928   5.753   0.207   6.408
10677SOL     OW32929   0.806   1.002   2.304
10677SOL    HW132930   0.837   0.959   2.389
10677SOL    HW232931   0.724   0.955   2.271
10678SOL     OW32932   3.441   5.157   3.021
10678SOL    HW132933   3.386   5.151   2.937
10678SOL    HW232934   3.496   5.241   3.018
10679SOL     OW32935   5.524   5.324   5.838
10679SOL    HW132936   5.442   5.316   5.781
10679SOL    HW232937   5.567   5.413   5.823
10680SOL     OW32938   1.696   3.012   3.758
10680SOL    HW132939   1.752   2.950   3.813
10680SOL    HW232940   1.753   3.086   3.724
10681SOL     OW32941   6.978   4.006   6.715
10681SOL    HW132942   6.882   3.988   6.736
10681SOL    HW232943   7.000   3.969   6.624
10682SOL     OW32944   1.722   1.958   3.288
10682SOL    HW132945   1.787   1.908   3.231
10682SOL    HW232946   1.680   2.031   3.234
10683SOL     OW32947   2.889   2.071   3.679
10683SOL    HW132948   2.855   2.165   3.667
10683SOL    HW232949   2.977   2.062   3.632
10684SOL     OW32950   4.520   4.045   0.015
10684SOL    HW132951   4.427   4.025   0.045
10684SOL    HW232952   4.518   4.086   6.946
10685SOL     OW32953   0.301   3.993   2.968
10685SOL    HW132954   0.363   3.943   2.907
10685SOL    HW232955   0.232   3.931   3.004
10686SOL     OW32956   4.171   5.842   6.417
10686SOL    HW132957   4.099   5.901   6.381
10686SOL    HW232958   4.260   5.885   6.401
10687SOL     OW32959   0.232   5.221   1.956
10687SOL    HW132960   0.234   5.125   1.930
10687SOL    HW232961   0.140   5.246   1.985
10688SOL     OW32962   6.128   4.221   2.185
10688SOL    HW132963   6.106   4.305   2.135
10688SOL    HW232964   6.216   4.186   2.153
10689SOL     OW32965   7.013   6.887   3.307
10689SOL    HW132966   6.914   6.888   3.320
10689SOL    HW232967   0.028   6.979   3.321
10690SOL     OW32968   5.192   5.503   3.529
10690SOL    HW132969   5.193   5.403   3.522
10690SOL    HW232970   5.098   5.535   3.539
10691SOL     OW32971   0.029   1.647   2.003
10691SOL    HW132972   0.077   1.561   1.991
10691SOL    HW232973   0.076   1.719   1.952
10692SOL     OW32974   2.992   5.443   4.026
10692SOL    HW132975   3.076   5.409   3.983
10692SOL    HW232976   2.979   5.539   4.002
10693SOL     OW32977   1.667   1.051   1.266
10693SOL    HW132978   1.745   1.086   1.318
10693SOL    HW232979   1.675   1.082   1.171
10694SOL     OW32980   3.554   6.459   0.973
10694SOL    HW132981   3.504   6.374   0.991
10694SOL    HW232982   3.530   6.495   0.883
10695SOL     OW32983   6.388   2.188   3.620
10695SOL    HW132984   6.408   2.212   3.525
10695SOL    HW232985   6.466   2.141   3.659
10696SOL     OW32986   6.951   4.779   1.308
10696SOL    HW132987   6.970   4.766   1.211
10696SOL    HW232988   6.993   4.864   1.339
10697SOL     OW32989   0.377   6.183   3.752
10697SOL    HW132990   0.461   6.236   3.739
10697SOL    HW232991   0.301   6.246   3.769
10698SOL     OW32992   3.077   6.915   3.865
10698SOL    HW132993   3.164   6.912   3.815
10698SOL    HW232994   3.095   6.937   3.961
10699SOL     OW32995   4.561   1.795   2.604
10699SOL    HW132996   4.584   1.726   2.534
10699SOL    HW232997   4.593   1.763   2.693
10700SOL     OW32998   0.789   0.247   0.499
10700SOL    HW132999   0.737   0.310   0.442
10700SOL    HW233000   0.777   0.270   0.595
10701SOL     OW33001   4.153   6.234   6.753
10701SOL    HW133002   4.187   6.318   6.713
10701SOL    HW233003   4.089   6.255   6.827
10702SOL     OW33004   5.646   2.419   1.543
10702SOL    HW133005   5.595   2.478   1.606
10702SOL    HW233006   5.688   2.344   1.593
10703SOL     OW33007   3.587   3.702   3.567
10703SOL    HW133008   3.547   3.783   3.526
10703SOL    HW233009   3.519   3.658   3.626
10704SOL     OW33010   4.616   6.568   2.336
10704SOL    HW133011   4.650   6.650   2.290
10704SOL    HW233012   4.566   6.595   2.418
10705SOL     OW33013   1.393   3.806   0.193
10705SOL    HW133014   1.366   3.902   0.204
10705SOL    HW233015   1.400   3.763   0.282
10706SOL     OW33016   4.766   0.515   1.801
10706SOL    HW133017   4.684   0.494   1.748
10706SOL    HW233018   4.773   0.453   1.879
10707SOL     OW33019   0.183   6.786   5.597
10707SOL    HW133020   0.112   6.776   5.667
10707SOL    HW233021   0.189   6.701   5.543
10708SOL     OW33022   4.921   0.961   1.347
10708SOL    HW133023   4.990   1.031   1.331
10708SOL    HW233024   4.943   0.910   1.429
10709SOL     OW33025   5.851   0.324   5.684
10709SOL    HW133026   5.878   0.396   5.621
10709SOL    HW233027   5.882   0.347   5.777
10710SOL     OW33028   6.973   6.370   4.369
10710SOL    HW133029   7.019   6.439   4.425
10710SOL    HW233030   6.999   6.279   4.401
10711SOL     OW33031   2.375   0.015   3.825
10711SOL    HW133032   2.296   0.054   3.779
10711SOL    HW233033   2.362   6.938   3.837
10712SOL     OW33034   3.976   1.368   4.241
10712SOL    HW133035   4.070   1.395   4.223
10712SOL    HW233036   3.943   1.415   4.323
10713SOL     OW33037   2.001   5.656   2.168
10713SOL    HW133038   2.091   5.620   2.144
10713SOL    HW233039   1.979   5.734   2.109
10714SOL     OW33040   0.145   4.552   4.654
10714SOL    HW133041   0.224   4.492   4.648
10714SOL    HW233042   0.145   4.598   4.743
10715SOL     OW33043   5.634   1.068   4.263
10715SOL    HW133044   5.723   1.047   4.305
10715SOL    HW233045   5.647   1.136   4.191
10716SOL     OW33046   6.621   1.182   3.485
10716SOL    HW133047   6.642   1.096   3.531
10716SOL    HW233048   6.560   1.165   3.408
10717SOL     OW33049   0.535   1.325   1.219
10717SOL    HW133050   0.553   1.381   1.300
10717SOL    HW233051   0.456   1.265   1.235
10718SOL     OW33052   6.643   5.451   0.498
10718SOL    HW133053   6.563   5.494   0.538
10718SOL    HW233054   6.696   5.405   0.569
10719SOL     OW33055   4.712   7.019   2.546
10719SOL    HW133056   4.761   6.940   2.583
10719SOL    HW233057   4.776   0.072   2.530
10720SOL     OW33058   6.933   3.305   6.006
10720SOL    HW133059   6.961   3.383   6.061
10720SOL    HW233060   7.011   3.272   5.953
10721SOL     OW33061   6.137   2.016   4.409
10721SOL    HW133062   6.078   1.969   4.344
10721SOL    HW233063   6.158   2.107   4.375
10722SOL     OW33064   6.767   3.511   7.019
10722SOL    HW133065   6.847   3.546   6.970
10722SOL    HW233066   6.745   3.572   0.073
10723SOL     OW33067   5.377   4.143   0.036
10723SOL    HW133068   5.426   4.061   0.066
10723SOL    HW233069   5.282   4.120   0.016
10724SOL     OW33070   4.146   6.578   6.079
10724SOL    HW133071   4.245   6.574   6.066
10724SOL    HW233072   4.123   6.662   6.128
10725SOL     OW33073   0.404   5.542   4.391
10725SOL    HW133074   0.421   5.446   4.373
10725SOL    HW233075   0.480   5.581   4.443
10726SOL     OW33076   5.391   0.831   5.175
10726SOL    HW133077   5.394   0.735   5.201
10726SOL    HW233078   5.484   0.869   5.179
10727SOL     OW33079   1.981   4.709   5.162
10727SOL    HW133080   1.908   4.761   5.205
10727SOL    HW233081   2.064   4.717   5.217
10728SOL     OW33082   5.119   6.772   3.245
10728SOL    HW133083   5.127   6.754   3.344
10728SOL    HW233084   5.127   6.870   3.228
10729SOL     OW33085   6.399   1.772   2.881
10729SOL    HW133086   6.474   1.836   2.866
10729SOL    HW233087   6.414   1.690   2.827
10730SOL     OW33088   2.361   5.708   2.324
10730SOL    HW133089   2.375   5.749   2.234
10730SOL    HW233090   2.332   5.778   2.388
10731SOL     OW33091   3.062   5.498   0.174
10731SOL    HW133092   3.106   5.461   0.256
10731SOL    HW233093   3.099   5.588   0.155
10732SOL     OW33094   6.125   6.585   3.140
10732SOL    HW133095   6.070   6.505   3.164
10732SOL    HW233096   6.119   6.601   3.041
10733SOL     OW33097   6.039   1.573   0.266
10733SOL    HW133098   6.021   1.558   0.363
10733SOL    HW233099   5.954   1.569   0.215
10734SOL     OW33100   0.831   0.155   6.156
10734SOL    HW133101   0.805   0.061   6.133
10734SOL    HW233102   0.925   0.172   6.128
10735SOL     OW33103   0.883   5.654   2.476
10735SOL    HW133104   0.965   5.709   2.460
10735SOL    HW233105   0.909   5.568   2.521
10736SOL     OW33106   0.674   0.703   3.791
10736SOL    HW133107   0.678   0.613   3.834
10736SOL    HW233108   0.655   0.772   3.861
10737SOL     OW33109   0.603   2.118   1.240
10737SOL    HW133110   0.551   2.058   1.300
10737SOL    HW233111   0.541   2.163   1.176
10738SOL     OW33112   2.562   0.903   2.583
10738SOL    HW133113   2.656   0.928   2.608
10738SOL    HW233114   2.540   0.814   2.624
10739SOL     OW33115   6.053   1.805   2.233
10739SOL    HW133116   6.132   1.746   2.246
10739SOL    HW233117   6.040   1.822   2.135
10740SOL     OW33118   1.567   6.264   5.518
10740SOL    HW133119   1.535   6.339   5.575
10740SOL    HW233120   1.491   6.228   5.464
10741SOL     OW33121   1.643   2.610   3.617
10741SOL    HW133122   1.545   2.595   3.624
10741SOL    HW233123   1.660   2.703   3.583
10742SOL     OW33124   5.779   5.936   1.857
10742SOL    HW133125   5.719   5.858   1.837
10742SOL    HW233126   5.875   5.905   1.852
10743SOL     OW33127   3.692   1.302   5.172
10743SOL    HW133128   3.675   1.206   5.193
10743SOL    HW233129   3.775   1.332   5.218
10744SOL     OW33130   3.175   0.686   1.799
10744SOL    HW133131   3.091   0.631   1.803
10744SOL    HW233132   3.155   0.774   1.758
10745SOL     OW33133   2.619   4.904   0.970
10745SOL    HW133134   2.646   4.993   1.007
10745SOL    HW233135   2.571   4.917   0.884
10746SOL     OW33136   2.677   5.953   1.116
10746SOL    HW133137   2.637   5.926   1.028
10746SOL    HW233138   2.749   6.020   1.100
10747SOL     OW33139   5.546   2.008   4.059
10747SOL    HW133140   5.599   2.079   4.013
10747SOL    HW233141   5.600   1.924   4.064
10748SOL     OW33142   5.215   5.640   0.998
10748SOL    HW133143   5.231   5.663   1.094
10748SOL    HW233144   5.302   5.617   0.954
10749SOL     OW33145   5.961   4.663   3.489
10749SOL    HW133146   6.000   4.594   3.550
10749SOL    HW233147   5.868   4.637   3.464
10750SOL     OW33148   4.672   4.301   4.089
10750SOL    HW133149   4.585   4.345   4.066
10750SOL    HW233150   4.746   4.366   4.075
10751SOL     OW33151   1.260   3.334   5.069
10751SOL    HW133152   1.210   3.387   5.138
10751SOL    HW233153   1.282   3.392   4.991
10752SOL     OW33154   6.010   4.823   0.064
10752SOL    HW133155   6.102   4.796   0.037
10752SOL    HW233156   6.015   4.885   0.143
10753SOL     OW33157   4.563   0.190   4.310
10753SOL    HW133158   4.514   0.142   4.237
10753SOL    HW233159   4.538   0.287   4.308
10754SOL     OW33160   0.517   3.333   1.731
10754SOL    HW133161   0.418   3.329   1.748
10754SOL    HW233162   0.540   3.274   1.654
10755SOL     OW33163   0.201   1.769   1.687
10755SOL    HW133164   0.150   1.683   1.677
10755SOL    HW233165   0.292   1.758   1.648
10756SOL     OW33166   6.385   2.432   0.197
10756SOL    HW133167   6.474   2.468   0.224
10756SOL    HW233168   6.397   2.340   0.158
10757SOL     OW33169   0.139   4.057   0.603
10757SOL    HW133170   0.141   4.004   0.688
10757SOL    HW233171   0.103   4.149   0.623
10758SOL     OW33172   0.842   5.813   6.389
10758SOL    HW133173   0.805   5.896   6.348
10758SOL    HW233174   0.823   5.813   6.487
10759SOL     OW33175   1.578   2.835   5.961
10759SOL    HW133176   1.561   2.886   6.044
10759SOL    HW233177   1.512   2.761   5.952
10760SOL     OW33178   1.311   6.095   0.480
10760SOL    HW133179   1.355   6.173   0.524
10760SOL    HW233180   1.221   6.121   0.445
10761SOL     OW33181   0.971   2.671   6.504
10761SOL    HW133182   1.066   2.641   6.497
10761SOL    HW233183   0.948   2.726   6.423
10762SOL     OW33184   3.981   0.602   6.050
10762SOL    HW133185   3.928   0.597   5.966
10762SOL    HW233186   4.077   0.617   6.028
10763SOL     OW33187   5.163   0.461   2.596
10763SOL    HW133188   5.254   0.498   2.576
10763SOL    HW233189   5.124   0.511   2.674
10764SOL     OW33190   4.789   0.964   5.566
10764SOL    HW133191   4.877   0.988   5.526
10764SOL    HW233192   4.782   0.865   5.575
10765SOL     OW33193   5.653   1.641   2.424
10765SOL    HW133194   5.581   1.589   2.470
10765SOL    HW233195   5.743   1.606   2.453
10766SOL     OW33196   1.985   4.894   0.311
10766SOL    HW133197   2.050   4.835   0.264
10766SOL    HW233198   1.963   4.855   0.400
10767SOL     OW33199   1.950   6.358   0.496
10767SOL    HW133200   1.861   6.362   0.539
10767SOL    HW233201   1.957   6.274   0.441
10768SOL     OW33202   5.256   5.294   0.405
10768SOL    HW133203   5.247   5.324   0.310
10768SOL    HW233204   5.233   5.370   0.466
10769SOL     OW33205   2.940   4.371   5.377
10769SOL    HW133206   2.931   4.430   5.297
10769SOL    HW233207   2.933   4.275   5.349
10770SOL     OW33208   5.681   0.136   4.404
10770SOL    HW133209   5.589   0.100   4.420
10770SOL    HW233210   5.738   0.118   4.484
10771SOL     OW33211   4.181   0.241   5.230
10771SOL    HW133212   4.198   0.148   5.197
10771SOL    HW233213   4.208   0.306   5.159
10772SOL     OW33214   6.252   6.814   4.590
10772SOL    HW133215   6.322   6.825   4.519
10772SOL    HW233216   6.296   6.791   4.677
10773SOL     OW33217   6.675   4.205   6.697
10773SOL    HW133218   6.703   4.110   6.685
10773SOL    HW233219   6.737   4.250   6.761
10774SOL     OW33220   1.135   2.313   0.977
10774SOL    HW133221   1.214   2.367   1.006
10774SOL    HW233222   1.079   2.366   0.914
10775SOL     OW33223   1.674   4.436   1.653
10775SOL    HW133224   1.590   4.485   1.676
10775SOL    HW233225   1.751   4.499   1.655
10776SOL     OW33226   6.293   0.672   2.988
10776SOL    HW133227   6.260   0.643   3.078
10776SOL    HW233228   6.365   0.611   2.957
10777SOL     OW33229   3.487   0.798   3.991
10777SOL    HW133230   3.403   0.745   4.001
10777SOL    HW233231   3.561   0.753   4.041
10778SOL     OW33232   6.231   6.149   4.944
10778SOL    HW133233   6.283   6.071   4.980
10778SOL    HW233234   6.291   6.204   4.886
10779SOL     OW33235   5.859   4.754   2.806
10779SOL    HW133236   5.819   4.668   2.836
10779SOL    HW233237   5.883   4.748   2.709
10780SOL     OW33238   7.005   5.365   4.371
10780SOL    HW133239   0.051   5.418   4.421
10780SOL    HW233240   7.012   5.269   4.396
10781SOL     OW33241   5.992   0.831   4.662
10781SOL    HW133242   6.020   0.767   4.734
10781SOL    HW233243   5.892   0.833   4.655
10782SOL     OW33244   6.465   3.204   5.182
10782SOL    HW133245   6.541   3.160   5.230
10782SOL    HW233246   6.426   3.139   5.117
10783SOL     OW33247   1.987   2.659   2.555
10783SOL    HW133248   2.079   2.626   2.578
10783SOL    HW233249   1.950   2.711   2.631
10784SOL     OW33250   2.776   5.936   1.893
10784SOL    HW133251   2.737   5.845   1.886
10784SOL    HW233252   2.738   5.995   1.822
10785SOL     OW33253   1.596   5.215   1.789
10785SOL    HW133254   1.523   5.238   1.724
10785SOL    HW233255   1.685   5.240   1.750
10786SOL     OW33256   4.059   2.110   2.548
10786SOL    HW133257   4.000   2.137   2.472
10786SOL    HW233258   4.081   2.190   2.604
10787SOL     OW33259   2.885   1.315   4.280
10787SOL    HW133260   2.818   1.242   4.293
10787SOL    HW233261   2.957   1.283   4.218
10788SOL     OW33262   1.345   4.415   0.169
10788SOL    HW133263   1.273   4.372   0.116
10788SOL    HW233264   1.369   4.357   0.247
10789SOL     OW33265   6.155   0.958   0.414
10789SOL    HW133266   6.161   0.863   0.445
10789SOL    HW233267   6.061   0.979   0.389
10790SOL     OW33268   0.253   1.521   5.413
10790SOL    HW133269   0.226   1.596   5.352
10790SOL    HW233270   0.173   1.486   5.461
10791SOL     OW33271   1.930   1.626   2.169
10791SOL    HW133272   1.839   1.641   2.131
10791SOL    HW233273   1.961   1.709   2.216
10792SOL     OW33274   3.505   2.526   1.364
10792SOL    HW133275   3.433   2.540   1.432
10792SOL    HW233276   3.590   2.502   1.410
10793SOL     OW33277   5.233   1.752   4.553
10793SOL    HW133278   5.269   1.808   4.627
10793SOL    HW233279   5.209   1.661   4.589
10794SOL     OW33280   3.922   3.368   1.586
10794SOL    HW133281   3.884   3.440   1.527
10794SOL    HW233282   3.922   3.400   1.680
10795SOL     OW33283   6.999   4.029   2.634
10795SOL    HW133284   0.074   4.052   2.632
10795SOL    HW233285   6.947   4.102   2.678
10796SOL     OW33286   5.486   0.017   6.611
10796SOL    HW133287   5.485   0.104   6.659
10796SOL    HW233288   5.539   6.972   6.664
10797SOL     OW33289   3.721   2.716   6.869
10797SOL    HW133290   3.779   2.653   6.920
10797SOL    HW233291   3.679   2.668   6.792
10798SOL     OW33292   2.476   6.977   6.200
10798SOL    HW133293   2.517   0.036   6.156
10798SOL    HW233294   2.416   6.931   6.136
10799SOL     OW33295   2.845   2.036   2.570
10799SOL    HW133296   2.867   2.107   2.504
10799SOL    HW233297   2.914   1.963   2.564
10800SOL     OW33298   2.113   6.733   0.774
10800SOL    HW133299   2.173   6.741   0.854
10800SOL    HW233300   2.039   6.800   0.781
10801SOL     OW33301   2.001   6.339   5.416
10801SOL    HW133302   2.092   6.332   5.457
10801SOL    HW233303   1.931   6.325   5.486
10802SOL     OW33304   1.708   3.075   4.093
10802SOL    HW133305   1.748   3.011   4.026
10802SOL    HW233306   1.675   3.157   4.045
10803SOL     OW33307   5.221   4.263   5.602
10803SOL    HW133308   5.144   4.325   5.620
10803SOL    HW233309   5.299   4.290   5.658
10804SOL     OW33310   6.386   4.019   1.320
10804SOL    HW133311   6.333   3.937   1.339
10804SOL    HW233312   6.386   4.037   1.222
10805SOL     OW33313   3.903   6.720   7.017
10805SOL    HW133314   4.000   6.733   0.015
10805SOL    HW233315   3.889   6.631   6.975
10806SOL     OW33316   5.727   3.559   0.378
10806SOL    HW133317   5.694   3.487   0.317
10806SOL    HW233318   5.685   3.550   0.468
10807SOL     OW33319   3.413   6.154   3.676
10807SOL    HW133320   3.393   6.069   3.726
10807SOL    HW233321   3.459   6.219   3.737
10808SOL     OW33322   0.943   4.080   6.954
10808SOL    HW133323   1.025   4.066   6.899
10808SOL    HW233324   0.862   4.061   6.899
10809SOL     OW33325   2.821   1.578   4.297
10809SOL    HW133326   2.878   1.644   4.345
10809SOL    HW233327   2.859   1.486   4.309
10810SOL     OW33328   0.651   1.165   5.846
10810SOL    HW133329   0.551   1.160   5.856
10810SOL    HW233330   0.692   1.181   5.936
10811SOL     OW33331   3.961   4.691   5.642
10811SOL    HW133332   3.919   4.604   5.669
10811SOL    HW233333   3.891   4.751   5.604
10812SOL     OW33334   6.874   2.644   2.665
10812SOL    HW133335   6.958   2.664   2.615
10812SOL    HW233336   6.817   2.582   2.612
10813SOL     OW33337   2.592   6.103   1.746
10813SOL    HW133338   2.493   6.108   1.755
10813SOL    HW233339   2.626   6.185   1.702
10814SOL     OW33340   1.912   0.041   5.310
10814SOL    HW133341   1.991   0.098   5.289
10814SOL    HW233342   1.929   6.969   5.277
10815SOL     OW33343   4.893   3.948   3.022
10815SOL    HW133344   4.991   3.961   3.004
10815SOL    HW233345   4.840   3.981   2.944
10816SOL     OW33346   1.705   1.065   2.297
10816SOL    HW133347   1.763   1.041   2.375
10816SOL    HW233348   1.758   1.119   2.231
10817SOL     OW33349   5.463   0.098   2.932
10817SOL    HW133350   5.492   0.063   2.843
10817SOL    HW233351   5.429   0.192   2.921
10818SOL     OW33352   5.708   2.746   6.506
10818SOL    HW133353   5.682   2.680   6.577
10818SOL    HW233354   5.735   2.697   6.423
10819SOL     OW33355   0.317   4.183   6.389
10819SOL    HW133356   0.356   4.104   6.342
10819SOL    HW233357   0.264   4.237   6.323
10820SOL     OW33358   0.396   6.993   3.815
10820SOL    HW133359   0.320   6.937   3.848
10820SOL    HW233360   0.392   0.062   3.856
10821SOL     OW33361   6.847   6.633   1.891
10821SOL    HW133362   6.751   6.654   1.872
10821SOL    HW233363   6.853   6.581   1.977
10822SOL     OW33364   1.341   3.336   2.347
10822SOL    HW133365   1.415   3.277   2.376
10822SOL    HW233366   1.262   3.325   2.408
10823SOL     OW33367   2.682   5.651   1.798
10823SOL    HW133368   2.782   5.649   1.796
10823SOL    HW233369   2.647   5.609   1.714
10824SOL     OW33370   5.200   0.072   3.540
10824SOL    HW133371   5.249   0.151   3.503
10824SOL    HW233372   5.109   0.100   3.569
10825SOL     OW33373   2.589   1.537   1.165
10825SOL    HW133374   2.535   1.621   1.161
10825SOL    HW233375   2.674   1.554   1.215
10826SOL     OW33376   7.019   3.917   2.136
10826SOL    HW133377   0.038   3.841   2.186
10826SOL    HW233378   6.968   3.976   2.199
10827SOL     OW33379   6.016   3.912   4.181
10827SOL    HW133380   6.102   3.884   4.223
10827SOL    HW233381   5.940   3.872   4.232
10828SOL     OW33382   1.111   5.746   1.201
10828SOL    HW133383   1.143   5.756   1.107
10828SOL    HW233384   1.168   5.679   1.249
10829SOL     OW33385   2.816   3.587   1.443
10829SOL    HW133386   2.795   3.557   1.536
10829SOL    HW233387   2.732   3.590   1.389
10830SOL     OW33388   6.165   3.245   4.462
10830SOL    HW133389   6.109   3.199   4.531
10830SOL    HW233390   6.210   3.177   4.405
10831SOL     OW33391   5.095   0.742   2.605
10831SOL    HW133392   5.113   0.734   2.703
10831SOL    HW233393   5.000   0.773   2.592
10832SOL     OW33394   0.935   2.015   0.706
10832SOL    HW133395   0.935   2.082   0.632
10832SOL    HW233396   0.884   1.934   0.678
10833SOL     OW33397   2.422   0.632   3.977
10833SOL    HW133398   2.404   0.725   3.946
10833SOL    HW233399   2.440   0.573   3.898
10834SOL     OW33400   0.279   1.110   4.733
10834SOL    HW133401   0.206   1.055   4.774
10834SOL    HW233402   0.274   1.204   4.768
10835SOL     OW33403   6.801   1.780   2.308
10835SOL    HW133404   6.751   1.734   2.382
10835SOL    HW233405   6.899   1.766   2.320
10836SOL     OW33406   0.407   1.235   5.157
10836SOL    HW133407   0.495   1.277   5.179
10836SOL    HW233408   0.400   1.146   5.201
10837SOL     OW33409   6.710   4.564   0.232
10837SOL    HW133410   6.724   4.565   0.331
10837SOL    HW233411   6.647   4.638   0.206
10838SOL     OW33412   5.850   0.542   6.363
10838SOL    HW133413   5.931   0.516   6.310
10838SOL    HW233414   5.788   0.463   6.370
10839SOL     OW33415   2.737   2.087   0.213
10839SOL    HW133416   2.641   2.060   0.218
10839SOL    HW233417   2.744   2.181   0.180
10840SOL     OW33418   3.293   6.205   1.404
10840SOL    HW133419   3.249   6.135   1.348
10840SOL    HW233420   3.329   6.164   1.487
10841SOL     OW33421   3.768   6.015   5.725
10841SOL    HW133422   3.682   6.063   5.708
10841SOL    HW233423   3.751   5.932   5.778
10842SOL     OW33424   6.858   3.151   1.054
10842SOL    HW133425   6.943   3.142   1.001
10842SOL    HW233426   6.856   3.081   1.125
10843SOL     OW33427   1.185   1.632   2.220
10843SOL    HW133428   1.123   1.618   2.297
10843SOL    HW233429   1.138   1.684   2.148
10844SOL     OW33430   6.424   6.155   4.588
10844SOL    HW133431   6.499   6.191   4.532
10844SOL    HW233432   6.355   6.114   4.529
10845SOL     OW33433   1.023   1.121   1.975
10845SOL    HW133434   0.938   1.148   2.021
10845SOL    HW233435   1.067   1.049   2.028
10846SOL     OW33436   4.409   2.200   0.861
10846SOL    HW133437   4.351   2.270   0.903
10846SOL    HW233438   4.468   2.244   0.793
10847SOL     OW33439   2.776   1.432   5.768
10847SOL    HW133440   2.835   1.405   5.692
10847SOL    HW233441   2.684   1.451   5.734
10848SOL     OW33442   2.619   1.430   0.114
10848SOL    HW133443   2.703   1.407   0.163
10848SOL    HW233444   2.630   1.519   0.070
10849SOL     OW33445   3.074   4.857   3.756
10849SOL    HW133446   3.052   4.884   3.663
10849SOL    HW233447   2.990   4.840   3.807
10850SOL     OW33448   3.835   6.265   6.926
10850SOL    HW133449   3.869   6.175   6.955
10850SOL    HW233450   3.772   6.300   6.995
10851SOL     OW33451   2.784   3.039   6.248
10851SOL    HW133452   2.757   3.135   6.251
10851SOL    HW233453   2.715   2.986   6.200
10852SOL     OW33454   0.382   1.140   5.942
10852SOL    HW133455   0.299   1.087   5.956
10852SOL    HW233456   0.358   1.233   5.912
10853SOL     OW33457   3.101   1.851   4.239
10853SOL    HW133458   3.049   1.795   4.175
10853SOL    HW233459   3.132   1.934   4.193
10854SOL     OW33460   5.369   0.162   6.860
10854SOL    HW133461   5.436   0.236   6.862
10854SOL    HW233462   5.277   0.200   6.853
10855SOL     OW33463   2.307   6.269   2.649
10855SOL    HW133464   2.351   6.197   2.704
10855SOL    HW233465   2.376   6.317   2.596
10856SOL     OW33466   6.173   6.619   0.555
10856SOL    HW133467   6.234   6.619   0.635
10856SOL    HW233468   6.101   6.551   0.568
10857SOL     OW33469   6.296   2.457   3.228
10857SOL    HW133470   6.356   2.408   3.164
10857SOL    HW233471   6.346   2.475   3.313
10858SOL     OW33472   1.541   4.061   0.493
10858SOL    HW133473   1.574   4.056   0.588
10858SOL    HW233474   1.615   4.094   0.434
10859SOL     OW33475   1.026   3.623   3.269
10859SOL    HW133476   1.072   3.709   3.292
10859SOL    HW233477   0.932   3.626   3.302
10860SOL     OW33478   6.942   1.073   0.580
10860SOL    HW133479   6.995   1.116   0.507
10860SOL    HW233480   6.981   1.099   0.669
10861SOL     OW33481   3.546   2.678   1.794
10861SOL    HW133482   3.512   2.734   1.870
10861SOL    HW233483   3.612   2.731   1.741
10862SOL     OW33484   2.708   2.386   6.006
10862SOL    HW133485   2.767   2.306   5.997
10862SOL    HW233486   2.687   2.422   5.915
10863SOL     OW33487   2.727   7.017   2.921
10863SOL    HW133488   2.669   0.076   2.931
10863SOL    HW233489   2.680   6.948   2.867
10864SOL     OW33490   2.810   4.505   1.363
10864SOL    HW133491   2.777   4.521   1.456
10864SOL    HW233492   2.908   4.484   1.366
10865SOL     OW33493   5.361   2.907   3.675
10865SOL    HW133494   5.384   2.973   3.747
10865SOL    HW233495   5.276   2.935   3.630
10866SOL     OW33496   6.740   2.895   0.846
10866SOL    HW133497   6.779   2.817   0.895
10866SOL    HW233498   6.701   2.864   0.760
10867SOL     OW33499   2.783   2.765   0.314
10867SOL    HW133500   2.736   2.852   0.331
10867SOL    HW233501   2.735   2.692   0.361
10868SOL     OW33502   0.730   2.255   3.121
10868SOL    HW133503   0.745   2.159   3.147
10868SOL    HW233504   0.788   2.278   3.043
10869NA      NA33505   0.592   1.720   5.865
10870NA      NA33506   4.466   4.542   5.231
10871NA      NA33507   2.014   5.062   2.761
10872NA      NA33508   5.042   4.220   3.680
10873NA      NA33509   4.301   2.470   5.310
10874NA      NA33510   3.054   4.928   1.306
10875NA      NA33511   1.265   5.269   0.455
10876NA      NA33512   3.643   4.410   1.447
10877NA      NA33513   4.662   3.921   0.617
10878NA      NA33514   3.598   1.343   6.000
10879NA      NA33515   5.072   6.088   2.188
10880NA      NA33516   1.694   0.472   5.484
10881NA      NA33517   5.021   4.847   1.712
10882NA      NA33518   3.117   3.654   0.119
   7.02175   7.02175   7.02175
