Generated by trjconv : CNT in water t=  18.00000
33518
    1C        C    1   2.842   2.769   4.746
    1C        C    2   2.899   2.721   4.866
    1C        C    3   2.842   2.766   4.986
    1C        C    4   2.850   2.780   4.262
    1C        C    5   2.899   2.725   4.382
    1C        C    6   2.843   2.772   4.503
    1C        C    7   3.010   2.641   4.626
    1C        C    8   2.892   2.718   4.624
    1C        C    9   3.075   2.601   4.745
    1C        C   10   3.012   2.637   4.866
    1C        C   11   3.181   2.495   4.978
    1C        C   12   3.060   2.565   4.977
    1C        C   13   2.849   2.771   3.772
    1C        C   14   2.901   2.724   3.894
    1C        C   15   2.850   2.775   4.016
    1C        C   16   3.021   2.655   4.137
    1C        C   17   2.904   2.733   4.140
    1C        C   18   3.084   2.624   4.260
    1C        C   19   3.018   2.648   4.382
    1C        C   20   3.207   2.559   4.503
    1C        C   21   3.074   2.605   4.505
    1C        C   22   3.275   2.532   4.624
    1C        C   23   3.206   2.545   4.746
    1C        C   24   3.410   2.480   4.863
    1C        C   25   3.269   2.501   4.866
    1C        C   26   3.490   2.472   4.978
    1C        C   27   2.854   2.774   3.283
    1C        C   28   2.901   2.720   3.404
    1C        C   29   2.853   2.775   3.526
    1C        C   30   3.018   2.644   3.651
    1C        C   31   2.906   2.730   3.649
    1C        C   32   3.075   2.603   3.773
    1C        C   33   3.015   2.642   3.896
    1C        C   34   3.211   2.555   4.015
    1C        C   35   3.082   2.612   4.017
    1C        C   36   3.276   2.533   4.138
    1C        C   37   3.211   2.563   4.260
    1C        C   38   3.413   2.502   4.380
    1C        C   39   3.277   2.537   4.382
    1C        C   40   3.484   2.499   4.502
    1C        C   41   3.413   2.502   4.624
    1C        C   42   3.629   2.485   4.743
    1C        C   43   3.487   2.480   4.743
    1C        C   44   3.705   2.486   4.861
    1C        C   45   3.629   2.476   4.979
    1C        C   46   2.834   2.751   2.793
    1C        C   47   2.891   2.709   2.915
    1C        C   48   2.845   2.761   3.038
    1C        C   49   3.018   2.641   3.159
    1C        C   50   2.902   2.721   3.161
    1C        C   51   3.083   2.613   3.282
    1C        C   52   3.019   2.642   3.404
    1C        C   53   3.206   2.549   3.528
    1C        C   54   3.078   2.609   3.528
    1C        C   55   3.274   2.523   3.649
    1C        C   56   3.205   2.547   3.770
    1C        C   57   3.414   2.504   3.896
    1C        C   58   3.275   2.530   3.892
    1C        C   59   3.487   2.494   4.016
    1C        C   60   3.414   2.499   4.137
    1C        C   61   3.626   2.498   4.258
    1C        C   62   3.485   2.493   4.258
    1C        C   63   3.698   2.507   4.380
    1C        C   64   3.625   2.504   4.500
    1C        C   65   3.835   2.542   4.619
    1C        C   66   3.698   2.507   4.621
    1C        C   67   3.906   2.557   4.740
    1C        C   68   3.842   2.524   4.861
    1C        C   69   4.056   2.575   4.976
    1C        C   70   3.924   2.527   4.974
    1C        C   71   2.826   2.736   2.309
    1C        C   72   2.886   2.694   2.430
    1C        C   73   2.834   2.745   2.551
    1C        C   74   3.006   2.621   2.672
    1C        C   75   2.890   2.701   2.673
    1C        C   76   3.069   2.592   2.795
    1C        C   77   3.009   2.631   2.917
    1C        C   78   3.206   2.545   3.038
    1C        C   79   3.074   2.598   3.037
    1C        C   80   3.275   2.524   3.159
    1C        C   81   3.210   2.551   3.282
    1C        C   82   3.411   2.499   3.403
    1C        C   83   3.272   2.526   3.406
    1C        C   84   3.482   2.493   3.525
    1C        C   85   3.413   2.500   3.648
    1C        C   86   3.623   2.500   3.768
    1C        C   87   3.482   2.497   3.772
    1C        C   88   3.693   2.513   3.890
    1C        C   89   3.628   2.505   4.015
    1C        C   90   3.834   2.550   4.133
    1C        C   91   3.698   2.511   4.137
    1C        C   92   3.900   2.575   4.255
    1C        C   93   3.834   2.546   4.377
    1C        C   94   4.026   2.640   4.500
    1C        C   95   3.901   2.573   4.498
    1C        C   96   4.089   2.672   4.622
    1C        C   97   4.030   2.628   4.743
    1C        C   98   4.190   2.765   4.864
    1C        C   99   4.099   2.654   4.864
    1C        C  100   4.208   2.845   4.977
    1C        C  101   2.816   2.725   2.070
    1C        C  102   2.993   2.596   2.190
    1C        C  103   2.878   2.682   2.188
    1C        C  104   3.067   2.574   2.310
    1C        C  105   3.004   2.617   2.429
    1C        C  106   3.200   2.536   2.553
    1C        C  107   3.068   2.584   2.550
    1C        C  108   3.272   2.523   2.674
    1C        C  109   3.203   2.546   2.795
    1C        C  110   3.412   2.497   2.914
    1C        C  111   3.273   2.521   2.916
    1C        C  112   3.482   2.494   3.037
    1C        C  113   3.414   2.499   3.160
    1C        C  114   3.625   2.491   3.280
    1C        C  115   3.484   2.487   3.283
    1C        C  116   3.692   2.504   3.404
    1C        C  117   3.623   2.497   3.527
    1C        C  118   3.834   2.540   3.646
    1C        C  119   3.697   2.508   3.648
    1C        C  120   3.901   2.562   3.769
    1C        C  121   3.830   2.549   3.890
    1C        C  122   4.027   2.635   4.015
    1C        C  123   3.901   2.572   4.011
    1C        C  124   4.091   2.671   4.135
    1C        C  125   4.026   2.638   4.256
    1C        C  126   4.195   2.767   4.378
    1C        C  127   4.085   2.678   4.378
    1C        C  128   4.240   2.822   4.500
    1C        C  129   4.197   2.764   4.621
    1C        C  130   4.327   2.932   4.740
    1C        C  131   4.246   2.815   4.743
    1C        C  132   4.349   3.006   4.858
    1C        C  133   4.276   2.966   4.971
    1C        C  134   3.172   2.466   2.079
    1C        C  135   3.039   2.511   2.085
    1C        C  136   3.258   2.473   2.189
    1C        C  137   3.197   2.516   2.309
    1C        C  138   3.405   2.482   2.427
    1C        C  139   3.265   2.504   2.432
    1C        C  140   3.478   2.481   2.548
    1C        C  141   3.410   2.492   2.671
    1C        C  142   3.624   2.493   2.792
    1C        C  143   3.482   2.492   2.792
    1C        C  144   3.694   2.500   2.914
    1C        C  145   3.623   2.496   3.036
    1C        C  146   3.832   2.535   3.155
    1C        C  147   3.695   2.501   3.158
    1C        C  148   3.893   2.566   3.279
    1C        C  149   3.827   2.543   3.403
    1C        C  150   4.023   2.632   3.523
    1C        C  151   3.899   2.564   3.523
    1C        C  152   4.081   2.669   3.646
    1C        C  153   4.024   2.632   3.770
    1C        C  154   4.194   2.761   3.886
    1C        C  155   4.082   2.674   3.891
    1C        C  156   4.242   2.812   4.009
    1C        C  157   4.202   2.760   4.134
    1C        C  158   4.333   2.926   4.252
    1C        C  159   4.251   2.811   4.256
    1C        C  160   4.374   2.985   4.374
    1C        C  161   4.327   2.933   4.497
    1C        C  162   4.432   3.118   4.615
    1C        C  163   4.366   2.993   4.619
    1C        C  164   4.461   3.185   4.736
    1C        C  165   4.432   3.119   4.858
    1C        C  166   4.514   3.319   4.972
    1C        C  167   4.477   3.185   4.973
    1C        C  168   3.475   2.439   2.072
    1C        C  169   3.398   2.456   2.188
    1C        C  170   3.617   2.466   2.309
    1C        C  171   3.475   2.468   2.305
    1C        C  172   3.693   2.488   2.426
    1C        C  173   3.619   2.488   2.547
    1C        C  174   3.826   2.534   2.666
    1C        C  175   3.691   2.491   2.668
    1C        C  176   3.895   2.558   2.787
    1C        C  177   3.831   2.536   2.911
    1C        C  178   4.025   2.620   3.036
    1C        C  179   3.899   2.556   3.033
    1C        C  180   4.084   2.663   3.157
    1C        C  181   4.018   2.632   3.278
    1C        C  182   4.192   2.755   3.398
    1C        C  183   4.078   2.671   3.399
    1C        C  184   4.243   2.804   3.520
    1C        C  185   4.192   2.758   3.644
    1C        C  186   4.337   2.916   3.764
    1C        C  187   4.246   2.808   3.764
    1C        C  188   4.374   2.978   3.885
    1C        C  189   4.328   2.924   4.008
    1C        C  190   4.445   3.104   4.128
    1C        C  191   4.373   2.982   4.129
    1C        C  192   4.471   3.171   4.249
    1C        C  193   4.442   3.108   4.372
    1C        C  194   4.507   3.315   4.490
    1C        C  195   4.467   3.179   4.492
    1C        C  196   4.526   3.385   4.611
    1C        C  197   4.515   3.316   4.734
    1C        C  198   4.556   3.532   4.847
    1C        C  199   4.536   3.391   4.853
    1C        C  200   4.582   3.620   4.958
    1C        C  201   3.613   2.417   2.073
    1C        C  202   3.824   2.509   2.184
    1C        C  203   3.689   2.462   2.186
    1C        C  204   3.899   2.539   2.301
    1C        C  205   3.831   2.518   2.423
    1C        C  206   4.023   2.610   2.544
    1C        C  207   3.896   2.548   2.545
    1C        C  208   4.085   2.648   2.666
    1C        C  209   4.021   2.622   2.789
    1C        C  210   4.195   2.743   2.908
    1C        C  211   4.081   2.658   2.912
    1C        C  212   4.246   2.798   3.028
    1C        C  213   4.194   2.752   3.150
    1C        C  214   4.336   2.904   3.273
    1C        C  215   4.246   2.796   3.274
    1C        C  216   4.372   2.969   3.393
    1C        C  217   4.331   2.915   3.517
    1C        C  218   4.428   3.102   3.639
    1C        C  219   4.372   2.972   3.639
    1C        C  220   4.455   3.171   3.760
    1C        C  221   4.437   3.104   3.884
    1C        C  222   4.505   3.306   4.003
    1C        C  223   4.472   3.168   4.005
    1C        C  224   4.512   3.378   4.124
    1C        C  225   4.505   3.309   4.247
    1C        C  226   4.522   3.524   4.365
    1C        C  227   4.517   3.383   4.367
    1C        C  228   4.518   3.596   4.487
    1C        C  229   4.527   3.526   4.609
    1C        C  230   4.496   3.742   4.728
    1C        C  231   4.533   3.604   4.727
    1C        C  232   4.491   3.820   4.845
    1C        C  233   4.539   3.753   4.958
    1C        C  234   4.013   2.615   2.063
    1C        C  235   3.891   2.550   2.068
    1C        C  236   4.082   2.651   2.179
    1C        C  237   4.022   2.611   2.300
    1C        C  238   4.194   2.737   2.421
    1C        C  239   4.083   2.648   2.422
    1C        C  240   4.247   2.784   2.543
    1C        C  241   4.193   2.739   2.666
    1C        C  242   4.335   2.901   2.784
    1C        C  243   4.244   2.793   2.786
    1C        C  244   4.375   2.963   2.905
    1C        C  245   4.335   2.908   3.029
    1C        C  246   4.435   3.093   3.147
    1C        C  247   4.377   2.964   3.151
    1C        C  248   4.452   3.163   3.269
    1C        C  249   4.427   3.100   3.393
    1C        C  250   4.497   3.300   3.514
    1C        C  251   4.453   3.165   3.515
    1C        C  252   4.509   3.372   3.635
    1C        C  253   4.500   3.305   3.759
    1C        C  254   4.529   3.515   3.879
    1C        C  255   4.520   3.374   3.880
    1C        C  256   4.519   3.592   3.997
    1C        C  257   4.517   3.519   4.119
    1C        C  258   4.491   3.730   4.242
    1C        C  259   4.518   3.591   4.241
    1C        C  260   4.473   3.803   4.361
    1C        C  261   4.497   3.736   4.483
    1C        C  262   4.426   3.938   4.604
    1C        C  263   4.479   3.807   4.604
    1C        C  264   4.400   4.009   4.723
    1C        C  265   4.432   3.948   4.847
    1C        C  266   4.323   4.132   4.960
    1C        C  267   4.390   4.010   4.965
    1C        C  268   4.266   2.773   2.064
    1C        C  269   4.193   2.738   2.178
    1C        C  270   4.340   2.892   2.301
    1C        C  271   4.250   2.782   2.300
    1C        C  272   4.380   2.953   2.422
    1C        C  273   4.341   2.889   2.542
    1C        C  274   4.441   3.082   2.662
    1C        C  275   4.381   2.953   2.661
    1C        C  276   4.466   3.153   2.781
    1C        C  277   4.441   3.088   2.903
    1C        C  278   4.503   3.291   3.021
    1C        C  279   4.470   3.153   3.025
    1C        C  280   4.511   3.362   3.143
    1C        C  281   4.498   3.296   3.268
    1C        C  282   4.510   3.507   3.387
    1C        C  283   4.510   3.366   3.390
    1C        C  284   4.504   3.579   3.509
    1C        C  285   4.509   3.513   3.633
    1C        C  286   4.483   3.721   3.751
    1C        C  287   4.512   3.583   3.756
    1C        C  288   4.467   3.794   3.871
    1C        C  289   4.487   3.729   3.995
    1C        C  290   4.425   3.930   4.115
    1C        C  291   4.471   3.796   4.119
    1C        C  292   4.395   3.997   4.236
    1C        C  293   4.421   3.934   4.360
    1C        C  294   4.325   4.122   4.477
    1C        C  295   4.399   4.002   4.482
    1C        C  296   4.283   4.184   4.597
    1C        C  297   4.329   4.132   4.721
    1C        C  298   4.197   4.308   4.835
    1C        C  299   4.283   4.194   4.841
    1C        C  300   4.171   4.403   4.939
    1C        C  301   4.360   2.875   2.063
    1C        C  302   4.473   3.063   2.181
    1C        C  303   4.397   2.942   2.180
    1C        C  304   4.488   3.141   2.299
    1C        C  305   4.453   3.074   2.418
    1C        C  306   4.506   3.282   2.537
    1C        C  307   4.473   3.144   2.539
    1C        C  308   4.508   3.358   2.656
    1C        C  309   4.503   3.290   2.780
    1C        C  310   4.528   3.502   2.900
    1C        C  311   4.521   3.361   2.900
    1C        C  312   4.519   3.574   3.021
    1C        C  313   4.517   3.503   3.143
    1C        C  314   4.483   3.713   3.265
    1C        C  315   4.517   3.576   3.264
    1C        C  316   4.472   3.785   3.386
    1C        C  317   4.493   3.720   3.510
    1C        C  318   4.425   3.926   3.627
    1C        C  319   4.466   3.791   3.629
    1C        C  320   4.394   3.989   3.749
    1C        C  321   4.418   3.926   3.873
    1C        C  322   4.315   4.114   3.990
    1C        C  323   4.391   3.995   3.994
    1C        C  324   4.277   4.170   4.114
    1C        C  325   4.322   4.117   4.237
    1C        C  326   4.185   4.285   4.354
    1C        C  327   4.279   4.180   4.357
    1C        C  328   4.135   4.336   4.475
    1C        C  329   4.191   4.290   4.597
    1C        C  330   4.024   4.436   4.713
    1C        C  331   4.138   4.350   4.713
    1C        C  332   3.970   4.493   4.831
    1C        C  333   4.051   4.476   4.943
    1C        C  334   4.551   3.266   2.062
    1C        C  335   4.528   3.127   2.066
    1C        C  336   4.535   3.348   2.174
    1C        C  337   4.517   3.280   2.297
    1C        C  338   4.523   3.495   2.413
    1C        C  339   4.523   3.354   2.417
    1C        C  340   4.517   3.569   2.533
    1C        C  341   4.518   3.499   2.656
    1C        C  342   4.491   3.711   2.771
    1C        C  343   4.515   3.571   2.777
    1C        C  344   4.472   3.778   2.894
    1C        C  345   4.490   3.712   3.018
    1C        C  346   4.421   3.911   3.135
    1C        C  347   4.467   3.778   3.141
    1C        C  348   4.390   3.977   3.256
    1C        C  349   4.424   3.918   3.380
    1C        C  350   4.316   4.101   3.500
    1C        C  351   4.395   3.984   3.501
    1C        C  352   4.273   4.162   3.620
    1C        C  353   4.316   4.107   3.743
    1C        C  354   4.178   4.269   3.866
    1C        C  355   4.273   4.164   3.865
    1C        C  356   4.122   4.317   3.986
    1C        C  357   4.180   4.272   4.107
    1C        C  358   4.010   4.399   4.229
    1C        C  359   4.125   4.318   4.229
    1C        C  360   3.949   4.441   4.349
    1C        C  361   4.017   4.415   4.470
    1C        C  362   3.830   4.518   4.594
    1C        C  363   3.959   4.460   4.590
    1C        C  364   3.761   4.550   4.713
    1C        C  365   3.838   4.543   4.831
    1C        C  366   3.629   4.593   4.950
    1C        C  367   3.767   4.570   4.949
    1C        C  368   4.508   3.560   2.053
    1C        C  369   4.523   3.489   2.173
    1C        C  370   4.500   3.707   2.286
    1C        C  371   4.518   3.567   2.291
    1C        C  372   4.485   3.779   2.406
    1C        C  373   4.502   3.709   2.528
    1C        C  374   4.430   3.911   2.645
    1C        C  375   4.482   3.780   2.648
    1C        C  376   4.396   3.976   2.766
    1C        C  377   4.426   3.911   2.888
    1C        C  378   4.324   4.095   3.010
    1C        C  379   4.399   3.976   3.011
    1C        C  380   4.278   4.156   3.129
    1C        C  381   4.317   4.098   3.252
    1C        C  382   4.177   4.254   3.377
    1C        C  383   4.276   4.153   3.375
    1C        C  384   4.122   4.306   3.496
    1C        C  385   4.176   4.265   3.620
    1C        C  386   4.006   4.390   3.740
    1C        C  387   4.123   4.311   3.743
    1C        C  388   3.942   4.424   3.862
    1C        C  389   3.999   4.385   3.985
    1C        C  390   3.815   4.487   4.107
    1C        C  391   3.943   4.428   4.108
    1C        C  392   3.750   4.513   4.229
    1C        C  393   3.819   4.496   4.351
    1C        C  394   3.618   4.551   4.477
    1C        C  395   3.757   4.530   4.474
    1C        C  396   3.545   4.569   4.597
    1C        C  397   3.621   4.570   4.716
    1C        C  398   3.409   4.555   4.841
    1C        C  399   3.549   4.575   4.837
    1C        C  400   3.342   4.514   4.957
    1C        C  401   4.492   3.698   2.050
    1C        C  402   4.445   3.913   2.163
    1C        C  403   4.485   3.778   2.164
    1C        C  404   4.408   3.979   2.282
    1C        C  405   4.437   3.912   2.403
    1C        C  406   4.326   4.096   2.522
    1C        C  407   4.403   3.978   2.523
    1C        C  408   4.281   4.153   2.643
    1C        C  409   4.318   4.093   2.766
    1C        C  410   4.176   4.250   2.888
    1C        C  411   4.276   4.149   2.889
    1C        C  412   4.125   4.300   3.010
    1C        C  413   4.178   4.255   3.133
    1C        C  414   4.005   4.378   3.251
    1C        C  415   4.124   4.303   3.255
    1C        C  416   3.940   4.412   3.372
    1C        C  417   4.003   4.382   3.495
    1C        C  418   3.814   4.477   3.618
    1C        C  419   3.943   4.419   3.617
    1C        C  420   3.749   4.506   3.740
    1C        C  421   3.815   4.487   3.863
    1C        C  422   3.609   4.535   3.987
    1C        C  423   3.748   4.512   3.985
    1C        C  424   3.542   4.544   4.111
    1C        C  425   3.611   4.539   4.234
    1C        C  426   3.402   4.549   4.357
    1C        C  427   3.543   4.557   4.357
    1C        C  428   3.335   4.541   4.481
    1C        C  429   3.404   4.558   4.603
    1C        C  430   3.195   4.509   4.721
    1C        C  431   3.332   4.547   4.723
    1C        C  432   3.127   4.483   4.844
    1C        C  433   3.206   4.486   4.960
    1C        C  434   4.387   4.122   2.052
    1C        C  435   4.448   3.995   2.049
    1C        C  436   4.305   4.166   2.160
    1C        C  437   4.329   4.097   2.282
    1C        C  438   4.185   4.259   2.401
    1C        C  439   4.280   4.154   2.402
    1C        C  440   4.128   4.299   2.524
    1C        C  441   4.180   4.252   2.646
    1C        C  442   4.003   4.375   2.765
    1C        C  443   4.119   4.294   2.767
    1C        C  444   3.942   4.409   2.888
    1C        C  445   4.008   4.379   3.009
    1C        C  446   3.810   4.463   3.128
    1C        C  447   3.943   4.414   3.130
    1C        C  448   3.747   4.489   3.251
    1C        C  449   3.812   4.472   3.376
    1C        C  450   3.609   4.539   3.495
    1C        C  451   3.745   4.502   3.497
    1C        C  452   3.542   4.545   3.619
    1C        C  453   3.611   4.540   3.742
    1C        C  454   3.399   4.542   3.865
    1C        C  455   3.540   4.547   3.864
    1C        C  456   3.332   4.528   3.989
    1C        C  457   3.401   4.539   4.111
    1C        C  458   3.195   4.504   4.235
    1C        C  459   3.333   4.534   4.235
    1C        C  460   3.131   4.481   4.359
    1C        C  461   3.198   4.504   4.481
    1C        C  462   2.995   4.436   4.604
    1C        C  463   3.124   4.493   4.600
    1C        C  464   2.933   4.395   4.724
    1C        C  465   2.992   4.437   4.847
    1C        C  466   2.800   4.337   4.959
    1C        C  467   2.904   4.431   4.960
    1C        C  468   4.126   4.290   2.041
    1C        C  469   4.188   4.250   2.160
    1C        C  470   4.009   4.376   2.282
    1C        C  471   4.132   4.304   2.279
    1C        C  472   3.943   4.409   2.402
    1C        C  473   4.009   4.375   2.523
    1C        C  474   3.812   4.463   2.642
    1C        C  475   3.943   4.411   2.643
    1C        C  476   3.743   4.486   2.762
    1C        C  477   3.813   4.466   2.883
    1C        C  478   3.607   4.519   3.010
    1C        C  479   3.744   4.488   3.005
    1C        C  480   3.539   4.531   3.133
    1C        C  481   3.609   4.521   3.255
    1C        C  482   3.395   4.535   3.378
    1C        C  483   3.536   4.540   3.374
    1C        C  484   3.326   4.537   3.502
    1C        C  485   3.401   4.546   3.622
    1C        C  486   3.192   4.498   3.746
    1C        C  487   3.329   4.535   3.743
    1C        C  488   3.123   4.475   3.867
    1C        C  489   3.194   4.497   3.987
    1C        C  490   3.005   4.414   4.114
    1C        C  491   3.129   4.480   4.112
    1C        C  492   2.941   4.386   4.237
    1C        C  493   3.001   4.427   4.358
    1C        C  494   2.833   4.301   4.482
    1C        C  495   2.938   4.396   4.481
    1C        C  496   2.773   4.255   4.601
    1C        C  497   2.818   4.311   4.723
    1C        C  498   2.661   4.168   4.841
    1C        C  499   2.751   4.277   4.842
    1C        C  500   2.599   4.118   4.956
    1C        C  501   4.007   4.361   2.043
    1C        C  502   3.816   4.464   2.154
    1C        C  503   3.944   4.405   2.160
    1C        C  504   3.745   4.489   2.274
    1C        C  505   3.811   4.460   2.396
    1C        C  506   3.606   4.507   2.519
    1C        C  507   3.744   4.477   2.519
    1C        C  508   3.534   4.519   2.640
    1C        C  509   3.604   4.513   2.763
    1C        C  510   3.396   4.526   2.888
    1C        C  511   3.537   4.525   2.887
    1C        C  512   3.326   4.517   3.011
    1C        C  513   3.397   4.532   3.131
    1C        C  514   3.190   4.494   3.254
    1C        C  515   3.327   4.527   3.254
    1C        C  516   3.126   4.468   3.377
    1C        C  517   3.191   4.498   3.500
    1C        C  518   3.000   4.412   3.623
    1C        C  519   3.125   4.478   3.623
    1C        C  520   2.941   4.375   3.746
    1C        C  521   2.996   4.414   3.871
    1C        C  522   2.834   4.281   3.995
    1C        C  523   2.943   4.372   3.994
    1C        C  524   2.784   4.240   4.121
    1C        C  525   2.834   4.293   4.242
    1C        C  526   2.696   4.131   4.363
    1C        C  527   2.784   4.241   4.363
    1C        C  528   2.657   4.073   4.486
    1C        C  529   2.693   4.139   4.605
    1C        C  530   2.586   3.958   4.731
    1C        C  531   2.639   4.090   4.725
    1C        C  532   2.541   3.902   4.854
    1C        C  533   2.530   3.997   4.960
    1C        C  534   3.618   4.557   2.041
    1C        C  535   3.749   4.507   2.039
    1C        C  536   3.535   4.539   2.156
    1C        C  537   3.606   4.516   2.277
    1C        C  538   3.393   4.520   2.397
    1C        C  539   3.534   4.520   2.399
    1C        C  540   3.323   4.516   2.520
    1C        C  541   3.393   4.518   2.643
    1C        C  542   3.188   4.481   2.766
    1C        C  543   3.325   4.515   2.767
    1C        C  544   3.121   4.466   2.890
    1C        C  545   3.187   4.488   3.013
    1C        C  546   2.995   4.400   3.135
    1C        C  547   3.119   4.468   3.135
    1C        C  548   2.939   4.366   3.259
    1C        C  549   3.001   4.403   3.381
    1C        C  550   2.829   4.281   3.505
    1C        C  551   2.939   4.369   3.503
    1C        C  552   2.776   4.233   3.628
    1C        C  553   2.832   4.285   3.747
    1C        C  554   2.705   4.119   3.876
    1C        C  555   2.789   4.233   3.871
    1C        C  556   2.667   4.061   3.999
    1C        C  557   2.701   4.126   4.119
    1C        C  558   2.599   3.942   4.246
    1C        C  559   2.659   4.069   4.242
    1C        C  560   2.576   3.874   4.369
    1C        C  561   2.597   3.945   4.489
    1C        C  562   2.525   3.748   4.615
    1C        C  563   2.565   3.884   4.613
    1C        C  564   2.511   3.683   4.740
    1C        C  565   2.517   3.760   4.859
    1C        C  566   2.526   3.545   4.976
    1C        C  567   2.524   3.684   4.976
    1C        C  568   3.326   4.469   2.041
    1C        C  569   3.395   4.513   2.155
    1C        C  570   3.183   4.473   2.282
    1C        C  571   3.322   4.504   2.276
    1C        C  572   3.115   4.456   2.404
    1C        C  573   3.186   4.483   2.523
    1C        C  574   2.991   4.397   2.647
    1C        C  575   3.117   4.461   2.645
    1C        C  576   2.933   4.360   2.770
    1C        C  577   2.996   4.400   2.890
    1C        C  578   2.828   4.271   3.015
    1C        C  579   2.937   4.360   3.012
    1C        C  580   2.780   4.222   3.138
    1C        C  581   2.831   4.275   3.259
    1C        C  582   2.697   4.114   3.382
    1C        C  583   2.784   4.225   3.383
    1C        C  584   2.657   4.059   3.505
    1C        C  585   2.698   4.116   3.628
    1C        C  586   2.596   3.937   3.755
    1C        C  587   2.663   4.061   3.754
    1C        C  588   2.571   3.875   3.879
    1C        C  589   2.601   3.936   4.003
    1C        C  590   2.530   3.737   4.124
    1C        C  591   2.577   3.871   4.126
    1C        C  592   2.520   3.673   4.249
    1C        C  593   2.531   3.740   4.373
    1C        C  594   2.511   3.532   4.498
    1C        C  595   2.517   3.673   4.496
    1C        C  596   2.513   3.465   4.622
    1C        C  597   2.517   3.541   4.741
    1C        C  598   2.538   3.326   4.864
    1C        C  599   2.527   3.467   4.861
    1C        C  600   2.538   3.249   4.981
    1C        C  601   3.195   4.428   2.045
    1C        C  602   2.980   4.396   2.161
    1C        C  603   3.117   4.438   2.161
    1C        C  604   2.922   4.357   2.285
    1C        C  605   2.986   4.398   2.404
    1C        C  606   2.822   4.266   2.527
    1C        C  607   2.927   4.360   2.527
    1C        C  608   2.774   4.216   2.650
    1C        C  609   2.825   4.269   2.771
    1C        C  610   2.692   4.106   2.895
    1C        C  611   2.779   4.217   2.894
    1C        C  612   2.654   4.052   3.020
    1C        C  613   2.696   4.108   3.142
    1C        C  614   2.589   3.924   3.264
    1C        C  615   2.654   4.050   3.264
    1C        C  616   2.572   3.865   3.391
    1C        C  617   2.597   3.931   3.514
    1C        C  618   2.531   3.729   3.637
    1C        C  619   2.571   3.865   3.636
    1C        C  620   2.515   3.664   3.762
    1C        C  621   2.532   3.739   3.880
    1C        C  622   2.513   3.527   4.007
    1C        C  623   2.518   3.668   4.001
    1C        C  624   2.513   3.459   4.131
    1C        C  625   2.510   3.532   4.252
    1C        C  626   2.530   3.322   4.380
    1C        C  627   2.512   3.462   4.375
    1C        C  628   2.550   3.252   4.501
    1C        C  629   2.533   3.325   4.621
    1C        C  630   2.597   3.120   4.746
    1C        C  631   2.557   3.256   4.742
    1C        C  632   2.615   3.046   4.866
    1C        C  633   2.569   3.113   4.984
    1C        C  634   2.782   4.306   2.051
    1C        C  635   2.895   4.390   2.046
    1C        C  636   2.751   4.228   2.163
    1C        C  637   2.810   4.269   2.284
    1C        C  638   2.672   4.110   2.409
    1C        C  639   2.762   4.219   2.408
    1C        C  640   2.637   4.050   2.532
    1C        C  641   2.684   4.107   2.652
    1C        C  642   2.580   3.922   2.774
    1C        C  643   2.647   4.047   2.774
    1C        C  644   2.561   3.857   2.898
    1C        C  645   2.593   3.924   3.018
    1C        C  646   2.523   3.725   3.147
    1C        C  647   2.564   3.860   3.140
    1C        C  648   2.514   3.657   3.271
    1C        C  649   2.536   3.729   3.391
    1C        C  650   2.512   3.520   3.519
    1C        C  651   2.520   3.661   3.514
    1C        C  652   2.516   3.451   3.642
    1C        C  653   2.510   3.523   3.763
    1C        C  654   2.530   3.313   3.889
    1C        C  655   2.513   3.453   3.887
    1C        C  656   2.547   3.249   4.014
    1C        C  657   2.531   3.319   4.136
    1C        C  658   2.606   3.122   4.259
    1C        C  659   2.552   3.253   4.259
    1C        C  660   2.634   3.058   4.382
    1C        C  661   2.597   3.119   4.504
    1C        C  662   2.705   2.935   4.625
    1C        C  663   2.632   3.056   4.625
    1C        C  664   2.745   2.872   4.745
    1C        C  665   2.696   2.928   4.866
    1C        C  666   2.743   2.863   4.981
    1C        C  667   2.688   4.019   2.055
    1C        C  668   2.683   4.104   2.165
    1C        C  669   2.592   3.913   2.288
    1C        C  670   2.643   4.046   2.287
    1C        C  671   2.560   3.848   2.410
    1C        C  672   2.579   3.921   2.529
    1C        C  673   2.517   3.720   2.658
    1C        C  674   2.551   3.857   2.652
    1C        C  675   2.508   3.651   2.781
    1C        C  676   2.519   3.722   2.903
    1C        C  677   2.506   3.512   3.031
    1C        C  678   2.511   3.653   3.026
    1C        C  679   2.503   3.443   3.155
    1C        C  680   2.505   3.516   3.275
    1C        C  681   2.532   3.307   3.402
    1C        C  682   2.511   3.447   3.398
    1C        C  683   2.555   3.240   3.525
    1C        C  684   2.534   3.311   3.645
    1C        C  685   2.602   3.112   3.772
    1C        C  686   2.547   3.242   3.768
    1C        C  687   2.635   3.054   3.896
    1C        C  688   2.601   3.119   4.016
    1C        C  689   2.717   2.942   4.136
    1C        C  690   2.633   3.055   4.138
    1C        C  691   2.759   2.888   4.259
    1C        C  692   2.717   2.943   4.382
    1C        C  693   2.750   2.879   4.503
    1C        C  694   2.629   3.892   2.056
    1C        C  695   2.537   3.697   2.176
    1C        C  696   2.577   3.833   2.173
    1C        C  697   2.510   3.635   2.299
    1C        C  698   2.525   3.712   2.417
    1C        C  699   2.488   3.505   2.544
    1C        C  700   2.504   3.645   2.540
    1C        C  701   2.498   3.435   2.667
    1C        C  702   2.506   3.510   2.787
    1C        C  703   2.526   3.300   2.911
    1C        C  704   2.512   3.440   2.910
    1C        C  705   2.545   3.233   3.034
    1C        C  706   2.532   3.305   3.156
    1C        C  707   2.596   3.106   3.279
    1C        C  708   2.549   3.239   3.280
    1C        C  709   2.628   3.042   3.400
    1C        C  710   2.602   3.107   3.523
    1C        C  711   2.711   2.934   3.649
    1C        C  712   2.628   3.048   3.648
    1C        C  713   2.755   2.877   3.770
    1C        C  714   2.712   2.935   3.892
    1C        C  715   2.756   2.880   4.015
    1C        C  716   2.448   3.496   2.064
    1C        C  717   2.492   3.629   2.062
    1C        C  718   2.460   3.420   2.184
    1C        C  719   2.480   3.496   2.302
    1C        C  720   2.515   3.289   2.424
    1C        C  721   2.484   3.427   2.426
    1C        C  722   2.539   3.224   2.547
    1C        C  723   2.528   3.297   2.668
    1C        C  724   2.594   3.098   2.788
    1C        C  725   2.538   3.227   2.790
    1C        C  726   2.621   3.036   2.912
    1C        C  727   2.592   3.100   3.034
    1C        C  728   2.705   2.923   3.157
    1C        C  729   2.627   3.041   3.158
    1C        C  730   2.752   2.872   3.280
    1C        C  731   2.708   2.925   3.404
    1C        C  732   2.755   2.876   3.528
    1C        C  733   2.494   3.200   2.071
    1C        C  734   2.486   3.279   2.186
    1C        C  735   2.575   3.080   2.306
    1C        C  736   2.524   3.213   2.306
    1C        C  737   2.612   3.018   2.427
    1C        C  738   2.590   3.093   2.545
    1C        C  739   2.699   2.911   2.670
    1C        C  740   2.623   3.030   2.667
    1C        C  741   2.741   2.857   2.794
    1C        C  742   2.704   2.922   2.914
    1C        C  743   2.751   2.867   3.036
    1C        C  744   2.546   3.071   2.073
    1C        C  745   2.683   2.895   2.185
    1C        C  746   2.602   3.010   2.186
    1C        C  747   2.729   2.840   2.306
    1C        C  748   2.687   2.898   2.428
    1C        C  749   2.740   2.850   2.550
    1C        C  750   2.741   2.842   2.069
    1C        C  751   3.665   2.313   1.982
    1C        O  752   3.658   2.188   2.000
    1C        O  753   3.653   2.340   1.845
    1C        C  754   4.636   3.049   2.001
    1C        O  755   4.614   2.991   1.892
    1C        O  756   4.768   3.042   2.047
    1C        C  757   4.446   4.214   1.952
    1C        O  758   4.551   4.271   1.992
    1C        O  759   4.435   4.187   1.815
    1C        C  760   3.584   4.663   1.943
    1C        O  761   3.630   4.779   1.963
    1C        O  762   3.528   4.636   1.817
    1C        C  763   2.903   4.487   1.935
    1C        O  764   2.902   4.460   1.812
    1C        O  765   2.875   4.621   1.967
    1C        C  766   2.338   3.466   1.969
    1C        O  767   2.345   3.494   1.846
    1C        O  768   2.205   3.474   2.013
    1C        C  769   4.678   3.586   5.065
    1C        O  770   4.635   3.575   5.183
    1C        O  771   4.809   3.633   5.080
    1C        C  772   4.286   4.474   5.000
    1C        O  773   4.319   4.458   5.120
    1C        O  774   4.364   4.574   4.940
    1C        C  775   4.154   2.500   5.058
    1C        O  776   4.174   2.381   5.024
    1C        O  777   4.235   2.545   5.163
    1C        C  778   2.879   4.549   5.045
    1C        O  779   2.835   4.656   4.996
    1C        O  780   2.900   4.564   5.183
    1C        C  781   2.493   3.050   5.094
    1C        O  782   2.373   3.012   5.082
    1C        O  783   2.549   3.042   5.221
    1C        C  784   2.418   3.994   5.057
    1C        O  785   2.295   3.993   5.030
    1C        O  786   2.444   3.948   5.187
    1C        C  787   2.943   2.425   2.012
    1C        O  788   2.975   2.368   1.905
    1C        O  789   2.827   2.368   2.062
    1C        C  790   3.201   2.395   5.086
    1C        O  791   3.173   2.274   5.072
    1C        O  792   3.199   2.455   5.213
    1C        H  793   4.277   3.036   5.052
    1C        H  794   4.223   2.790   5.068
    1C        H  795   4.479   3.131   5.065
    1C        H  796   4.486   3.379   5.056
    1C        H  797   4.532   3.803   5.053
    1C        H  798   4.346   3.944   5.038
    1C        H  799   4.308   4.178   5.056
    1C        H  800   4.030   4.520   5.039
    1C        H  801   3.820   4.589   5.039
    1C        H  802   3.587   4.649   5.031
    1C        H  803   3.397   4.483   5.044
    1C        H  804   3.157   4.536   5.041
    1C        H  805   3.885   2.480   5.062
    1C        H  806   3.676   2.425   5.060
    1C        H  807   2.990   2.530   5.050
    1C        H  808   3.445   2.467   5.074
    1C        H  809   2.885   2.743   5.081
    1C        H  810   2.747   2.917   5.074
    1C        H  811   2.522   3.289   5.079
    1C        H  812   2.566   3.509   5.068
    1C        H  813   2.512   3.721   5.076
    1C        H  814   2.600   4.178   5.045
    1C        H  815   2.787   4.286   5.052
    1C        H  816   2.776   2.913   1.996
    1C        H  817   2.787   2.652   1.998
    1C        H  818   3.198   2.397   2.002
    1C        H  819   3.445   2.488   1.981
    1C        H  820   3.854   2.528   1.969
    1C        H  821   4.067   2.616   1.970
    1C        H  822   4.283   2.689   1.999
    1C        H  823   4.434   2.866   1.985
    1C        H  824   4.568   3.310   1.966
    1C        H  825   4.478   3.505   1.966
    1C        H  826   4.471   3.736   1.952
    1C        H  827   3.808   4.537   1.955
    1C        H  828   3.972   4.395   1.947
    1C        H  829   4.161   4.250   1.948
    1C        H  830   4.526   3.977   1.978
    1C        H  831   2.676   3.824   1.988
    1C        H  832   2.734   4.055   1.965
    1C        H  833   2.708   4.334   1.979
    1C        H  834   3.383   4.412   1.970
    1C        H  835   3.155   4.370   1.964
    1C        H  836   2.523   3.011   1.987
    1C        H  837   2.456   3.233   1.976
    1C        H  838   2.441   3.688   1.990
    2V3OU   H29  839   2.804   3.543   0.734
    2V3OU   C27  840   2.780   3.504   0.836
    2V3OU   H27  841   2.719   3.575   0.897
    2V3OU   H28  842   2.723   3.409   0.819
    2V3OU   O11  843   2.906   3.476   0.899
    2V3OU   C15  844   2.918   3.399   1.012
    2V3OU   C13  845   3.049   3.378   1.060
    2V3OU   C14  846   3.074   3.269   1.145
    2V3OU   C16  847   2.970   3.185   1.185
    2V3OU    H6  848   2.991   3.098   1.248
    2V3OU   C12  849   3.214   3.233   1.175
    2V3OU    O2  850   3.232   3.126   1.237
    2V3OU   C10  851   3.325   3.308   1.115
    2V3OU    C8  852   3.457   3.267   1.132
    2V3OU   O10  853   3.488   3.149   1.191
    2V3OU   H26  854   3.400   3.114   1.214
    2V3OU    C6  855   3.567   3.347   1.088
    2V3OU    C5  856   3.537   3.465   1.020
    2V3OU    C4  857   3.707   3.295   1.087
    2V3OU    H4  858   3.716   3.229   1.178
    2V3OU    H5  859   3.716   3.233   0.993
    2V3OU    C2  860   3.819   3.399   1.092
    2V3OU    O6  861   3.796   3.471   1.214
    2V3OU   H21  862   3.759   3.559   1.196
    2V3OU    C3  863   3.782   3.497   0.980
    2V3OU    H2  864   3.862   3.575   0.975
    2V3OU    H3  865   3.781   3.442   0.882
    2V3OU   C25  866   3.954   3.330   1.076
    2V3OU    O7  867   4.003   3.306   0.965
    2V3OU   C26  868   4.030   3.288   1.201
    2V3OU   H22  869   4.059   3.386   1.246
    2V3OU   H23  870   4.120   3.228   1.173
    2V3OU    O8  871   3.966   3.206   1.296
    2V3OU   H24  872   3.927   3.267   1.361
    2V3OU    C1  873   3.647   3.564   0.996
    2V3OU    H1  874   3.623   3.618   0.899
    2V3OU    O3  875   3.659   3.653   1.107
    2V3OU   C19  876   3.616   3.788   1.087
    2V3OU    H9  877   3.520   3.798   1.029
    2V3OU    O4  878   3.708   3.850   0.998
    2V3OU   C20  879   3.838   3.872   1.052
    2V3OU   H10  880   3.888   3.770   1.049
    2V3OU   C24  881   3.607   3.853   1.225
    2V3OU   H16  882   3.540   3.796   1.294
    2V3OU   H17  883   3.563   3.955   1.211
    2V3OU   C23  884   3.748   3.871   1.282
    2V3OU   H15  885   3.793   3.767   1.297
    2V3OU    N1  886   3.736   3.955   1.399
    2V3OU   H19  887   3.805   3.929   1.467
    2V3OU   H20  888   3.646   3.935   1.437
    2V3OU   C21  889   3.845   3.946   1.185
    2V3OU   H11  890   3.946   3.932   1.234
    2V3OU    O5  891   3.827   4.087   1.180
    2V3OU   H18  892   3.777   4.105   1.261
    2V3OU   C22  893   3.907   3.950   0.941
    2V3OU   H12  894   3.854   4.047   0.927
    2V3OU   H13  895   3.906   3.890   0.846
    2V3OU   H14  896   4.016   3.963   0.966
    2V3OU   C11  897   3.159   3.471   1.032
    2V3OU    O1  898   3.130   3.585   0.988
    2V3OU    C9  899   3.300   3.428   1.043
    2V3OU    C7  900   3.403   3.511   1.002
    2V3OU    O9  901   3.381   3.625   0.926
    2V3OU   H25  902   3.285   3.629   0.929
    2V3OU   C17  903   2.817   3.313   1.060
    2V3OU    H7  904   2.712   3.336   1.040
    2V3OU   C18  905   2.838   3.205   1.145
    2V3OU    H8  906   2.752   3.155   1.192
    3SOL     OW  907   0.436   4.457   0.935
    3SOL    HW1  908   0.371   4.526   0.965
    3SOL    HW2  909   0.405   4.417   0.849
    4SOL     OW  910   5.941   0.914   2.053
    4SOL    HW1  911   5.880   0.843   2.088
    4SOL    HW2  912   5.945   0.907   1.953
    5SOL     OW  913   3.590   2.925   1.010
    5SOL    HW1  914   3.505   2.943   0.961
    5SOL    HW2  915   3.588   2.972   1.099
    6SOL     OW  916   3.294   2.479   0.502
    6SOL    HW1  917   3.258   2.416   0.434
    6SOL    HW2  918   3.230   2.484   0.579
    7SOL     OW  919   5.354   0.825   1.961
    7SOL    HW1  920   5.262   0.863   1.972
    7SOL    HW2  921   5.353   0.756   1.890
    8SOL     OW  922   3.281   2.088   3.269
    8SOL    HW1  923   3.186   2.072   3.293
    8SOL    HW2  924   3.317   2.164   3.323
    9SOL     OW  925   6.326   4.480   6.311
    9SOL    HW1  926   6.368   4.556   6.261
    9SOL    HW2  927   6.260   4.516   6.376
   10SOL     OW  928   6.868   4.441   1.581
   10SOL    HW1  929   6.799   4.371   1.563
   10SOL    HW2  930   6.953   4.417   1.536
   11SOL     OW  931   3.995   6.427   6.800
   11SOL    HW1  932   4.071   6.485   6.828
   11SOL    HW2  933   3.984   6.352   6.865
   12SOL     OW  934   5.817   6.925   2.256
   12SOL    HW1  935   5.726   6.909   2.216
   12SOL    HW2  936   5.866   6.993   2.201
   13SOL     OW  937   2.365   0.241   2.596
   13SOL    HW1  938   2.276   0.214   2.633
   13SOL    HW2  939   2.373   0.210   2.501
   14SOL     OW  940   2.902   0.249   3.258
   14SOL    HW1  941   2.868   0.334   3.216
   14SOL    HW2  942   3.002   0.246   3.252
   15SOL     OW  943   2.821   6.509   6.079
   15SOL    HW1  944   2.831   6.412   6.104
   15SOL    HW2  945   2.729   6.524   6.043
   16SOL     OW  946   6.397   2.496   0.392
   16SOL    HW1  947   6.469   2.437   0.357
   16SOL    HW2  948   6.339   2.444   0.455
   17SOL     OW  949   3.758   5.756   2.947
   17SOL    HW1  950   3.673   5.808   2.955
   17SOL    HW2  951   3.827   5.811   2.899
   18SOL     OW  952   1.695   0.549   6.853
   18SOL    HW1  953   1.667   0.641   6.826
   18SOL    HW2  954   1.641   0.481   6.803
   19SOL     OW  955   0.889   6.891   1.343
   19SOL    HW1  956   0.933   6.871   1.256
   19SOL    HW2  957   0.810   6.951   1.329
   20SOL     OW  958   3.439   0.316   4.416
   20SOL    HW1  959   3.385   0.388   4.372
   20SOL    HW2  960   3.534   0.345   4.423
   21SOL     OW  961   3.084   3.359   1.573
   21SOL    HW1  962   3.029   3.277   1.590
   21SOL    HW2  963   3.177   3.332   1.549
   22SOL     OW  964   1.465   1.359   5.362
   22SOL    HW1  965   1.406   1.279   5.352
   22SOL    HW2  966   1.488   1.395   5.272
   23SOL     OW  967   2.787   6.469   4.741
   23SOL    HW1  968   2.698   6.430   4.768
   23SOL    HW2  969   2.845   6.479   4.821
   24SOL     OW  970   4.567   1.606   5.193
   24SOL    HW1  971   4.574   1.573   5.099
   24SOL    HW2  972   4.526   1.697   5.193
   25SOL     OW  973   2.324   5.796   0.866
   25SOL    HW1  974   2.269   5.814   0.947
   25SOL    HW2  975   2.309   5.867   0.798
   26SOL     OW  976   5.583   0.754   3.084
   26SOL    HW1  977   5.669   0.795   3.115
   26SOL    HW2  978   5.574   0.662   3.123
   27SOL     OW  979   5.877   0.144   2.794
   27SOL    HW1  980   5.841   0.235   2.813
   27SOL    HW2  981   5.963   0.131   2.844
   28SOL     OW  982   2.675   1.321   0.164
   28SOL    HW1  983   2.591   1.268   0.149
   28SOL    HW2  984   2.717   1.292   0.250
   29SOL     OW  985   4.722   3.027   1.650
   29SOL    HW1  986   4.693   3.022   1.746
   29SOL    HW2  987   4.754   2.938   1.620
   30SOL     OW  988   4.043   1.398   6.036
   30SOL    HW1  989   4.095   1.449   5.967
   30SOL    HW2  990   4.104   1.339   6.087
   31SOL     OW  991   0.570   1.860   5.364
   31SOL    HW1  992   0.563   1.932   5.433
   31SOL    HW2  993   0.661   1.820   5.367
   32SOL     OW  994   6.312   2.078   2.250
   32SOL    HW1  995   6.393   2.063   2.305
   32SOL    HW2  996   6.319   2.167   2.203
   33SOL     OW  997   1.570   1.270   5.077
   33SOL    HW1  998   1.662   1.286   5.040
   33SOL    HW2  999   1.575   1.207   5.154
   34SOL     OW 1000   0.969   1.084   4.762
   34SOL    HW1 1001   0.906   1.141   4.815
   34SOL    HW2 1002   1.063   1.114   4.779
   35SOL     OW 1003   4.816   2.219   6.210
   35SOL    HW1 1004   4.785   2.158   6.283
   35SOL    HW2 1005   4.873   2.292   6.248
   36SOL     OW 1006   0.981   2.232   5.765
   36SOL    HW1 1007   0.989   2.330   5.747
   36SOL    HW2 1008   0.928   2.218   5.848
   37SOL     OW 1009   3.213   6.651   1.792
   37SOL    HW1 1010   3.186   6.736   1.838
   37SOL    HW2 1011   3.202   6.574   1.855
   38SOL     OW 1012   6.885   5.825   1.780
   38SOL    HW1 1013   6.859   5.827   1.684
   38SOL    HW2 1014   6.970   5.877   1.793
   39SOL     OW 1015   7.014   2.536   6.477
   39SOL    HW1 1016   0.043   2.452   6.457
   39SOL    HW2 1017   0.048   2.599   6.530
   40SOL     OW 1018   0.282   1.375   1.871
   40SOL    HW1 1019   0.224   1.393   1.950
   40SOL    HW2 1020   0.235   1.311   1.809
   41SOL     OW 1021   1.106   0.972   5.808
   41SOL    HW1 1022   1.144   0.978   5.901
   41SOL    HW2 1023   1.045   1.050   5.792
   42SOL     OW 1024   3.558   0.087   0.379
   42SOL    HW1 1025   3.578   0.014   0.444
   42SOL    HW2 1026   3.591   0.061   0.288
   43SOL     OW 1027   4.527   5.549   5.197
   43SOL    HW1 1028   4.608   5.606   5.207
   43SOL    HW2 1029   4.508   5.535   5.100
   44SOL     OW 1030   1.129   3.955   0.203
   44SOL    HW1 1031   1.213   4.008   0.201
   44SOL    HW2 1032   1.051   4.017   0.217
   45SOL     OW 1033   2.066   0.168   1.502
   45SOL    HW1 1034   2.018   0.153   1.588
   45SOL    HW2 1035   2.128   0.246   1.511
   46SOL     OW 1036   0.938   5.434   3.671
   46SOL    HW1 1037   0.953   5.532   3.653
   46SOL    HW2 1038   0.950   5.382   3.587
   47SOL     OW 1039   6.015   4.414   2.920
   47SOL    HW1 1040   6.061   4.325   2.923
   47SOL    HW2 1041   5.923   4.405   2.959
   48SOL     OW 1042   0.734   1.391   5.412
   48SOL    HW1 1043   0.791   1.382   5.331
   48SOL    HW2 1044   0.782   1.444   5.482
   49SOL     OW 1045   5.864   3.211   0.178
   49SOL    HW1 1046   5.793   3.235   0.243
   49SOL    HW2 1047   5.954   3.235   0.215
   50SOL     OW 1048   0.450   4.004   4.514
   50SOL    HW1 1049   0.484   4.073   4.578
   50SOL    HW2 1050   0.386   4.047   4.450
   51SOL     OW 1051   3.174   5.659   2.097
   51SOL    HW1 1052   3.204   5.733   2.156
   51SOL    HW2 1053   3.123   5.696   2.019
   52SOL     OW 1054   0.424   2.397   1.839
   52SOL    HW1 1055   0.492   2.432   1.774
   52SOL    HW2 1056   0.467   2.380   1.927
   53SOL     OW 1057   4.584   6.897   3.578
   53SOL    HW1 1058   4.574   6.813   3.630
   53SOL    HW2 1059   4.628   6.967   3.634
   54SOL     OW 1060   4.839   4.269   5.351
   54SOL    HW1 1061   4.751   4.225   5.333
   54SOL    HW2 1062   4.855   4.272   5.450
   55SOL     OW 1063   3.724   2.338   1.198
   55SOL    HW1 1064   3.675   2.418   1.233
   55SOL    HW2 1065   3.819   2.340   1.229
   56SOL     OW 1066   0.519   0.170   2.054
   56SOL    HW1 1067   0.465   0.089   2.079
   56SOL    HW2 1068   0.565   0.154   1.967
   57SOL     OW 1069   5.202   0.697   0.340
   57SOL    HW1 1070   5.283   0.742   0.377
   57SOL    HW2 1071   5.137   0.680   0.413
   58SOL     OW 1072   6.676   0.596   6.881
   58SOL    HW1 1073   6.752   0.653   6.914
   58SOL    HW2 1074   6.683   0.505   6.921
   59SOL     OW 1075   0.468   6.756   5.680
   59SOL    HW1 1076   0.469   6.856   5.686
   59SOL    HW2 1077   0.375   6.723   5.692
   60SOL     OW 1078   4.883   6.813   4.927
   60SOL    HW1 1079   4.968   6.839   4.881
   60SOL    HW2 1080   4.846   6.731   4.884
   61SOL     OW 1081   3.689   6.930   5.452
   61SOL    HW1 1082   3.624   7.004   5.433
   61SOL    HW2 1083   3.653   6.844   5.418
   62SOL     OW 1084   2.774   0.348   5.060
   62SOL    HW1 1085   2.708   0.412   5.020
   62SOL    HW2 1086   2.850   0.334   4.997
   63SOL     OW 1087   6.849   2.898   3.883
   63SOL    HW1 1088   6.920   2.908   3.952
   63SOL    HW2 1089   6.782   2.831   3.913
   64SOL     OW 1090   6.793   2.494   5.465
   64SOL    HW1 1091   6.728   2.517   5.537
   64SOL    HW2 1092   6.775   2.402   5.431
   65SOL     OW 1093   1.224   4.130   5.690
   65SOL    HW1 1094   1.140   4.185   5.695
   65SOL    HW2 1095   1.214   4.061   5.619
   66SOL     OW 1096   2.474   0.968   1.473
   66SOL    HW1 1097   2.390   0.962   1.420
   66SOL    HW2 1098   2.482   1.059   1.513
   67SOL     OW 1099   4.899   5.173   4.067
   67SOL    HW1 1100   4.808   5.160   4.105
   67SOL    HW2 1101   4.920   5.099   4.003
   68SOL     OW 1102   5.320   3.011   6.447
   68SOL    HW1 1103   5.301   2.914   6.448
   68SOL    HW2 1104   5.304   3.047   6.355
   69SOL     OW 1105   2.505   2.893   5.719
   69SOL    HW1 1106   2.516   2.980   5.672
   69SOL    HW2 1107   2.564   2.824   5.675
   70SOL     OW 1108   5.719   0.142   2.481
   70SOL    HW1 1109   5.705   0.236   2.511
   70SOL    HW2 1110   5.741   0.084   2.559
   71SOL     OW 1111   1.769   4.336   2.351
   71SOL    HW1 1112   1.792   4.277   2.429
   71SOL    HW2 1113   1.755   4.280   2.269
   72SOL     OW 1114   3.847   5.430   3.729
   72SOL    HW1 1115   3.920   5.366   3.704
   72SOL    HW2 1116   3.821   5.415   3.825
   73SOL     OW 1117   3.492   3.250   6.688
   73SOL    HW1 1118   3.536   3.291   6.768
   73SOL    HW2 1119   3.516   3.153   6.682
   74SOL     OW 1120   5.042   0.168   5.742
   74SOL    HW1 1121   5.058   0.117   5.827
   74SOL    HW2 1122   4.981   0.116   5.683
   75SOL     OW 1123   3.713   5.192   5.446
   75SOL    HW1 1124   3.715   5.132   5.527
   75SOL    HW2 1125   3.720   5.287   5.476
   76SOL     OW 1126   2.755   2.954   0.939
   76SOL    HW1 1127   2.702   3.038   0.952
   76SOL    HW2 1128   2.701   2.875   0.967
   77SOL     OW 1129   6.037   4.207   6.312
   77SOL    HW1 1130   6.057   4.197   6.409
   77SOL    HW2 1131   6.112   4.168   6.258
   78SOL     OW 1132   6.197   6.991   5.798
   78SOL    HW1 1133   6.224   0.062   5.774
   78SOL    HW2 1134   6.170   6.941   5.716
   79SOL     OW 1135   3.339   6.784   0.986
   79SOL    HW1 1136   3.396   6.779   0.904
   79SOL    HW2 1137   3.398   6.788   1.067
   80SOL     OW 1138   0.370   0.901   4.198
   80SOL    HW1 1139   0.303   0.848   4.249
   80SOL    HW2 1140   0.369   0.873   4.102
   81SOL     OW 1141   1.889   6.707   3.047
   81SOL    HW1 1142   1.794   6.677   3.053
   81SOL    HW2 1143   1.945   6.632   3.011
   82SOL     OW 1144   6.584   4.973   5.800
   82SOL    HW1 1145   6.597   4.916   5.882
   82SOL    HW2 1146   6.610   4.921   5.719
   83SOL     OW 1147   6.148   6.521   5.388
   83SOL    HW1 1148   6.128   6.509   5.291
   83SOL    HW2 1149   6.241   6.487   5.407
   84SOL     OW 1150   6.710   3.792   2.030
   84SOL    HW1 1151   6.751   3.778   1.939
   84SOL    HW2 1152   6.741   3.880   2.067
   85SOL     OW 1153   1.218   1.039   5.047
   85SOL    HW1 1154   1.296   0.990   5.009
   85SOL    HW2 1155   1.181   1.102   4.978
   86SOL     OW 1156   2.271   1.176   4.536
   86SOL    HW1 1157   2.195   1.238   4.519
   86SOL    HW2 1158   2.277   1.155   4.634
   87SOL     OW 1159   4.638   6.564   1.778
   87SOL    HW1 1160   4.698   6.641   1.756
   87SOL    HW2 1161   4.548   6.598   1.804
   88SOL     OW 1162   6.075   0.604   1.695
   88SOL    HW1 1163   6.083   0.514   1.738
   88SOL    HW2 1164   5.982   0.615   1.658
   89SOL     OW 1165   2.026   1.813   5.181
   89SOL    HW1 1166   2.107   1.780   5.131
   89SOL    HW2 1167   2.049   1.824   5.278
   90SOL     OW 1168   6.226   6.218   3.618
   90SOL    HW1 1169   6.212   6.166   3.534
   90SOL    HW2 1170   6.146   6.276   3.635
   91SOL     OW 1171   4.680   4.851   4.520
   91SOL    HW1 1172   4.762   4.897   4.485
   91SOL    HW2 1173   4.610   4.848   4.448
   92SOL     OW 1174   3.592   5.853   1.535
   92SOL    HW1 1175   3.520   5.836   1.467
   92SOL    HW2 1176   3.553   5.847   1.627
   93SOL     OW 1177   3.246   4.866   5.920
   93SOL    HW1 1178   3.190   4.886   6.000
   93SOL    HW2 1179   3.255   4.948   5.864
   94SOL     OW 1180   1.852   6.686   2.024
   94SOL    HW1 1181   1.895   6.734   2.100
   94SOL    HW2 1182   1.921   6.663   1.955
   95SOL     OW 1183   6.643   6.852   5.024
   95SOL    HW1 1184   6.707   6.777   5.009
   95SOL    HW2 1185   6.682   6.917   5.089
   96SOL     OW 1186   1.337   6.554   4.886
   96SOL    HW1 1187   1.377   6.635   4.843
   96SOL    HW2 1188   1.387   6.473   4.856
   97SOL     OW 1189   6.277   2.303   4.069
   97SOL    HW1 1190   6.281   2.276   4.165
   97SOL    HW2 1191   6.248   2.224   4.014
   98SOL     OW 1192   4.474   0.711   5.368
   98SOL    HW1 1193   4.418   0.693   5.287
   98SOL    HW2 1194   4.569   0.724   5.340
   99SOL     OW 1195   4.859   1.277   0.839
   99SOL    HW1 1196   4.934   1.323   0.791
   99SOL    HW2 1197   4.833   1.195   0.788
  100SOL     OW 1198   6.528   5.545   7.015
  100SOL    HW1 1199   6.482   5.458   0.012
  100SOL    HW2 1200   6.546   5.551   6.917
  101SOL     OW 1201   1.496   0.084   3.842
  101SOL    HW1 1202   1.486   0.174   3.799
  101SOL    HW2 1203   1.499   0.094   3.941
  102SOL     OW 1204   4.185   0.589   2.715
  102SOL    HW1 1205   4.143   0.642   2.789
  102SOL    HW2 1206   4.280   0.568   2.739
  103SOL     OW 1207   3.861   1.544   1.881
  103SOL    HW1 1208   3.948   1.500   1.860
  103SOL    HW2 1209   3.879   1.635   1.918
  104SOL     OW 1210   6.328   6.299   2.332
  104SOL    HW1 1211   6.243   6.331   2.290
  104SOL    HW2 1212   6.309   6.260   2.422
  105SOL     OW 1213   5.715   0.770   6.131
  105SOL    HW1 1214   5.693   0.709   6.055
  105SOL    HW2 1215   5.646   0.842   6.137
  106SOL     OW 1216   3.754   6.660   1.421
  106SOL    HW1 1217   3.850   6.685   1.405
  106SOL    HW2 1218   3.705   6.656   1.334
  107SOL     OW 1219   2.592   3.400   0.066
  107SOL    HW1 1220   2.591   3.301   0.051
  107SOL    HW2 1221   2.499   3.434   0.076
  108SOL     OW 1222   4.751   4.009   5.491
  108SOL    HW1 1223   4.788   3.923   5.455
  108SOL    HW2 1224   4.817   4.051   5.552
  109SOL     OW 1225   6.284   0.703   2.179
  109SOL    HW1 1226   6.265   0.800   2.193
  109SOL    HW2 1227   6.342   0.668   2.253
  110SOL     OW 1228   3.251   6.495   4.313
  110SOL    HW1 1229   3.315   6.562   4.350
  110SOL    HW2 1230   3.180   6.542   4.262
  111SOL     OW 1231   3.036   1.306   2.858
  111SOL    HW1 1232   2.982   1.256   2.924
  111SOL    HW2 1233   3.024   1.404   2.872
  112SOL     OW 1234   0.037   1.697   6.466
  112SOL    HW1 1235   6.979   1.755   6.475
  112SOL    HW2 1236   0.107   1.726   6.531
  113SOL     OW 1237   6.939   6.748   3.820
  113SOL    HW1 1238   6.912   6.653   3.839
  113SOL    HW2 1239   0.013   6.751   3.797
  114SOL     OW 1240   1.154   6.522   0.333
  114SOL    HW1 1241   1.129   6.449   0.270
  114SOL    HW2 1242   1.088   6.597   0.325
  115SOL     OW 1243   5.272   1.116   5.472
  115SOL    HW1 1244   5.246   1.118   5.568
  115SOL    HW2 1245   5.201   1.159   5.417
  116SOL     OW 1246   6.233   3.853   2.992
  116SOL    HW1 1247   6.163   3.796   3.035
  116SOL    HW2 1248   6.296   3.795   2.940
  117SOL     OW 1249   0.770   6.710   6.167
  117SOL    HW1 1250   0.809   6.799   6.146
  117SOL    HW2 1251   0.834   6.658   6.224
  118SOL     OW 1252   2.210   0.968   3.211
  118SOL    HW1 1253   2.251   1.000   3.297
  118SOL    HW2 1254   2.138   0.902   3.232
  119SOL     OW 1255   6.848   2.350   6.139
  119SOL    HW1 1256   6.903   2.286   6.086
  119SOL    HW2 1257   6.899   2.379   6.220
  120SOL     OW 1258   4.985   5.779   1.795
  120SOL    HW1 1259   4.983   5.702   1.732
  120SOL    HW2 1260   5.007   5.747   1.887
  121SOL     OW 1261   2.883   3.000   5.786
  121SOL    HW1 1262   2.883   2.907   5.751
  121SOL    HW2 1263   2.789   3.028   5.806
  122SOL     OW 1264   1.075   3.336   5.077
  122SOL    HW1 1265   1.052   3.240   5.092
  122SOL    HW2 1266   0.996   3.384   5.037
  123SOL     OW 1267   6.712   1.859   1.687
  123SOL    HW1 1268   6.619   1.895   1.700
  123SOL    HW2 1269   6.769   1.887   1.763
  124SOL     OW 1270   5.097   3.821   1.192
  124SOL    HW1 1271   5.080   3.916   1.166
  124SOL    HW2 1272   5.057   3.804   1.283
  125SOL     OW 1273   2.509   3.670   1.688
  125SOL    HW1 1274   2.484   3.765   1.702
  125SOL    HW2 1275   2.453   3.611   1.747
  126SOL     OW 1276   3.975   4.419   0.404
  126SOL    HW1 1277   4.021   4.413   0.316
  126SOL    HW2 1278   3.891   4.473   0.394
  127SOL     OW 1279   0.918   5.491   5.726
  127SOL    HW1 1280   0.911   5.404   5.676
  127SOL    HW2 1281   0.831   5.511   5.770
  128SOL     OW 1282   4.767   2.487   0.427
  128SOL    HW1 1283   4.713   2.426   0.370
  128SOL    HW2 1284   4.817   2.551   0.369
  129SOL     OW 1285   2.868   3.633   0.036
  129SOL    HW1 1286   2.904   3.607   0.126
  129SOL    HW2 1287   2.809   3.713   0.045
  130SOL     OW 1288   1.482   2.109   4.664
  130SOL    HW1 1289   1.499   2.173   4.739
  130SOL    HW2 1290   1.537   2.027   4.676
  131SOL     OW 1291   5.674   1.059   2.153
  131SOL    HW1 1292   5.655   1.021   2.063
  131SOL    HW2 1293   5.769   1.092   2.156
  132SOL     OW 1294   0.560   2.360   2.073
  132SOL    HW1 1295   0.657   2.342   2.059
  132SOL    HW2 1296   0.549   2.446   2.122
  133SOL     OW 1297   6.881   5.956   2.979
  133SOL    HW1 1298   6.826   5.950   3.063
  133SOL    HW2 1299   6.945   5.879   2.976
  134SOL     OW 1300   1.044   3.373   3.043
  134SOL    HW1 1301   1.107   3.296   3.030
  134SOL    HW2 1302   1.089   3.443   3.099
  135SOL     OW 1303   4.541   1.128   4.288
  135SOL    HW1 1304   4.573   1.171   4.204
  135SOL    HW2 1305   4.601   1.153   4.364
  136SOL     OW 1306   5.072   4.764   6.292
  136SOL    HW1 1307   5.110   4.674   6.272
  136SOL    HW2 1308   4.974   4.764   6.274
  137SOL     OW 1309   3.679   0.869   5.648
  137SOL    HW1 1310   3.729   0.783   5.642
  137SOL    HW2 1311   3.743   0.946   5.641
  138SOL     OW 1312   5.497   4.331   5.612
  138SOL    HW1 1313   5.584   4.338   5.660
  138SOL    HW2 1314   5.496   4.249   5.556
  139SOL     OW 1315   3.455   5.680   5.711
  139SOL    HW1 1316   3.507   5.646   5.789
  139SOL    HW2 1317   3.516   5.729   5.648
  140SOL     OW 1318   6.176   3.863   4.653
  140SOL    HW1 1319   6.165   3.810   4.568
  140SOL    HW2 1320   6.263   3.912   4.650
  141SOL     OW 1321   1.551   1.991   2.171
  141SOL    HW1 1322   1.519   2.055   2.241
  141SOL    HW2 1323   1.515   1.900   2.191
  142SOL     OW 1324   1.333   5.335   1.104
  142SOL    HW1 1325   1.417   5.371   1.146
  142SOL    HW2 1326   1.309   5.248   1.147
  143SOL     OW 1327   5.084   4.144   2.020
  143SOL    HW1 1328   5.135   4.095   2.091
  143SOL    HW2 1329   4.993   4.103   2.010
  144SOL     OW 1330   2.725   0.066   1.121
  144SOL    HW1 1331   2.735   6.988   1.118
  144SOL    HW2 1332   2.800   0.107   1.069
  145SOL     OW 1333   6.648   5.444   0.562
  145SOL    HW1 1334   6.620   5.535   0.531
  145SOL    HW2 1335   6.653   5.383   0.484
  146SOL     OW 1336   6.957   4.776   0.738
  146SOL    HW1 1337   6.991   4.794   0.646
  146SOL    HW2 1338   7.016   4.821   0.805
  147SOL     OW 1339   5.674   2.646   0.962
  147SOL    HW1 1340   5.584   2.687   0.975
  147SOL    HW2 1341   5.740   2.689   1.023
  148SOL     OW 1342   1.022   5.525   5.351
  148SOL    HW1 1343   1.105   5.483   5.387
  148SOL    HW2 1344   1.001   5.608   5.403
  149SOL     OW 1345   3.092   1.119   5.865
  149SOL    HW1 1346   3.022   1.161   5.924
  149SOL    HW2 1347   3.160   1.188   5.841
  150SOL     OW 1348   0.011   5.963   5.030
  150SOL    HW1 1349   6.994   5.884   5.079
  150SOL    HW2 1350   6.960   6.025   5.003
  151SOL     OW 1351   4.442   0.620   2.115
  151SOL    HW1 1352   4.501   0.601   2.037
  151SOL    HW2 1353   4.383   0.542   2.133
  152SOL     OW 1354   3.030   0.855   4.395
  152SOL    HW1 1355   3.017   0.837   4.492
  152SOL    HW2 1356   3.023   0.954   4.378
  153SOL     OW 1357   0.994   0.290   2.606
  153SOL    HW1 1358   1.076   0.344   2.622
  153SOL    HW2 1359   1.013   0.194   2.623
  154SOL     OW 1360   0.258   2.004   3.007
  154SOL    HW1 1361   0.291   2.045   3.092
  154SOL    HW2 1362   0.201   2.070   2.958
  155SOL     OW 1363   0.098   1.009   3.232
  155SOL    HW1 1364   0.175   0.980   3.175
  155SOL    HW2 1365   0.046   1.079   3.183
  156SOL     OW 1366   6.947   2.371   1.440
  156SOL    HW1 1367   6.989   2.452   1.482
  156SOL    HW2 1368   6.982   2.360   1.347
  157SOL     OW 1369   0.177   2.698   2.722
  157SOL    HW1 1370   0.116   2.659   2.653
  157SOL    HW2 1371   0.152   2.663   2.812
  158SOL     OW 1372   2.027   1.581   3.713
  158SOL    HW1 1373   2.073   1.567   3.626
  158SOL    HW2 1374   2.035   1.677   3.741
  159SOL     OW 1375   5.101   3.415   1.838
  159SOL    HW1 1376   5.037   3.340   1.826
  159SOL    HW2 1377   5.050   3.500   1.853
  160SOL     OW 1378   5.965   4.659   6.393
  160SOL    HW1 1379   6.046   4.640   6.448
  160SOL    HW2 1380   5.982   4.737   6.333
  161SOL     OW 1381   2.936   4.686   5.444
  161SOL    HW1 1382   2.919   4.647   5.354
  161SOL    HW2 1383   2.962   4.614   5.508
  162SOL     OW 1384   4.603   5.943   2.495
  162SOL    HW1 1385   4.580   5.909   2.586
  162SOL    HW2 1386   4.701   5.933   2.479
  163SOL     OW 1387   6.184   0.274   1.752
  163SOL    HW1 1388   6.155   0.338   1.824
  163SOL    HW2 1389   6.103   0.237   1.707
  164SOL     OW 1390   6.584   3.001   1.029
  164SOL    HW1 1391   6.626   2.917   1.064
  164SOL    HW2 1392   6.530   3.044   1.102
  165SOL     OW 1393   6.303   3.683   6.874
  165SOL    HW1 1394   6.296   3.764   6.816
  165SOL    HW2 1395   6.225   3.681   6.937
  166SOL     OW 1396   1.606   0.214   0.529
  166SOL    HW1 1397   1.612   0.149   0.605
  166SOL    HW2 1398   1.619   0.307   0.564
  167SOL     OW 1399   6.440   2.790   1.320
  167SOL    HW1 1400   6.435   2.877   1.369
  167SOL    HW2 1401   6.434   2.715   1.386
  168SOL     OW 1402   2.423   5.858   1.487
  168SOL    HW1 1403   2.421   5.874   1.388
  168SOL    HW2 1404   2.462   5.938   1.532
  169SOL     OW 1405   1.058   0.145   1.307
  169SOL    HW1 1406   0.989   0.117   1.241
  169SOL    HW2 1407   1.048   0.243   1.326
  170SOL     OW 1408   0.171   1.763   3.272
  170SOL    HW1 1409   0.109   1.722   3.205
  170SOL    HW2 1410   0.265   1.760   3.237
  171SOL     OW 1411   3.467   3.951   0.512
  171SOL    HW1 1412   3.472   3.937   0.611
  171SOL    HW2 1413   3.541   4.010   0.483
  172SOL     OW 1414   0.136   2.858   1.948
  172SOL    HW1 1415   0.233   2.853   1.971
  172SOL    HW2 1416   0.083   2.881   2.030
  173SOL     OW 1417   6.861   6.532   6.089
  173SOL    HW1 1418   6.820   6.584   6.165
  173SOL    HW2 1419   6.791   6.517   6.019
  174SOL     OW 1420   2.521   5.895   3.805
  174SOL    HW1 1421   2.532   5.952   3.724
  174SOL    HW2 1422   2.426   5.901   3.838
  175SOL     OW 1423   0.490   4.959   3.829
  175SOL    HW1 1424   0.454   4.971   3.737
  175SOL    HW2 1425   0.584   4.991   3.832
  176SOL     OW 1426   3.026   5.452   0.003
  176SOL    HW1 1427   2.951   5.474   6.963
  176SOL    HW2 1428   3.054   5.534   0.052
  177SOL     OW 1429   4.491   1.476   2.708
  177SOL    HW1 1430   4.520   1.430   2.791
  177SOL    HW2 1431   4.489   1.411   2.632
  178SOL     OW 1432   5.328   3.753   6.137
  178SOL    HW1 1433   5.342   3.674   6.078
  178SOL    HW2 1434   5.318   3.723   6.231
  179SOL     OW 1435   3.005   6.782   0.242
  179SOL    HW1 1436   2.949   6.769   0.160
  179SOL    HW2 1437   2.991   6.704   0.304
  180SOL     OW 1438   1.214   2.297   6.733
  180SOL    HW1 1439   1.239   2.282   6.829
  180SOL    HW2 1440   1.114   2.294   6.724
  181SOL     OW 1441   2.911   3.624   3.884
  181SOL    HW1 1442   2.986   3.614   3.819
  181SOL    HW2 1443   2.840   3.557   3.865
  182SOL     OW 1444   5.439   2.630   4.967
  182SOL    HW1 1445   5.460   2.728   4.964
  182SOL    HW2 1446   5.399   2.607   5.055
  183SOL     OW 1447   6.195   1.252   2.408
  183SOL    HW1 1448   6.101   1.247   2.376
  183SOL    HW2 1449   6.237   1.162   2.401
  184SOL     OW 1450   0.385   4.783   2.842
  184SOL    HW1 1451   0.360   4.866   2.792
  184SOL    HW2 1452   0.450   4.730   2.789
  185SOL     OW 1453   2.797   3.963   5.935
  185SOL    HW1 1454   2.831   4.028   5.867
  185SOL    HW2 1455   2.772   3.877   5.891
  186SOL     OW 1456   6.333   6.661   3.439
  186SOL    HW1 1457   6.268   6.726   3.480
  186SOL    HW2 1458   6.283   6.580   3.407
  187SOL     OW 1459   5.457   0.185   4.304
  187SOL    HW1 1460   5.481   0.101   4.256
  187SOL    HW2 1461   5.536   0.215   4.359
  188SOL     OW 1462   6.255   1.972   4.997
  188SOL    HW1 1463   6.319   2.047   5.011
  188SOL    HW2 1464   6.213   1.946   5.084
  189SOL     OW 1465   1.716   4.627   3.419
  189SOL    HW1 1466   1.779   4.564   3.373
  189SOL    HW2 1467   1.730   4.719   3.383
  190SOL     OW 1468   3.632   1.255   6.980
  190SOL    HW1 1469   3.551   1.201   7.005
  190SOL    HW2 1470   3.670   1.220   6.894
  191SOL     OW 1471   5.312   5.894   6.134
  191SOL    HW1 1472   5.410   5.902   6.148
  191SOL    HW2 1473   5.263   5.925   6.215
  192SOL     OW 1474   5.927   0.513   6.840
  192SOL    HW1 1475   5.957   0.574   6.913
  192SOL    HW2 1476   5.959   0.420   6.858
  193SOL     OW 1477   6.257   4.020   0.023
  193SOL    HW1 1478   6.162   4.042   0.045
  193SOL    HW2 1479   6.301   3.977   0.102
  194SOL     OW 1480   4.206   0.114   4.984
  194SOL    HW1 1481   4.276   0.185   4.993
  194SOL    HW2 1482   4.226   0.039   5.048
  195SOL     OW 1483   0.111   5.731   3.325
  195SOL    HW1 1484   0.164   5.720   3.409
  195SOL    HW2 1485   0.167   5.705   3.246
  196SOL     OW 1486   0.728   1.048   1.040
  196SOL    HW1 1487   0.775   0.969   1.080
  196SOL    HW2 1488   0.652   1.016   0.984
  197SOL     OW 1489   2.032   0.923   0.781
  197SOL    HW1 1490   2.057   0.856   0.851
  197SOL    HW2 1491   1.958   0.887   0.724
  198SOL     OW 1492   2.726   1.398   4.277
  198SOL    HW1 1493   2.698   1.407   4.182
  198SOL    HW2 1494   2.645   1.402   4.336
  199SOL     OW 1495   1.246   1.063   4.557
  199SOL    HW1 1496   1.297   1.130   4.611
  199SOL    HW2 1497   1.174   1.110   4.506
  200SOL     OW 1498   6.454   1.956   0.516
  200SOL    HW1 1499   6.458   1.991   0.610
  200SOL    HW2 1500   6.538   1.980   0.468
  201SOL     OW 1501   0.377   1.657   6.059
  201SOL    HW1 1502   0.411   1.749   6.038
  201SOL    HW2 1503   0.280   1.663   6.086
  202SOL     OW 1504   5.330   6.812   0.252
  202SOL    HW1 1505   5.235   6.804   0.223
  202SOL    HW2 1506   5.389   6.768   0.185
  203SOL     OW 1507   6.748   3.510   0.052
  203SOL    HW1 1508   6.745   3.475   0.145
  203SOL    HW2 1509   6.656   3.506   0.012
  204SOL     OW 1510   6.621   0.974   5.311
  204SOL    HW1 1511   6.546   0.967   5.245
  204SOL    HW2 1512   6.662   0.883   5.324
  205SOL     OW 1513   2.083   4.558   3.518
  205SOL    HW1 1514   2.143   4.626   3.476
  205SOL    HW2 1515   2.127   4.468   3.515
  206SOL     OW 1516   0.598   4.005   1.151
  206SOL    HW1 1517   0.664   4.058   1.098
  206SOL    HW2 1518   0.509   4.005   1.105
  207SOL     OW 1519   6.640   2.645   4.631
  207SOL    HW1 1520   6.699   2.717   4.595
  207SOL    HW2 1521   6.584   2.681   4.705
  208SOL     OW 1522   1.422   2.963   4.874
  208SOL    HW1 1523   1.396   3.029   4.803
  208SOL    HW2 1524   1.522   2.952   4.874
  209SOL     OW 1525   6.022   3.956   2.648
  209SOL    HW1 1526   6.060   3.878   2.598
  209SOL    HW2 1527   6.067   4.040   2.619
  210SOL     OW 1528   4.772   3.652   1.179
  210SOL    HW1 1529   4.735   3.639   1.271
  210SOL    HW2 1530   4.766   3.566   1.128
  211SOL     OW 1531   1.194   1.421   1.477
  211SOL    HW1 1532   1.229   1.332   1.448
  211SOL    HW2 1533   1.259   1.465   1.538
  212SOL     OW 1534   2.464   3.968   1.661
  212SOL    HW1 1535   2.429   4.061   1.649
  212SOL    HW2 1536   2.552   3.971   1.707
  213SOL     OW 1537   1.127   5.115   1.462
  213SOL    HW1 1538   1.179   5.041   1.420
  213SOL    HW2 1539   1.069   5.158   1.393
  214SOL     OW 1540   5.794   6.510   2.380
  214SOL    HW1 1541   5.802   6.499   2.281
  214SOL    HW2 1542   5.760   6.601   2.400
  215SOL     OW 1543   2.248   4.859   2.447
  215SOL    HW1 1544   2.223   4.775   2.494
  215SOL    HW2 1545   2.173   4.888   2.387
  216SOL     OW 1546   1.707   6.063   3.332
  216SOL    HW1 1547   1.630   6.080   3.393
  216SOL    HW2 1548   1.762   6.147   3.324
  217SOL     OW 1549   6.999   5.396   5.066
  217SOL    HW1 1550   6.993   5.368   4.970
  217SOL    HW2 1551   0.060   5.357   5.107
  218SOL     OW 1552   2.898   2.404   5.589
  218SOL    HW1 1553   2.931   2.312   5.613
  218SOL    HW2 1554   2.944   2.435   5.506
  219SOL     OW 1555   5.241   2.018   1.608
  219SOL    HW1 1556   5.180   2.038   1.531
  219SOL    HW2 1557   5.309   1.950   1.580
  220SOL     OW 1558   2.558   6.579   0.736
  220SOL    HW1 1559   2.498   6.578   0.656
  220SOL    HW2 1560   2.641   6.527   0.717
  221SOL     OW 1561   4.769   4.573   2.102
  221SOL    HW1 1562   4.781   4.478   2.133
  221SOL    HW2 1563   4.682   4.581   2.054
  222SOL     OW 1564   1.682   3.854   6.730
  222SOL    HW1 1565   1.780   3.848   6.751
  222SOL    HW2 1566   1.665   3.937   6.676
  223SOL     OW 1567   6.597   1.889   4.801
  223SOL    HW1 1568   6.622   1.810   4.857
  223SOL    HW2 1569   6.611   1.868   4.705
  224SOL     OW 1570   3.492   2.660   5.934
  224SOL    HW1 1571   3.488   2.560   5.934
  224SOL    HW2 1572   3.585   2.691   5.949
  225SOL     OW 1573   4.334   6.066   6.518
  225SOL    HW1 1574   4.411   6.031   6.466
  225SOL    HW2 1575   4.288   5.991   6.565
  226SOL     OW 1576   1.906   2.536   0.494
  226SOL    HW1 1577   1.929   2.439   0.487
  226SOL    HW2 1578   1.808   2.545   0.511
  227SOL     OW 1579   1.502   3.899   0.934
  227SOL    HW1 1580   1.553   3.899   1.020
  227SOL    HW2 1581   1.489   3.805   0.904
  228SOL     OW 1582   0.826   0.463   2.505
  228SOL    HW1 1583   0.787   0.438   2.416
  228SOL    HW2 1584   0.866   0.381   2.548
  229SOL     OW 1585   4.435   0.752   6.309
  229SOL    HW1 1586   4.400   0.673   6.259
  229SOL    HW2 1587   4.528   0.735   6.340
  230SOL     OW 1588   5.816   4.172   6.013
  230SOL    HW1 1589   5.885   4.230   6.056
  230SOL    HW2 1590   5.759   4.130   6.083
  231SOL     OW 1591   5.293   1.115   0.194
  231SOL    HW1 1592   5.382   1.140   0.156
  231SOL    HW2 1593   5.300   1.107   0.293
  232SOL     OW 1594   1.243   2.523   5.283
  232SOL    HW1 1595   1.306   2.589   5.241
  232SOL    HW2 1596   1.284   2.487   5.367
  233SOL     OW 1597   3.259   1.415   3.732
  233SOL    HW1 1598   3.222   1.433   3.641
  233SOL    HW2 1599   3.341   1.359   3.725
  234SOL     OW 1600   5.395   0.032   0.313
  234SOL    HW1 1601   5.380   6.958   0.289
  234SOL    HW2 1602   5.434   0.080   0.235
  235SOL     OW 1603   5.339   3.256   2.168
  235SOL    HW1 1604   5.296   3.344   2.186
  235SOL    HW2 1605   5.269   3.190   2.139
  236SOL     OW 1606   3.904   2.893   6.143
  236SOL    HW1 1607   3.948   2.968   6.193
  236SOL    HW2 1608   3.904   2.811   6.200
  237SOL     OW 1609   5.961   3.373   3.231
  237SOL    HW1 1610   5.899   3.438   3.188
  237SOL    HW2 1611   6.017   3.329   3.161
  238SOL     OW 1612   6.432   1.692   0.317
  238SOL    HW1 1613   6.443   1.752   0.397
  238SOL    HW2 1614   6.366   1.732   0.254
  239SOL     OW 1615   1.866   3.230   0.566
  239SOL    HW1 1616   1.813   3.234   0.482
  239SOL    HW2 1617   1.953   3.278   0.553
  240SOL     OW 1618   5.313   3.452   3.968
  240SOL    HW1 1619   5.296   3.460   3.869
  240SOL    HW2 1620   5.316   3.356   3.994
  241SOL     OW 1621   2.014   2.639   4.116
  241SOL    HW1 1622   2.114   2.648   4.117
  241SOL    HW2 1623   1.987   2.587   4.035
  242SOL     OW 1624   3.861   3.378   1.929
  242SOL    HW1 1625   3.821   3.300   1.978
  242SOL    HW2 1626   3.912   3.435   1.993
  243SOL     OW 1627   3.989   2.702   6.335
  243SOL    HW1 1628   4.048   2.748   6.401
  243SOL    HW2 1629   4.038   2.626   6.293
  244SOL     OW 1630   4.935   3.471   4.921
  244SOL    HW1 1631   4.946   3.387   4.974
  244SOL    HW2 1632   4.886   3.539   4.976
  245SOL     OW 1633   3.508   1.201   3.070
  245SOL    HW1 1634   3.525   1.104   3.087
  245SOL    HW2 1635   3.442   1.211   2.995
  246SOL     OW 1636   6.683   1.364   2.290
  246SOL    HW1 1637   6.767   1.312   2.272
  246SOL    HW2 1638   6.612   1.336   2.226
  247SOL     OW 1639   2.357   1.220   2.066
  247SOL    HW1 1640   2.286   1.190   2.130
  247SOL    HW2 1641   2.437   1.160   2.074
  248SOL     OW 1642   3.255   3.699   1.341
  248SOL    HW1 1643   3.307   3.770   1.294
  248SOL    HW2 1644   3.244   3.723   1.437
  249SOL     OW 1645   4.762   6.494   5.393
  249SOL    HW1 1646   4.751   6.570   5.456
  249SOL    HW2 1647   4.815   6.523   5.314
  250SOL     OW 1648   3.965   2.718   0.040
  250SOL    HW1 1649   3.906   2.708   0.120
  250SOL    HW2 1650   3.946   2.806   7.018
  251SOL     OW 1651   4.544   5.224   5.067
  251SOL    HW1 1652   4.622   5.283   5.047
  251SOL    HW2 1653   4.526   5.225   5.165
  252SOL     OW 1654   6.563   6.037   4.980
  252SOL    HW1 1655   6.513   5.990   4.907
  252SOL    HW2 1656   6.499   6.087   5.038
  253SOL     OW 1657   4.360   6.186   6.161
  253SOL    HW1 1658   4.319   6.231   6.081
  253SOL    HW2 1659   4.404   6.101   6.132
  254SOL     OW 1660   6.331   2.120   5.508
  254SOL    HW1 1661   6.383   2.069   5.439
  254SOL    HW2 1662   6.367   2.213   5.515
  255SOL     OW 1663   1.546   4.109   6.678
  255SOL    HW1 1664   1.582   4.170   6.749
  255SOL    HW2 1665   1.452   4.133   6.657
  256SOL     OW 1666   4.811   2.622   5.227
  256SOL    HW1 1667   4.883   2.630   5.159
  256SOL    HW2 1668   4.844   2.570   5.305
  257SOL     OW 1669   4.895   6.485   2.465
  257SOL    HW1 1670   4.881   6.580   2.491
  257SOL    HW2 1671   4.811   6.433   2.480
  258SOL     OW 1672   2.083   3.647   5.622
  258SOL    HW1 1673   2.064   3.575   5.555
  258SOL    HW2 1674   2.141   3.611   5.695
  259SOL     OW 1675   3.369   0.303   3.787
  259SOL    HW1 1676   3.396   0.207   3.786
  259SOL    HW2 1677   3.272   0.311   3.812
  260SOL     OW 1678   3.532   5.503   3.199
  260SOL    HW1 1679   3.479   5.549   3.270
  260SOL    HW2 1680   3.577   5.572   3.142
  261SOL     OW 1681   3.877   4.877   6.825
  261SOL    HW1 1682   3.850   4.817   6.749
  261SOL    HW2 1683   3.931   4.824   6.891
  262SOL     OW 1684   1.136   3.499   6.614
  262SOL    HW1 1685   1.153   3.557   6.535
  262SOL    HW2 1686   1.203   3.518   6.685
  263SOL     OW 1687   1.734   0.173   3.654
  263SOL    HW1 1688   1.682   0.094   3.622
  263SOL    HW2 1689   1.676   0.254   3.652
  264SOL     OW 1690   6.507   2.878   6.341
  264SOL    HW1 1691   6.599   2.892   6.377
  264SOL    HW2 1692   6.442   2.931   6.395
  265SOL     OW 1693   0.030   0.055   3.164
  265SOL    HW1 1694   0.117   0.045   3.213
  265SOL    HW2 1695   7.004   0.136   3.198
  266SOL     OW 1696   3.589   0.904   6.225
  266SOL    HW1 1697   3.647   0.863   6.296
  266SOL    HW2 1698   3.646   0.927   6.145
  267SOL     OW 1699   2.541   0.192   2.826
  267SOL    HW1 1700   2.507   0.231   2.740
  267SOL    HW2 1701   2.589   0.107   2.808
  268SOL     OW 1702   3.640   2.214   0.785
  268SOL    HW1 1703   3.673   2.128   0.747
  268SOL    HW2 1704   3.708   2.286   0.768
  269SOL     OW 1705   4.927   1.828   0.014
  269SOL    HW1 1706   5.007   1.861   0.064
  269SOL    HW2 1707   4.875   1.906   7.001
  270SOL     OW 1708   5.526   1.266   0.395
  270SOL    HW1 1709   5.539   1.295   0.301
  270SOL    HW2 1710   5.451   1.318   0.436
  271SOL     OW 1711   0.234   4.225   6.251
  271SOL    HW1 1712   0.250   4.159   6.178
  271SOL    HW2 1713   0.137   4.227   6.273
  272SOL     OW 1714   3.147   6.106   3.211
  272SOL    HW1 1715   3.203   6.033   3.251
  272SOL    HW2 1716   3.079   6.136   3.278
  273SOL     OW 1717   1.812   5.543   6.025
  273SOL    HW1 1718   1.719   5.560   5.995
  273SOL    HW2 1719   1.871   5.529   5.946
  274SOL     OW 1720   4.427   2.187   3.956
  274SOL    HW1 1721   4.365   2.241   3.900
  274SOL    HW2 1722   4.447   2.237   4.041
  275SOL     OW 1723   5.796   0.337   1.651
  275SOL    HW1 1724   5.725   0.345   1.581
  275SOL    HW2 1725   5.882   0.309   1.610
  276SOL     OW 1726   0.995   6.851   4.676
  276SOL    HW1 1727   0.923   6.911   4.711
  276SOL    HW2 1728   1.036   6.800   4.752
  277SOL     OW 1729   2.159   4.583   1.431
  277SOL    HW1 1730   2.143   4.682   1.423
  277SOL    HW2 1731   2.257   4.565   1.426
  278SOL     OW 1732   0.636   2.448   3.284
  278SOL    HW1 1733   0.549   2.429   3.238
  278SOL    HW2 1734   0.682   2.362   3.305
  279SOL     OW 1735   6.246   0.977   3.112
  279SOL    HW1 1736   6.177   1.002   3.179
  279SOL    HW2 1737   6.284   1.060   3.071
  280SOL     OW 1738   1.802   5.041   2.763
  280SOL    HW1 1739   1.777   5.105   2.835
  280SOL    HW2 1740   1.837   5.092   2.685
  281SOL     OW 1741   2.673   4.135   1.388
  281SOL    HW1 1742   2.577   4.109   1.377
  281SOL    HW2 1743   2.726   4.058   1.422
  282SOL     OW 1744   1.839   1.308   4.967
  282SOL    HW1 1745   1.891   1.390   4.940
  282SOL    HW2 1746   1.868   1.231   4.910
  283SOL     OW 1747   3.189   3.135   6.481
  283SOL    HW1 1748   3.157   3.222   6.443
  283SOL    HW2 1749   3.176   3.063   6.414
  284SOL     OW 1750   0.395   3.843   3.809
  284SOL    HW1 1751   0.465   3.812   3.874
  284SOL    HW2 1752   0.344   3.764   3.776
  285SOL     OW 1753   5.444   4.139   3.889
  285SOL    HW1 1754   5.470   4.081   3.812
  285SOL    HW2 1755   5.516   4.136   3.959
  286SOL     OW 1756   2.933   4.283   1.284
  286SOL    HW1 1757   3.031   4.265   1.289
  286SOL    HW2 1758   2.904   4.332   1.366
  287SOL     OW 1759   0.790   3.073   0.224
  287SOL    HW1 1760   0.800   3.035   0.132
  287SOL    HW2 1761   0.764   3.169   0.218
  288SOL     OW 1762   5.249   3.294   1.467
  288SOL    HW1 1763   5.193   3.364   1.511
  288SOL    HW2 1764   5.320   3.262   1.531
  289SOL     OW 1765   3.981   5.460   6.758
  289SOL    HW1 1766   3.903   5.511   6.794
  289SOL    HW2 1767   3.986   5.371   6.803
  290SOL     OW 1768   1.953   1.092   4.861
  290SOL    HW1 1769   1.945   1.041   4.947
  290SOL    HW2 1770   2.041   1.072   4.818
  291SOL     OW 1771   6.503   1.797   3.050
  291SOL    HW1 1772   6.417   1.833   3.086
  291SOL    HW2 1773   6.536   1.723   3.109
  292SOL     OW 1774   3.461   0.019   4.158
  292SOL    HW1 1775   3.423   0.052   4.245
  292SOL    HW2 1776   3.518   0.090   4.117
  293SOL     OW 1777   3.102   5.022   3.565
  293SOL    HW1 1778   3.127   5.117   3.586
  293SOL    HW2 1779   3.157   4.990   3.488
  294SOL     OW 1780   4.931   0.348   0.633
  294SOL    HW1 1781   4.863   0.279   0.611
  294SOL    HW2 1782   5.018   0.304   0.656
  295SOL     OW 1783   5.758   0.679   4.261
  295SOL    HW1 1784   5.833   0.656   4.198
  295SOL    HW2 1785   5.735   0.776   4.252
  296SOL     OW 1786   2.545   2.101   3.174
  296SOL    HW1 1787   2.524   2.140   3.085
  296SOL    HW2 1788   2.543   2.001   3.168
  297SOL     OW 1789   1.878   5.137   2.194
  297SOL    HW1 1790   1.863   5.233   2.172
  297SOL    HW2 1791   1.962   5.128   2.248
  298SOL     OW 1792   6.763   5.038   0.904
  298SOL    HW1 1793   6.711   5.032   0.990
  298SOL    HW2 1794   6.768   5.133   0.875
  299SOL     OW 1795   5.935   2.423   3.850
  299SOL    HW1 1796   5.854   2.366   3.836
  299SOL    HW2 1797   5.940   2.452   3.946
  300SOL     OW 1798   6.100   7.017   1.540
  300SOL    HW1 1799   6.127   6.972   1.625
  300SOL    HW2 1800   6.166   6.993   1.468
  301SOL     OW 1801   4.787   2.925   5.636
  301SOL    HW1 1802   4.695   2.930   5.597
  301SOL    HW2 1803   4.801   3.004   5.696
  302SOL     OW 1804   1.512   5.452   4.369
  302SOL    HW1 1805   1.435   5.515   4.381
  302SOL    HW2 1806   1.583   5.473   4.437
  303SOL     OW 1807   5.722   0.229   3.990
  303SOL    HW1 1808   5.632   0.259   4.023
  303SOL    HW2 1809   5.710   0.169   3.911
  304SOL     OW 1810   3.758   0.370   3.917
  304SOL    HW1 1811   3.677   0.428   3.926
  304SOL    HW2 1812   3.759   0.303   3.991
  305SOL     OW 1813   1.452   5.152   0.670
  305SOL    HW1 1814   1.361   5.116   0.648
  305SOL    HW2 1815   1.507   5.080   0.713
  306SOL     OW 1816   2.010   1.247   3.362
  306SOL    HW1 1817   1.970   1.206   3.280
  306SOL    HW2 1818   2.108   1.260   3.349
  307SOL     OW 1819   3.359   0.754   1.724
  307SOL    HW1 1820   3.419   0.675   1.733
  307SOL    HW2 1821   3.400   0.821   1.662
  308SOL     OW 1822   0.766   4.955   3.772
  308SOL    HW1 1823   0.841   4.928   3.832
  308SOL    HW2 1824   0.800   4.968   3.679
  309SOL     OW 1825   3.727   4.618   5.293
  309SOL    HW1 1826   3.753   4.523   5.276
  309SOL    HW2 1827   3.664   4.621   5.371
  310SOL     OW 1828   1.442   5.919   6.434
  310SOL    HW1 1829   1.469   5.879   6.346
  310SOL    HW2 1830   1.501   5.884   6.506
  311SOL     OW 1831   0.193   0.785   1.222
  311SOL    HW1 1832   0.224   0.865   1.170
  311SOL    HW2 1833   0.106   0.805   1.266
  312SOL     OW 1834   3.962   1.603   5.599
  312SOL    HW1 1835   3.884   1.589   5.661
  312SOL    HW2 1836   3.948   1.687   5.546
  313SOL     OW 1837   6.913   4.783   1.180
  313SOL    HW1 1838   6.856   4.701   1.178
  313SOL    HW2 1839   6.880   4.849   1.113
  314SOL     OW 1840   3.474   5.797   2.426
  314SOL    HW1 1841   3.402   5.831   2.366
  314SOL    HW2 1842   3.562   5.833   2.395
  315SOL     OW 1843   0.754   3.642   2.861
  315SOL    HW1 1844   0.704   3.724   2.832
  315SOL    HW2 1845   0.747   3.633   2.960
  316SOL     OW 1846   2.034   3.108   4.119
  316SOL    HW1 1847   1.950   3.069   4.081
  316SOL    HW2 1848   2.091   3.035   4.157
  317SOL     OW 1849   6.606   1.491   0.287
  317SOL    HW1 1850   6.524   1.547   0.290
  317SOL    HW2 1851   6.631   1.462   0.380
  318SOL     OW 1852   2.758   4.026   1.147
  318SOL    HW1 1853   2.720   3.935   1.164
  318SOL    HW2 1854   2.725   4.089   1.217
  319SOL     OW 1855   0.764   0.875   6.156
  319SOL    HW1 1856   0.665   0.875   6.142
  319SOL    HW2 1857   0.785   0.844   6.248
  320SOL     OW 1858   5.451   3.200   1.653
  320SOL    HW1 1859   5.502   3.283   1.629
  320SOL    HW2 1860   5.410   3.212   1.744
  321SOL     OW 1861   2.150   1.449   2.199
  321SOL    HW1 1862   2.195   1.478   2.114
  321SOL    HW2 1863   2.202   1.483   2.277
  322SOL     OW 1864   3.450   2.756   5.253
  322SOL    HW1 1865   3.391   2.736   5.174
  322SOL    HW2 1866   3.448   2.678   5.316
  323SOL     OW 1867   1.464   4.224   1.712
  323SOL    HW1 1868   1.463   4.178   1.623
  323SOL    HW2 1869   1.547   4.279   1.721
  324SOL     OW 1870   0.121   2.957   3.995
  324SOL    HW1 1871   0.118   2.899   3.913
  324SOL    HW2 1872   0.168   2.908   4.068
  325SOL     OW 1873   1.907   2.208   2.629
  325SOL    HW1 1874   1.871   2.214   2.536
  325SOL    HW2 1875   1.972   2.282   2.645
  326SOL     OW 1876   1.984   4.248   4.623
  326SOL    HW1 1877   1.924   4.231   4.544
  326SOL    HW2 1878   2.029   4.163   4.649
  327SOL     OW 1879   6.518   3.508   6.193
  327SOL    HW1 1880   6.606   3.554   6.197
  327SOL    HW2 1881   6.452   3.557   6.251
  328SOL     OW 1882   3.328   5.644   3.330
  328SOL    HW1 1883   3.248   5.611   3.279
  328SOL    HW2 1884   3.312   5.738   3.359
  329SOL     OW 1885   3.579   4.077   2.036
  329SOL    HW1 1886   3.504   4.105   2.096
  329SOL    HW2 1887   3.665   4.083   2.087
  330SOL     OW 1888   2.552   2.315   1.660
  330SOL    HW1 1889   2.646   2.314   1.694
  330SOL    HW2 1890   2.543   2.385   1.589
  331SOL     OW 1891   6.462   4.136   5.713
  331SOL    HW1 1892   6.537   4.156   5.776
  331SOL    HW2 1893   6.418   4.050   5.739
  332SOL     OW 1894   3.723   1.781   3.698
  332SOL    HW1 1895   3.635   1.788   3.651
  332SOL    HW2 1896   3.797   1.796   3.633
  333SOL     OW 1897   4.615   6.324   1.005
  333SOL    HW1 1898   4.698   6.376   1.023
  333SOL    HW2 1899   4.598   6.321   0.906
  334SOL     OW 1900   4.743   6.442   2.886
  334SOL    HW1 1901   4.702   6.507   2.822
  334SOL    HW2 1902   4.731   6.476   2.980
  335SOL     OW 1903   3.189   0.504   2.162
  335SOL    HW1 1904   3.193   0.558   2.078
  335SOL    HW2 1905   3.245   0.422   2.151
  336SOL     OW 1906   3.792   0.697   4.671
  336SOL    HW1 1907   3.886   0.689   4.638
  336SOL    HW2 1908   3.772   0.622   4.733
  337SOL     OW 1909   1.137   4.201   2.531
  337SOL    HW1 1910   1.150   4.134   2.604
  337SOL    HW2 1911   1.215   4.198   2.468
  338SOL     OW 1912   2.193   2.362   0.969
  338SOL    HW1 1913   2.213   2.297   1.042
  338SOL    HW2 1914   2.133   2.434   1.005
  339SOL     OW 1915   4.409   0.870   3.266
  339SOL    HW1 1916   4.334   0.888   3.330
  339SOL    HW2 1917   4.397   0.926   3.184
  340SOL     OW 1918   5.430   3.577   4.552
  340SOL    HW1 1919   5.432   3.478   4.566
  340SOL    HW2 1920   5.411   3.623   4.639
  341SOL     OW 1921   4.516   4.380   5.718
  341SOL    HW1 1922   4.447   4.424   5.660
  341SOL    HW2 1923   4.490   4.390   5.814
  342SOL     OW 1924   5.842   3.322   0.791
  342SOL    HW1 1925   5.863   3.232   0.754
  342SOL    HW2 1926   5.748   3.323   0.825
  343SOL     OW 1927   2.652   0.408   2.339
  343SOL    HW1 1928   2.643   0.477   2.412
  343SOL    HW2 1929   2.582   0.425   2.269
  344SOL     OW 1930   3.460   6.989   7.009
  344SOL    HW1 1931   3.517   6.952   0.061
  344SOL    HW2 1932   3.489   6.950   6.922
  345SOL     OW 1933   1.435   0.871   5.032
  345SOL    HW1 1934   1.508   0.846   5.096
  345SOL    HW2 1935   1.385   0.789   5.004
  346SOL     OW 1936   2.476   0.725   5.377
  346SOL    HW1 1937   2.402   0.659   5.362
  346SOL    HW2 1938   2.539   0.689   5.445
  347SOL     OW 1939   5.276   6.135   5.758
  347SOL    HW1 1940   5.276   6.219   5.813
  347SOL    HW2 1941   5.341   6.070   5.797
  348SOL     OW 1942   3.188   6.712   3.369
  348SOL    HW1 1943   3.195   6.662   3.282
  348SOL    HW2 1944   3.189   6.647   3.445
  349SOL     OW 1945   2.256   5.300   1.991
  349SOL    HW1 1946   2.306   5.350   1.921
  349SOL    HW2 1947   2.310   5.222   2.021
  350SOL     OW 1948   4.919   3.422   1.444
  350SOL    HW1 1949   4.857   3.493   1.476
  350SOL    HW2 1950   4.970   3.455   1.365
  351SOL     OW 1951   3.415   1.556   0.778
  351SOL    HW1 1952   3.316   1.563   0.766
  351SOL    HW2 1953   3.460   1.634   0.735
  352SOL     OW 1954   2.923   1.880   6.353
  352SOL    HW1 1955   2.898   1.976   6.340
  352SOL    HW2 1956   2.863   1.822   6.296
  353SOL     OW 1957   2.155   0.087   1.242
  353SOL    HW1 1958   2.102   0.094   1.327
  353SOL    HW2 1959   2.243   0.043   1.261
  354SOL     OW 1960   4.827   0.221   2.461
  354SOL    HW1 1961   4.899   0.271   2.414
  354SOL    HW2 1962   4.765   0.285   2.506
  355SOL     OW 1963   0.863   0.790   2.210
  355SOL    HW1 1964   0.885   0.878   2.254
  355SOL    HW2 1965   0.854   0.719   2.279
  356SOL     OW 1966   3.033   0.033   2.949
  356SOL    HW1 1967   3.017   7.017   2.858
  356SOL    HW2 1968   3.131   0.040   2.965
  357SOL     OW 1969   1.114   5.165   4.435
  357SOL    HW1 1970   1.064   5.251   4.435
  357SOL    HW2 1971   1.140   5.141   4.529
  358SOL     OW 1972   4.947   0.680   3.491
  358SOL    HW1 1973   4.994   0.724   3.414
  358SOL    HW2 1974   4.856   0.720   3.502
  359SOL     OW 1975   0.435   1.513   0.564
  359SOL    HW1 1976   0.386   1.433   0.529
  359SOL    HW2 1977   0.377   1.595   0.554
  360SOL     OW 1978   5.186   6.941   6.878
  360SOL    HW1 1979   5.196   0.017   6.895
  360SOL    HW2 1980   5.276   6.902   6.856
  361SOL     OW 1981   2.801   0.601   2.129
  361SOL    HW1 1982   2.791   0.701   2.129
  361SOL    HW2 1983   2.771   0.564   2.217
  362SOL     OW 1984   3.023   3.777   0.396
  362SOL    HW1 1985   2.950   3.722   0.357
  362SOL    HW2 1986   3.087   3.717   0.445
  363SOL     OW 1987   4.842   4.650   4.057
  363SOL    HW1 1988   4.920   4.588   4.063
  363SOL    HW2 1989   4.873   4.741   4.029
  364SOL     OW 1990   2.711   5.668   6.555
  364SOL    HW1 1991   2.771   5.706   6.626
  364SOL    HW2 1992   2.749   5.582   6.522
  365SOL     OW 1993   5.111   6.445   2.985
  365SOL    HW1 1994   5.205   6.442   2.950
  365SOL    HW2 1995   5.066   6.527   2.951
  366SOL     OW 1996   5.227   1.430   0.049
  366SOL    HW1 1997   5.173   1.346   0.040
  366SOL    HW2 1998   5.182   1.492   0.114
  367SOL     OW 1999   6.233   2.346   2.332
  367SOL    HW1 2000   6.216   2.248   2.343
  367SOL    HW2 2001   6.249   2.367   2.235
  368SOL     OW 2002   6.987   5.283   4.819
  368SOL    HW1 2003   6.895   5.254   4.795
  368SOL    HW2 2004   0.017   5.299   4.736
  369SOL     OW 2005   1.130   3.905   2.022
  369SOL    HW1 2006   1.063   3.931   2.092
  369SOL    HW2 2007   1.218   3.948   2.042
  370SOL     OW 2008   3.722   1.888   6.430
  370SOL    HW1 2009   3.701   1.841   6.517
  370SOL    HW2 2010   3.654   1.861   6.362
  371SOL     OW 2011   3.499   2.584   6.543
  371SOL    HW1 2012   3.560   2.637   6.484
  371SOL    HW2 2013   3.405   2.614   6.529
  372SOL     OW 2014   2.091   5.655   0.241
  372SOL    HW1 2015   2.035   5.643   0.324
  372SOL    HW2 2016   2.049   5.605   0.166
  373SOL     OW 2017   6.401   6.964   6.732
  373SOL    HW1 2018   6.428   7.009   6.817
  373SOL    HW2 2019   6.354   6.878   6.754
  374SOL     OW 2020   5.380   0.886   0.435
  374SOL    HW1 2021   5.428   0.838   0.508
  374SOL    HW2 2022   5.318   0.955   0.474
  375SOL     OW 2023   6.861   4.021   1.775
  375SOL    HW1 2024   6.899   4.048   1.863
  375SOL    HW2 2025   6.771   4.064   1.762
  376SOL     OW 2026   2.416   4.208   5.287
  376SOL    HW1 2027   2.478   4.216   5.364
  376SOL    HW2 2028   2.414   4.113   5.255
  377SOL     OW 2029   4.673   0.961   4.058
  377SOL    HW1 2030   4.612   0.882   4.070
  377SOL    HW2 2031   4.717   0.956   3.969
  378SOL     OW 2032   5.004   2.265   5.708
  378SOL    HW1 2033   5.069   2.336   5.681
  378SOL    HW2 2034   4.964   2.224   5.626
  379SOL     OW 2035   6.325   3.009   0.880
  379SOL    HW1 2036   6.347   2.967   0.792
  379SOL    HW2 2037   6.406   3.009   0.938
  380SOL     OW 2038   0.621   2.579   6.918
  380SOL    HW1 2039   0.688   2.523   6.871
  380SOL    HW2 2040   0.650   2.593   7.013
  381SOL     OW 2041   4.318   4.923   0.246
  381SOL    HW1 2042   4.340   4.833   0.285
  381SOL    HW2 2043   4.224   4.946   0.269
  382SOL     OW 2044   2.042   5.632   6.690
  382SOL    HW1 2045   1.954   5.589   6.713
  382SOL    HW2 2046   2.114   5.595   6.749
  383SOL     OW 2047   6.038   1.789   6.930
  383SOL    HW1 2048   6.050   1.772   6.832
  383SOL    HW2 2049   6.053   1.886   6.949
  384SOL     OW 2050   1.672   5.456   4.610
  384SOL    HW1 2051   1.736   5.491   4.542
  384SOL    HW2 2052   1.679   5.510   4.694
  385SOL     OW 2053   4.631   4.611   0.912
  385SOL    HW1 2054   4.667   4.656   0.830
  385SOL    HW2 2055   4.537   4.583   0.896
  386SOL     OW 2056   2.512   5.848   4.684
  386SOL    HW1 2057   2.568   5.904   4.624
  386SOL    HW2 2058   2.570   5.785   4.735
  387SOL     OW 2059   0.400   0.550   5.433
  387SOL    HW1 2060   0.375   0.595   5.519
  387SOL    HW2 2061   0.426   0.455   5.452
  388SOL     OW 2062   0.025   2.141   4.377
  388SOL    HW1 2063   0.056   2.046   4.375
  388SOL    HW2 2064   6.968   2.151   4.316
  389SOL     OW 2065   4.965   3.242   2.788
  389SOL    HW1 2066   4.926   3.334   2.777
  389SOL    HW2 2067   5.035   3.228   2.718
  390SOL     OW 2068   3.394   2.895   0.349
  390SOL    HW1 2069   3.376   2.927   0.256
  390SOL    HW2 2070   3.350   2.806   0.362
  391SOL     OW 2071   3.850   3.736   3.679
  391SOL    HW1 2072   3.810   3.704   3.593
  391SOL    HW2 2073   3.780   3.733   3.751
  392SOL     OW 2074   1.797   3.304   1.899
  392SOL    HW1 2075   1.821   3.217   1.943
  392SOL    HW2 2076   1.871   3.369   1.912
  393SOL     OW 2077   1.197   6.029   1.101
  393SOL    HW1 2078   1.214   6.047   1.198
  393SOL    HW2 2079   1.274   5.976   1.063
  394SOL     OW 2080   6.108   1.459   6.115
  394SOL    HW1 2081   6.021   1.451   6.164
  394SOL    HW2 2082   6.163   1.531   6.158
  395SOL     OW 2083   6.225   5.337   6.514
  395SOL    HW1 2084   6.189   5.379   6.431
  395SOL    HW2 2085   6.259   5.408   6.576
  396SOL     OW 2086   0.492   0.988   1.232
  396SOL    HW1 2087   0.590   1.003   1.218
  396SOL    HW2 2088   0.479   0.909   1.291
  397SOL     OW 2089   4.678   1.989   4.830
  397SOL    HW1 2090   4.624   1.939   4.762
  397SOL    HW2 2091   4.769   2.009   4.793
  398SOL     OW 2092   0.031   1.387   2.893
  398SOL    HW1 2093   6.987   1.420   2.826
  398SOL    HW2 2094   0.061   1.296   2.867
  399SOL     OW 2095   6.170   5.811   4.276
  399SOL    HW1 2096   6.219   5.875   4.335
  399SOL    HW2 2097   6.147   5.729   4.329
  400SOL     OW 2098   6.859   6.332   3.285
  400SOL    HW1 2099   6.842   6.255   3.347
  400SOL    HW2 2100   6.794   6.405   3.304
  401SOL     OW 2101   1.249   6.135   5.012
  401SOL    HW1 2102   1.262   6.234   5.014
  401SOL    HW2 2103   1.200   6.109   4.929
  402SOL     OW 2104   6.116   1.268   4.343
  402SOL    HW1 2105   6.062   1.242   4.423
  402SOL    HW2 2106   6.069   1.341   4.293
  403SOL     OW 2107   2.671   2.001   5.408
  403SOL    HW1 2108   2.695   1.983   5.504
  403SOL    HW2 2109   2.581   2.045   5.404
  404SOL     OW 2110   3.072   5.830   3.549
  404SOL    HW1 2111   3.123   5.751   3.582
  404SOL    HW2 2112   2.987   5.840   3.601
  405SOL     OW 2113   2.761   4.859   3.919
  405SOL    HW1 2114   2.747   4.927   3.992
  405SOL    HW2 2115   2.686   4.864   3.853
  406SOL     OW 2116   1.219   0.427   0.401
  406SOL    HW1 2117   1.243   0.330   0.395
  406SOL    HW2 2118   1.279   0.480   0.341
  407SOL     OW 2119   2.153   3.873   4.098
  407SOL    HW1 2120   2.100   3.848   4.017
  407SOL    HW2 2121   2.181   3.790   4.146
  408SOL     OW 2122   2.731   2.178   1.909
  408SOL    HW1 2123   2.796   2.229   1.964
  408SOL    HW2 2124   2.727   2.217   1.817
  409SOL     OW 2125   0.140   2.417   1.834
  409SOL    HW1 2126   0.232   2.421   1.873
  409SOL    HW2 2127   0.087   2.346   1.880
  410SOL     OW 2128   1.840   3.276   2.340
  410SOL    HW1 2129   1.928   3.283   2.293
  410SOL    HW2 2130   1.770   3.326   2.288
  411SOL     OW 2131   6.817   1.163   1.352
  411SOL    HW1 2132   6.902   1.114   1.333
  411SOL    HW2 2133   6.815   1.248   1.300
  412SOL     OW 2134   2.420   4.378   3.004
  412SOL    HW1 2135   2.324   4.359   2.983
  412SOL    HW2 2136   2.427   4.412   3.098
  413SOL     OW 2137   6.654   5.054   3.302
  413SOL    HW1 2138   6.686   5.121   3.370
  413SOL    HW2 2139   6.732   5.002   3.268
  414SOL     OW 2140   2.273   0.018   2.366
  414SOL    HW1 2141   2.357   0.072   2.361
  414SOL    HW2 2142   2.198   0.070   2.325
  415SOL     OW 2143   6.004   3.252   1.346
  415SOL    HW1 2144   6.066   3.237   1.268
  415SOL    HW2 2145   6.052   3.230   1.431
  416SOL     OW 2146   6.058   3.266   6.963
  416SOL    HW1 2147   6.045   3.365   6.968
  416SOL    HW2 2148   6.035   3.225   0.029
  417SOL     OW 2149   2.323   2.572   5.921
  417SOL    HW1 2150   2.305   2.481   5.883
  417SOL    HW2 2151   2.285   2.642   5.860
  418SOL     OW 2152   4.608   5.615   6.280
  418SOL    HW1 2153   4.517   5.630   6.242
  418SOL    HW2 2154   4.602   5.558   6.362
  419SOL     OW 2155   5.590   6.997   0.641
  419SOL    HW1 2156   5.559   6.933   0.571
  419SOL    HW2 2157   5.517   0.040   0.662
  420SOL     OW 2158   3.005   6.681   0.959
  420SOL    HW1 2159   3.101   6.707   0.966
  420SOL    HW2 2160   2.986   6.647   0.867
  421SOL     OW 2161   5.046   4.410   3.008
  421SOL    HW1 2162   4.980   4.392   3.081
  421SOL    HW2 2163   5.107   4.483   3.035
  422SOL     OW 2164   4.071   1.501   2.216
  422SOL    HW1 2165   4.059   1.600   2.226
  422SOL    HW2 2166   3.982   1.456   2.216
  423SOL     OW 2167   2.505   1.178   5.803
  423SOL    HW1 2168   2.444   1.151   5.877
  423SOL    HW2 2169   2.562   1.254   5.833
  424SOL     OW 2170   1.635   4.667   4.205
  424SOL    HW1 2171   1.671   4.686   4.114
  424SOL    HW2 2172   1.538   4.688   4.208
  425SOL     OW 2173   3.565   1.498   6.602
  425SOL    HW1 2174   3.557   1.422   6.537
  425SOL    HW2 2175   3.603   1.464   6.688
  426SOL     OW 2176   2.402   2.604   3.095
  426SOL    HW1 2177   2.409   2.603   2.995
  426SOL    HW2 2178   2.346   2.681   3.124
  427SOL     OW 2179   4.425   1.272   4.579
  427SOL    HW1 2180   4.459   1.184   4.611
  427SOL    HW2 2181   4.392   1.264   4.485
  428SOL     OW 2182   2.296   1.886   6.235
  428SOL    HW1 2183   2.229   1.905   6.163
  428SOL    HW2 2184   2.327   1.791   6.228
  429SOL     OW 2185   0.044   6.942   3.511
  429SOL    HW1 2186   0.139   6.970   3.498
  429SOL    HW2 2187   7.006   7.015   3.481
  430SOL     OW 2188   1.506   1.310   3.441
  430SOL    HW1 2189   1.573   1.375   3.477
  430SOL    HW2 2190   1.419   1.322   3.488
  431SOL     OW 2191   2.929   1.091   1.780
  431SOL    HW1 2192   2.928   1.056   1.687
  431SOL    HW2 2193   2.901   1.187   1.780
  432SOL     OW 2194   5.909   1.772   1.988
  432SOL    HW1 2195   5.814   1.738   1.992
  432SOL    HW2 2196   5.954   1.754   2.076
  433SOL     OW 2197   2.093   3.529   6.638
  433SOL    HW1 2198   2.126   3.483   6.555
  433SOL    HW2 2199   1.994   3.537   6.634
  434SOL     OW 2200   3.593   5.588   2.698
  434SOL    HW1 2201   3.655   5.513   2.673
  434SOL    HW2 2202   3.645   5.672   2.710
  435SOL     OW 2203   2.500   2.599   6.581
  435SOL    HW1 2204   2.459   2.683   6.617
  435SOL    HW2 2205   2.480   2.592   6.483
  436SOL     OW 2206   5.407   6.107   2.331
  436SOL    HW1 2207   5.432   6.037   2.398
  436SOL    HW2 2208   5.358   6.181   2.378
  437SOL     OW 2209   0.172   1.390   5.613
  437SOL    HW1 2210   0.216   1.370   5.526
  437SOL    HW2 2211   0.235   1.443   5.670
  438SOL     OW 2212   0.550   3.694   1.661
  438SOL    HW1 2213   0.582   3.699   1.566
  438SOL    HW2 2214   0.505   3.779   1.685
  439SOL     OW 2215   0.893   1.411   6.812
  439SOL    HW1 2216   0.972   1.349   6.803
  439SOL    HW2 2217   0.893   1.476   6.737
  440SOL     OW 2218   3.742   1.649   1.256
  440SOL    HW1 2219   3.714   1.736   1.296
  440SOL    HW2 2220   3.825   1.617   1.303
  441SOL     OW 2221   1.256   4.599   2.948
  441SOL    HW1 2222   1.274   4.582   2.851
  441SOL    HW2 2223   1.342   4.591   2.999
  442SOL     OW 2224   2.951   3.277   4.559
  442SOL    HW1 2225   2.900   3.205   4.512
  442SOL    HW2 2226   2.922   3.366   4.525
  443SOL     OW 2227   4.945   2.721   1.824
  443SOL    HW1 2228   4.981   2.639   1.782
  443SOL    HW2 2229   5.009   2.797   1.811
  444SOL     OW 2230   4.404   2.282   0.873
  444SOL    HW1 2231   4.397   2.300   0.775
  444SOL    HW2 2232   4.366   2.359   0.924
  445SOL     OW 2233   2.209   5.982   3.917
  445SOL    HW1 2234   2.190   5.954   3.823
  445SOL    HW2 2235   2.143   6.052   3.945
  446SOL     OW 2236   0.296   6.908   0.404
  446SOL    HW1 2237   0.258   6.877   0.491
  446SOL    HW2 2238   0.386   6.869   0.390
  447SOL     OW 2239   6.379   3.503   0.537
  447SOL    HW1 2240   6.343   3.459   0.620
  447SOL    HW2 2241   6.418   3.434   0.476
  448SOL     OW 2242   3.764   6.926   4.615
  448SOL    HW1 2243   3.862   6.930   4.637
  448SOL    HW2 2244   3.750   6.957   4.521
  449SOL     OW 2245   0.932   4.263   4.921
  449SOL    HW1 2246   0.954   4.201   4.846
  449SOL    HW2 2247   0.944   4.358   4.892
  450SOL     OW 2248   6.483   3.707   3.944
  450SOL    HW1 2249   6.477   3.628   4.005
  450SOL    HW2 2250   6.578   3.740   3.941
  451SOL     OW 2251   2.672   1.578   6.289
  451SOL    HW1 2252   2.587   1.525   6.290
  451SOL    HW2 2253   2.750   1.516   6.284
  452SOL     OW 2254   4.601   4.835   1.175
  452SOL    HW1 2255   4.552   4.910   1.130
  452SOL    HW2 2256   4.665   4.794   1.110
  453SOL     OW 2257   4.283   0.993   0.439
  453SOL    HW1 2258   4.295   1.030   0.347
  453SOL    HW2 2259   4.207   0.928   0.439
  454SOL     OW 2260   0.059   3.211   4.084
  454SOL    HW1 2261   0.083   3.126   4.038
  454SOL    HW2 2262   0.012   3.191   4.170
  455SOL     OW 2263   5.734   5.444   0.293
  455SOL    HW1 2264   5.656   5.505   0.282
  455SOL    HW2 2265   5.760   5.406   0.205
  456SOL     OW 2266   1.406   0.955   3.335
  456SOL    HW1 2267   1.418   1.045   3.293
  456SOL    HW2 2268   1.311   0.926   3.326
  457SOL     OW 2269   3.035   5.829   0.883
  457SOL    HW1 2270   2.973   5.785   0.818
  457SOL    HW2 2271   2.987   5.845   0.969
  458SOL     OW 2272   2.971   1.388   3.992
  458SOL    HW1 2273   2.892   1.329   4.007
  458SOL    HW2 2274   3.006   1.419   4.081
  459SOL     OW 2275   3.013   1.589   3.804
  459SOL    HW1 2276   3.070   1.553   3.731
  459SOL    HW2 2277   3.008   1.523   3.878
  460SOL     OW 2278   1.380   1.497   6.836
  460SOL    HW1 2279   1.369   1.469   6.740
  460SOL    HW2 2280   1.311   1.452   6.892
  461SOL     OW 2281   1.239   6.903   4.329
  461SOL    HW1 2282   1.298   6.975   4.367
  461SOL    HW2 2283   1.150   6.906   4.374
  462SOL     OW 2284   3.648   3.974   5.430
  462SOL    HW1 2285   3.582   4.046   5.452
  462SOL    HW2 2286   3.725   4.015   5.380
  463SOL     OW 2287   5.976   6.457   2.989
  463SOL    HW1 2288   5.943   6.376   3.036
  463SOL    HW2 2289   5.956   6.538   3.044
  464SOL     OW 2290   4.300   6.122   4.908
  464SOL    HW1 2291   4.267   6.212   4.882
  464SOL    HW2 2292   4.224   6.056   4.903
  465SOL     OW 2293   0.384   5.505   0.816
  465SOL    HW1 2294   0.437   5.510   0.731
  465SOL    HW2 2295   0.311   5.437   0.805
  466SOL     OW 2296   3.600   4.941   3.737
  466SOL    HW1 2297   3.641   4.946   3.828
  466SOL    HW2 2298   3.511   4.987   3.739
  467SOL     OW 2299   0.026   6.887   1.193
  467SOL    HW1 2300   0.022   6.958   1.263
  467SOL    HW2 2301   0.106   6.830   1.208
  468SOL     OW 2302   2.636   6.639   6.765
  468SOL    HW1 2303   2.695   6.698   6.820
  468SOL    HW2 2304   2.566   6.599   6.824
  469SOL     OW 2305   4.207   4.992   5.289
  469SOL    HW1 2306   4.152   4.958   5.213
  469SOL    HW2 2307   4.288   4.934   5.301
  470SOL     OW 2308   2.898   5.114   2.135
  470SOL    HW1 2309   2.998   5.113   2.132
  470SOL    HW2 2310   2.862   5.102   2.042
  471SOL     OW 2311   1.457   2.535   4.274
  471SOL    HW1 2312   1.446   2.435   4.278
  471SOL    HW2 2313   1.382   2.574   4.220
  472SOL     OW 2314   4.963   3.597   6.789
  472SOL    HW1 2315   4.966   3.560   6.696
  472SOL    HW2 2316   4.874   3.638   6.807
  473SOL     OW 2317   5.560   3.482   1.892
  473SOL    HW1 2318   5.550   3.532   1.978
  473SOL    HW2 2319   5.648   3.504   1.851
  474SOL     OW 2320   4.820   5.092   3.762
  474SOL    HW1 2321   4.859   5.183   3.769
  474SOL    HW2 2322   4.733   5.096   3.712
  475SOL     OW 2323   4.647   1.590   0.667
  475SOL    HW1 2324   4.628   1.638   0.752
  475SOL    HW2 2325   4.594   1.505   0.664
  476SOL     OW 2326   1.190   3.108   0.226
  476SOL    HW1 2327   1.155   3.096   0.134
  476SOL    HW2 2328   1.146   3.043   0.288
  477SOL     OW 2329   5.796   5.970   4.353
  477SOL    HW1 2330   5.881   6.021   4.339
  477SOL    HW2 2331   5.805   5.879   4.313
  478SOL     OW 2332   6.574   5.096   1.448
  478SOL    HW1 2333   6.487   5.081   1.401
  478SOL    HW2 2334   6.556   5.136   1.538
  479SOL     OW 2335   3.693   3.701   2.692
  479SOL    HW1 2336   3.653   3.615   2.723
  479SOL    HW2 2337   3.716   3.758   2.770
  480SOL     OW 2338   0.117   0.198   1.793
  480SOL    HW1 2339   0.122   0.141   1.876
  480SOL    HW2 2340   0.191   0.266   1.795
  481SOL     OW 2341   6.309   6.389   0.886
  481SOL    HW1 2342   6.345   6.313   0.940
  481SOL    HW2 2343   6.214   6.405   0.911
  482SOL     OW 2344   3.805   4.935   2.965
  482SOL    HW1 2345   3.763   4.923   2.876
  482SOL    HW2 2346   3.734   4.942   3.035
  483SOL     OW 2347   6.094   2.324   4.942
  483SOL    HW1 2348   6.103   2.388   4.866
  483SOL    HW2 2349   6.164   2.343   5.010
  484SOL     OW 2350   2.689   5.436   3.818
  484SOL    HW1 2351   2.720   5.361   3.877
  484SOL    HW2 2352   2.637   5.502   3.873
  485SOL     OW 2353   4.720   2.553   1.133
  485SOL    HW1 2354   4.707   2.464   1.177
  485SOL    HW2 2355   4.647   2.615   1.163
  486SOL     OW 2356   6.063   6.414   5.138
  486SOL    HW1 2357   5.991   6.482   5.151
  486SOL    HW2 2358   6.028   6.338   5.082
  487SOL     OW 2359   6.413   0.985   6.888
  487SOL    HW1 2360   6.373   1.028   6.807
  487SOL    HW2 2361   6.342   0.936   6.938
  488SOL     OW 2362   1.519   6.210   4.015
  488SOL    HW1 2363   1.490   6.230   4.108
  488SOL    HW2 2364   1.555   6.293   3.972
  489SOL     OW 2365   2.585   4.567   5.549
  489SOL    HW1 2366   2.543   4.489   5.501
  489SOL    HW2 2367   2.622   4.630   5.481
  490SOL     OW 2368   1.042   3.759   5.000
  490SOL    HW1 2369   1.079   3.795   4.915
  490SOL    HW2 2370   1.009   3.834   5.057
  491SOL     OW 2371   6.271   3.343   1.477
  491SOL    HW1 2372   6.208   3.290   1.534
  491SOL    HW2 2373   6.270   3.439   1.506
  492SOL     OW 2374   1.433   2.672   5.794
  492SOL    HW1 2375   1.440   2.763   5.835
  492SOL    HW2 2376   1.429   2.604   5.867
  493SOL     OW 2377   1.733   5.540   4.124
  493SOL    HW1 2378   1.636   5.540   4.149
  493SOL    HW2 2379   1.766   5.446   4.115
  494SOL     OW 2380   2.887   0.242   2.715
  494SOL    HW1 2381   2.949   0.293   2.656
  494SOL    HW2 2382   2.842   0.306   2.778
  495SOL     OW 2383   4.154   4.496   0.049
  495SOL    HW1 2384   4.222   4.475   7.001
  495SOL    HW2 2385   4.183   4.458   0.136
  496SOL     OW 2386   4.863   6.848   3.006
  496SOL    HW1 2387   4.894   6.904   3.083
  496SOL    HW2 2388   4.819   6.765   3.041
  497SOL     OW 2389   4.652   2.984   1.219
  497SOL    HW1 2390   4.580   3.027   1.272
  497SOL    HW2 2391   4.640   2.884   1.221
  498SOL     OW 2392   1.207   6.976   0.931
  498SOL    HW1 2393   1.216   0.053   0.942
  498SOL    HW2 2394   1.152   6.938   1.005
  499SOL     OW 2395   2.994   6.774   6.311
  499SOL    HW1 2396   3.041   6.774   6.223
  499SOL    HW2 2397   2.895   6.762   6.296
  500SOL     OW 2398   6.268   1.265   6.015
  500SOL    HW1 2399   6.187   1.302   6.060
  500SOL    HW2 2400   6.291   1.320   5.935
  501SOL     OW 2401   1.546   2.201   4.412
  501SOL    HW1 2402   1.524   2.171   4.505
  501SOL    HW2 2403   1.645   2.206   4.401
  502SOL     OW 2404   3.186   3.037   6.987
  502SOL    HW1 2405   3.180   3.110   6.919
  502SOL    HW2 2406   3.117   3.051   0.035
  503SOL     OW 2407   4.067   5.689   1.571
  503SOL    HW1 2408   3.977   5.724   1.598
  503SOL    HW2 2409   4.063   5.661   1.475
  504SOL     OW 2410   5.955   0.760   7.000
  504SOL    HW1 2411   5.899   0.835   6.963
  504SOL    HW2 2412   6.052   0.786   6.997
  505SOL     OW 2413   0.157   4.080   5.601
  505SOL    HW1 2414   0.117   4.048   5.687
  505SOL    HW2 2415   0.256   4.070   5.605
  506SOL     OW 2416   2.892   5.773   2.096
  506SOL    HW1 2417   2.830   5.727   2.160
  506SOL    HW2 2418   2.977   5.796   2.143
  507SOL     OW 2419   2.606   0.117   3.747
  507SOL    HW1 2420   2.601   0.081   3.654
  507SOL    HW2 2421   2.550   0.200   3.754
  508SOL     OW 2422   0.559   4.917   2.598
  508SOL    HW1 2423   0.533   4.975   2.676
  508SOL    HW2 2424   0.583   4.826   2.631
  509SOL     OW 2425   4.943   0.768   6.183
  509SOL    HW1 2426   4.995   0.782   6.099
  509SOL    HW2 2427   4.990   0.814   6.259
  510SOL     OW 2428   6.652   4.825   0.229
  510SOL    HW1 2429   6.559   4.857   0.217
  510SOL    HW2 2430   6.676   4.762   0.155
  511SOL     OW 2431   6.984   2.172   0.643
  511SOL    HW1 2432   0.007   2.136   0.724
  511SOL    HW2 2433   0.027   2.178   0.568
  512SOL     OW 2434   1.711   1.683   4.900
  512SOL    HW1 2435   1.708   1.609   4.833
  512SOL    HW2 2436   1.697   1.646   4.991
  513SOL     OW 2437   5.977   5.684   2.482
  513SOL    HW1 2438   5.966   5.585   2.487
  513SOL    HW2 2439   5.917   5.728   2.549
  514SOL     OW 2440   5.125   1.195   4.638
  514SOL    HW1 2441   5.109   1.293   4.626
  514SOL    HW2 2442   5.075   1.163   4.718
  515SOL     OW 2443   3.236   0.677   6.659
  515SOL    HW1 2444   3.250   0.582   6.687
  515SOL    HW2 2445   3.239   0.683   6.559
  516SOL     OW 2446   0.433   5.758   2.859
  516SOL    HW1 2447   0.522   5.782   2.821
  516SOL    HW2 2448   0.374   5.838   2.859
  517SOL     OW 2449   3.441   5.377   0.610
  517SOL    HW1 2450   3.516   5.355   0.673
  517SOL    HW2 2451   3.354   5.354   0.653
  518SOL     OW 2452   2.079   0.363   3.937
  518SOL    HW1 2453   2.051   0.290   3.875
  518SOL    HW2 2454   1.998   0.401   3.983
  519SOL     OW 2455   6.931   6.597   3.143
  519SOL    HW1 2456   7.000   6.664   3.116
  519SOL    HW2 2457   6.968   6.538   3.215
  520SOL     OW 2458   3.490   5.652   0.639
  520SOL    HW1 2459   3.481   5.552   0.642
  520SOL    HW2 2460   3.421   5.690   0.578
  521SOL     OW 2461   0.159   6.905   5.222
  521SOL    HW1 2462   0.226   6.832   5.207
  521SOL    HW2 2463   0.197   6.992   5.188
  522SOL     OW 2464   3.485   5.229   6.424
  522SOL    HW1 2465   3.501   5.327   6.414
  522SOL    HW2 2466   3.542   5.179   6.359
  523SOL     OW 2467   1.872   6.656   6.071
  523SOL    HW1 2468   1.809   6.724   6.108
  523SOL    HW2 2469   1.834   6.565   6.082
  524SOL     OW 2470   6.868   1.509   1.537
  524SOL    HW1 2471   6.881   1.539   1.632
  524SOL    HW2 2472   6.813   1.577   1.489
  525SOL     OW 2473   0.523   3.048   3.324
  525SOL    HW1 2474   0.433   3.054   3.365
  525SOL    HW2 2475   0.521   3.085   3.231
  526SOL     OW 2476   4.144   5.906   4.606
  526SOL    HW1 2477   4.190   5.827   4.565
  526SOL    HW2 2478   4.056   5.922   4.560
  527SOL     OW 2479   6.523   1.364   0.541
  527SOL    HW1 2480   6.570   1.297   0.599
  527SOL    HW2 2481   6.425   1.364   0.561
  528SOL     OW 2482   6.934   1.298   3.711
  528SOL    HW1 2483   6.944   1.376   3.649
  528SOL    HW2 2484   6.867   1.321   3.782
  529SOL     OW 2485   0.803   1.523   5.642
  529SOL    HW1 2486   0.759   1.509   5.731
  529SOL    HW2 2487   0.816   1.621   5.627
  530SOL     OW 2488   3.360   4.462   1.666
  530SOL    HW1 2489   3.366   4.367   1.697
  530SOL    HW2 2490   3.407   4.522   1.731
  531SOL     OW 2491   0.257   1.556   5.826
  531SOL    HW1 2492   0.306   1.605   5.897
  531SOL    HW2 2493   0.203   1.620   5.771
  532SOL     OW 2494   3.649   0.922   0.103
  532SOL    HW1 2495   3.616   0.851   0.040
  532SOL    HW2 2496   3.582   0.996   0.108
  533SOL     OW 2497   3.407   6.847   4.630
  533SOL    HW1 2498   3.431   6.944   4.632
  533SOL    HW2 2499   3.366   6.821   4.718
  534SOL     OW 2500   2.119   4.249   1.197
  534SOL    HW1 2501   2.123   4.340   1.157
  534SOL    HW2 2502   2.038   4.241   1.255
  535SOL     OW 2503   4.792   4.063   3.299
  535SOL    HW1 2504   4.732   4.140   3.319
  535SOL    HW2 2505   4.881   4.078   3.342
  536SOL     OW 2506   6.526   0.301   1.012
  536SOL    HW1 2507   6.431   0.333   1.005
  536SOL    HW2 2508   6.566   0.336   1.097
  537SOL     OW 2509   2.929   2.057   2.355
  537SOL    HW1 2510   2.999   2.072   2.425
  537SOL    HW2 2511   2.945   1.969   2.310
  538SOL     OW 2512   4.106   5.666   6.262
  538SOL    HW1 2513   4.089   5.568   6.271
  538SOL    HW2 2514   4.120   5.689   6.165
  539SOL     OW 2515   2.787   7.002   0.035
  539SOL    HW1 2516   2.856   0.050   0.020
  539SOL    HW2 2517   2.727   0.007   0.110
  540SOL     OW 2518   2.119   1.495   5.388
  540SOL    HW1 2519   2.159   1.581   5.358
  540SOL    HW2 2520   2.085   1.444   5.309
  541SOL     OW 2521   5.938   5.778   2.055
  541SOL    HW1 2522   5.892   5.855   2.013
  541SOL    HW2 2523   6.003   5.811   2.124
  542SOL     OW 2524   4.099   5.774   5.977
  542SOL    HW1 2525   4.052   5.859   6.004
  542SOL    HW2 2526   4.116   5.775   5.879
  543SOL     OW 2527   6.788   1.687   4.876
  543SOL    HW1 2528   6.869   1.731   4.838
  543SOL    HW2 2529   6.781   1.593   4.842
  544SOL     OW 2530   1.070   2.158   1.120
  544SOL    HW1 2531   0.994   2.137   1.182
  544SOL    HW2 2532   1.064   2.100   1.039
  545SOL     OW 2533   0.133   5.422   0.523
  545SOL    HW1 2534   0.054   5.428   0.463
  545SOL    HW2 2535   0.216   5.418   0.468
  546SOL     OW 2536   6.672   6.079   2.699
  546SOL    HW1 2537   6.621   6.099   2.783
  546SOL    HW2 2538   6.659   6.154   2.634
  547SOL     OW 2539   3.609   6.141   6.984
  547SOL    HW1 2540   3.549   6.205   6.936
  547SOL    HW2 2541   3.691   6.124   6.928
  548SOL     OW 2542   4.304   3.174   6.419
  548SOL    HW1 2543   4.288   3.149   6.514
  548SOL    HW2 2544   4.402   3.167   6.399
  549SOL     OW 2545   5.410   2.575   4.021
  549SOL    HW1 2546   5.454   2.592   4.109
  549SOL    HW2 2547   5.425   2.653   3.960
  550SOL     OW 2548   0.198   5.437   3.913
  550SOL    HW1 2549   0.286   5.402   3.883
  550SOL    HW2 2550   0.139   5.451   3.833
  551SOL     OW 2551   5.569   0.874   0.229
  551SOL    HW1 2552   5.485   0.877   0.284
  551SOL    HW2 2553   5.551   0.824   0.144
  552SOL     OW 2554   0.801   0.418   4.293
  552SOL    HW1 2555   0.781   0.390   4.387
  552SOL    HW2 2556   0.827   0.338   4.239
  553SOL     OW 2557   4.051   2.145   5.407
  553SOL    HW1 2558   4.062   2.108   5.500
  553SOL    HW2 2559   4.083   2.240   5.405
  554SOL     OW 2560   0.314   4.939   0.421
  554SOL    HW1 2561   0.287   4.979   0.334
  554SOL    HW2 2562   0.343   5.011   0.484
  555SOL     OW 2563   4.095   5.075   5.975
  555SOL    HW1 2564   4.160   5.012   6.017
  555SOL    HW2 2565   4.123   5.169   5.993
  556SOL     OW 2566   5.606   6.120   3.156
  556SOL    HW1 2567   5.591   6.206   3.206
  556SOL    HW2 2568   5.530   6.106   3.092
  557SOL     OW 2569   6.714   3.508   0.322
  557SOL    HW1 2570   6.750   3.422   0.356
  557SOL    HW2 2571   6.760   3.584   0.367
  558SOL     OW 2572   3.568   3.553   1.949
  558SOL    HW1 2573   3.574   3.518   2.043
  558SOL    HW2 2574   3.471   3.565   1.925
  559SOL     OW 2575   6.067   0.956   6.190
  559SOL    HW1 2576   6.080   0.971   6.288
  559SOL    HW2 2577   6.048   0.860   6.173
  560SOL     OW 2578   1.655   2.464   2.866
  560SOL    HW1 2579   1.602   2.433   2.945
  560SOL    HW2 2580   1.750   2.477   2.894
  561SOL     OW 2581   6.634   4.428   0.460
  561SOL    HW1 2582   6.715   4.387   0.502
  561SOL    HW2 2583   6.628   4.524   0.487
  562SOL     OW 2584   3.079   6.235   3.454
  562SOL    HW1 2585   3.064   6.324   3.412
  562SOL    HW2 2586   3.168   6.234   3.500
  563SOL     OW 2587   0.875   0.932   4.323
  563SOL    HW1 2588   0.888   0.889   4.412
  563SOL    HW2 2589   0.785   0.909   4.287
  564SOL     OW 2590   6.205   1.960   5.957
  564SOL    HW1 2591   6.245   1.925   5.872
  564SOL    HW2 2592   6.121   2.010   5.936
  565SOL     OW 2593   3.537   3.487   3.699
  565SOL    HW1 2594   3.583   3.399   3.698
  565SOL    HW2 2595   3.439   3.474   3.715
  566SOL     OW 2596   1.135   2.644   3.520
  566SOL    HW1 2597   1.046   2.597   3.516
  566SOL    HW2 2598   1.135   2.708   3.597
  567SOL     OW 2599   1.628   3.229   5.174
  567SOL    HW1 2600   1.709   3.180   5.139
  567SOL    HW2 2601   1.628   3.226   5.274
  568SOL     OW 2602   1.095   0.425   6.626
  568SOL    HW1 2603   1.025   0.371   6.672
  568SOL    HW2 2604   1.054   0.479   6.553
  569SOL     OW 2605   5.254   3.324   5.226
  569SOL    HW1 2606   5.305   3.267   5.290
  569SOL    HW2 2607   5.267   3.420   5.249
  570SOL     OW 2608   3.058   0.370   5.422
  570SOL    HW1 2609   2.963   0.398   5.434
  570SOL    HW2 2610   3.112   0.396   5.502
  571SOL     OW 2611   2.045   4.093   2.423
  571SOL    HW1 2612   2.107   4.081   2.501
  571SOL    HW2 2613   1.950   4.084   2.454
  572SOL     OW 2614   2.241   1.515   4.494
  572SOL    HW1 2615   2.274   1.580   4.426
  572SOL    HW2 2616   2.310   1.503   4.566
  573SOL     OW 2617   0.649   0.020   5.922
  573SOL    HW1 2618   0.557   0.002   5.955
  573SOL    HW2 2619   0.649   0.104   5.867
  574SOL     OW 2620   2.485   0.779   5.751
  574SOL    HW1 2621   2.562   0.762   5.691
  574SOL    HW2 2622   2.400   0.770   5.699
  575SOL     OW 2623   4.103   3.919   0.318
  575SOL    HW1 2624   4.022   3.878   0.360
  575SOL    HW2 2625   4.089   3.929   0.220
  576SOL     OW 2626   6.992   0.521   3.858
  576SOL    HW1 2627   6.921   0.502   3.926
  576SOL    HW2 2628   0.007   0.435   3.824
  577SOL     OW 2629   0.127   0.092   2.308
  577SOL    HW1 2630   0.199   0.023   2.305
  577SOL    HW2 2631   0.078   0.085   2.394
  578SOL     OW 2632   4.150   6.832   0.768
  578SOL    HW1 2633   4.116   6.841   0.861
  578SOL    HW2 2634   4.198   6.744   0.758
  579SOL     OW 2635   0.558   4.068   1.896
  579SOL    HW1 2636   0.582   3.975   1.921
  579SOL    HW2 2637   0.642   4.122   1.886
  580SOL     OW 2638   4.637   4.786   4.789
  580SOL    HW1 2639   4.642   4.832   4.701
  580SOL    HW2 2640   4.610   4.852   4.859
  581SOL     OW 2641   2.711   2.380   3.615
  581SOL    HW1 2642   2.736   2.349   3.523
  581SOL    HW2 2643   2.794   2.391   3.670
  582SOL     OW 2644   5.399   4.137   4.804
  582SOL    HW1 2645   5.329   4.209   4.798
  582SOL    HW2 2646   5.391   4.090   4.892
  583SOL     OW 2647   2.933   5.834   5.572
  583SOL    HW1 2648   2.846   5.819   5.620
  583SOL    HW2 2649   3.002   5.864   5.637
  584SOL     OW 2650   3.806   0.617   5.430
  584SOL    HW1 2651   3.868   0.608   5.352
  584SOL    HW2 2652   3.712   0.603   5.400
  585SOL     OW 2653   3.930   6.507   1.845
  585SOL    HW1 2654   3.841   6.550   1.864
  585SOL    HW2 2655   3.970   6.549   1.764
  586SOL     OW 2656   3.629   6.982   0.623
  586SOL    HW1 2657   3.720   7.011   0.653
  586SOL    HW2 2658   3.586   6.928   0.695
  587SOL     OW 2659   4.843   0.601   3.049
  587SOL    HW1 2660   4.908   0.677   3.043
  587SOL    HW2 2661   4.876   0.525   2.993
  588SOL     OW 2662   2.170   3.942   2.775
  588SOL    HW1 2663   2.183   3.957   2.873
  588SOL    HW2 2664   2.218   4.013   2.724
  589SOL     OW 2665   3.545   4.620   5.845
  589SOL    HW1 2666   3.535   4.650   5.940
  589SOL    HW2 2667   3.478   4.667   5.788
  590SOL     OW 2668   2.392   1.639   6.137
  590SOL    HW1 2669   2.422   1.558   6.187
  590SOL    HW2 2670   2.307   1.619   6.090
  591SOL     OW 2671   2.861   0.193   4.044
  591SOL    HW1 2672   2.917   0.190   4.127
  591SOL    HW2 2673   2.835   0.100   4.018
  592SOL     OW 2674   4.384   1.868   4.277
  592SOL    HW1 2675   4.398   1.873   4.376
  592SOL    HW2 2676   4.470   1.885   4.230
  593SOL     OW 2677   1.540   0.012   0.085
  593SOL    HW1 2678   1.503   0.002   7.016
  593SOL    HW2 2679   1.472   7.006   0.153
  594SOL     OW 2680   3.122   1.515   5.240
  594SOL    HW1 2681   3.206   1.462   5.254
  594SOL    HW2 2682   3.043   1.458   5.260
  595SOL     OW 2683   5.777   4.114   2.629
  595SOL    HW1 2684   5.701   4.050   2.619
  595SOL    HW2 2685   5.838   4.082   2.701
  596SOL     OW 2686   6.273   4.775   4.527
  596SOL    HW1 2687   6.274   4.866   4.567
  596SOL    HW2 2688   6.181   4.755   4.491
  597SOL     OW 2689   4.070   1.807   6.599
  597SOL    HW1 2690   4.108   1.866   6.528
  597SOL    HW2 2691   4.117   1.719   6.599
  598SOL     OW 2692   3.051   3.044   2.117
  598SOL    HW1 2693   3.094   3.003   2.198
  598SOL    HW2 2694   3.044   2.975   2.045
  599SOL     OW 2695   1.749   4.866   1.320
  599SOL    HW1 2696   1.685   4.832   1.389
  599SOL    HW2 2697   1.815   4.793   1.298
  600SOL     OW 2698   0.096   3.299   5.676
  600SOL    HW1 2699   0.183   3.337   5.707
  600SOL    HW2 2700   0.089   3.204   5.706
  601SOL     OW 2701   6.894   0.082   5.829
  601SOL    HW1 2702   6.863   0.045   5.916
  601SOL    HW2 2703   6.960   0.156   5.846
  602SOL     OW 2704   0.515   0.681   3.327
  602SOL    HW1 2705   0.421   0.694   3.360
  602SOL    HW2 2706   0.555   0.770   3.306
  603SOL     OW 2707   1.342   1.712   3.830
  603SOL    HW1 2708   1.382   1.669   3.911
  603SOL    HW2 2709   1.246   1.685   3.822
  604SOL     OW 2710   5.532   1.938   0.841
  604SOL    HW1 2711   5.473   1.870   0.799
  604SOL    HW2 2712   5.557   2.008   0.774
  605SOL     OW 2713   5.432   6.550   1.933
  605SOL    HW1 2714   5.371   6.477   1.902
  605SOL    HW2 2715   5.382   6.637   1.935
  606SOL     OW 2716   3.028   6.605   5.498
  606SOL    HW1 2717   3.084   6.610   5.580
  606SOL    HW2 2718   2.999   6.697   5.472
  607SOL     OW 2719   1.709   3.382   6.240
  607SOL    HW1 2720   1.691   3.480   6.249
  607SOL    HW2 2721   1.742   3.345   6.327
  608SOL     OW 2722   3.072   1.056   6.664
  608SOL    HW1 2723   3.040   1.147   6.641
  608SOL    HW2 2724   3.145   1.029   6.600
  609SOL     OW 2725   4.081   3.287   2.608
  609SOL    HW1 2726   4.092   3.284   2.708
  609SOL    HW2 2727   3.985   3.302   2.586
  610SOL     OW 2728   5.575   2.586   1.912
  610SOL    HW1 2729   5.627   2.501   1.909
  610SOL    HW2 2730   5.572   2.621   2.006
  611SOL     OW 2731   3.639   1.504   2.097
  611SOL    HW1 2732   3.714   1.515   2.031
  611SOL    HW2 2733   3.564   1.456   2.053
  612SOL     OW 2734   4.041   5.502   4.052
  612SOL    HW1 2735   4.021   5.569   4.123
  612SOL    HW2 2736   4.102   5.541   3.984
  613SOL     OW 2737   3.808   5.739   6.653
  613SOL    HW1 2738   3.814   5.758   6.555
  613SOL    HW2 2739   3.719   5.698   6.673
  614SOL     OW 2740   3.460   6.010   5.884
  614SOL    HW1 2741   3.487   6.024   5.789
  614SOL    HW2 2742   3.366   5.978   5.888
  615SOL     OW 2743   6.867   5.170   3.771
  615SOL    HW1 2744   6.826   5.081   3.792
  615SOL    HW2 2745   6.843   5.236   3.843
  616SOL     OW 2746   6.111   2.642   3.855
  616SOL    HW1 2747   6.093   2.551   3.817
  616SOL    HW2 2748   6.042   2.662   3.925
  617SOL     OW 2749   2.369   0.450   6.041
  617SOL    HW1 2750   2.424   0.392   6.101
  617SOL    HW2 2751   2.275   0.418   6.042
  618SOL     OW 2752   2.206   0.751   2.653
  618SOL    HW1 2753   2.171   0.708   2.570
  618SOL    HW2 2754   2.298   0.717   2.672
  619SOL     OW 2755   1.256   2.738   6.939
  619SOL    HW1 2756   1.326   2.758   6.871
  619SOL    HW2 2757   1.274   2.649   6.981
  620SOL     OW 2758   4.855   4.008   0.858
  620SOL    HW1 2759   4.859   4.009   0.758
  620SOL    HW2 2760   4.882   3.917   0.892
  621SOL     OW 2761   0.185   5.918   1.031
  621SOL    HW1 2762   0.164   5.889   1.124
  621SOL    HW2 2763   0.100   5.934   0.981
  622SOL     OW 2764   1.219   1.168   6.535
  622SOL    HW1 2765   1.242   1.172   6.438
  622SOL    HW2 2766   1.304   1.159   6.588
  623SOL     OW 2767   6.018   5.901   5.429
  623SOL    HW1 2768   5.955   5.933   5.500
  623SOL    HW2 2769   5.984   5.814   5.392
  624SOL     OW 2770   7.016   1.643   1.278
  624SOL    HW1 2771   6.982   1.593   1.358
  624SOL    HW2 2772   6.953   1.630   1.202
  625SOL     OW 2773   1.273   0.708   1.851
  625SOL    HW1 2774   1.206   0.712   1.925
  625SOL    HW2 2775   1.349   0.770   1.870
  626SOL     OW 2776   3.848   5.304   5.244
  626SOL    HW1 2777   3.945   5.284   5.254
  626SOL    HW2 2778   3.796   5.251   5.312
  627SOL     OW 2779   4.428   5.670   0.631
  627SOL    HW1 2780   4.469   5.582   0.656
  627SOL    HW2 2781   4.329   5.660   0.626
  628SOL     OW 2782   4.894   3.506   3.815
  628SOL    HW1 2783   4.888   3.468   3.907
  628SOL    HW2 2784   4.896   3.432   3.748
  629SOL     OW 2785   1.580   6.792   1.288
  629SOL    HW1 2786   1.581   6.739   1.204
  629SOL    HW2 2787   1.617   6.884   1.270
  630SOL     OW 2788   2.559   1.509   1.883
  630SOL    HW1 2789   2.572   1.600   1.843
  630SOL    HW2 2790   2.566   1.515   1.982
  631SOL     OW 2791   2.147   1.257   4.175
  631SOL    HW1 2792   2.137   1.340   4.121
  631SOL    HW2 2793   2.243   1.244   4.201
  632SOL     OW 2794   3.435   1.093   0.475
  632SOL    HW1 2795   3.441   1.181   0.524
  632SOL    HW2 2796   3.374   1.032   0.525
  633SOL     OW 2797   2.240   0.155   4.362
  633SOL    HW1 2798   2.335   0.131   4.346
  633SOL    HW2 2799   2.185   0.131   4.282
  634SOL     OW 2800   3.019   5.489   1.778
  634SOL    HW1 2801   2.944   5.551   1.757
  634SOL    HW2 2802   3.031   5.424   1.703
  635SOL     OW 2803   3.271   0.691   1.967
  635SOL    HW1 2804   3.357   0.676   2.016
  635SOL    HW2 2805   3.290   0.711   1.871
  636SOL     OW 2806   4.835   4.738   6.674
  636SOL    HW1 2807   4.849   4.836   6.689
  636SOL    HW2 2808   4.924   4.693   6.663
  637SOL     OW 2809   5.762   5.027   6.210
  637SOL    HW1 2810   5.703   5.068   6.140
  637SOL    HW2 2811   5.705   4.995   6.286
  638SOL     OW 2812   5.310   1.646   3.408
  638SOL    HW1 2813   5.218   1.639   3.447
  638SOL    HW2 2814   5.319   1.580   3.333
  639SOL     OW 2815   3.670   3.688   1.527
  639SOL    HW1 2816   3.654   3.608   1.585
  639SOL    HW2 2817   3.643   3.771   1.576
  640SOL     OW 2818   3.027   2.536   5.375
  640SOL    HW1 2819   3.098   2.506   5.311
  640SOL    HW2 2820   3.034   2.635   5.389
  641SOL     OW 2821   0.030   6.945   4.941
  641SOL    HW1 2822   0.016   6.961   5.038
  641SOL    HW2 2823   0.066   0.006   4.898
  642SOL     OW 2824   0.714   4.947   5.931
  642SOL    HW1 2825   0.687   4.940   5.835
  642SOL    HW2 2826   0.636   4.924   5.989
  643SOL     OW 2827   5.395   6.441   4.193
  643SOL    HW1 2828   5.484   6.394   4.191
  643SOL    HW2 2829   5.410   6.538   4.208
  644SOL     OW 2830   3.280   5.978   1.988
  644SOL    HW1 2831   3.210   6.033   2.032
  644SOL    HW2 2832   3.241   5.932   1.908
  645SOL     OW 2833   0.811   2.876   2.754
  645SOL    HW1 2834   0.843   2.784   2.778
  645SOL    HW2 2835   0.877   2.919   2.692
  646SOL     OW 2836   1.747   3.388   4.442
  646SOL    HW1 2837   1.808   3.384   4.521
  646SOL    HW2 2838   1.732   3.296   4.406
  647SOL     OW 2839   5.477   4.879   1.157
  647SOL    HW1 2840   5.437   4.949   1.216
  647SOL    HW2 2841   5.493   4.917   1.066
  648SOL     OW 2842   4.113   2.260   4.078
  648SOL    HW1 2843   4.019   2.229   4.066
  648SOL    HW2 2844   4.162   2.254   3.991
  649SOL     OW 2845   4.086   4.755   1.386
  649SOL    HW1 2846   4.091   4.843   1.434
  649SOL    HW2 2847   4.161   4.748   1.321
  650SOL     OW 2848   5.512   5.630   6.798
  650SOL    HW1 2849   5.474   5.697   6.863
  650SOL    HW2 2850   5.612   5.635   6.800
  651SOL     OW 2851   1.273   5.511   6.335
  651SOL    HW1 2852   1.356   5.461   6.360
  651SOL    HW2 2853   1.290   5.565   6.253
  652SOL     OW 2854   4.918   2.926   1.286
  652SOL    HW1 2855   4.826   2.965   1.290
  652SOL    HW2 2856   4.956   2.920   1.378
  653SOL     OW 2857   3.448   5.233   3.131
  653SOL    HW1 2858   3.455   5.197   3.038
  653SOL    HW2 2859   3.476   5.329   3.133
  654SOL     OW 2860   0.161   5.011   6.938
  654SOL    HW1 2861   0.172   5.110   6.947
  654SOL    HW2 2862   0.069   4.990   6.905
  655SOL     OW 2863   1.921   1.330   0.574
  655SOL    HW1 2864   1.859   1.409   0.584
  655SOL    HW2 2865   1.962   1.332   0.483
  656SOL     OW 2866   1.626   6.598   1.083
  656SOL    HW1 2867   1.577   6.521   1.042
  656SOL    HW2 2868   1.710   6.566   1.126
  657SOL     OW 2869   3.634   0.065   6.631
  657SOL    HW1 2870   3.631   0.129   6.708
  657SOL    HW2 2871   3.561   7.021   6.640
  658SOL     OW 2872   3.879   5.495   0.550
  658SOL    HW1 2873   3.869   5.559   0.625
  658SOL    HW2 2874   3.792   5.488   0.500
  659SOL     OW 2875   3.609   0.355   6.058
  659SOL    HW1 2876   3.537   0.370   6.126
  659SOL    HW2 2877   3.609   0.259   6.030
  660SOL     OW 2878   3.014   6.487   3.745
  660SOL    HW1 2879   2.964   6.553   3.801
  660SOL    HW2 2880   2.961   6.466   3.663
  661SOL     OW 2881   6.898   5.138   2.994
  661SOL    HW1 2882   6.849   5.209   2.943
  661SOL    HW2 2883   6.985   5.174   3.025
  662SOL     OW 2884   4.368   2.356   6.749
  662SOL    HW1 2885   4.444   2.359   6.684
  662SOL    HW2 2886   4.335   2.449   6.766
  663SOL     OW 2887   1.745   3.999   4.614
  663SOL    HW1 2888   1.687   4.077   4.640
  663SOL    HW2 2889   1.795   4.022   4.531
  664SOL     OW 2890   5.790   6.798   6.065
  664SOL    HW1 2891   5.749   6.744   6.139
  664SOL    HW2 2892   5.749   6.889   6.064
  665SOL     OW 2893   1.784   4.143   2.544
  665SOL    HW1 2894   1.829   4.115   2.629
  665SOL    HW2 2895   1.685   4.143   2.557
  666SOL     OW 2896   3.850   0.828   2.712
  666SOL    HW1 2897   3.806   0.915   2.733
  666SOL    HW2 2898   3.882   0.785   2.796
  667SOL     OW 2899   0.085   0.485   1.297
  667SOL    HW1 2900   0.028   0.442   1.226
  667SOL    HW2 2901   0.159   0.535   1.254
  668SOL     OW 2902   5.024   3.274   6.568
  668SOL    HW1 2903   4.989   3.182   6.584
  668SOL    HW2 2904   5.113   3.284   6.611
  669SOL     OW 2905   5.361   1.090   3.055
  669SOL    HW1 2906   5.443   1.099   3.112
  669SOL    HW2 2907   5.387   1.095   2.959
  670SOL     OW 2908   4.064   1.896   1.901
  670SOL    HW1 2909   4.005   1.831   1.949
  670SOL    HW2 2910   4.025   1.988   1.909
  671SOL     OW 2911   1.183   5.763   1.990
  671SOL    HW1 2912   1.254   5.721   1.933
  671SOL    HW2 2913   1.095   5.758   1.943
  672SOL     OW 2914   0.259   0.026   1.280
  672SOL    HW1 2915   0.229   0.058   1.370
  672SOL    HW2 2916   0.297   0.102   1.229
  673SOL     OW 2917   6.273   6.839   6.354
  673SOL    HW1 2918   6.196   6.851   6.291
  673SOL    HW2 2919   6.341   6.911   6.338
  674SOL     OW 2920   4.676   6.962   4.589
  674SOL    HW1 2921   4.669   6.965   4.689
  674SOL    HW2 2922   4.736   6.887   4.563
  675SOL     OW 2923   1.414   5.235   2.681
  675SOL    HW1 2924   1.386   5.310   2.621
  675SOL    HW2 2925   1.393   5.258   2.776
  676SOL     OW 2926   2.252   5.613   6.966
  676SOL    HW1 2927   2.302   5.558   6.899
  676SOL    HW2 2928   2.301   5.698   6.982
  677SOL     OW 2929   5.332   0.530   1.142
  677SOL    HW1 2930   5.358   0.575   1.056
  677SOL    HW2 2931   5.380   0.442   1.150
  678SOL     OW 2932   0.663   5.526   4.242
  678SOL    HW1 2933   0.640   5.523   4.339
  678SOL    HW2 2934   0.761   5.546   4.231
  679SOL     OW 2935   5.542   1.074   5.982
  679SOL    HW1 2936   5.528   1.159   5.932
  679SOL    HW2 2937   5.585   1.006   5.922
  680SOL     OW 2938   5.948   0.137   4.371
  680SOL    HW1 2939   5.960   0.116   4.273
  680SOL    HW2 2940   6.000   0.070   4.425
  681SOL     OW 2941   4.483   4.418   2.871
  681SOL    HW1 2942   4.535   4.351   2.817
  681SOL    HW2 2943   4.445   4.488   2.811
  682SOL     OW 2944   5.998   1.474   3.037
  682SOL    HW1 2945   6.086   1.521   3.023
  682SOL    HW2 2946   5.967   1.437   2.949
  683SOL     OW 2947   3.317   5.428   0.346
  683SOL    HW1 2948   3.376   5.386   0.415
  683SOL    HW2 2949   3.268   5.357   0.296
  684SOL     OW 2950   5.822   2.022   6.057
  684SOL    HW1 2951   5.795   1.927   6.076
  684SOL    HW2 2952   5.840   2.032   5.960
  685SOL     OW 2953   3.241   6.556   3.567
  685SOL    HW1 2954   3.193   6.548   3.654
  685SOL    HW2 2955   3.257   6.464   3.530
  686SOL     OW 2956   3.162   0.463   5.657
  686SOL    HW1 2957   3.095   0.499   5.722
  686SOL    HW2 2958   3.215   0.390   5.701
  687SOL     OW 2959   0.272   0.773   4.422
  687SOL    HW1 2960   0.179   0.749   4.450
  687SOL    HW2 2961   0.336   0.706   4.458
  688SOL     OW 2962   5.125   3.544   7.009
  688SOL    HW1 2963   5.064   3.569   6.933
  688SOL    HW2 2964   5.180   3.465   6.983
  689SOL     OW 2965   2.406   5.840   6.973
  689SOL    HW1 2966   2.355   5.841   0.037
  689SOL    HW2 2967   2.415   5.933   6.938
  690SOL     OW 2968   5.834   3.514   3.982
  690SOL    HW1 2969   5.737   3.537   3.990
  690SOL    HW2 2970   5.878   3.577   3.918
  691SOL     OW 2971   5.416   0.537   2.834
  691SOL    HW1 2972   5.394   0.609   2.768
  691SOL    HW2 2973   5.515   0.529   2.844
  692SOL     OW 2974   1.106   0.131   3.437
  692SOL    HW1 2975   1.167   0.172   3.370
  692SOL    HW2 2976   1.158   0.104   3.518
  693SOL     OW 2977   5.828   4.062   2.275
  693SOL    HW1 2978   5.907   4.012   2.242
  693SOL    HW2 2979   5.857   4.132   2.340
  694SOL     OW 2980   4.226   4.703   4.192
  694SOL    HW1 2981   4.145   4.754   4.222
  694SOL    HW2 2982   4.271   4.663   4.271
  695SOL     OW 2983   4.471   0.315   4.366
  695SOL    HW1 2984   4.491   0.229   4.411
  695SOL    HW2 2985   4.541   0.333   4.296
  696SOL     OW 2986   6.903   4.675   2.045
  696SOL    HW1 2987   6.924   4.773   2.049
  696SOL    HW2 2988   6.986   4.623   2.066
  697SOL     OW 2989   0.445   6.023   3.177
  697SOL    HW1 2990   0.347   6.041   3.184
  697SOL    HW2 2991   0.471   5.954   3.245
  698SOL     OW 2992   5.733   6.285   5.511
  698SOL    HW1 2993   5.765   6.272   5.418
  698SOL    HW2 2994   5.633   6.274   5.513
  699SOL     OW 2995   4.022   2.831   0.523
  699SOL    HW1 2996   4.079   2.887   0.583
  699SOL    HW2 2997   4.001   2.881   0.440
  700SOL     OW 2998   3.434   6.496   5.432
  700SOL    HW1 2999   3.368   6.550   5.381
  700SOL    HW2 3000   3.390   6.458   5.513
  701SOL     OW 3001   4.550   4.364   1.648
  701SOL    HW1 3002   4.627   4.320   1.601
  701SOL    HW2 3003   4.508   4.298   1.712
  702SOL     OW 3004   3.943   0.800   4.980
  702SOL    HW1 3005   4.020   0.782   4.919
  702SOL    HW2 3006   3.857   0.783   4.931
  703SOL     OW 3007   3.548   2.927   0.590
  703SOL    HW1 3008   3.492   2.923   0.508
  703SOL    HW2 3009   3.636   2.882   0.573
  704SOL     OW 3010   3.910   2.019   0.178
  704SOL    HW1 3011   3.947   1.956   0.109
  704SOL    HW2 3012   3.821   2.053   0.147
  705SOL     OW 3013   7.000   6.731   5.927
  705SOL    HW1 3014   6.959   6.733   5.836
  705SOL    HW2 3015   6.990   6.640   5.967
  706SOL     OW 3016   3.718   0.615   5.034
  706SOL    HW1 3017   3.665   0.697   5.058
  706SOL    HW2 3018   3.760   0.578   5.117
  707SOL     OW 3019   3.381   4.946   4.267
  707SOL    HW1 3020   3.415   4.939   4.361
  707SOL    HW2 3021   3.282   4.933   4.266
  708SOL     OW 3022   2.486   6.274   4.026
  708SOL    HW1 3023   2.530   6.185   4.016
  708SOL    HW2 3024   2.538   6.342   3.973
  709SOL     OW 3025   2.186   6.816   1.548
  709SOL    HW1 3026   2.086   6.822   1.547
  709SOL    HW2 3027   2.224   6.903   1.577
  710SOL     OW 3028   4.780   2.704   2.628
  710SOL    HW1 3029   4.793   2.786   2.684
  710SOL    HW2 3030   4.772   2.731   2.532
  711SOL     OW 3031   6.948   1.153   0.794
  711SOL    HW1 3032   6.912   1.120   0.881
  711SOL    HW2 3033   6.900   1.109   0.718
  712SOL     OW 3034   4.560   4.531   0.008
  712SOL    HW1 3035   4.659   4.526   0.013
  712SOL    HW2 3036   4.533   4.593   6.956
  713SOL     OW 3037   3.969   3.001   5.605
  713SOL    HW1 3038   4.030   3.079   5.622
  713SOL    HW2 3039   4.022   2.917   5.600
  714SOL     OW 3040   4.295   6.632   3.034
  714SOL    HW1 3041   4.278   6.661   2.940
  714SOL    HW2 3042   4.267   6.704   3.097
  715SOL     OW 3043   6.080   4.382   5.707
  715SOL    HW1 3044   6.028   4.319   5.764
  715SOL    HW2 3045   6.171   4.396   5.747
  716SOL     OW 3046   3.168   1.261   3.373
  716SOL    HW1 3047   3.200   1.342   3.423
  716SOL    HW2 3048   3.241   1.193   3.368
  717SOL     OW 3049   5.691   4.623   3.512
  717SOL    HW1 3050   5.708   4.715   3.548
  717SOL    HW2 3051   5.773   4.567   3.522
  718SOL     OW 3052   6.587   1.890   5.552
  718SOL    HW1 3053   6.654   1.964   5.547
  718SOL    HW2 3054   6.631   1.807   5.584
  719SOL     OW 3055   4.812   5.367   2.163
  719SOL    HW1 3056   4.776   5.297   2.224
  719SOL    HW2 3057   4.737   5.406   2.109
  720SOL     OW 3058   2.981   1.844   1.020
  720SOL    HW1 3059   3.000   1.913   0.950
  720SOL    HW2 3060   2.884   1.817   1.015
  721SOL     OW 3061   6.848   2.622   2.624
  721SOL    HW1 3062   6.844   2.722   2.625
  721SOL    HW2 3063   6.813   2.586   2.710
  722SOL     OW 3064   5.670   5.951   2.177
  722SOL    HW1 3065   5.666   5.855   2.204
  722SOL    HW2 3066   5.586   5.997   2.205
  723SOL     OW 3067   2.400   0.146   4.856
  723SOL    HW1 3068   2.318   0.138   4.912
  723SOL    HW2 3069   2.410   0.241   4.825
  724SOL     OW 3070   1.202   2.708   4.611
  724SOL    HW1 3071   1.250   2.702   4.699
  724SOL    HW2 3072   1.219   2.624   4.558
  725SOL     OW 3073   1.604   4.163   3.330
  725SOL    HW1 3074   1.575   4.209   3.246
  725SOL    HW2 3075   1.623   4.067   3.311
  726SOL     OW 3076   2.625   3.404   0.464
  726SOL    HW1 3077   2.630   3.500   0.437
  726SOL    HW2 3078   2.714   3.360   0.451
  727SOL     OW 3079   3.770   5.233   4.992
  727SOL    HW1 3080   3.812   5.247   5.081
  727SOL    HW2 3081   3.839   5.241   4.921
  728SOL     OW 3082   6.145   3.855   3.507
  728SOL    HW1 3083   6.184   3.939   3.470
  728SOL    HW2 3084   6.153   3.856   3.607
  729SOL     OW 3085   0.744   4.890   0.397
  729SOL    HW1 3086   0.705   4.854   0.481
  729SOL    HW2 3087   0.789   4.816   0.346
  730SOL     OW 3088   3.968   1.335   3.117
  730SOL    HW1 3089   3.982   1.349   3.215
  730SOL    HW2 3090   3.871   1.327   3.097
  731SOL     OW 3091   4.933   4.344   4.833
  731SOL    HW1 3092   4.918   4.350   4.734
  731SOL    HW2 3093   5.025   4.307   4.850
  732SOL     OW 3094   4.430   0.816   4.566
  732SOL    HW1 3095   4.443   0.742   4.501
  732SOL    HW2 3096   4.449   0.783   4.659
  733SOL     OW 3097   0.700   4.989   4.472
  733SOL    HW1 3098   0.623   5.049   4.495
  733SOL    HW2 3099   0.666   4.897   4.451
  734SOL     OW 3100   6.196   5.980   3.453
  734SOL    HW1 3101   6.257   5.928   3.393
  734SOL    HW2 3102   6.133   6.035   3.398
  735SOL     OW 3103   4.435   0.497   2.846
  735SOL    HW1 3104   4.452   0.584   2.891
  735SOL    HW2 3105   4.497   0.428   2.882
  736SOL     OW 3106   2.028   1.543   3.176
  736SOL    HW1 3107   2.005   1.451   3.206
  736SOL    HW2 3108   2.126   1.548   3.157
  737SOL     OW 3109   3.590   0.991   6.524
  737SOL    HW1 3110   3.543   0.903   6.513
  737SOL    HW2 3111   3.592   1.039   6.436
  738SOL     OW 3112   1.319   5.453   0.369
  738SOL    HW1 3113   1.304   5.384   0.440
  738SOL    HW2 3114   1.235   5.467   0.317
  739SOL     OW 3115   1.612   0.667   2.810
  739SOL    HW1 3116   1.700   0.694   2.847
  739SOL    HW2 3117   1.617   0.573   2.777
  740SOL     OW 3118   4.677   2.554   2.848
  740SOL    HW1 3119   4.712   2.608   2.772
  740SOL    HW2 3120   4.654   2.462   2.817
  741SOL     OW 3121   3.183   1.319   2.445
  741SOL    HW1 3122   3.139   1.390   2.501
  741SOL    HW2 3123   3.274   1.300   2.481
  742SOL     OW 3124   2.151   0.638   2.411
  742SOL    HW1 3125   2.241   0.614   2.375
  742SOL    HW2 3126   2.091   0.557   2.407
  743SOL     OW 3127   6.975   6.567   2.511
  743SOL    HW1 3128   6.940   6.484   2.555
  743SOL    HW2 3129   6.899   6.629   2.492
  744SOL     OW 3130   5.470   1.208   1.229
  744SOL    HW1 3131   5.447   1.286   1.287
  744SOL    HW2 3132   5.564   1.217   1.196
  745SOL     OW 3133   1.152   6.841   5.617
  745SOL    HW1 3134   1.186   6.931   5.646
  745SOL    HW2 3135   1.053   6.846   5.604
  746SOL     OW 3136   6.625   5.780   5.239
  746SOL    HW1 3137   6.657   5.687   5.218
  746SOL    HW2 3138   6.526   5.784   5.232
  747SOL     OW 3139   3.739   5.129   2.506
  747SOL    HW1 3140   3.815   5.070   2.533
  747SOL    HW2 3141   3.667   5.075   2.464
  748SOL     OW 3142   6.177   4.601   3.258
  748SOL    HW1 3143   6.271   4.566   3.263
  748SOL    HW2 3144   6.165   4.652   3.173
  749SOL     OW 3145   4.649   4.277   4.700
  749SOL    HW1 3146   4.565   4.225   4.684
  749SOL    HW2 3147   4.640   4.330   4.785
  750SOL     OW 3148   2.889   2.107   2.791
  750SOL    HW1 3149   2.919   2.018   2.755
  750SOL    HW2 3150   2.876   2.171   2.716
  751SOL     OW 3151   4.071   0.159   0.505
  751SOL    HW1 3152   4.084   0.060   0.505
  751SOL    HW2 3153   4.085   0.195   0.412
  752SOL     OW 3154   2.916   3.311   3.834
  752SOL    HW1 3155   2.843   3.242   3.838
  752SOL    HW2 3156   3.003   3.270   3.861
  753SOL     OW 3157   3.442   3.799   3.578
  753SOL    HW1 3158   3.506   3.876   3.570
  753SOL    HW2 3159   3.389   3.810   3.662
  754SOL     OW 3160   4.808   1.155   5.892
  754SOL    HW1 3161   4.907   1.165   5.898
  754SOL    HW2 3162   4.785   1.062   5.865
  755SOL     OW 3163   4.794   4.098   5.020
  755SOL    HW1 3164   4.889   4.124   5.040
  755SOL    HW2 3165   4.734   4.177   5.034
  756SOL     OW 3166   3.369   5.360   6.088
  756SOL    HW1 3167   3.411   5.284   6.039
  756SOL    HW2 3168   3.414   5.372   6.177
  757SOL     OW 3169   1.000   6.509   1.622
  757SOL    HW1 3170   1.036   6.602   1.613
  757SOL    HW2 3171   1.074   6.443   1.610
  758SOL     OW 3172   3.494   1.208   5.514
  758SOL    HW1 3173   3.557   1.233   5.441
  758SOL    HW2 3174   3.425   1.144   5.479
  759SOL     OW 3175   6.876   2.671   3.717
  759SOL    HW1 3176   6.871   2.674   3.617
  759SOL    HW2 3177   6.789   2.636   3.753
  760SOL     OW 3178   6.975   5.655   4.498
  760SOL    HW1 3179   6.900   5.698   4.549
  760SOL    HW2 3180   7.003   5.715   4.423
  761SOL     OW 3181   4.928   4.396   6.232
  761SOL    HW1 3182   5.010   4.453   6.242
  761SOL    HW2 3183   4.929   4.324   6.301
  762SOL     OW 3184   4.073   5.948   3.526
  762SOL    HW1 3185   4.121   5.861   3.537
  762SOL    HW2 3186   3.990   5.948   3.582
  763SOL     OW 3187   5.622   1.564   0.524
  763SOL    HW1 3188   5.681   1.553   0.444
  763SOL    HW2 3189   5.656   1.508   0.599
  764SOL     OW 3190   5.163   6.455   4.346
  764SOL    HW1 3191   5.249   6.457   4.294
  764SOL    HW2 3192   5.141   6.361   4.369
  765SOL     OW 3193   5.591   6.000   0.043
  765SOL    HW1 3194   5.688   6.013   0.025
  765SOL    HW2 3195   5.538   6.064   7.009
  766SOL     OW 3196   2.711   2.056   3.560
  766SOL    HW1 3197   2.802   2.091   3.541
  766SOL    HW2 3198   2.643   2.116   3.516
  767SOL     OW 3199   6.584   6.496   3.354
  767SOL    HW1 3200   6.561   6.419   3.414
  767SOL    HW2 3201   6.519   6.571   3.369
  768SOL     OW 3202   2.866   5.792   1.724
  768SOL    HW1 3203   2.789   5.729   1.709
  768SOL    HW2 3204   2.830   5.883   1.747
  769SOL     OW 3205   3.707   1.893   5.386
  769SOL    HW1 3206   3.744   1.898   5.479
  769SOL    HW2 3207   3.608   1.881   5.390
  770SOL     OW 3208   0.948   4.568   6.214
  770SOL    HW1 3209   1.027   4.506   6.215
  770SOL    HW2 3210   0.979   4.661   6.196
  771SOL     OW 3211   1.631   4.833   2.737
  771SOL    HW1 3212   1.685   4.776   2.674
  771SOL    HW2 3213   1.682   4.916   2.758
  772SOL     OW 3214   6.450   5.111   0.361
  772SOL    HW1 3215   6.423   5.038   0.298
  772SOL    HW2 3216   6.438   5.081   0.455
  773SOL     OW 3217   1.561   4.946   4.139
  773SOL    HW1 3218   1.560   5.001   4.056
  773SOL    HW2 3219   1.483   4.883   4.138
  774SOL     OW 3220   1.882   2.265   3.481
  774SOL    HW1 3221   1.863   2.356   3.445
  774SOL    HW2 3222   1.799   2.228   3.524
  775SOL     OW 3223   1.083   5.110   2.242
  775SOL    HW1 3224   1.053   5.169   2.317
  775SOL    HW2 3225   1.183   5.105   2.240
  776SOL     OW 3226   2.448   4.811   0.244
  776SOL    HW1 3227   2.451   4.774   0.151
  776SOL    HW2 3228   2.426   4.909   0.240
  777SOL     OW 3229   1.770   3.198   6.439
  777SOL    HW1 3230   1.727   3.151   6.517
  777SOL    HW2 3231   1.855   3.151   6.414
  778SOL     OW 3232   3.531   5.675   6.756
  778SOL    HW1 3233   3.499   5.590   6.799
  778SOL    HW2 3234   3.461   5.708   6.692
  779SOL     OW 3235   5.975   2.007   3.160
  779SOL    HW1 3236   5.898   2.035   3.102
  779SOL    HW2 3237   5.946   2.010   3.256
  780SOL     OW 3238   5.587   1.651   5.064
  780SOL    HW1 3239   5.558   1.564   5.024
  780SOL    HW2 3240   5.668   1.636   5.120
  781SOL     OW 3241   6.901   4.912   6.607
  781SOL    HW1 3242   6.811   4.868   6.617
  781SOL    HW2 3243   6.892   4.992   6.547
  782SOL     OW 3244   2.433   3.890   5.724
  782SOL    HW1 3245   2.351   3.868   5.671
  782SOL    HW2 3246   2.411   3.962   5.791
  783SOL     OW 3247   0.155   5.250   6.160
  783SOL    HW1 3248   0.245   5.286   6.136
  783SOL    HW2 3249   0.140   5.163   6.114
  784SOL     OW 3250   1.688   5.886   5.985
  784SOL    HW1 3251   1.754   5.879   5.910
  784SOL    HW2 3252   1.672   5.982   6.006
  785SOL     OW 3253   0.658   0.092   4.035
  785SOL    HW1 3254   0.700   0.033   3.966
  785SOL    HW2 3255   0.610   0.037   4.103
  786SOL     OW 3256   5.987   1.788   5.130
  786SOL    HW1 3257   5.927   1.734   5.189
  786SOL    HW2 3258   6.064   1.823   5.183
  787SOL     OW 3259   2.210   0.002   0.561
  787SOL    HW1 3260   2.145   6.951   0.543
  787SOL    HW2 3261   2.281   6.991   0.624
  788SOL     OW 3262   2.140   3.301   2.436
  788SOL    HW1 3263   2.094   3.322   2.523
  788SOL    HW2 3264   2.189   3.214   2.444
  789SOL     OW 3265   3.351   5.341   2.424
  789SOL    HW1 3266   3.295   5.305   2.350
  789SOL    HW2 3267   3.417   5.407   2.387
  790SOL     OW 3268   7.003   3.352   2.669
  790SOL    HW1 3269   7.009   3.258   2.702
  790SOL    HW2 3270   0.001   3.355   2.571
  791SOL     OW 3271   3.718   0.667   4.007
  791SOL    HW1 3272   3.632   0.633   3.969
  791SOL    HW2 3273   3.699   0.728   4.083
  792SOL     OW 3274   3.046   0.814   0.738
  792SOL    HW1 3275   3.100   0.834   0.820
  792SOL    HW2 3276   2.949   0.826   0.757
  793SOL     OW 3277   2.279   5.878   4.800
  793SOL    HW1 3278   2.368   5.882   4.755
  793SOL    HW2 3279   2.217   5.822   4.744
  794SOL     OW 3280   3.603   3.465   2.205
  794SOL    HW1 3281   3.648   3.506   2.285
  794SOL    HW2 3282   3.506   3.454   2.224
  795SOL     OW 3283   4.157   6.842   5.931
  795SOL    HW1 3284   4.128   6.910   5.863
  795SOL    HW2 3285   4.169   6.886   6.020
  796SOL     OW 3286   0.980   2.308   6.339
  796SOL    HW1 3287   1.064   2.255   6.332
  796SOL    HW2 3288   1.002   2.404   6.354
  797SOL     OW 3289   3.069   6.577   0.693
  797SOL    HW1 3290   3.159   6.613   0.668
  797SOL    HW2 3291   3.012   6.570   0.612
  798SOL     OW 3292   5.201   4.366   1.831
  798SOL    HW1 3293   5.145   4.307   1.890
  798SOL    HW2 3294   5.294   4.329   1.826
  799SOL     OW 3295   3.606   3.329   4.706
  799SOL    HW1 3296   3.653   3.266   4.767
  799SOL    HW2 3297   3.551   3.393   4.759
  800SOL     OW 3298   5.309   2.896   3.198
  800SOL    HW1 3299   5.291   2.982   3.151
  800SOL    HW2 3300   5.288   2.820   3.136
  801SOL     OW 3301   1.884   5.030   0.046
  801SOL    HW1 3302   1.945   4.958   0.012
  801SOL    HW2 3303   1.938   5.104   0.086
  802SOL     OW 3304   4.087   2.629   5.775
  802SOL    HW1 3305   4.112   2.676   5.691
  802SOL    HW2 3306   4.068   2.695   5.847
  803SOL     OW 3307   3.205   1.924   3.037
  803SOL    HW1 3308   3.244   1.996   3.094
  803SOL    HW2 3309   3.105   1.928   3.043
  804SOL     OW 3310   4.339   6.927   2.947
  804SOL    HW1 3311   4.399   6.931   2.867
  804SOL    HW2 3312   4.244   6.922   2.917
  805SOL     OW 3313   3.408   1.664   3.802
  805SOL    HW1 3314   3.422   1.695   3.708
  805SOL    HW2 3315   3.337   1.594   3.804
  806SOL     OW 3316   4.501   6.593   5.853
  806SOL    HW1 3317   4.446   6.594   5.937
  806SOL    HW2 3318   4.593   6.627   5.873
  807SOL     OW 3319   1.103   6.412   6.313
  807SOL    HW1 3320   1.041   6.335   6.329
  807SOL    HW2 3321   1.196   6.385   6.335
  808SOL     OW 3322   5.249   2.051   5.987
  808SOL    HW1 3323   5.285   2.021   6.076
  808SOL    HW2 3324   5.176   2.118   6.002
  809SOL     OW 3325   2.655   6.200   5.832
  809SOL    HW1 3326   2.686   6.211   5.738
  809SOL    HW2 3327   2.567   6.152   5.833
  810SOL     OW 3328   3.955   3.915   6.431
  810SOL    HW1 3329   4.038   3.936   6.482
  810SOL    HW2 3330   3.972   3.926   6.333
  811SOL     OW 3331   5.446   5.106   5.523
  811SOL    HW1 3332   5.454   5.200   5.490
  811SOL    HW2 3333   5.349   5.080   5.527
  812SOL     OW 3334   1.255   2.187   0.634
  812SOL    HW1 3335   1.163   2.212   0.665
  812SOL    HW2 3336   1.310   2.159   0.713
  813SOL     OW 3337   2.811   1.975   4.791
  813SOL    HW1 3338   2.904   1.967   4.755
  813SOL    HW2 3339   2.747   1.933   4.728
  814SOL     OW 3340   0.565   4.651   1.225
  814SOL    HW1 3341   0.552   4.648   1.324
  814SOL    HW2 3342   0.599   4.562   1.193
  815SOL     OW 3343   4.370   0.727   3.915
  815SOL    HW1 3344   4.373   0.677   4.001
  815SOL    HW2 3345   4.358   0.663   3.839
  816SOL     OW 3346   4.845   3.497   6.550
  816SOL    HW1 3347   4.833   3.529   6.456
  816SOL    HW2 3348   4.914   3.425   6.552
  817SOL     OW 3349   0.170   5.385   0.187
  817SOL    HW1 3350   0.072   5.376   0.202
  817SOL    HW2 3351   0.195   5.482   0.187
  818SOL     OW 3352   6.736   1.223   5.295
  818SOL    HW1 3353   6.680   1.144   5.316
  818SOL    HW2 3354   6.702   1.303   5.345
  819SOL     OW 3355   5.828   3.529   1.891
  819SOL    HW1 3356   5.863   3.602   1.950
  819SOL    HW2 3357   5.870   3.536   1.800
  820SOL     OW 3358   2.433   2.229   5.064
  820SOL    HW1 3359   2.357   2.164   5.057
  820SOL    HW2 3360   2.397   2.321   5.079
  821SOL     OW 3361   5.147   3.533   5.901
  821SOL    HW1 3362   5.246   3.533   5.904
  821SOL    HW2 3363   5.116   3.578   5.817
  822SOL     OW 3364   6.613   4.531   3.408
  822SOL    HW1 3365   6.712   4.519   3.401
  822SOL    HW2 3366   6.574   4.454   3.458
  823SOL     OW 3367   1.628   2.749   4.213
  823SOL    HW1 3368   1.594   2.655   4.222
  823SOL    HW2 3369   1.550   2.812   4.218
  824SOL     OW 3370   5.467   0.516   6.402
  824SOL    HW1 3371   5.552   0.555   6.437
  824SOL    HW2 3372   5.389   0.551   6.454
  825SOL     OW 3373   6.290   5.879   1.401
  825SOL    HW1 3374   6.337   5.867   1.314
  825SOL    HW2 3375   6.355   5.876   1.476
  826SOL     OW 3376   3.524   2.415   0.245
  826SOL    HW1 3377   3.550   2.412   0.149
  826SOL    HW2 3378   3.569   2.493   0.289
  827SOL     OW 3379   3.609   3.220   4.970
  827SOL    HW1 3380   3.546   3.178   5.036
  827SOL    HW2 3381   3.693   3.247   5.017
  828SOL     OW 3382   0.677   6.465   6.094
  828SOL    HW1 3383   0.616   6.433   6.021
  828SOL    HW2 3384   0.701   6.561   6.078
  829SOL     OW 3385   3.847   3.319   1.535
  829SOL    HW1 3386   3.753   3.349   1.521
  829SOL    HW2 3387   3.902   3.395   1.570
  830SOL     OW 3388   0.234   3.223   5.928
  830SOL    HW1 3389   0.246   3.247   6.024
  830SOL    HW2 3390   0.324   3.204   5.888
  831SOL     OW 3391   5.758   1.607   2.961
  831SOL    HW1 3392   5.673   1.567   2.996
  831SOL    HW2 3393   5.836   1.565   3.006
  832SOL     OW 3394   3.101   2.129   4.825
  832SOL    HW1 3395   3.098   2.137   4.924
  832SOL    HW2 3396   3.082   2.219   4.784
  833SOL     OW 3397   3.430   3.376   6.436
  833SOL    HW1 3398   3.455   3.346   6.528
  833SOL    HW2 3399   3.371   3.456   6.442
  834SOL     OW 3400   6.162   3.534   1.046
  834SOL    HW1 3401   6.189   3.623   1.010
  834SOL    HW2 3402   6.062   3.525   1.040
  835SOL     OW 3403   6.314   6.483   5.068
  835SOL    HW1 3404   6.355   6.554   5.125
  835SOL    HW2 3405   6.223   6.462   5.101
  836SOL     OW 3406   6.249   0.201   4.019
  836SOL    HW1 3407   6.322   0.159   3.966
  836SOL    HW2 3408   6.172   0.138   4.027
  837SOL     OW 3409   0.685   0.178   6.598
  837SOL    HW1 3410   0.762   0.205   6.656
  837SOL    HW2 3411   0.717   0.114   6.528
  838SOL     OW 3412   0.880   5.964   3.305
  838SOL    HW1 3413   0.834   5.877   3.325
  838SOL    HW2 3414   0.812   6.033   3.281
  839SOL     OW 3415   1.565   2.133   6.919
  839SOL    HW1 3416   1.657   2.153   6.884
  839SOL    HW2 3417   1.568   2.130   7.019
  840SOL     OW 3418   4.934   5.304   0.530
  840SOL    HW1 3419   5.020   5.315   0.481
  840SOL    HW2 3420   4.860   5.345   0.476
  841SOL     OW 3421   2.879   4.884   6.791
  841SOL    HW1 3422   2.960   4.932   6.757
  841SOL    HW2 3423   2.875   4.793   6.750
  842SOL     OW 3424   4.267   6.717   1.121
  842SOL    HW1 3425   4.216   6.649   1.069
  842SOL    HW2 3426   4.220   6.735   1.207
  843SOL     OW 3427   1.765   7.012   2.214
  843SOL    HW1 3428   1.743   7.021   2.312
  843SOL    HW2 3429   1.818   0.069   2.185
  844SOL     OW 3430   6.747   6.999   1.310
  844SOL    HW1 3431   6.796   6.924   1.354
  844SOL    HW2 3432   6.706   6.967   1.225
  845SOL     OW 3433   4.407   1.282   1.518
  845SOL    HW1 3434   4.453   1.262   1.431
  845SOL    HW2 3435   4.308   1.277   1.506
  846SOL     OW 3436   1.546   0.987   0.852
  846SOL    HW1 3437   1.473   1.047   0.887
  846SOL    HW2 3438   1.623   1.043   0.822
  847SOL     OW 3439   2.900   3.551   1.464
  847SOL    HW1 3440   2.869   3.621   1.528
  847SOL    HW2 3441   2.983   3.509   1.499
  848SOL     OW 3442   6.502   5.865   0.905
  848SOL    HW1 3443   6.456   5.943   0.861
  848SOL    HW2 3444   6.593   5.854   0.866
  849SOL     OW 3445   5.443   3.605   5.923
  849SOL    HW1 3446   5.513   3.553   5.972
  849SOL    HW2 3447   5.450   3.587   5.825
  850SOL     OW 3448   2.540   1.045   4.527
  850SOL    HW1 3449   2.590   1.104   4.590
  850SOL    HW2 3450   2.442   1.066   4.533
  851SOL     OW 3451   4.659   2.733   6.318
  851SOL    HW1 3452   4.614   2.750   6.230
  851SOL    HW2 3453   4.627   2.645   6.355
  852SOL     OW 3454   0.104   5.159   1.082
  852SOL    HW1 3455   0.174   5.176   1.151
  852SOL    HW2 3456   0.018   5.202   1.110
  853SOL     OW 3457   3.798   2.775   0.667
  853SOL    HW1 3458   3.817   2.802   0.762
  853SOL    HW2 3459   3.872   2.807   0.608
  854SOL     OW 3460   6.806   0.634   6.546
  854SOL    HW1 3461   6.869   0.707   6.521
  854SOL    HW2 3462   6.839   0.589   6.630
  855SOL     OW 3463   4.638   2.323   6.860
  855SOL    HW1 3464   4.698   2.293   6.786
  855SOL    HW2 3465   4.566   2.254   6.875
  856SOL     OW 3466   1.670   5.683   1.490
  856SOL    HW1 3467   1.744   5.681   1.423
  856SOL    HW2 3468   1.623   5.595   1.490
  857SOL     OW 3469   0.270   6.473   5.241
  857SOL    HW1 3470   0.239   6.422   5.322
  857SOL    HW2 3471   0.190   6.507   5.191
  858SOL     OW 3472   2.971   4.498   0.459
  858SOL    HW1 3473   2.891   4.445   0.431
  858SOL    HW2 3474   2.948   4.556   0.536
  859SOL     OW 3475   5.017   5.842   5.545
  859SOL    HW1 3476   5.019   5.873   5.450
  859SOL    HW2 3477   4.952   5.897   5.597
  860SOL     OW 3478   4.742   3.092   0.442
  860SOL    HW1 3479   4.837   3.069   0.464
  860SOL    HW2 3480   4.694   3.009   0.412
  861SOL     OW 3481   0.988   5.857   2.711
  861SOL    HW1 3482   0.908   5.865   2.770
  861SOL    HW2 3483   1.014   5.947   2.677
  862SOL     OW 3484   0.656   4.698   4.095
  862SOL    HW1 3485   0.589   4.631   4.064
  862SOL    HW2 3486   0.726   4.653   4.150
  863SOL     OW 3487   5.146   0.471   1.416
  863SOL    HW1 3488   5.149   0.558   1.466
  863SOL    HW2 3489   5.107   0.487   1.325
  864SOL     OW 3490   6.129   4.393   3.740
  864SOL    HW1 3491   6.090   4.303   3.758
  864SOL    HW2 3492   6.198   4.414   3.809
  865SOL     OW 3493   1.692   5.030   4.905
  865SOL    HW1 3494   1.680   5.089   4.825
  865SOL    HW2 3495   1.786   5.035   4.937
  866SOL     OW 3496   3.606   6.599   1.195
  866SOL    HW1 3497   3.577   6.504   1.212
  866SOL    HW2 3498   3.628   6.609   1.098
  867SOL     OW 3499   5.728   3.951   5.116
  867SOL    HW1 3500   5.776   3.864   5.117
  867SOL    HW2 3501   5.724   3.986   5.022
  868SOL     OW 3502   0.539   1.400   2.330
  868SOL    HW1 3503   0.580   1.460   2.261
  868SOL    HW2 3504   0.562   1.305   2.309
  869SOL     OW 3505   0.773   2.876   1.977
  869SOL    HW1 3506   0.823   2.953   1.939
  869SOL    HW2 3507   0.678   2.879   1.944
  870SOL     OW 3508   3.717   4.701   1.629
  870SOL    HW1 3509   3.654   4.666   1.699
  870SOL    HW2 3510   3.730   4.799   1.642
  871SOL     OW 3511   4.507   1.790   3.802
  871SOL    HW1 3512   4.535   1.876   3.845
  871SOL    HW2 3513   4.443   1.742   3.862
  872SOL     OW 3514   1.605   2.787   5.578
  872SOL    HW1 3515   1.540   2.734   5.633
  872SOL    HW2 3516   1.663   2.842   5.638
  873SOL     OW 3517   3.729   0.383   6.532
  873SOL    HW1 3518   3.759   0.323   6.606
  873SOL    HW2 3519   3.801   0.450   6.512
  874SOL     OW 3520   5.839   3.750   2.736
  874SOL    HW1 3521   5.897   3.828   2.712
  874SOL    HW2 3522   5.865   3.671   2.680
  875SOL     OW 3523   5.629   5.210   2.056
  875SOL    HW1 3524   5.630   5.198   1.957
  875SOL    HW2 3525   5.536   5.197   2.091
  876SOL     OW 3526   6.246   1.353   6.454
  876SOL    HW1 3527   6.296   1.434   6.486
  876SOL    HW2 3528   6.295   1.311   6.378
  877SOL     OW 3529   1.163   3.120   6.585
  877SOL    HW1 3530   1.135   3.171   6.504
  877SOL    HW2 3531   1.088   3.059   6.613
  878SOL     OW 3532   4.477   6.284   4.637
  878SOL    HW1 3533   4.511   6.360   4.581
  878SOL    HW2 3534   4.542   6.266   4.711
  879SOL     OW 3535   5.996   6.969   6.238
  879SOL    HW1 3536   5.900   6.989   6.218
  879SOL    HW2 3537   6.014   6.872   6.220
  880SOL     OW 3538   3.643   2.886   3.034
  880SOL    HW1 3539   3.739   2.890   3.004
  880SOL    HW2 3540   3.584   2.871   2.954
  881SOL     OW 3541   4.757   2.218   0.772
  881SOL    HW1 3542   4.696   2.268   0.835
  881SOL    HW2 3543   4.716   2.217   0.681
  882SOL     OW 3544   1.463   2.849   3.469
  882SOL    HW1 3545   1.419   2.764   3.499
  882SOL    HW2 3546   1.527   2.829   3.394
  883SOL     OW 3547   2.264   6.535   2.621
  883SOL    HW1 3548   2.186   6.494   2.572
  883SOL    HW2 3549   2.343   6.474   2.613
  884SOL     OW 3550   2.560   3.302   5.882
  884SOL    HW1 3551   2.620   3.355   5.822
  884SOL    HW2 3552   2.473   3.286   5.835
  885SOL     OW 3553   4.110   3.427   6.409
  885SOL    HW1 3554   4.144   3.450   6.500
  885SOL    HW2 3555   4.068   3.336   6.411
  886SOL     OW 3556   3.444   1.559   6.309
  886SOL    HW1 3557   3.376   1.568   6.237
  886SOL    HW2 3558   3.474   1.650   6.338
  887SOL     OW 3559   4.015   1.015   5.150
  887SOL    HW1 3560   3.930   1.045   5.193
  887SOL    HW2 3561   3.996   0.936   5.091
  888SOL     OW 3562   0.688   6.803   2.157
  888SOL    HW1 3563   0.720   6.887   2.200
  888SOL    HW2 3564   0.676   6.819   2.059
  889SOL     OW 3565   0.412   4.029   0.989
  889SOL    HW1 3566   0.331   4.041   1.048
  889SOL    HW2 3567   0.385   3.984   0.904
  890SOL     OW 3568   2.535   6.114   4.848
  890SOL    HW1 3569   2.492   6.087   4.934
  890SOL    HW2 3570   2.624   6.070   4.840
  891SOL     OW 3571   4.640   4.585   2.404
  891SOL    HW1 3572   4.682   4.515   2.347
  891SOL    HW2 3573   4.683   4.585   2.494
  892SOL     OW 3574   2.408   4.493   1.381
  892SOL    HW1 3575   2.447   4.454   1.464
  892SOL    HW2 3576   2.353   4.424   1.334
  893SOL     OW 3577   1.540   5.210   2.288
  893SOL    HW1 3578   1.579   5.236   2.200
  893SOL    HW2 3579   1.556   5.283   2.355
  894SOL     OW 3580   0.850   4.413   1.264
  894SOL    HW1 3581   0.850   4.429   1.363
  894SOL    HW2 3582   0.756   4.418   1.230
  895SOL     OW 3583   6.745   5.806   4.590
  895SOL    HW1 3584   6.725   5.789   4.686
  895SOL    HW2 3585   6.718   5.899   4.566
  896SOL     OW 3586   6.936   0.873   6.276
  896SOL    HW1 3587   6.947   0.818   6.193
  896SOL    HW2 3588   0.003   0.905   6.307
  897SOL     OW 3589   5.737   1.243   0.564
  897SOL    HW1 3590   5.668   1.279   0.500
  897SOL    HW2 3591   5.766   1.315   0.625
  898SOL     OW 3592   4.052   1.759   3.575
  898SOL    HW1 3593   4.015   1.757   3.482
  898SOL    HW2 3594   4.149   1.734   3.572
  899SOL     OW 3595   6.792   6.980   0.110
  899SOL    HW1 3596   6.767   0.017   0.187
  899SOL    HW2 3597   6.861   6.914   0.140
  900SOL     OW 3598   5.354   5.185   6.063
  900SOL    HW1 3599   5.284   5.256   6.059
  900SOL    HW2 3600   5.322   5.110   6.121
  901SOL     OW 3601   1.376   0.759   2.903
  901SOL    HW1 3602   1.380   0.857   2.881
  901SOL    HW2 3603   1.465   0.718   2.887
  902SOL     OW 3604   7.002   3.258   2.416
  902SOL    HW1 3605   6.904   3.253   2.432
  902SOL    HW2 3606   0.007   3.187   2.350
  903SOL     OW 3607   6.621   1.114   0.418
  903SOL    HW1 3608   6.542   1.068   0.459
  903SOL    HW2 3609   6.621   1.210   0.445
  904SOL     OW 3610   2.767   1.421   3.277
  904SOL    HW1 3611   2.738   1.378   3.191
  904SOL    HW2 3612   2.710   1.388   3.352
  905SOL     OW 3613   5.676   2.246   6.143
  905SOL    HW1 3614   5.739   2.171   6.124
  905SOL    HW2 3615   5.652   2.248   6.240
  906SOL     OW 3616   6.170   3.262   1.098
  906SOL    HW1 3617   6.194   3.356   1.074
  906SOL    HW2 3618   6.129   3.216   1.019
  907SOL     OW 3619   5.663   4.452   0.063
  907SOL    HW1 3620   5.694   4.361   0.032
  907SOL    HW2 3621   5.732   4.520   0.038
  908SOL     OW 3622   0.411   3.881   3.286
  908SOL    HW1 3623   0.345   3.844   3.351
  908SOL    HW2 3624   0.390   3.847   3.194
  909SOL     OW 3625   5.188   4.522   6.241
  909SOL    HW1 3626   5.259   4.510   6.310
  909SOL    HW2 3627   5.219   4.481   6.155
  910SOL     OW 3628   3.075   4.767   0.478
  910SOL    HW1 3629   3.100   4.723   0.392
  910SOL    HW2 3630   3.078   4.867   0.467
  911SOL     OW 3631   1.347   4.546   6.239
  911SOL    HW1 3632   1.383   4.602   6.314
  911SOL    HW2 3633   1.423   4.510   6.185
  912SOL     OW 3634   5.162   1.640   5.615
  912SOL    HW1 3635   5.169   1.681   5.706
  912SOL    HW2 3636   5.066   1.618   5.596
  913SOL     OW 3637   5.348   5.493   3.311
  913SOL    HW1 3638   5.323   5.415   3.367
  913SOL    HW2 3639   5.365   5.573   3.369
  914SOL     OW 3640   2.762   6.557   5.638
  914SOL    HW1 3641   2.849   6.521   5.670
  914SOL    HW2 3642   2.769   6.578   5.540
  915SOL     OW 3643   5.828   5.239   2.265
  915SOL    HW1 3644   5.921   5.272   2.251
  915SOL    HW2 3645   5.781   5.236   2.177
  916SOL     OW 3646   0.700   3.787   3.115
  916SOL    HW1 3647   0.721   3.822   3.207
  916SOL    HW2 3648   0.639   3.708   3.123
  917SOL     OW 3649   0.736   6.803   6.558
  917SOL    HW1 3650   0.703   6.710   6.541
  917SOL    HW2 3651   0.692   6.839   6.641
  918SOL     OW 3652   3.444   5.976   6.390
  918SOL    HW1 3653   3.350   5.968   6.358
  918SOL    HW2 3654   3.502   5.909   6.343
  919SOL     OW 3655   4.423   0.264   5.920
  919SOL    HW1 3656   4.495   0.331   5.902
  919SOL    HW2 3657   4.430   0.233   6.015
  920SOL     OW 3658   3.154   4.623   1.740
  920SOL    HW1 3659   3.063   4.582   1.735
  920SOL    HW2 3660   3.220   4.560   1.698
  921SOL     OW 3661   4.866   5.514   5.295
  921SOL    HW1 3662   4.950   5.460   5.286
  921SOL    HW2 3663   4.814   5.480   5.374
  922SOL     OW 3664   3.475   4.136   3.010
  922SOL    HW1 3665   3.444   4.165   3.101
  922SOL    HW2 3666   3.571   4.162   2.999
  923SOL     OW 3667   2.633   4.002   5.576
  923SOL    HW1 3668   2.657   3.954   5.491
  923SOL    HW2 3669   2.570   3.946   5.629
  924SOL     OW 3670   1.287   2.769   1.126
  924SOL    HW1 3671   1.242   2.706   1.063
  924SOL    HW2 3672   1.308   2.855   1.080
  925SOL     OW 3673   0.607   1.415   6.880
  925SOL    HW1 3674   0.703   1.401   6.855
  925SOL    HW2 3675   0.601   1.448   6.974
  926SOL     OW 3676   2.007   2.422   1.385
  926SOL    HW1 3677   2.104   2.398   1.393
  926SOL    HW2 3678   1.991   2.467   1.296
  927SOL     OW 3679   0.010   3.402   5.112
  927SOL    HW1 3680   0.010   3.500   5.089
  927SOL    HW2 3681   0.031   3.391   5.209
  928SOL     OW 3682   3.159   4.987   6.168
  928SOL    HW1 3683   3.142   5.084   6.184
  928SOL    HW2 3684   3.242   4.959   6.216
  929SOL     OW 3685   1.030   2.012   5.064
  929SOL    HW1 3686   1.088   1.958   5.125
  929SOL    HW2 3687   1.078   2.029   4.978
  930SOL     OW 3688   5.941   5.217   5.146
  930SOL    HW1 3689   5.872   5.265   5.092
  930SOL    HW2 3690   6.032   5.242   5.112
  931SOL     OW 3691   6.111   0.633   3.784
  931SOL    HW1 3692   6.156   0.722   3.788
  931SOL    HW2 3693   6.179   0.562   3.769
  932SOL     OW 3694   4.268   7.005   3.725
  932SOL    HW1 3695   4.230   0.055   3.783
  932SOL    HW2 3696   4.310   0.023   3.644
  933SOL     OW 3697   1.073   6.012   1.840
  933SOL    HW1 3698   1.110   5.942   1.779
  933SOL    HW2 3699   1.049   6.093   1.787
  934SOL     OW 3700   2.092   3.025   0.991
  934SOL    HW1 3701   2.087   2.947   0.928
  934SOL    HW2 3702   2.056   2.998   1.080
  935SOL     OW 3703   5.546   2.688   5.403
  935SOL    HW1 3704   5.486   2.674   5.483
  935SOL    HW2 3705   5.613   2.614   5.399
  936SOL     OW 3706   1.593   1.216   6.276
  936SOL    HW1 3707   1.678   1.250   6.317
  936SOL    HW2 3708   1.574   1.266   6.192
  937SOL     OW 3709   3.082   2.399   6.289
  937SOL    HW1 3710   3.009   2.448   6.335
  937SOL    HW2 3711   3.138   2.463   6.235
  938SOL     OW 3712   5.006   6.429   4.950
  938SOL    HW1 3713   4.908   6.447   4.937
  938SOL    HW2 3714   5.029   6.339   4.911
  939SOL     OW 3715   1.749   0.107   4.563
  939SOL    HW1 3716   1.767   0.120   4.466
  939SOL    HW2 3717   1.814   0.041   4.601
  940SOL     OW 3718   1.902   5.490   0.802
  940SOL    HW1 3719   1.822   5.544   0.775
  940SOL    HW2 3720   1.983   5.549   0.802
  941SOL     OW 3721   3.933   6.784   1.003
  941SOL    HW1 3722   3.841   6.768   0.967
  941SOL    HW2 3723   3.967   6.699   1.044
  942SOL     OW 3724   6.977   5.378   6.858
  942SOL    HW1 3725   6.884   5.346   6.880
  942SOL    HW2 3726   6.991   5.374   6.759
  943SOL     OW 3727   3.494   6.351   1.311
  943SOL    HW1 3728   3.403   6.355   1.351
  943SOL    HW2 3729   3.531   6.259   1.322
  944SOL     OW 3730   6.094   6.234   3.277
  944SOL    HW1 3731   6.192   6.231   3.256
  944SOL    HW2 3732   6.069   6.326   3.308
  945SOL     OW 3733   0.574   5.046   6.824
  945SOL    HW1 3734   0.591   5.068   6.920
  945SOL    HW2 3735   0.476   5.056   6.804
  946SOL     OW 3736   5.536   1.863   3.773
  946SOL    HW1 3737   5.621   1.886   3.726
  946SOL    HW2 3738   5.554   1.856   3.872
  947SOL     OW 3739   3.557   4.111   2.653
  947SOL    HW1 3740   3.458   4.103   2.647
  947SOL    HW2 3741   3.588   4.072   2.740
  948SOL     OW 3742   3.390   1.835   4.017
  948SOL    HW1 3743   3.412   1.766   3.948
  948SOL    HW2 3744   3.380   1.924   3.973
  949SOL     OW 3745   2.281   0.036   5.302
  949SOL    HW1 3746   2.365   0.004   5.346
  949SOL    HW2 3747   2.202   7.011   5.341
  950SOL     OW 3748   0.123   0.097   1.507
  950SOL    HW1 3749   0.040   0.133   1.464
  950SOL    HW2 3750   0.126   0.125   1.603
  951SOL     OW 3751   1.179   0.104   3.084
  951SOL    HW1 3752   1.213   0.111   2.991
  951SOL    HW2 3753   1.224   0.173   3.142
  952SOL     OW 3754   3.219   1.799   2.597
  952SOL    HW1 3755   3.279   1.723   2.620
  952SOL    HW2 3756   3.243   1.835   2.507
  953SOL     OW 3757   1.193   6.169   5.563
  953SOL    HW1 3758   1.143   6.247   5.525
  953SOL    HW2 3759   1.134   6.089   5.564
  954SOL     OW 3760   4.399   6.525   2.611
  954SOL    HW1 3761   4.417   6.430   2.633
  954SOL    HW2 3762   4.338   6.531   2.532
  955SOL     OW 3763   3.183   4.387   1.471
  955SOL    HW1 3764   3.260   4.405   1.532
  955SOL    HW2 3765   3.155   4.472   1.427
  956SOL     OW 3766   3.502   0.219   0.776
  956SOL    HW1 3767   3.499   0.133   0.725
  956SOL    HW2 3768   3.530   0.293   0.716
  957SOL     OW 3769   6.021   6.892   3.107
  957SOL    HW1 3770   6.040   6.947   3.189
  957SOL    HW2 3771   6.107   6.858   3.068
  958SOL     OW 3772   5.651   5.634   1.866
  958SOL    HW1 3773   5.571   5.677   1.825
  958SOL    HW2 3774   5.731   5.651   1.809
  959SOL     OW 3775   4.804   6.572   2.228
  959SOL    HW1 3776   4.854   6.536   2.306
  959SOL    HW2 3777   4.711   6.595   2.256
  960SOL     OW 3778   0.835   6.710   5.790
  960SOL    HW1 3779   0.822   6.612   5.780
  960SOL    HW2 3780   0.836   6.753   5.699
  961SOL     OW 3781   3.940   0.854   3.620
  961SOL    HW1 3782   3.883   0.780   3.583
  961SOL    HW2 3783   4.035   0.823   3.627
  962SOL     OW 3784   6.924   0.372   4.995
  962SOL    HW1 3785   6.958   0.433   4.923
  962SOL    HW2 3786   6.958   0.279   4.979
  963SOL     OW 3787   5.520   2.516   1.254
  963SOL    HW1 3788   5.540   2.612   1.233
  963SOL    HW2 3789   5.589   2.457   1.212
  964SOL     OW 3790   3.687   6.432   5.103
  964SOL    HW1 3791   3.756   6.372   5.062
  964SOL    HW2 3792   3.634   6.382   5.171
  965SOL     OW 3793   4.915   1.628   4.713
  965SOL    HW1 3794   4.933   1.666   4.804
  965SOL    HW2 3795   4.898   1.703   4.649
  966SOL     OW 3796   5.074   0.890   3.322
  966SOL    HW1 3797   5.015   0.962   3.285
  966SOL    HW2 3798   5.167   0.925   3.334
  967SOL     OW 3799   3.997   5.509   5.851
  967SOL    HW1 3800   4.041   5.584   5.900
  967SOL    HW2 3801   3.906   5.538   5.821
  968SOL     OW 3802   4.422   0.144   1.579
  968SOL    HW1 3803   4.403   0.135   1.482
  968SOL    HW2 3804   4.518   0.121   1.597
  969SOL     OW 3805   3.298   3.481   6.801
  969SOL    HW1 3806   3.279   3.395   6.755
  969SOL    HW2 3807   3.317   3.552   6.733
  970SOL     OW 3808   4.441   6.106   5.490
  970SOL    HW1 3809   4.491   6.191   5.470
  970SOL    HW2 3810   4.350   6.111   5.451
  971SOL     OW 3811   4.850   3.234   3.679
  971SOL    HW1 3812   4.882   3.305   3.616
  971SOL    HW2 3813   4.928   3.198   3.731
  972SOL     OW 3814   0.524   1.802   0.830
  972SOL    HW1 3815   0.562   1.711   0.812
  972SOL    HW2 3816   0.596   1.871   0.821
  973SOL     OW 3817   6.689   2.344   4.734
  973SOL    HW1 3818   6.786   2.319   4.739
  973SOL    HW2 3819   6.678   2.440   4.758
  974SOL     OW 3820   1.527   3.399   1.994
  974SOL    HW1 3821   1.513   3.497   1.977
  974SOL    HW2 3822   1.607   3.367   1.944
  975SOL     OW 3823   3.217   0.842   2.196
  975SOL    HW1 3824   3.267   0.811   2.277
  975SOL    HW2 3825   3.243   0.785   2.118
  976SOL     OW 3826   0.397   3.056   3.996
  976SOL    HW1 3827   0.304   3.040   3.964
  976SOL    HW2 3828   0.460   2.995   3.947
  977SOL     OW 3829   6.763   1.452   1.914
  977SOL    HW1 3830   6.682   1.428   1.860
  977SOL    HW2 3831   6.738   1.519   1.985
  978SOL     OW 3832   5.808   2.066   0.563
  978SOL    HW1 3833   5.778   1.979   0.522
  978SOL    HW2 3834   5.844   2.126   0.492
  979SOL     OW 3835   0.408   4.989   6.462
  979SOL    HW1 3836   0.386   5.008   6.558
  979SOL    HW2 3837   0.495   4.939   6.458
  980SOL     OW 3838   4.889   1.716   3.958
  980SOL    HW1 3839   4.974   1.709   3.905
  980SOL    HW2 3840   4.902   1.780   4.034
  981SOL     OW 3841   0.565   6.070   5.929
  981SOL    HW1 3842   0.485   6.028   5.886
  981SOL    HW2 3843   0.571   6.039   6.024
  982SOL     OW 3844   0.355   0.799   6.526
  982SOL    HW1 3845   0.275   0.857   6.511
  982SOL    HW2 3846   0.409   0.835   6.602
  983SOL     OW 3847   7.007   3.909   2.439
  983SOL    HW1 3848   0.016   3.963   2.361
  983SOL    HW2 3849   6.928   3.954   2.481
  984SOL     OW 3850   0.248   3.791   4.130
  984SOL    HW1 3851   0.219   3.756   4.220
  984SOL    HW2 3852   0.340   3.759   4.110
  985SOL     OW 3853   5.637   4.798   5.684
  985SOL    HW1 3854   5.686   4.718   5.718
  985SOL    HW2 3855   5.542   4.774   5.668
  986SOL     OW 3856   4.018   5.734   1.967
  986SOL    HW1 3857   3.969   5.661   1.920
  986SOL    HW2 3858   3.991   5.822   1.928
  987SOL     OW 3859   4.386   4.657   4.417
  987SOL    HW1 3860   4.337   4.674   4.502
  987SOL    HW2 3861   4.435   4.570   4.423
  988SOL     OW 3862   3.164   4.853   2.175
  988SOL    HW1 3863   3.114   4.779   2.219
  988SOL    HW2 3864   3.113   4.885   2.095
  989SOL     OW 3865   0.503   2.279   1.452
  989SOL    HW1 3866   0.528   2.323   1.366
  989SOL    HW2 3867   0.404   2.264   1.455
  990SOL     OW 3868   3.349   0.055   5.221
  990SOL    HW1 3869   3.274   0.002   5.263
  990SOL    HW2 3870   3.419   7.014   5.188
  991SOL     OW 3871   1.328   6.212   4.307
  991SOL    HW1 3872   1.234   6.182   4.322
  991SOL    HW2 3873   1.386   6.177   4.381
  992SOL     OW 3874   6.517   3.678   1.080
  992SOL    HW1 3875   6.548   3.624   1.002
  992SOL    HW2 3876   6.466   3.620   1.143
  993SOL     OW 3877   2.179   5.166   6.923
  993SOL    HW1 3878   2.200   5.198   7.016
  993SOL    HW2 3879   2.261   5.177   6.866
  994SOL     OW 3880   2.993   0.127   1.298
  994SOL    HW1 3881   3.004   0.066   1.219
  994SOL    HW2 3882   3.084   0.156   1.330
  995SOL     OW 3883   5.425   4.030   5.047
  995SOL    HW1 3884   5.410   3.934   5.073
  995SOL    HW2 3885   5.479   4.075   5.118
  996SOL     OW 3886   3.898   6.693   5.424
  996SOL    HW1 3887   3.825   6.760   5.440
  996SOL    HW2 3888   3.921   6.692   5.327
  997SOL     OW 3889   1.177   6.047   3.207
  997SOL    HW1 3890   1.172   6.004   3.297
  997SOL    HW2 3891   1.199   6.144   3.218
  998SOL     OW 3892   4.526   7.007   7.020
  998SOL    HW1 3893   4.505   6.921   6.974
  998SOL    HW2 3894   4.452   0.007   0.062
  999SOL     OW 3895   5.997   3.244   2.383
  999SOL    HW1 3896   6.069   3.177   2.364
  999SOL    HW2 3897   6.036   3.336   2.386
 1000SOL     OW 3898   6.300   1.568   1.937
 1000SOL    HW1 3899   6.290   1.648   1.996
 1000SOL    HW2 3900   6.248   1.491   1.975
 1001SOL     OW 3901   2.384   6.651   3.055
 1001SOL    HW1 3902   2.286   6.642   3.034
 1001SOL    HW2 3903   2.426   6.716   2.991
 1002SOL     OW 3904   4.436   2.508   0.214
 1002SOL    HW1 3905   4.382   2.570   0.156
 1002SOL    HW2 3906   4.397   2.416   0.210
 1003SOL     OW 3907   1.045   1.596   3.846
 1003SOL    HW1 3908   1.037   1.496   3.843
 1003SOL    HW2 3909   1.027   1.628   3.938
 1004SOL     OW 3910   4.572   1.425   4.766
 1004SOL    HW1 3911   4.545   1.373   4.685
 1004SOL    HW2 3912   4.490   1.453   4.817
 1005SOL     OW 3913   0.774   5.868   1.943
 1005SOL    HW1 3914   0.824   5.789   1.908
 1005SOL    HW2 3915   0.707   5.838   2.011
 1006SOL     OW 3916   1.723   4.412   1.442
 1006SOL    HW1 3917   1.730   4.410   1.542
 1006SOL    HW2 3918   1.663   4.338   1.412
 1007SOL     OW 3919   4.749   1.080   6.274
 1007SOL    HW1 3920   4.727   0.983   6.263
 1007SOL    HW2 3921   4.718   1.130   6.193
 1008SOL     OW 3922   0.065   4.188   4.785
 1008SOL    HW1 3923   0.095   4.282   4.769
 1008SOL    HW2 3924   0.135   4.140   4.837
 1009SOL     OW 3925   6.197   6.006   6.564
 1009SOL    HW1 3926   6.285   6.052   6.569
 1009SOL    HW2 3927   6.147   6.037   6.482
 1010SOL     OW 3928   3.391   4.247   0.209
 1010SOL    HW1 3929   3.388   4.151   0.182
 1010SOL    HW2 3930   3.304   4.273   0.251
 1011SOL     OW 3931   6.909   5.411   2.448
 1011SOL    HW1 3932   6.859   5.462   2.377
 1011SOL    HW2 3933   7.006   5.407   2.424
 1012SOL     OW 3934   5.085   6.092   3.231
 1012SOL    HW1 3935   5.129   6.003   3.233
 1012SOL    HW2 3936   4.992   6.083   3.196
 1013SOL     OW 3937   0.740   1.270   6.378
 1013SOL    HW1 3938   0.709   1.293   6.470
 1013SOL    HW2 3939   0.733   1.171   6.364
 1014SOL     OW 3940   0.832   4.534   4.243
 1014SOL    HW1 3941   0.790   4.445   4.261
 1014SOL    HW2 3942   0.827   4.591   4.326
 1015SOL     OW 3943   3.283   5.947   6.740
 1015SOL    HW1 3944   3.320   6.039   6.732
 1015SOL    HW2 3945   3.189   5.953   6.774
 1016SOL     OW 3946   6.877   4.943   0.333
 1016SOL    HW1 3947   6.938   4.893   0.272
 1016SOL    HW2 3948   6.783   4.937   0.299
 1017SOL     OW 3949   1.550   0.625   2.253
 1017SOL    HW1 3950   1.499   0.561   2.195
 1017SOL    HW2 3951   1.499   0.642   2.337
 1018SOL     OW 3952   5.701   5.834   5.674
 1018SOL    HW1 3953   5.737   5.756   5.725
 1018SOL    HW2 3954   5.771   5.906   5.670
 1019SOL     OW 3955   6.534   3.681   1.708
 1019SOL    HW1 3956   6.486   3.686   1.795
 1019SOL    HW2 3957   6.629   3.711   1.721
 1020SOL     OW 3958   5.383   1.065   0.989
 1020SOL    HW1 3959   5.421   1.085   1.080
 1020SOL    HW2 3960   5.451   1.086   0.919
 1021SOL     OW 3961   1.436   6.777   0.507
 1021SOL    HW1 3962   1.395   6.769   0.598
 1021SOL    HW2 3963   1.536   6.776   0.516
 1022SOL     OW 3964   1.919   5.143   6.227
 1022SOL    HW1 3965   1.886   5.161   6.319
 1022SOL    HW2 3966   1.933   5.229   6.178
 1023SOL     OW 3967   0.995   1.935   2.076
 1023SOL    HW1 3968   0.988   1.951   2.175
 1023SOL    HW2 3969   0.911   1.967   2.031
 1024SOL     OW 3970   1.743   2.846   4.431
 1024SOL    HW1 3971   1.659   2.891   4.459
 1024SOL    HW2 3972   1.728   2.798   4.344
 1025SOL     OW 3973   4.665   4.244   0.822
 1025SOL    HW1 3974   4.594   4.311   0.800
 1025SOL    HW2 3975   4.755   4.282   0.801
 1026SOL     OW 3976   3.487   2.756   1.830
 1026SOL    HW1 3977   3.429   2.686   1.788
 1026SOL    HW2 3978   3.502   2.830   1.764
 1027SOL     OW 3979   6.332   0.540   0.240
 1027SOL    HW1 3980   6.284   0.506   0.321
 1027SOL    HW2 3981   6.289   0.503   0.158
 1028SOL     OW 3982   0.725   5.259   3.265
 1028SOL    HW1 3983   0.745   5.356   3.280
 1028SOL    HW2 3984   0.799   5.203   3.301
 1029SOL     OW 3985   1.329   0.449   5.002
 1029SOL    HW1 3986   1.348   0.429   5.098
 1029SOL    HW2 3987   1.251   0.394   4.971
 1030SOL     OW 3988   4.075   3.613   1.192
 1030SOL    HW1 3989   4.020   3.610   1.275
 1030SOL    HW2 3990   4.110   3.705   1.179
 1031SOL     OW 3991   4.314   2.934   0.154
 1031SOL    HW1 3992   4.285   2.888   0.238
 1031SOL    HW2 3993   4.393   2.992   0.175
 1032SOL     OW 3994   1.338   1.125   1.366
 1032SOL    HW1 3995   1.243   1.094   1.359
 1032SOL    HW2 3996   1.360   1.185   1.289
 1033SOL     OW 3997   6.317   0.112   1.934
 1033SOL    HW1 3998   6.230   0.127   1.888
 1033SOL    HW2 3999   6.384   0.074   1.870
 1034SOL     OW 4000   2.266   0.636   5.610
 1034SOL    HW1 4001   2.221   0.577   5.677
 1034SOL    HW2 4002   2.198   0.669   5.544
 1035SOL     OW 4003   1.662   0.263   0.100
 1035SOL    HW1 4004   1.652   0.164   0.104
 1035SOL    HW2 4005   1.715   0.288   0.019
 1036SOL     OW 4006   5.530   0.982   2.567
 1036SOL    HW1 4007   5.465   1.049   2.603
 1036SOL    HW2 4008   5.558   1.009   2.475
 1037SOL     OW 4009   0.931   4.123   2.774
 1037SOL    HW1 4010   0.916   4.083   2.864
 1037SOL    HW2 4011   0.922   4.052   2.704
 1038SOL     OW 4012   1.617   6.620   6.695
 1038SOL    HW1 4013   1.532   6.665   6.721
 1038SOL    HW2 4014   1.689   6.644   6.761
 1039SOL     OW 4015   2.930   3.768   2.784
 1039SOL    HW1 4016   2.997   3.829   2.827
 1039SOL    HW2 4017   2.912   3.690   2.845
 1040SOL     OW 4018   3.586   1.490   2.819
 1040SOL    HW1 4019   3.622   1.412   2.767
 1040SOL    HW2 4020   3.489   1.475   2.838
 1041SOL     OW 4021   6.944   6.946   6.704
 1041SOL    HW1 4022   6.891   6.935   6.788
 1041SOL    HW2 4023   7.010   6.871   6.696
 1042SOL     OW 4024   5.473   3.197   3.746
 1042SOL    HW1 4025   5.468   3.255   3.664
 1042SOL    HW2 4026   5.568   3.190   3.776
 1043SOL     OW 4027   2.320   2.279   3.571
 1043SOL    HW1 4028   2.239   2.221   3.583
 1043SOL    HW2 4029   2.298   2.355   3.509
 1044SOL     OW 4030   5.229   4.585   2.173
 1044SOL    HW1 4031   5.144   4.543   2.203
 1044SOL    HW2 4032   5.262   4.648   2.244
 1045SOL     OW 4033   1.993   0.424   2.374
 1045SOL    HW1 4034   1.922   0.451   2.440
 1045SOL    HW2 4035   2.009   0.326   2.381
 1046SOL     OW 4036   3.774   2.452   0.918
 1046SOL    HW1 4037   3.754   2.406   1.004
 1046SOL    HW2 4038   3.694   2.504   0.888
 1047SOL     OW 4039   3.960   0.466   3.288
 1047SOL    HW1 4040   3.898   0.440   3.362
 1047SOL    HW2 4041   4.040   0.511   3.327
 1048SOL     OW 4042   6.975   0.040   2.522
 1048SOL    HW1 4043   7.015   6.971   2.530
 1048SOL    HW2 4044   6.966   0.081   2.613
 1049SOL     OW 4045   3.197   6.669   0.421
 1049SOL    HW1 4046   3.296   6.661   0.410
 1049SOL    HW2 4047   3.162   6.742   0.361
 1050SOL     OW 4048   2.061   1.923   4.260
 1050SOL    HW1 4049   1.964   1.902   4.270
 1050SOL    HW2 4050   2.110   1.842   4.229
 1051SOL     OW 4051   1.741   2.234   5.449
 1051SOL    HW1 4052   1.734   2.334   5.443
 1051SOL    HW2 4053   1.687   2.201   5.527
 1052SOL     OW 4054   4.698   2.523   6.106
 1052SOL    HW1 4055   4.656   2.441   6.144
 1052SOL    HW2 4056   4.719   2.587   6.181
 1053SOL     OW 4057   4.581   2.565   4.401
 1053SOL    HW1 4058   4.598   2.474   4.363
 1053SOL    HW2 4059   4.504   2.559   4.465
 1054SOL     OW 4060   5.040   5.334   6.513
 1054SOL    HW1 4061   5.013   5.413   6.458
 1054SOL    HW2 4062   4.959   5.279   6.535
 1055SOL     OW 4063   5.375   5.638   5.842
 1055SOL    HW1 4064   5.279   5.627   5.819
 1055SOL    HW2 4065   5.408   5.556   5.888
 1056SOL     OW 4066   3.835   3.723   0.101
 1056SOL    HW1 4067   3.909   3.658   0.119
 1056SOL    HW2 4068   3.766   3.716   0.173
 1057SOL     OW 4069   2.869   3.780   6.466
 1057SOL    HW1 4070   2.797   3.829   6.515
 1057SOL    HW2 4071   2.956   3.825   6.481
 1058SOL     OW 4072   2.944   1.923   1.652
 1058SOL    HW1 4073   2.964   1.857   1.579
 1058SOL    HW2 4074   2.992   2.009   1.632
 1059SOL     OW 4075   2.538   5.968   2.717
 1059SOL    HW1 4076   2.527   5.945   2.620
 1059SOL    HW2 4077   2.631   5.999   2.734
 1060SOL     OW 4078   6.355   0.054   5.124
 1060SOL    HW1 4079   6.366   0.058   5.025
 1060SOL    HW2 4080   6.428   0.105   5.169
 1061SOL     OW 4081   0.160   3.866   6.640
 1061SOL    HW1 4082   0.234   3.810   6.676
 1061SOL    HW2 4083   0.092   3.883   6.712
 1062SOL     OW 4084   3.880   4.917   5.893
 1062SOL    HW1 4085   3.904   4.872   5.808
 1062SOL    HW2 4086   3.955   4.977   5.921
 1063SOL     OW 4087   2.658   6.610   3.932
 1063SOL    HW1 4088   2.614   6.556   3.860
 1063SOL    HW2 4089   2.699   6.692   3.892
 1064SOL     OW 4090   0.869   4.357   0.776
 1064SOL    HW1 4091   0.961   4.321   0.793
 1064SOL    HW2 4092   0.849   4.352   0.679
 1065SOL     OW 4093   6.041   0.968   5.560
 1065SOL    HW1 4094   6.013   0.947   5.466
 1065SOL    HW2 4095   6.102   1.047   5.560
 1066SOL     OW 4096   4.368   6.149   1.203
 1066SOL    HW1 4097   4.392   6.168   1.298
 1066SOL    HW2 4098   4.444   6.105   1.157
 1067SOL     OW 4099   3.711   1.523   0.528
 1067SOL    HW1 4100   3.717   1.456   0.453
 1067SOL    HW2 4101   3.738   1.479   0.614
 1068SOL     OW 4102   6.064   2.824   2.435
 1068SOL    HW1 4103   5.985   2.786   2.483
 1068SOL    HW2 4104   6.124   2.749   2.405
 1069SOL     OW 4105   0.287   1.896   2.436
 1069SOL    HW1 4106   0.316   1.933   2.524
 1069SOL    HW2 4107   0.366   1.889   2.375
 1070SOL     OW 4108   1.248   0.422   2.275
 1070SOL    HW1 4109   1.192   0.347   2.240
 1070SOL    HW2 4110   1.189   0.490   2.319
 1071SOL     OW 4111   0.536   2.808   5.747
 1071SOL    HW1 4112   0.602   2.864   5.697
 1071SOL    HW2 4113   0.523   2.722   5.698
 1072SOL     OW 4114   1.948   1.731   1.762
 1072SOL    HW1 4115   1.942   1.830   1.776
 1072SOL    HW2 4116   1.870   1.701   1.708
 1073SOL     OW 4117   5.140   1.839   2.678
 1073SOL    HW1 4118   5.182   1.754   2.708
 1073SOL    HW2 4119   5.184   1.871   2.594
 1074SOL     OW 4120   3.467   5.885   1.786
 1074SOL    HW1 4121   3.397   5.929   1.842
 1074SOL    HW2 4122   3.552   5.876   1.838
 1075SOL     OW 4123   6.835   3.483   4.702
 1075SOL    HW1 4124   6.888   3.415   4.754
 1075SOL    HW2 4125   6.838   3.571   4.748
 1076SOL     OW 4126   2.561   4.268   5.551
 1076SOL    HW1 4127   2.584   4.318   5.634
 1076SOL    HW2 4128   2.576   4.170   5.566
 1077SOL     OW 4129   6.859   6.590   0.488
 1077SOL    HW1 4130   6.832   6.500   0.452
 1077SOL    HW2 4131   6.929   6.630   0.428
 1078SOL     OW 4132   5.548   6.998   4.182
 1078SOL    HW1 4133   5.644   7.010   4.156
 1078SOL    HW2 4134   5.528   6.900   4.187
 1079SOL     OW 4135   1.076   5.757   1.549
 1079SOL    HW1 4136   1.068   5.693   1.473
 1079SOL    HW2 4137   1.036   5.845   1.523
 1080SOL     OW 4138   4.964   5.831   0.406
 1080SOL    HW1 4139   4.984   5.734   0.422
 1080SOL    HW2 4140   4.970   5.881   0.492
 1081SOL     OW 4141   6.914   6.727   3.425
 1081SOL    HW1 4142   6.897   6.728   3.327
 1081SOL    HW2 4143   6.977   6.801   3.449
 1082SOL     OW 4144   4.404   6.838   6.847
 1082SOL    HW1 4145   4.315   6.854   6.805
 1082SOL    HW2 4146   4.453   6.768   6.795
 1083SOL     OW 4147   6.545   3.916   2.482
 1083SOL    HW1 4148   6.599   3.849   2.532
 1083SOL    HW2 4149   6.536   3.999   2.536
 1084SOL     OW 4150   3.940   0.457   5.624
 1084SOL    HW1 4151   3.870   0.507   5.572
 1084SOL    HW2 4152   3.898   0.376   5.665
 1085SOL     OW 4153   1.587   3.366   4.871
 1085SOL    HW1 4154   1.640   3.444   4.904
 1085SOL    HW2 4155   1.516   3.343   4.937
 1086SOL     OW 4156   5.386   4.214   2.186
 1086SOL    HW1 4157   5.411   4.117   2.187
 1086SOL    HW2 4158   5.298   4.226   2.231
 1087SOL     OW 4159   3.560   0.460   5.797
 1087SOL    HW1 4160   3.548   0.560   5.796
 1087SOL    HW2 4161   3.584   0.430   5.889
 1088SOL     OW 4162   6.246   5.760   4.038
 1088SOL    HW1 4163   6.216   5.768   4.133
 1088SOL    HW2 4164   6.247   5.664   4.011
 1089SOL     OW 4165   5.742   5.256   4.350
 1089SOL    HW1 4166   5.678   5.180   4.339
 1089SOL    HW2 4167   5.835   5.222   4.335
 1090SOL     OW 4168   6.276   2.806   5.176
 1090SOL    HW1 4169   6.236   2.807   5.267
 1090SOL    HW2 4170   6.249   2.723   5.127
 1091SOL     OW 4171   1.858   3.513   3.653
 1091SOL    HW1 4172   1.956   3.529   3.636
 1091SOL    HW2 4173   1.842   3.415   3.664
 1092SOL     OW 4174   1.203   6.037   7.011
 1092SOL    HW1 4175   1.222   6.091   6.929
 1092SOL    HW2 4176   1.104   6.021   7.017
 1093SOL     OW 4177   1.862   0.762   2.893
 1093SOL    HW1 4178   1.902   0.817   2.819
 1093SOL    HW2 4179   1.926   0.692   2.922
 1094SOL     OW 4180   0.363   6.660   3.586
 1094SOL    HW1 4181   0.291   6.597   3.556
 1094SOL    HW2 4182   0.407   6.700   3.506
 1095SOL     OW 4183   6.220   4.430   1.023
 1095SOL    HW1 4184   6.260   4.340   1.039
 1095SOL    HW2 4185   6.250   4.493   1.094
 1096SOL     OW 4186   2.148   6.141   2.370
 1096SOL    HW1 4187   2.158   6.122   2.272
 1096SOL    HW2 4188   2.205   6.077   2.421
 1097SOL     OW 4189   3.352   5.979   4.816
 1097SOL    HW1 4190   3.360   6.059   4.876
 1097SOL    HW2 4191   3.403   5.995   4.732
 1098SOL     OW 4192   6.673   4.296   7.009
 1098SOL    HW1 4193   6.604   4.224   6.999
 1098SOL    HW2 4194   6.736   4.292   6.932
 1099SOL     OW 4195   5.482   0.118   0.088
 1099SOL    HW1 4196   5.514   0.208   0.058
 1099SOL    HW2 4197   5.506   0.049   0.019
 1100SOL     OW 4198   4.830   1.008   4.279
 1100SOL    HW1 4199   4.773   1.047   4.352
 1100SOL    HW2 4200   4.775   0.996   4.197
 1101SOL     OW 4201   4.780   2.804   6.906
 1101SOL    HW1 4202   4.696   2.750   6.901
 1101SOL    HW2 4203   4.761   2.899   6.880
 1102SOL     OW 4204   3.490   1.108   4.788
 1102SOL    HW1 4205   3.441   1.022   4.773
 1102SOL    HW2 4206   3.426   1.176   4.826
 1103SOL     OW 4207   3.368   6.728   0.675
 1103SOL    HW1 4208   3.373   6.701   0.579
 1103SOL    HW2 4209   3.336   6.822   0.681
 1104SOL     OW 4210   6.214   1.284   3.291
 1104SOL    HW1 4211   6.184   1.311   3.199
 1104SOL    HW2 4212   6.157   1.210   3.325
 1105SOL     OW 4213   4.690   0.256   5.576
 1105SOL    HW1 4214   4.708   0.291   5.668
 1105SOL    HW2 4215   4.664   0.160   5.581
 1106SOL     OW 4216   6.161   1.336   1.932
 1106SOL    HW1 4217   6.115   1.308   1.848
 1106SOL    HW2 4218   6.196   1.256   1.980
 1107SOL     OW 4219   1.433   2.382   6.596
 1107SOL    HW1 4220   1.343   2.354   6.632
 1107SOL    HW2 4221   1.485   2.428   6.668
 1108SOL     OW 4222   1.970   1.649   2.758
 1108SOL    HW1 4223   1.981   1.722   2.825
 1108SOL    HW2 4224   2.006   1.680   2.670
 1109SOL     OW 4225   4.910   1.884   5.270
 1109SOL    HW1 4226   4.876   1.901   5.362
 1109SOL    HW2 4227   4.845   1.919   5.203
 1110SOL     OW 4228   1.401   0.439   2.532
 1110SOL    HW1 4229   1.359   0.417   2.444
 1110SOL    HW2 4230   1.330   0.470   2.596
 1111SOL     OW 4231   5.523   3.227   6.060
 1111SOL    HW1 4232   5.620   3.233   6.080
 1111SOL    HW2 4233   5.510   3.191   5.967
 1112SOL     OW 4234   5.665   0.381   2.609
 1112SOL    HW1 4235   5.605   0.453   2.573
 1112SOL    HW2 4236   5.711   0.414   2.691
 1113SOL     OW 4237   0.338   1.656   2.627
 1113SOL    HW1 4238   0.367   1.735   2.681
 1113SOL    HW2 4239   0.311   1.582   2.689
 1114SOL     OW 4240   3.684   3.003   4.527
 1114SOL    HW1 4241   3.648   3.092   4.498
 1114SOL    HW2 4242   3.612   2.934   4.521
 1115SOL     OW 4243   2.263   5.210   6.210
 1115SOL    HW1 4244   2.302   5.153   6.138
 1115SOL    HW2 4245   2.213   5.153   6.275
 1116SOL     OW 4246   4.513   6.992   0.413
 1116SOL    HW1 4247   4.446   6.983   0.487
 1116SOL    HW2 4248   4.594   0.017   0.447
 1117SOL     OW 4249   1.990   2.598   1.582
 1117SOL    HW1 4250   1.957   2.528   1.519
 1117SOL    HW2 4251   2.072   2.564   1.628
 1118SOL     OW 4252   4.520   6.402   6.898
 1118SOL    HW1 4253   4.595   6.466   6.882
 1118SOL    HW2 4254   4.517   6.335   6.824
 1119SOL     OW 4255   2.630   6.034   4.061
 1119SOL    HW1 4256   2.576   6.000   4.139
 1119SOL    HW2 4257   2.644   5.960   3.996
 1120SOL     OW 4258   0.787   3.282   1.674
 1120SOL    HW1 4259   0.867   3.310   1.620
 1120SOL    HW2 4260   0.728   3.361   1.689
 1121SOL     OW 4261   5.467   4.168   5.853
 1121SOL    HW1 4262   5.505   4.076   5.849
 1121SOL    HW2 4263   5.535   4.234   5.819
 1122SOL     OW 4264   6.009   0.634   2.219
 1122SOL    HW1 4265   6.008   0.612   2.316
 1122SOL    HW2 4266   6.101   0.663   2.192
 1123SOL     OW 4267   3.420   1.566   4.599
 1123SOL    HW1 4268   3.352   1.567   4.672
 1123SOL    HW2 4269   3.447   1.660   4.577
 1124SOL     OW 4270   2.583   2.473   3.275
 1124SOL    HW1 4271   2.561   2.519   3.362
 1124SOL    HW2 4272   2.534   2.517   3.200
 1125SOL     OW 4273   1.093   3.344   4.427
 1125SOL    HW1 4274   1.006   3.298   4.447
 1125SOL    HW2 4275   1.161   3.276   4.400
 1126SOL     OW 4276   4.559   4.435   3.810
 1126SOL    HW1 4277   4.529   4.459   3.903
 1126SOL    HW2 4278   4.654   4.403   3.813
 1127SOL     OW 4279   6.039   6.841   0.994
 1127SOL    HW1 4280   6.080   6.788   0.920
 1127SOL    HW2 4281   5.969   6.786   1.039
 1128SOL     OW 4282   3.454   1.824   4.926
 1128SOL    HW1 4283   3.445   1.922   4.939
 1128SOL    HW2 4284   3.444   1.802   4.829
 1129SOL     OW 4285   1.307   1.180   6.961
 1129SOL    HW1 4286   1.372   1.227   7.021
 1129SOL    HW2 4287   1.341   1.182   6.867
 1130SOL     OW 4288   2.082   5.563   1.247
 1130SOL    HW1 4289   2.081   5.469   1.213
 1130SOL    HW2 4290   1.989   5.600   1.248
 1131SOL     OW 4291   1.628   5.380   3.694
 1131SOL    HW1 4292   1.632   5.471   3.653
 1131SOL    HW2 4293   1.563   5.381   3.770
 1132SOL     OW 4294   1.649   2.104   3.092
 1132SOL    HW1 4295   1.706   2.120   3.012
 1132SOL    HW2 4296   1.705   2.069   3.167
 1133SOL     OW 4297   1.507   6.287   6.650
 1133SOL    HW1 4298   1.573   6.299   6.576
 1133SOL    HW2 4299   1.509   6.192   6.682
 1134SOL     OW 4300   4.306   5.950   0.522
 1134SOL    HW1 4301   4.387   5.919   0.472
 1134SOL    HW2 4302   4.299   5.899   0.608
 1135SOL     OW 4303   1.944   6.970   3.105
 1135SOL    HW1 4304   1.944   6.886   3.051
 1135SOL    HW2 4305   1.912   0.024   3.049
 1136SOL     OW 4306   1.622   4.641   2.949
 1136SOL    HW1 4307   1.606   4.723   2.894
 1136SOL    HW2 4308   1.632   4.562   2.889
 1137SOL     OW 4309   1.222   5.408   4.206
 1137SOL    HW1 4310   1.280   5.329   4.228
 1137SOL    HW2 4311   1.137   5.403   4.259
 1138SOL     OW 4312   2.481   4.440   4.272
 1138SOL    HW1 4313   2.555   4.488   4.225
 1138SOL    HW2 4314   2.475   4.473   4.366
 1139SOL     OW 4315   3.342   5.499   4.924
 1139SOL    HW1 4316   3.404   5.421   4.936
 1139SOL    HW2 4317   3.249   5.465   4.910
 1140SOL     OW 4318   1.999   2.513   1.118
 1140SOL    HW1 4319   1.902   2.500   1.097
 1140SOL    HW2 4320   2.017   2.610   1.133
 1141SOL     OW 4321   6.312   4.751   5.678
 1141SOL    HW1 4322   6.213   4.739   5.687
 1141SOL    HW2 4323   6.352   4.770   5.768
 1142SOL     OW 4324   0.489   5.503   2.929
 1142SOL    HW1 4325   0.472   5.599   2.906
 1142SOL    HW2 4326   0.408   5.448   2.905
 1143SOL     OW 4327   6.832   4.651   1.779
 1143SOL    HW1 4328   6.869   4.565   1.744
 1143SOL    HW2 4329   6.861   4.663   1.874
 1144SOL     OW 4330   4.879   4.905   6.891
 1144SOL    HW1 4331   4.910   4.989   6.935
 1144SOL    HW2 4332   4.948   4.834   6.901
 1145SOL     OW 4333   5.849   7.006   0.548
 1145SOL    HW1 4334   5.775   0.042   0.581
 1145SOL    HW2 4335   5.812   6.941   0.482
 1146SOL     OW 4336   1.736   0.433   1.369
 1146SOL    HW1 4337   1.661   0.498   1.354
 1146SOL    HW2 4338   1.778   0.451   1.458
 1147SOL     OW 4339   1.310   6.409   0.537
 1147SOL    HW1 4340   1.282   6.456   0.453
 1147SOL    HW2 4341   1.248   6.332   0.554
 1148SOL     OW 4342   3.520   5.968   2.132
 1148SOL    HW1 4343   3.437   5.949   2.080
 1148SOL    HW2 4344   3.511   6.058   2.176
 1149SOL     OW 4345   5.837   1.870   1.420
 1149SOL    HW1 4346   5.883   1.916   1.345
 1149SOL    HW2 4347   5.891   1.791   1.450
 1150SOL     OW 4348   1.609   1.890   1.077
 1150SOL    HW1 4349   1.581   1.951   1.002
 1150SOL    HW2 4350   1.646   1.945   1.152
 1151SOL     OW 4351   5.762   5.543   4.635
 1151SOL    HW1 4352   5.833   5.515   4.570
 1151SOL    HW2 4353   5.763   5.643   4.644
 1152SOL     OW 4354   2.952   6.200   5.690
 1152SOL    HW1 4355   3.015   6.124   5.709
 1152SOL    HW2 4356   2.915   6.235   5.776
 1153SOL     OW 4357   5.606   6.818   1.207
 1153SOL    HW1 4358   5.531   6.876   1.239
 1153SOL    HW2 4359   5.628   6.840   1.112
 1154SOL     OW 4360   2.019   3.288   1.016
 1154SOL    HW1 4361   1.942   3.298   0.952
 1154SOL    HW2 4362   2.057   3.197   1.008
 1155SOL     OW 4363   3.729   5.787   4.359
 1155SOL    HW1 4364   3.813   5.764   4.310
 1155SOL    HW2 4365   3.652   5.787   4.296
 1156SOL     OW 4366   2.737   0.809   1.500
 1156SOL    HW1 4367   2.645   0.846   1.483
 1156SOL    HW2 4368   2.744   0.718   1.459
 1157SOL     OW 4369   2.179   2.170   0.603
 1157SOL    HW1 4370   2.099   2.185   0.662
 1157SOL    HW2 4371   2.150   2.131   0.516
 1158SOL     OW 4372   5.683   4.346   3.953
 1158SOL    HW1 4373   5.757   4.395   3.998
 1158SOL    HW2 4374   5.673   4.255   3.993
 1159SOL     OW 4375   5.429   4.633   0.636
 1159SOL    HW1 4376   5.477   4.668   0.717
 1159SOL    HW2 4377   5.404   4.537   0.652
 1160SOL     OW 4378   4.257   1.960   1.212
 1160SOL    HW1 4379   4.305   2.048   1.207
 1160SOL    HW2 4380   4.158   1.976   1.210
 1161SOL     OW 4381   0.462   4.948   0.870
 1161SOL    HW1 4382   0.434   4.853   0.854
 1161SOL    HW2 4383   0.476   4.993   0.782
 1162SOL     OW 4384   2.053   2.923   4.742
 1162SOL    HW1 4385   2.026   3.017   4.764
 1162SOL    HW2 4386   2.133   2.898   4.796
 1163SOL     OW 4387   4.878   1.578   2.261
 1163SOL    HW1 4388   4.914   1.588   2.168
 1163SOL    HW2 4389   4.792   1.629   2.269
 1164SOL     OW 4390   4.098   2.088   5.677
 1164SOL    HW1 4391   4.092   2.160   5.746
 1164SOL    HW2 4392   4.093   1.999   5.722
 1165SOL     OW 4393   3.964   0.189   2.815
 1165SOL    HW1 4394   3.874   0.198   2.774
 1165SOL    HW2 4395   3.967   0.241   2.901
 1166SOL     OW 4396   3.585   4.024   6.735
 1166SOL    HW1 4397   3.633   4.108   6.709
 1166SOL    HW2 4398   3.582   4.016   6.834
 1167SOL     OW 4399   5.489   3.900   3.380
 1167SOL    HW1 4400   5.491   3.972   3.310
 1167SOL    HW2 4401   5.411   3.839   3.362
 1168SOL     OW 4402   0.562   6.854   0.457
 1168SOL    HW1 4403   0.597   6.945   0.479
 1168SOL    HW2 4404   0.634   6.786   0.471
 1169SOL     OW 4405   5.244   2.335   5.358
 1169SOL    HW1 4406   5.270   2.310   5.451
 1169SOL    HW2 4407   5.202   2.256   5.313
 1170SOL     OW 4408   4.757   4.612   2.686
 1170SOL    HW1 4409   4.735   4.685   2.751
 1170SOL    HW2 4410   4.799   4.535   2.735
 1171SOL     OW 4411   0.142   6.313   0.462
 1171SOL    HW1 4412   0.198   6.232   0.444
 1171SOL    HW2 4413   0.056   6.306   0.412
 1172SOL     OW 4414   5.672   3.341   6.940
 1172SOL    HW1 4415   5.606   3.413   6.963
 1172SOL    HW2 4416   5.739   3.333   7.014
 1173SOL     OW 4417   4.713   2.611   1.566
 1173SOL    HW1 4418   4.653   2.679   1.609
 1173SOL    HW2 4419   4.713   2.527   1.621
 1174SOL     OW 4420   2.562   5.286   0.471
 1174SOL    HW1 4421   2.492   5.229   0.427
 1174SOL    HW2 4422   2.646   5.232   0.482
 1175SOL     OW 4423   3.258   4.148   3.663
 1175SOL    HW1 4424   3.184   4.107   3.609
 1175SOL    HW2 4425   3.221   4.222   3.719
 1176SOL     OW 4426   5.458   3.489   0.528
 1176SOL    HW1 4427   5.441   3.582   0.495
 1176SOL    HW2 4428   5.550   3.461   0.502
 1177SOL     OW 4429   0.994   1.431   4.770
 1177SOL    HW1 4430   0.972   1.501   4.839
 1177SOL    HW2 4431   0.911   1.383   4.744
 1178SOL     OW 4432   4.238   6.484   6.977
 1178SOL    HW1 4433   4.181   6.505   0.033
 1178SOL    HW2 4434   4.335   6.487   7.004
 1179SOL     OW 4435   0.351   5.762   0.562
 1179SOL    HW1 4436   0.378   5.692   0.495
 1179SOL    HW2 4437   0.430   5.789   0.616
 1180SOL     OW 4438   3.391   6.344   0.191
 1180SOL    HW1 4439   3.418   6.418   0.252
 1180SOL    HW2 4440   3.361   6.265   0.245
 1181SOL     OW 4441   6.032   6.105   6.369
 1181SOL    HW1 4442   5.949   6.114   6.424
 1181SOL    HW2 4443   6.089   6.186   6.380
 1182SOL     OW 4444   4.858   3.690   4.287
 1182SOL    HW1 4445   4.897   3.659   4.374
 1182SOL    HW2 4446   4.834   3.610   4.231
 1183SOL     OW 4447   1.991   4.404   0.339
 1183SOL    HW1 4448   1.972   4.392   0.437
 1183SOL    HW2 4449   1.976   4.317   0.292
 1184SOL     OW 4450   0.466   1.497   5.477
 1184SOL    HW1 4451   0.556   1.465   5.448
 1184SOL    HW2 4452   0.398   1.473   5.408
 1185SOL     OW 4453   6.655   1.841   6.432
 1185SOL    HW1 4454   6.664   1.760   6.374
 1185SOL    HW2 4455   6.640   1.922   6.375
 1186SOL     OW 4456   4.674   6.662   4.298
 1186SOL    HW1 4457   4.737   6.730   4.260
 1186SOL    HW2 4458   4.643   6.601   4.225
 1187SOL     OW 4459   6.351   2.363   6.716
 1187SOL    HW1 4460   6.346   2.432   6.644
 1187SOL    HW2 4461   6.383   2.406   6.800
 1188SOL     OW 4462   4.282   1.955   6.478
 1188SOL    HW1 4463   4.324   1.955   6.387
 1188SOL    HW2 4464   4.259   2.049   6.504
 1189SOL     OW 4465   6.090   3.881   3.808
 1189SOL    HW1 4466   6.075   3.783   3.797
 1189SOL    HW2 4467   6.137   3.899   3.894
 1190SOL     OW 4468   2.884   0.527   3.532
 1190SOL    HW1 4469   2.920   0.435   3.548
 1190SOL    HW2 4470   2.885   0.579   3.617
 1191SOL     OW 4471   3.311   0.025   3.007
 1191SOL    HW1 4472   3.344   6.971   3.063
 1191SOL    HW2 4473   3.389   0.067   2.960
 1192SOL     OW 4474   5.873   5.700   3.846
 1192SOL    HW1 4475   5.796   5.728   3.903
 1192SOL    HW2 4476   5.884   5.766   3.771
 1193SOL     OW 4477   6.378   6.303   4.811
 1193SOL    HW1 4478   6.450   6.329   4.875
 1193SOL    HW2 4479   6.318   6.381   4.794
 1194SOL     OW 4480   3.723   0.447   0.816
 1194SOL    HW1 4481   3.710   0.390   0.898
 1194SOL    HW2 4482   3.792   0.404   0.757
 1195SOL     OW 4483   5.148   2.672   2.759
 1195SOL    HW1 4484   5.129   2.654   2.662
 1195SOL    HW2 4485   5.170   2.769   2.770
 1196SOL     OW 4486   0.217   6.678   4.887
 1196SOL    HW1 4487   0.299   6.625   4.870
 1196SOL    HW2 4488   0.228   6.771   4.852
 1197SOL     OW 4489   2.576   6.465   6.530
 1197SOL    HW1 4490   2.537   6.515   6.453
 1197SOL    HW2 4491   2.584   6.526   6.609
 1198SOL     OW 4492   1.604   2.635   0.107
 1198SOL    HW1 4493   1.593   2.703   0.034
 1198SOL    HW2 4494   1.540   2.559   0.092
 1199SOL     OW 4495   5.677   4.334   2.795
 1199SOL    HW1 4496   5.720   4.281   2.868
 1199SOL    HW2 4497   5.671   4.279   2.712
 1200SOL     OW 4498   3.157   4.054   2.362
 1200SOL    HW1 4499   3.116   4.133   2.317
 1200SOL    HW2 4500   3.093   3.977   2.360
 1201SOL     OW 4501   1.643   2.031   5.267
 1201SOL    HW1 4502   1.667   2.069   5.177
 1201SOL    HW2 4503   1.680   2.090   5.339
 1202SOL     OW 4504   1.004   6.146   5.181
 1202SOL    HW1 4505   1.086   6.196   5.155
 1202SOL    HW2 4506   1.025   6.049   5.190
 1203SOL     OW 4507   4.322   5.730   5.252
 1203SOL    HW1 4508   4.226   5.735   5.223
 1203SOL    HW2 4509   4.360   5.642   5.223
 1204SOL     OW 4510   1.986   0.208   2.543
 1204SOL    HW1 4511   1.939   0.127   2.577
 1204SOL    HW2 4512   1.948   0.289   2.588
 1205SOL     OW 4513   6.109   3.483   2.373
 1205SOL    HW1 4514   6.192   3.525   2.337
 1205SOL    HW2 4515   6.029   3.536   2.344
 1206SOL     OW 4516   2.885   3.504   4.437
 1206SOL    HW1 4517   2.889   3.599   4.467
 1206SOL    HW2 4518   2.909   3.497   4.340
 1207SOL     OW 4519   0.617   5.694   3.121
 1207SOL    HW1 4520   0.563   5.611   3.106
 1207SOL    HW2 4521   0.568   5.755   3.184
 1208SOL     OW 4522   3.469   2.969   6.740
 1208SOL    HW1 4523   3.514   2.930   6.821
 1208SOL    HW2 4524   3.521   2.944   6.658
 1209SOL     OW 4525   3.995   6.478   5.667
 1209SOL    HW1 4526   4.086   6.461   5.704
 1209SOL    HW2 4527   3.997   6.562   5.612
 1210SOL     OW 4528   2.948   1.076   2.689
 1210SOL    HW1 4529   3.002   1.159   2.705
 1210SOL    HW2 4530   3.004   1.008   2.643
 1211SOL     OW 4531   0.966   2.747   0.862
 1211SOL    HW1 4532   0.970   2.845   0.879
 1211SOL    HW2 4533   1.057   2.708   0.873
 1212SOL     OW 4534   0.820   6.659   0.428
 1212SOL    HW1 4535   0.799   6.599   0.506
 1212SOL    HW2 4536   0.797   6.612   0.343
 1213SOL     OW 4537   5.850   2.914   1.956
 1213SOL    HW1 4538   5.948   2.931   1.954
 1213SOL    HW2 4539   5.826   2.847   1.886
 1214SOL     OW 4540   0.273   2.282   2.479
 1214SOL    HW1 4541   0.206   2.346   2.517
 1214SOL    HW2 4542   0.244   2.254   2.387
 1215SOL     OW 4543   2.091   5.541   2.943
 1215SOL    HW1 4544   2.135   5.591   2.869
 1215SOL    HW2 4545   2.090   5.598   3.025
 1216SOL     OW 4546   4.257   6.948   1.417
 1216SOL    HW1 4547   4.292   0.003   1.365
 1216SOL    HW2 4548   4.179   6.978   1.472
 1217SOL     OW 4549   2.765   4.177   0.040
 1217SOL    HW1 4550   2.730   4.151   0.130
 1217SOL    HW2 4551   2.825   4.106   0.005
 1218SOL     OW 4552   2.555   5.032   4.037
 1218SOL    HW1 4553   2.506   5.000   3.955
 1218SOL    HW2 4554   2.493   5.032   4.115
 1219SOL     OW 4555   3.721   5.219   1.928
 1219SOL    HW1 4556   3.682   5.135   1.891
 1219SOL    HW2 4557   3.788   5.256   1.862
 1220SOL     OW 4558   0.444   5.059   2.196
 1220SOL    HW1 4559   0.527   5.011   2.222
 1220SOL    HW2 4560   0.464   5.124   2.122
 1221SOL     OW 4561   4.778   4.267   6.848
 1221SOL    HW1 4562   4.741   4.354   6.816
 1221SOL    HW2 4563   4.710   4.222   6.906
 1222SOL     OW 4564   0.025   1.172   6.421
 1222SOL    HW1 4565   7.020   1.262   6.385
 1222SOL    HW2 4566   6.979   1.142   6.488
 1223SOL     OW 4567   4.000   6.055   1.127
 1223SOL    HW1 4568   4.067   5.994   1.084
 1223SOL    HW2 4569   4.044   6.142   1.149
 1224SOL     OW 4570   3.228   1.117   1.329
 1224SOL    HW1 4571   3.262   1.200   1.372
 1224SOL    HW2 4572   3.136   1.096   1.362
 1225SOL     OW 4573   3.340   4.243   6.049
 1225SOL    HW1 4574   3.376   4.202   6.134
 1225SOL    HW2 4575   3.414   4.251   5.983
 1226SOL     OW 4576   2.110   5.338   0.596
 1226SOL    HW1 4577   2.194   5.296   0.629
 1226SOL    HW2 4578   2.107   5.434   0.626
 1227SOL     OW 4579   1.619   4.442   5.785
 1227SOL    HW1 4580   1.697   4.416   5.842
 1227SOL    HW2 4581   1.610   4.377   5.709
 1228SOL     OW 4582   3.866   2.482   6.939
 1228SOL    HW1 4583   3.878   2.572   6.981
 1228SOL    HW2 4584   3.896   2.411   7.004
 1229SOL     OW 4585   2.924   3.963   6.983
 1229SOL    HW1 4586   3.011   3.970   0.009
 1229SOL    HW2 4587   2.863   3.901   0.009
 1230SOL     OW 4588   4.083   0.223   4.052
 1230SOL    HW1 4589   4.135   0.305   4.032
 1230SOL    HW2 4590   4.128   0.172   4.125
 1231SOL     OW 4591   0.850   3.475   3.500
 1231SOL    HW1 4592   0.783   3.507   3.433
 1231SOL    HW2 4593   0.890   3.389   3.468
 1232SOL     OW 4594   1.589   2.522   2.398
 1232SOL    HW1 4595   1.622   2.484   2.312
 1232SOL    HW2 4596   1.544   2.450   2.451
 1233SOL     OW 4597   0.765   2.103   4.342
 1233SOL    HW1 4598   0.672   2.095   4.376
 1233SOL    HW2 4599   0.826   2.044   4.395
 1234SOL     OW 4600   6.511   4.706   4.352
 1234SOL    HW1 4601   6.435   4.725   4.414
 1234SOL    HW2 4602   6.547   4.614   4.370
 1235SOL     OW 4603   6.777   5.193   3.482
 1235SOL    HW1 4604   6.790   5.198   3.581
 1235SOL    HW2 4605   6.796   5.283   3.442
 1236SOL     OW 4606   5.702   0.589   6.666
 1236SOL    HW1 4607   5.706   0.640   6.580
 1236SOL    HW2 4608   5.776   0.620   6.726
 1237SOL     OW 4609   2.116   4.563   6.657
 1237SOL    HW1 4610   2.155   4.550   6.748
 1237SOL    HW2 4611   2.021   4.593   6.665
 1238SOL     OW 4612   1.940   1.133   1.209
 1238SOL    HW1 4613   1.988   1.210   1.251
 1238SOL    HW2 4614   1.971   1.121   1.115
 1239SOL     OW 4615   0.807   6.984   6.149
 1239SOL    HW1 4616   0.743   7.010   6.076
 1239SOL    HW2 4617   0.880   0.030   6.156
 1240SOL     OW 4618   5.881   5.370   0.826
 1240SOL    HW1 4619   5.859   5.459   0.867
 1240SOL    HW2 4620   5.851   5.369   0.731
 1241SOL     OW 4621   0.469   1.987   4.093
 1241SOL    HW1 4622   0.382   2.020   4.056
 1241SOL    HW2 4623   0.539   2.057   4.082
 1242SOL     OW 4624   1.833   2.440   6.816
 1242SOL    HW1 4625   1.855   2.490   6.732
 1242SOL    HW2 4626   1.825   2.343   6.795
 1243SOL     OW 4627   3.388   4.786   5.304
 1243SOL    HW1 4628   3.374   4.688   5.296
 1243SOL    HW2 4629   3.306   4.834   5.273
 1244SOL     OW 4630   0.704   1.633   3.332
 1244SOL    HW1 4631   0.775   1.703   3.324
 1244SOL    HW2 4632   0.615   1.675   3.319
 1245SOL     OW 4633   3.215   2.912   5.087
 1245SOL    HW1 4634   3.148   2.861   5.142
 1245SOL    HW2 4635   3.172   2.992   5.047
 1246SOL     OW 4636   1.227   6.401   2.026
 1246SOL    HW1 4637   1.214   6.306   2.054
 1246SOL    HW2 4638   1.324   6.425   2.035
 1247SOL     OW 4639   0.920   6.235   6.374
 1247SOL    HW1 4640   0.830   6.277   6.377
 1247SOL    HW2 4641   0.949   6.212   6.467
 1248SOL     OW 4642   1.977   0.005   4.096
 1248SOL    HW1 4643   2.052   0.070   4.088
 1248SOL    HW2 4644   1.914   0.017   4.020
 1249SOL     OW 4645   6.372   2.993   3.368
 1249SOL    HW1 4646   6.293   2.936   3.346
 1249SOL    HW2 4647   6.344   3.089   3.369
 1250SOL     OW 4648   6.960   3.257   4.564
 1250SOL    HW1 4649   6.909   3.340   4.539
 1250SOL    HW2 4650   0.019   3.283   4.616
 1251SOL     OW 4651   3.450   0.778   6.458
 1251SOL    HW1 4652   3.502   0.693   6.446
 1251SOL    HW2 4653   3.374   0.779   6.393
 1252SOL     OW 4654   3.799   3.909   0.338
 1252SOL    HW1 4655   3.796   4.001   0.297
 1252SOL    HW2 4656   3.720   3.857   0.307
 1253SOL     OW 4657   4.730   1.508   3.022
 1253SOL    HW1 4658   4.716   1.510   3.121
 1253SOL    HW2 4659   4.663   1.447   2.979
 1254SOL     OW 4660   5.618   0.980   3.715
 1254SOL    HW1 4661   5.698   1.034   3.741
 1254SOL    HW2 4662   5.535   1.026   3.747
 1255SOL     OW 4663   5.752   0.672   2.112
 1255SOL    HW1 4664   5.820   0.655   2.184
 1255SOL    HW2 4665   5.773   0.615   2.033
 1256SOL     OW 4666   5.251   3.263   3.383
 1256SOL    HW1 4667   5.259   3.247   3.284
 1256SOL    HW2 4668   5.245   3.175   3.430
 1257SOL     OW 4669   6.003   1.298   3.993
 1257SOL    HW1 4670   5.971   1.211   4.030
 1257SOL    HW2 4671   5.986   1.371   4.059
 1258SOL     OW 4672   0.043   4.966   4.141
 1258SOL    HW1 4673   6.994   4.927   4.198
 1258SOL    HW2 4674   0.050   4.914   4.056
 1259SOL     OW 4675   5.440   2.049   4.709
 1259SOL    HW1 4676   5.488   1.981   4.765
 1259SOL    HW2 4677   5.356   2.077   4.755
 1260SOL     OW 4678   0.445   1.575   4.461
 1260SOL    HW1 4679   0.525   1.540   4.510
 1260SOL    HW2 4680   0.475   1.635   4.387
 1261SOL     OW 4681   6.863   3.257   1.296
 1261SOL    HW1 4682   6.884   3.212   1.383
 1261SOL    HW2 4683   6.866   3.190   1.223
 1262SOL     OW 4684   4.991   6.284   2.266
 1262SOL    HW1 4685   4.896   6.255   2.254
 1262SOL    HW2 4686   4.995   6.357   2.334
 1263SOL     OW 4687   1.285   1.969   3.104
 1263SOL    HW1 4688   1.343   1.949   3.025
 1263SOL    HW2 4689   1.339   2.015   3.174
 1264SOL     OW 4690   1.069   3.150   5.429
 1264SOL    HW1 4691   1.167   3.154   5.452
 1264SOL    HW2 4692   1.056   3.184   5.336
 1265SOL     OW 4693   6.665   0.826   6.001
 1265SOL    HW1 4694   6.751   0.793   6.041
 1265SOL    HW2 4695   6.671   0.925   5.987
 1266SOL     OW 4696   3.682   1.709   5.703
 1266SOL    HW1 4697   3.601   1.768   5.694
 1266SOL    HW2 4698   3.763   1.758   5.670
 1267SOL     OW 4699   3.043   1.408   2.260
 1267SOL    HW1 4700   3.103   1.425   2.182
 1267SOL    HW2 4701   3.096   1.366   2.334
 1268SOL     OW 4702   4.328   2.190   5.239
 1268SOL    HW1 4703   4.367   2.155   5.324
 1268SOL    HW2 4704   4.250   2.133   5.213
 1269SOL     OW 4705   5.611   1.850   3.211
 1269SOL    HW1 4706   5.607   1.808   3.301
 1269SOL    HW2 4707   5.564   1.792   3.145
 1270SOL     OW 4708   5.956   5.564   3.536
 1270SOL    HW1 4709   6.049   5.562   3.571
 1270SOL    HW2 4710   5.924   5.471   3.521
 1271SOL     OW 4711   1.413   0.116   2.028
 1271SOL    HW1 4712   1.487   0.173   2.066
 1271SOL    HW2 4713   1.392   0.146   1.936
 1272SOL     OW 4714   6.642   2.084   0.379
 1272SOL    HW1 4715   6.685   2.081   0.470
 1272SOL    HW2 4716   6.713   2.090   0.309
 1273SOL     OW 4717   2.189   4.210   5.460
 1273SOL    HW1 4718   2.201   4.303   5.495
 1273SOL    HW2 4719   2.259   4.191   5.391
 1274SOL     OW 4720   6.926   4.425   4.603
 1274SOL    HW1 4721   6.936   4.328   4.579
 1274SOL    HW2 4722   6.829   4.447   4.614
 1275SOL     OW 4723   1.565   1.252   2.889
 1275SOL    HW1 4724   1.543   1.339   2.932
 1275SOL    HW2 4725   1.636   1.265   2.820
 1276SOL     OW 4726   5.740   4.137   3.760
 1276SOL    HW1 4727   5.701   4.136   3.668
 1276SOL    HW2 4728   5.697   4.210   3.813
 1277SOL     OW 4729   1.476   6.240   6.199
 1277SOL    HW1 4730   1.439   6.321   6.245
 1277SOL    HW2 4731   1.477   6.163   6.263
 1278SOL     OW 4732   0.281   6.476   2.766
 1278SOL    HW1 4733   0.241   6.568   2.759
 1278SOL    HW2 4734   0.369   6.474   2.720
 1279SOL     OW 4735   3.135   2.815   0.696
 1279SOL    HW1 4736   3.174   2.898   0.655
 1279SOL    HW2 4737   3.065   2.841   0.763
 1280SOL     OW 4738   2.995   2.236   3.251
 1280SOL    HW1 4739   2.982   2.238   3.151
 1280SOL    HW2 4740   2.910   2.264   3.295
 1281SOL     OW 4741   5.545   5.844   5.467
 1281SOL    HW1 4742   5.479   5.774   5.494
 1281SOL    HW2 4743   5.607   5.864   5.543
 1282SOL     OW 4744   1.000   2.435   0.974
 1282SOL    HW1 4745   1.050   2.390   1.048
 1282SOL    HW2 4746   1.047   2.520   0.948
 1283SOL     OW 4747   1.715   0.702   4.195
 1283SOL    HW1 4748   1.634   0.648   4.217
 1283SOL    HW2 4749   1.770   0.653   4.127
 1284SOL     OW 4750   3.890   2.366   1.738
 1284SOL    HW1 4751   3.799   2.348   1.777
 1284SOL    HW2 4752   3.900   2.463   1.718
 1285SOL     OW 4753   3.977   1.464   4.578
 1285SOL    HW1 4754   3.881   1.472   4.605
 1285SOL    HW2 4755   4.035   1.502   4.650
 1286SOL     OW 4756   5.138   1.131   2.317
 1286SOL    HW1 4757   5.207   1.058   2.321
 1286SOL    HW2 4758   5.121   1.156   2.222
 1287SOL     OW 4759   5.362   4.796   6.719
 1287SOL    HW1 4760   5.412   4.741   6.787
 1287SOL    HW2 4761   5.387   4.892   6.730
 1288SOL     OW 4762   4.581   4.569   6.127
 1288SOL    HW1 4763   4.612   4.482   6.088
 1288SOL    HW2 4764   4.613   4.577   6.221
 1289SOL     OW 4765   1.221   6.654   0.640
 1289SOL    HW1 4766   1.200   6.606   0.726
 1289SOL    HW2 4767   1.283   6.598   0.585
 1290SOL     OW 4768   1.301   6.759   4.088
 1290SOL    HW1 4769   1.289   6.804   4.177
 1290SOL    HW2 4770   1.293   6.660   4.101
 1291SOL     OW 4771   5.415   5.754   3.421
 1291SOL    HW1 4772   5.497   5.706   3.451
 1291SOL    HW2 4773   5.430   5.853   3.427
 1292SOL     OW 4774   0.102   6.729   2.987
 1292SOL    HW1 4775   0.174   6.716   2.919
 1292SOL    HW2 4776   0.143   6.729   3.079
 1293SOL     OW 4777   4.949   0.007   0.790
 1293SOL    HW1 4778   4.937   0.082   0.854
 1293SOL    HW2 4779   4.892   6.952   0.817
 1294SOL     OW 4780   2.172   4.468   5.633
 1294SOL    HW1 4781   2.103   4.497   5.699
 1294SOL    HW2 4782   2.258   4.451   5.681
 1295SOL     OW 4783   0.050   4.785   0.191
 1295SOL    HW1 4784   0.146   4.809   0.177
 1295SOL    HW2 4785   0.043   4.713   0.259
 1296SOL     OW 4786   3.722   0.956   6.005
 1296SOL    HW1 4787   3.798   0.908   5.961
 1296SOL    HW2 4788   3.746   1.052   6.016
 1297SOL     OW 4789   6.375   6.808   0.071
 1297SOL    HW1 4790   6.291   6.859   0.088
 1297SOL    HW2 4791   6.448   6.871   0.045
 1298SOL     OW 4792   5.027   0.187   3.454
 1298SOL    HW1 4793   5.090   0.161   3.381
 1298SOL    HW2 4794   5.035   0.285   3.471
 1299SOL     OW 4795   1.091   4.885   4.817
 1299SOL    HW1 4796   1.121   4.958   4.878
 1299SOL    HW2 4797   1.044   4.924   4.738
 1300SOL     OW 4798   1.444   5.541   0.035
 1300SOL    HW1 4799   1.510   5.601   7.011
 1300SOL    HW2 4800   1.357   5.543   7.007
 1301SOL     OW 4801   6.299   1.567   6.799
 1301SOL    HW1 4802   6.382   1.586   6.851
 1301SOL    HW2 4803   6.263   1.652   6.760
 1302SOL     OW 4804   6.562   6.951   4.759
 1302SOL    HW1 4805   6.587   6.923   4.852
 1302SOL    HW2 4806   6.602   6.887   4.693
 1303SOL     OW 4807   3.022   6.710   1.452
 1303SOL    HW1 4808   2.964   6.759   1.387
 1303SOL    HW2 4809   3.066   6.633   1.408
 1304SOL     OW 4810   6.922   0.671   0.360
 1304SOL    HW1 4811   7.000   0.719   0.402
 1304SOL    HW2 4812   6.935   0.573   0.369
 1305SOL     OW 4813   4.029   3.939   5.903
 1305SOL    HW1 4814   4.060   3.856   5.857
 1305SOL    HW2 4815   3.959   3.984   5.846
 1306SOL     OW 4816   2.374   6.345   4.263
 1306SOL    HW1 4817   2.410   6.311   4.176
 1306SOL    HW2 4818   2.375   6.271   4.331
 1307SOL     OW 4819   2.189   3.596   3.625
 1307SOL    HW1 4820   2.184   3.690   3.657
 1307SOL    HW2 4821   2.180   3.593   3.526
 1308SOL     OW 4822   0.884   3.846   5.954
 1308SOL    HW1 4823   0.831   3.767   5.923
 1308SOL    HW2 4824   0.981   3.822   5.958
 1309SOL     OW 4825   6.032   3.804   6.955
 1309SOL    HW1 4826   6.033   3.829   0.029
 1309SOL    HW2 4827   5.944   3.764   6.931
 1310SOL     OW 4828   2.147   2.841   3.470
 1310SOL    HW1 4829   2.112   2.929   3.438
 1310SOL    HW2 4830   2.224   2.856   3.532
 1311SOL     OW 4831   5.936   5.220   0.401
 1311SOL    HW1 4832   5.984   5.172   0.327
 1311SOL    HW2 4833   5.983   5.305   0.423
 1312SOL     OW 4834   2.318   1.375   6.431
 1312SOL    HW1 4835   2.318   1.453   6.494
 1312SOL    HW2 4836   2.285   1.294   6.479
 1313SOL     OW 4837   4.972   4.731   3.116
 1313SOL    HW1 4838   4.881   4.715   3.154
 1313SOL    HW2 4839   4.980   4.827   3.088
 1314SOL     OW 4840   2.533   1.570   3.725
 1314SOL    HW1 4841   2.597   1.643   3.748
 1314SOL    HW2 4842   2.582   1.482   3.723
 1315SOL     OW 4843   5.659   0.867   3.451
 1315SOL    HW1 4844   5.667   0.919   3.536
 1315SOL    HW2 4845   5.597   0.790   3.465
 1316SOL     OW 4846   5.338   0.507   6.177
 1316SOL    HW1 4847   5.380   0.498   6.268
 1316SOL    HW2 4848   5.294   0.420   6.152
 1317SOL     OW 4849   3.945   3.073   4.058
 1317SOL    HW1 4850   3.967   3.169   4.073
 1317SOL    HW2 4851   3.922   3.029   4.145
 1318SOL     OW 4852   1.972   1.252   6.571
 1318SOL    HW1 4853   1.932   1.271   6.661
 1318SOL    HW2 4854   2.065   1.218   6.582
 1319SOL     OW 4855   6.776   1.793   0.462
 1319SOL    HW1 4856   6.678   1.785   0.440
 1319SOL    HW2 4857   6.797   1.888   0.486
 1320SOL     OW 4858   2.621   2.907   5.965
 1320SOL    HW1 4859   2.556   2.913   6.041
 1320SOL    HW2 4860   2.572   2.903   5.878
 1321SOL     OW 4861   0.048   2.923   1.412
 1321SOL    HW1 4862   0.063   2.965   1.501
 1321SOL    HW2 4863   0.136   2.901   1.370
 1322SOL     OW 4864   2.383   3.027   0.346
 1322SOL    HW1 4865   2.287   3.032   0.375
 1322SOL    HW2 4866   2.440   3.001   0.424
 1323SOL     OW 4867   4.575   0.376   1.075
 1323SOL    HW1 4868   4.602   0.297   1.020
 1323SOL    HW2 4869   4.556   0.454   1.015
 1324SOL     OW 4870   2.257   3.876   6.156
 1324SOL    HW1 4871   2.291   3.830   6.074
 1324SOL    HW2 4872   2.333   3.891   6.220
 1325SOL     OW 4873   4.056   5.446   4.411
 1325SOL    HW1 4874   3.979   5.382   4.418
 1325SOL    HW2 4875   4.134   5.411   4.463
 1326SOL     OW 4876   3.897   1.234   4.800
 1326SOL    HW1 4877   3.989   1.194   4.797
 1326SOL    HW2 4878   3.854   1.224   4.710
 1327SOL     OW 4879   5.216   5.881   2.148
 1327SOL    HW1 4880   5.289   5.815   2.131
 1327SOL    HW2 4881   5.130   5.848   2.109
 1328SOL     OW 4882   1.310   2.161   5.620
 1328SOL    HW1 4883   1.225   2.109   5.626
 1328SOL    HW2 4884   1.320   2.197   5.527
 1329SOL     OW 4885   1.296   3.193   4.372
 1329SOL    HW1 4886   1.386   3.169   4.336
 1329SOL    HW2 4887   1.248   3.111   4.402
 1330SOL     OW 4888   6.564   3.356   2.387
 1330SOL    HW1 4889   6.580   3.382   2.292
 1330SOL    HW2 4890   6.642   3.385   2.443
 1331SOL     OW 4891   3.665   1.850   2.708
 1331SOL    HW1 4892   3.755   1.807   2.720
 1331SOL    HW2 4893   3.668   1.943   2.744
 1332SOL     OW 4894   2.212   6.237   6.650
 1332SOL    HW1 4895   2.306   6.202   6.655
 1332SOL    HW2 4896   2.154   6.170   6.603
 1333SOL     OW 4897   3.697   3.607   2.441
 1333SOL    HW1 4898   3.727   3.689   2.394
 1333SOL    HW2 4899   3.689   3.625   2.539
 1334SOL     OW 4900   0.064   4.005   1.150
 1334SOL    HW1 4901   0.142   4.058   1.185
 1334SOL    HW2 4902   7.019   3.993   1.223
 1335SOL     OW 4903   0.197   3.582   2.976
 1335SOL    HW1 4904   0.265   3.509   2.974
 1335SOL    HW2 4905   0.117   3.552   3.027
 1336SOL     OW 4906   2.332   6.235   5.958
 1336SOL    HW1 4907   2.387   6.299   5.905
 1336SOL    HW2 4908   2.338   6.144   5.918
 1337SOL     OW 4909   0.441   6.756   1.947
 1337SOL    HW1 4910   0.524   6.776   1.895
 1337SOL    HW2 4911   0.442   6.660   1.974
 1338SOL     OW 4912   0.261   4.050   4.944
 1338SOL    HW1 4913   0.177   4.070   4.992
 1338SOL    HW2 4914   0.323   4.129   4.948
 1339SOL     OW 4915   5.473   1.324   0.080
 1339SOL    HW1 4916   5.379   1.357   0.084
 1339SOL    HW2 4917   5.498   1.304   7.008
 1340SOL     OW 4918   2.412   2.715   1.048
 1340SOL    HW1 4919   2.485   2.689   0.984
 1340SOL    HW2 4920   2.432   2.676   1.138
 1341SOL     OW 4921   5.782   6.047   6.479
 1341SOL    HW1 4922   5.817   5.987   6.551
 1341SOL    HW2 4923   5.682   6.051   6.483
 1342SOL     OW 4924   1.824   5.878   1.640
 1342SOL    HW1 4925   1.890   5.819   1.686
 1342SOL    HW2 4926   1.771   5.823   1.575
 1343SOL     OW 4927   5.156   6.036   2.878
 1343SOL    HW1 4928   5.090   6.059   2.806
 1343SOL    HW2 4929   5.138   6.092   2.959
 1344SOL     OW 4930   1.169   0.760   3.689
 1344SOL    HW1 4931   1.203   0.666   3.682
 1344SOL    HW2 4932   1.239   0.823   3.655
 1345SOL     OW 4933   1.256   6.663   5.418
 1345SOL    HW1 4934   1.213   6.741   5.465
 1345SOL    HW2 4935   1.355   6.673   5.421
 1346SOL     OW 4936   2.965   5.901   3.975
 1346SOL    HW1 4937   2.959   5.814   4.023
 1346SOL    HW2 4938   2.968   5.976   4.042
 1347SOL     OW 4939   0.825   0.751   6.427
 1347SOL    HW1 4940   0.900   0.815   6.441
 1347SOL    HW2 4941   0.861   0.658   6.426
 1348SOL     OW 4942   1.602   6.668   4.831
 1348SOL    HW1 4943   1.567   6.761   4.845
 1348SOL    HW2 4944   1.586   6.641   4.736
 1349SOL     OW 4945   5.136   3.596   4.107
 1349SOL    HW1 4946   5.206   3.563   4.043
 1349SOL    HW2 4947   5.130   3.696   4.101
 1350SOL     OW 4948   5.276   4.484   6.529
 1350SOL    HW1 4949   5.228   4.397   6.540
 1350SOL    HW2 4950   5.216   4.559   6.555
 1351SOL     OW 4951   6.810   3.178   6.914
 1351SOL    HW1 4952   6.828   3.150   7.008
 1351SOL    HW2 4953   6.745   3.114   6.872
 1352SOL     OW 4954   6.783   0.858   3.209
 1352SOL    HW1 4955   6.724   0.821   3.281
 1352SOL    HW2 4956   6.756   0.953   3.190
 1353SOL     OW 4957   6.771   2.889   6.366
 1353SOL    HW1 4958   6.824   2.954   6.420
 1353SOL    HW2 4959   6.803   2.890   6.272
 1354SOL     OW 4960   4.649   4.829   2.852
 1354SOL    HW1 4961   4.703   4.903   2.892
 1354SOL    HW2 4962   4.616   4.769   2.925
 1355SOL     OW 4963   3.835   3.496   4.557
 1355SOL    HW1 4964   3.823   3.545   4.643
 1355SOL    HW2 4965   3.908   3.428   4.567
 1356SOL     OW 4966   3.208   3.191   6.773
 1356SOL    HW1 4967   3.171   3.176   6.681
 1356SOL    HW2 4968   3.307   3.182   6.770
 1357SOL     OW 4969   0.357   3.300   5.357
 1357SOL    HW1 4970   0.434   3.298   5.294
 1357SOL    HW2 4971   0.347   3.393   5.395
 1358SOL     OW 4972   2.292   6.756   6.475
 1358SOL    HW1 4973   2.193   6.747   6.467
 1358SOL    HW2 4974   2.314   6.808   6.558
 1359SOL     OW 4975   6.124   5.093   0.202
 1359SOL    HW1 4976   6.196   5.025   0.212
 1359SOL    HW2 4977   6.129   5.133   0.110
 1360SOL     OW 4978   2.262   1.677   5.781
 1360SOL    HW1 4979   2.352   1.721   5.781
 1360SOL    HW2 4980   2.263   1.602   5.715
 1361SOL     OW 4981   6.127   4.958   4.841
 1361SOL    HW1 4982   6.058   5.026   4.866
 1361SOL    HW2 4983   6.191   4.945   4.916
 1362SOL     OW 4984   3.293   3.990   3.960
 1362SOL    HW1 4985   3.343   4.039   3.889
 1362SOL    HW2 4986   3.255   4.056   4.026
 1363SOL     OW 4987   0.201   6.644   3.828
 1363SOL    HW1 4988   0.211   6.728   3.775
 1363SOL    HW2 4989   0.260   6.573   3.790
 1364SOL     OW 4990   3.715   4.557   0.037
 1364SOL    HW1 4991   3.694   4.477   0.093
 1364SOL    HW2 4992   3.663   4.553   6.974
 1365SOL     OW 4993   5.568   2.218   5.895
 1365SOL    HW1 4994   5.527   2.126   5.898
 1365SOL    HW2 4995   5.602   2.242   5.985
 1366SOL     OW 4996   1.996   0.649   4.974
 1366SOL    HW1 4997   1.956   0.740   4.967
 1366SOL    HW2 4998   1.929   0.581   4.944
 1367SOL     OW 4999   2.216   1.765   2.150
 1367SOL    HW1 5000   2.208   1.769   2.050
 1367SOL    HW2 5001   2.144   1.821   2.191
 1368SOL     OW 5002   6.418   0.836   3.492
 1368SOL    HW1 5003   6.351   0.805   3.425
 1368SOL    HW2 5004   6.508   0.841   3.450
 1369SOL     OW 5005   0.145   0.231   2.828
 1369SOL    HW1 5006   0.221   0.181   2.785
 1369SOL    HW2 5007   0.058   0.195   2.793
 1370SOL     OW 5008   0.854   1.019   2.989
 1370SOL    HW1 5009   0.904   0.935   2.966
 1370SOL    HW2 5010   0.760   1.012   2.955
 1371SOL     OW 5011   2.864   0.416   5.642
 1371SOL    HW1 5012   2.878   0.478   5.719
 1371SOL    HW2 5013   2.835   0.326   5.676
 1372SOL     OW 5014   2.954   1.998   1.283
 1372SOL    HW1 5015   2.962   1.918   1.344
 1372SOL    HW2 5016   2.952   1.967   1.188
 1373SOL     OW 5017   1.544   5.432   6.383
 1373SOL    HW1 5018   1.539   5.335   6.357
 1373SOL    HW2 5019   1.630   5.470   6.349
 1374SOL     OW 5020   5.800   3.551   4.864
 1374SOL    HW1 5021   5.735   3.488   4.907
 1374SOL    HW2 5022   5.753   3.634   4.836
 1375SOL     OW 5023   1.498   4.441   4.291
 1375SOL    HW1 5024   1.399   4.447   4.286
 1375SOL    HW2 5025   1.537   4.450   4.199
 1376SOL     OW 5026   4.984   0.336   2.223
 1376SOL    HW1 5027   4.899   0.385   2.244
 1376SOL    HW2 5028   5.053   0.402   2.193
 1377SOL     OW 5029   0.006   4.107   5.058
 1377SOL    HW1 5030   6.992   4.132   4.969
 1377SOL    HW2 5031   7.016   4.183   5.122
 1378SOL     OW 5032   1.899   1.627   0.372
 1378SOL    HW1 5033   1.978   1.662   0.321
 1378SOL    HW2 5034   1.855   1.555   0.318
 1379SOL     OW 5035   4.576   5.233   1.967
 1379SOL    HW1 5036   4.560   5.325   2.003
 1379SOL    HW2 5037   4.589   5.237   1.868
 1380SOL     OW 5038   6.257   5.157   2.993
 1380SOL    HW1 5039   6.196   5.236   2.991
 1380SOL    HW2 5040   6.300   5.149   3.082
 1381SOL     OW 5041   4.256   6.738   2.723
 1381SOL    HW1 5042   4.296   6.655   2.685
 1381SOL    HW2 5043   4.157   6.733   2.718
 1382SOL     OW 5044   0.169   4.190   0.409
 1382SOL    HW1 5045   0.250   4.245   0.391
 1382SOL    HW2 5046   0.110   4.191   0.328
 1383SOL     OW 5047   3.300   6.993   0.682
 1383SOL    HW1 5048   3.247   0.028   0.744
 1383SOL    HW2 5049   3.331   0.025   0.604
 1384SOL     OW 5050   1.286   1.180   2.304
 1384SOL    HW1 5051   1.343   1.191   2.385
 1384SOL    HW2 5052   1.194   1.213   2.324
 1385SOL     OW 5053   4.986   3.426   4.232
 1385SOL    HW1 5054   5.021   3.385   4.316
 1385SOL    HW2 5055   5.045   3.502   4.205
 1386SOL     OW 5056   2.658   2.413   2.968
 1386SOL    HW1 5057   2.585   2.349   2.946
 1386SOL    HW2 5058   2.679   2.409   3.066
 1387SOL     OW 5059   3.178   0.675   4.099
 1387SOL    HW1 5060   3.268   0.718   4.108
 1387SOL    HW2 5061   3.172   0.629   4.010
 1388SOL     OW 5062   4.747   2.386   3.793
 1388SOL    HW1 5063   4.654   2.401   3.759
 1388SOL    HW2 5064   4.799   2.471   3.785
 1389SOL     OW 5065   6.602   0.740   4.523
 1389SOL    HW1 5066   6.545   0.685   4.583
 1389SOL    HW2 5067   6.555   0.755   4.436
 1390SOL     OW 5068   5.516   2.069   2.327
 1390SOL    HW1 5069   5.482   2.146   2.273
 1390SOL    HW2 5070   5.610   2.049   2.299
 1391SOL     OW 5071   5.969   0.893   5.299
 1391SOL    HW1 5072   5.911   0.813   5.316
 1391SOL    HW2 5073   6.061   0.863   5.274
 1392SOL     OW 5074   3.218   6.992   4.949
 1392SOL    HW1 5075   3.274   0.043   4.988
 1392SOL    HW2 5076   3.272   6.908   4.943
 1393SOL     OW 5077   5.008   6.647   6.834
 1393SOL    HW1 5078   4.935   6.715   6.836
 1393SOL    HW2 5079   5.086   6.684   6.783
 1394SOL     OW 5080   4.144   1.201   4.716
 1394SOL    HW1 5081   4.122   1.153   4.631
 1394SOL    HW2 5082   4.232   1.247   4.708
 1395SOL     OW 5083   0.676   4.826   2.308
 1395SOL    HW1 5084   0.659   4.870   2.395
 1395SOL    HW2 5085   0.773   4.802   2.301
 1396SOL     OW 5086   1.399   1.863   3.359
 1396SOL    HW1 5087   1.426   1.844   3.265
 1396SOL    HW2 5088   1.360   1.780   3.400
 1397SOL     OW 5089   2.408   4.474   5.765
 1397SOL    HW1 5090   2.429   4.415   5.843
 1397SOL    HW2 5091   2.492   4.510   5.726
 1398SOL     OW 5092   3.397   6.853   6.217
 1398SOL    HW1 5093   3.400   6.813   6.309
 1398SOL    HW2 5094   3.452   6.797   6.154
 1399SOL     OW 5095   3.630   6.921   0.184
 1399SOL    HW1 5096   3.659   6.891   0.275
 1399SOL    HW2 5097   3.709   6.923   0.123
 1400SOL     OW 5098   0.618   1.961   5.631
 1400SOL    HW1 5099   0.558   2.018   5.686
 1400SOL    HW2 5100   0.588   1.866   5.636
 1401SOL     OW 5101   4.355   6.780   2.189
 1401SOL    HW1 5102   4.399   6.869   2.192
 1401SOL    HW2 5103   4.285   6.775   2.261
 1402SOL     OW 5104   5.019   3.866   2.060
 1402SOL    HW1 5105   4.929   3.909   2.051
 1402SOL    HW2 5106   5.050   3.873   2.155
 1403SOL     OW 5107   3.211   2.652   6.560
 1403SOL    HW1 5108   3.144   2.607   6.618
 1403SOL    HW2 5109   3.212   2.750   6.580
 1404SOL     OW 5110   3.771   6.015   6.728
 1404SOL    HW1 5111   3.709   6.068   6.669
 1404SOL    HW2 5112   3.778   5.921   6.694
 1405SOL     OW 5113   0.960   4.373   6.544
 1405SOL    HW1 5114   0.868   4.379   6.505
 1405SOL    HW2 5115   1.025   4.351   6.472
 1406SOL     OW 5116   1.815   2.466   0.206
 1406SOL    HW1 5117   1.824   2.502   0.299
 1406SOL    HW2 5118   1.727   2.495   0.168
 1407SOL     OW 5119   6.709   2.757   1.207
 1407SOL    HW1 5120   6.628   2.761   1.266
 1407SOL    HW2 5121   6.761   2.842   1.215
 1408SOL     OW 5122   5.526   6.096   1.236
 1408SOL    HW1 5123   5.529   6.024   1.305
 1408SOL    HW2 5124   5.556   6.061   1.148
 1409SOL     OW 5125   5.931   2.060   5.797
 1409SOL    HW1 5126   5.857   2.024   5.741
 1409SOL    HW2 5127   6.000   2.103   5.739
 1410SOL     OW 5128   3.355   0.586   0.572
 1410SOL    HW1 5129   3.431   0.553   0.516
 1410SOL    HW2 5130   3.370   0.561   0.668
 1411SOL     OW 5131   2.976   0.156   6.990
 1411SOL    HW1 5132   3.074   0.171   6.977
 1411SOL    HW2 5133   2.929   0.243   6.994
 1412SOL     OW 5134   1.978   1.571   6.282
 1412SOL    HW1 5135   1.900   1.542   6.226
 1412SOL    HW2 5136   2.063   1.547   6.235
 1413SOL     OW 5137   2.156   1.428   5.003
 1413SOL    HW1 5138   2.132   1.418   4.907
 1413SOL    HW2 5139   2.107   1.360   5.057
 1414SOL     OW 5140   0.262   5.383   2.870
 1414SOL    HW1 5141   0.240   5.311   2.936
 1414SOL    HW2 5142   0.179   5.432   2.845
 1415SOL     OW 5143   3.529   1.704   5.148
 1415SOL    HW1 5144   3.530   1.753   5.061
 1415SOL    HW2 5145   3.459   1.744   5.208
 1416SOL     OW 5146   4.225   0.394   5.324
 1416SOL    HW1 5147   4.234   0.485   5.283
 1416SOL    HW2 5148   4.261   0.397   5.417
 1417SOL     OW 5149   3.639   3.957   4.288
 1417SOL    HW1 5150   3.541   3.956   4.307
 1417SOL    HW2 5151   3.655   3.944   4.190
 1418SOL     OW 5152   3.227   3.792   5.254
 1418SOL    HW1 5153   3.310   3.842   5.229
 1418SOL    HW2 5154   3.151   3.825   5.198
 1419SOL     OW 5155   0.640   5.260   1.746
 1419SOL    HW1 5156   0.613   5.167   1.722
 1419SOL    HW2 5157   0.620   5.276   1.843
 1420SOL     OW 5158   2.305   6.833   3.614
 1420SOL    HW1 5159   2.367   6.878   3.550
 1420SOL    HW2 5160   2.344   6.745   3.643
 1421SOL     OW 5161   1.693   5.463   0.480
 1421SOL    HW1 5162   1.717   5.368   0.497
 1421SOL    HW2 5163   1.684   5.512   0.567
 1422SOL     OW 5164   1.440   3.744   0.031
 1422SOL    HW1 5165   1.395   3.797   6.981
 1422SOL    HW2 5166   1.535   3.775   0.041
 1423SOL     OW 5167   5.113   1.026   4.907
 1423SOL    HW1 5168   5.121   1.012   5.005
 1423SOL    HW2 5169   5.195   0.992   4.861
 1424SOL     OW 5170   6.387   4.170   2.063
 1424SOL    HW1 5171   6.321   4.141   1.993
 1424SOL    HW2 5172   6.354   4.253   2.107
 1425SOL     OW 5173   6.128   6.511   3.341
 1425SOL    HW1 5174   6.188   6.507   3.262
 1425SOL    HW2 5175   6.062   6.586   3.329
 1426SOL     OW 5176   3.965   0.728   0.810
 1426SOL    HW1 5177   3.977   0.630   0.826
 1426SOL    HW2 5178   3.877   0.745   0.768
 1427SOL     OW 5179   1.652   1.377   3.821
 1427SOL    HW1 5180   1.665   1.280   3.841
 1427SOL    HW2 5181   1.585   1.387   3.747
 1428SOL     OW 5182   2.235   4.086   3.946
 1428SOL    HW1 5183   2.218   4.002   3.998
 1428SOL    HW2 5184   2.270   4.156   4.007
 1429SOL     OW 5185   5.822   0.523   1.332
 1429SOL    HW1 5186   5.796   0.586   1.259
 1429SOL    HW2 5187   5.863   0.441   1.293
 1430SOL     OW 5188   2.122   4.051   4.337
 1430SOL    HW1 5189   2.200   4.114   4.344
 1430SOL    HW2 5190   2.125   4.003   4.250
 1431SOL     OW 5191   3.592   1.756   0.657
 1431SOL    HW1 5192   3.596   1.688   0.583
 1431SOL    HW2 5193   3.675   1.751   0.711
 1432SOL     OW 5194   3.114   0.114   2.366
 1432SOL    HW1 5195   3.166   0.135   2.284
 1432SOL    HW2 5196   3.031   0.169   2.367
 1433SOL     OW 5197   3.757   1.463   3.683
 1433SOL    HW1 5198   3.811   1.455   3.598
 1433SOL    HW2 5199   3.751   1.559   3.709
 1434SOL     OW 5200   6.069   3.920   1.140
 1434SOL    HW1 5201   6.141   3.878   1.086
 1434SOL    HW2 5202   6.013   3.979   1.082
 1435SOL     OW 5203   0.009   6.636   4.285
 1435SOL    HW1 5204   6.986   6.555   4.247
 1435SOL    HW2 5205   0.002   6.634   4.384
 1436SOL     OW 5206   5.921   0.553   0.170
 1436SOL    HW1 5207   6.013   0.529   0.199
 1436SOL    HW2 5208   5.925   0.627   0.103
 1437SOL     OW 5209   4.228   0.731   0.302
 1437SOL    HW1 5210   4.258   0.800   0.237
 1437SOL    HW2 5211   4.301   0.711   0.367
 1438SOL     OW 5212   2.925   6.808   3.389
 1438SOL    HW1 5213   2.884   6.720   3.365
 1438SOL    HW2 5214   3.022   6.795   3.408
 1439SOL     OW 5215   6.722   5.219   4.767
 1439SOL    HW1 5216   6.675   5.304   4.744
 1439SOL    HW2 5217   6.664   5.163   4.826
 1440SOL     OW 5218   3.582   2.916   2.598
 1440SOL    HW1 5219   3.497   2.969   2.601
 1440SOL    HW2 5220   3.563   2.822   2.628
 1441SOL     OW 5221   0.415   2.173   6.289
 1441SOL    HW1 5222   0.492   2.222   6.331
 1441SOL    HW2 5223   0.363   2.236   6.231
 1442SOL     OW 5224   5.359   6.192   6.966
 1442SOL    HW1 5225   5.342   6.283   7.003
 1442SOL    HW2 5226   5.370   6.198   6.867
 1443SOL     OW 5227   1.816   3.114   4.342
 1443SOL    HW1 5228   1.911   3.116   4.309
 1443SOL    HW2 5229   1.798   3.027   4.386
 1444SOL     OW 5230   4.630   6.667   4.751
 1444SOL    HW1 5231   4.613   6.661   4.652
 1444SOL    HW2 5232   4.594   6.754   4.785
 1445SOL     OW 5233   6.791   2.334   0.241
 1445SOL    HW1 5234   6.851   2.344   0.162
 1445SOL    HW2 5235   6.696   2.333   0.211
 1446SOL     OW 5236   3.031   5.724   2.471
 1446SOL    HW1 5237   2.991   5.632   2.465
 1446SOL    HW2 5238   3.032   5.754   2.566
 1447SOL     OW 5239   6.482   0.881   4.894
 1447SOL    HW1 5240   6.457   0.965   4.845
 1447SOL    HW2 5241   6.406   0.816   4.889
 1448SOL     OW 5242   5.290   1.428   0.412
 1448SOL    HW1 5243   5.321   1.513   0.455
 1448SOL    HW2 5244   5.191   1.429   0.405
 1449SOL     OW 5245   4.927   5.547   0.363
 1449SOL    HW1 5246   4.829   5.557   0.382
 1449SOL    HW2 5247   4.940   5.519   0.268
 1450SOL     OW 5248   5.680   1.497   3.962
 1450SOL    HW1 5249   5.586   1.480   3.932
 1450SOL    HW2 5250   5.710   1.421   4.020
 1451SOL     OW 5251   0.087   6.801   2.514
 1451SOL    HW1 5252   0.108   6.834   2.422
 1451SOL    HW2 5253   0.042   6.712   2.509
 1452SOL     OW 5254   1.826   0.251   6.147
 1452SOL    HW1 5255   1.873   0.175   6.191
 1452SOL    HW2 5256   1.774   0.302   6.216
 1453SOL     OW 5257   5.919   4.389   4.070
 1453SOL    HW1 5258   5.951   4.295   4.085
 1453SOL    HW2 5259   5.874   4.422   4.153
 1454SOL     OW 5260   6.024   4.388   1.527
 1454SOL    HW1 5261   6.106   4.378   1.583
 1454SOL    HW2 5262   6.011   4.484   1.504
 1455SOL     OW 5263   1.935   1.766   2.235
 1455SOL    HW1 5264   1.891   1.720   2.312
 1455SOL    HW2 5265   1.991   1.700   2.184
 1456SOL     OW 5266   5.349   5.066   4.917
 1456SOL    HW1 5267   5.353   5.166   4.918
 1456SOL    HW2 5268   5.376   5.030   5.006
 1457SOL     OW 5269   2.082   1.668   4.124
 1457SOL    HW1 5270   2.109   1.616   4.044
 1457SOL    HW2 5271   1.998   1.630   4.162
 1458SOL     OW 5272   6.720   5.503   0.194
 1458SOL    HW1 5273   6.657   5.542   0.127
 1458SOL    HW2 5274   6.671   5.435   0.249
 1459SOL     OW 5275   3.141   6.934   1.582
 1459SOL    HW1 5276   3.108   6.935   1.676
 1459SOL    HW2 5277   3.089   6.866   1.530
 1460SOL     OW 5278   0.618   1.586   6.572
 1460SOL    HW1 5279   0.594   1.506   6.628
 1460SOL    HW2 5280   0.718   1.590   6.562
 1461SOL     OW 5281   5.044   4.137   2.649
 1461SOL    HW1 5282   4.951   4.114   2.677
 1461SOL    HW2 5283   5.050   4.135   2.549
 1462SOL     OW 5284   5.821   0.342   5.481
 1462SOL    HW1 5285   5.804   0.277   5.408
 1462SOL    HW2 5286   5.918   0.367   5.481
 1463SOL     OW 5287   0.935   2.518   5.752
 1463SOL    HW1 5288   0.886   2.484   5.832
 1463SOL    HW2 5289   0.869   2.540   5.680
 1464SOL     OW 5290   0.794   0.807   1.162
 1464SOL    HW1 5291   0.718   0.764   1.113
 1464SOL    HW2 5292   0.881   0.768   1.131
 1465SOL     OW 5293   2.150   1.185   3.824
 1465SOL    HW1 5294   2.080   1.139   3.770
 1465SOL    HW2 5295   2.140   1.284   3.814
 1466SOL     OW 5296   5.783   5.823   4.649
 1466SOL    HW1 5297   5.820   5.855   4.562
 1466SOL    HW2 5298   5.700   5.874   4.670
 1467SOL     OW 5299   0.700   4.322   4.333
 1467SOL    HW1 5300   0.701   4.334   4.432
 1467SOL    HW2 5301   0.606   4.316   4.301
 1468SOL     OW 5302   4.503   0.034   2.292
 1468SOL    HW1 5303   4.568   7.004   2.346
 1468SOL    HW2 5304   4.421   0.053   2.346
 1469SOL     OW 5305   6.393   0.352   2.372
 1469SOL    HW1 5306   6.441   0.268   2.398
 1469SOL    HW2 5307   6.302   0.353   2.414
 1470SOL     OW 5308   0.165   0.399   2.228
 1470SOL    HW1 5309   0.182   0.304   2.252
 1470SOL    HW2 5310   0.134   0.449   2.310
 1471SOL     OW 5311   6.297   0.931   1.217
 1471SOL    HW1 5312   6.273   0.944   1.313
 1471SOL    HW2 5313   6.289   0.834   1.193
 1472SOL     OW 5314   4.466   5.083   4.652
 1472SOL    HW1 5315   4.406   5.083   4.732
 1472SOL    HW2 5316   4.411   5.078   4.569
 1473SOL     OW 5317   0.494   3.338   3.996
 1473SOL    HW1 5318   0.524   3.398   4.070
 1473SOL    HW2 5319   0.479   3.246   4.031
 1474SOL     OW 5320   4.964   6.129   2.667
 1474SOL    HW1 5321   5.016   6.109   2.584
 1474SOL    HW2 5322   4.971   6.227   2.688
 1475SOL     OW 5323   6.483   6.815   3.148
 1475SOL    HW1 5324   6.504   6.829   3.245
 1475SOL    HW2 5325   6.387   6.788   3.139
 1476SOL     OW 5326   1.004   2.236   0.724
 1476SOL    HW1 5327   0.993   2.161   0.789
 1476SOL    HW2 5328   1.007   2.323   0.774
 1477SOL     OW 5329   2.377   6.460   4.572
 1477SOL    HW1 5330   2.322   6.543   4.578
 1477SOL    HW2 5331   2.317   6.380   4.572
 1478SOL     OW 5332   0.194   4.378   1.160
 1478SOL    HW1 5333   0.137   4.418   1.231
 1478SOL    HW2 5334   0.139   4.362   1.078
 1479SOL     OW 5335   1.027   4.827   0.150
 1479SOL    HW1 5336   1.009   4.922   0.123
 1479SOL    HW2 5337   1.017   4.767   0.070
 1480SOL     OW 5338   3.560   0.710   6.956
 1480SOL    HW1 5339   3.530   0.769   6.882
 1480SOL    HW2 5340   3.506   0.626   6.956
 1481SOL     OW 5341   0.213   3.081   0.980
 1481SOL    HW1 5342   0.181   3.176   0.974
 1481SOL    HW2 5343   0.307   3.079   1.013
 1482SOL     OW 5344   5.834   0.736   5.572
 1482SOL    HW1 5345   5.925   0.711   5.605
 1482SOL    HW2 5346   5.803   0.818   5.620
 1483SOL     OW 5347   0.306   2.797   1.114
 1483SOL    HW1 5348   0.324   2.880   1.167
 1483SOL    HW2 5349   0.218   2.805   1.068
 1484SOL     OW 5350   6.027   7.013   3.385
 1484SOL    HW1 5351   5.928   7.010   3.372
 1484SOL    HW2 5352   6.050   0.062   3.451
 1485SOL     OW 5353   5.535   3.720   4.325
 1485SOL    HW1 5354   5.489   3.667   4.396
 1485SOL    HW2 5355   5.625   3.749   4.358
 1486SOL     OW 5356   4.954   2.884   1.559
 1486SOL    HW1 5357   4.911   2.836   1.635
 1486SOL    HW2 5358   5.047   2.909   1.584
 1487SOL     OW 5359   0.710   0.019   5.592
 1487SOL    HW1 5360   0.676   6.950   5.614
 1487SOL    HW2 5361   0.701   0.078   5.672
 1488SOL     OW 5362   4.684   2.145   4.029
 1488SOL    HW1 5363   4.743   2.217   3.992
 1488SOL    HW2 5364   4.597   2.145   3.980
 1489SOL     OW 5365   3.429   5.111   5.035
 1489SOL    HW1 5366   3.505   5.100   5.100
 1489SOL    HW2 5367   3.463   5.157   4.953
 1490SOL     OW 5368   2.969   3.014   0.432
 1490SOL    HW1 5369   3.069   3.014   0.438
 1490SOL    HW2 5370   2.930   3.055   0.515
 1491SOL     OW 5371   1.402   1.940   3.990
 1491SOL    HW1 5372   1.320   1.927   4.047
 1491SOL    HW2 5373   1.395   1.883   3.908
 1492SOL     OW 5374   6.858   2.035   1.469
 1492SOL    HW1 5375   6.800   2.052   1.390
 1492SOL    HW2 5376   6.804   1.993   1.542
 1493SOL     OW 5377   6.759   3.120   5.184
 1493SOL    HW1 5378   6.841   3.077   5.146
 1493SOL    HW2 5379   6.763   3.117   5.284
 1494SOL     OW 5380   5.332   1.707   3.829
 1494SOL    HW1 5381   5.392   1.776   3.788
 1494SOL    HW2 5382   5.244   1.709   3.783
 1495SOL     OW 5383   1.577   3.628   1.371
 1495SOL    HW1 5384   1.511   3.638   1.446
 1495SOL    HW2 5385   1.668   3.611   1.408
 1496SOL     OW 5386   0.338   0.423   2.572
 1496SOL    HW1 5387   0.345   0.335   2.620
 1496SOL    HW2 5388   0.287   0.411   2.487
 1497SOL     OW 5389   5.425   4.511   5.791
 1497SOL    HW1 5390   5.397   4.596   5.747
 1497SOL    HW2 5391   5.440   4.440   5.722
 1498SOL     OW 5392   3.441   5.470   6.913
 1498SOL    HW1 5393   3.425   5.412   6.833
 1498SOL    HW2 5394   3.372   5.451   6.982
 1499SOL     OW 5395   1.782   4.273   4.181
 1499SOL    HW1 5396   1.715   4.285   4.108
 1499SOL    HW2 5397   1.781   4.353   4.241
 1500SOL     OW 5398   4.053   5.998   5.519
 1500SOL    HW1 5399   4.124   6.012   5.588
 1500SOL    HW2 5400   4.080   6.043   5.433
 1501SOL     OW 5401   3.693   0.665   1.224
 1501SOL    HW1 5402   3.766   0.657   1.156
 1501SOL    HW2 5403   3.650   0.755   1.216
 1502SOL     OW 5404   0.136   0.812   6.880
 1502SOL    HW1 5405   0.103   0.828   6.787
 1502SOL    HW2 5406   0.061   0.779   6.937
 1503SOL     OW 5407   3.600   3.582   4.981
 1503SOL    HW1 5408   3.528   3.522   5.017
 1503SOL    HW2 5409   3.609   3.662   5.039
 1504SOL     OW 5410   3.178   0.155   3.551
 1504SOL    HW1 5411   3.125   0.119   3.474
 1504SOL    HW2 5412   3.149   0.110   3.635
 1505SOL     OW 5413   5.682   6.469   3.169
 1505SOL    HW1 5414   5.626   6.403   3.220
 1505SOL    HW2 5415   5.672   6.453   3.071
 1506SOL     OW 5416   6.907   6.882   4.192
 1506SOL    HW1 5417   6.983   6.817   4.182
 1506SOL    HW2 5418   6.913   6.927   4.281
 1507SOL     OW 5419   2.112   1.932   6.602
 1507SOL    HW1 5420   2.067   1.855   6.649
 1507SOL    HW2 5421   2.042   1.990   6.561
 1508SOL     OW 5422   4.328   6.603   0.809
 1508SOL    HW1 5423   4.380   6.587   0.725
 1508SOL    HW2 5424   4.386   6.652   0.875
 1509SOL     OW 5425   5.202   1.943   6.731
 1509SOL    HW1 5426   5.299   1.921   6.723
 1509SOL    HW2 5427   5.187   2.037   6.698
 1510SOL     OW 5428   6.740   1.672   2.083
 1510SOL    HW1 5429   6.688   1.660   2.167
 1510SOL    HW2 5430   6.801   1.751   2.092
 1511SOL     OW 5431   0.203   2.633   0.894
 1511SOL    HW1 5432   0.285   2.606   0.945
 1511SOL    HW2 5433   0.156   2.551   0.862
 1512SOL     OW 5434   0.300   0.642   2.734
 1512SOL    HW1 5435   0.262   0.609   2.820
 1512SOL    HW2 5436   0.329   0.565   2.678
 1513SOL     OW 5437   2.452   0.672   2.716
 1513SOL    HW1 5438   2.451   0.602   2.787
 1513SOL    HW2 5439   2.517   0.744   2.741
 1514SOL     OW 5440   4.902   0.431   6.009
 1514SOL    HW1 5441   4.843   0.510   5.993
 1514SOL    HW2 5442   4.851   0.347   5.988
 1515SOL     OW 5443   5.616   5.166   5.711
 1515SOL    HW1 5444   5.558   5.136   5.635
 1515SOL    HW2 5445   5.690   5.224   5.676
 1516SOL     OW 5446   5.924   1.793   2.501
 1516SOL    HW1 5447   5.903   1.750   2.413
 1516SOL    HW2 5448   6.020   1.819   2.503
 1517SOL     OW 5449   3.330   5.208   1.671
 1517SOL    HW1 5450   3.335   5.173   1.764
 1517SOL    HW2 5451   3.246   5.178   1.628
 1518SOL     OW 5452   1.221   4.827   0.930
 1518SOL    HW1 5453   1.207   4.750   0.868
 1518SOL    HW2 5454   1.243   4.793   1.021
 1519SOL     OW 5455   0.608   4.389   1.159
 1519SOL    HW1 5456   0.529   4.414   1.103
 1519SOL    HW2 5457   0.630   4.292   1.144
 1520SOL     OW 5458   1.520   3.896   2.907
 1520SOL    HW1 5459   1.577   3.860   2.833
 1520SOL    HW2 5460   1.545   3.851   2.993
 1521SOL     OW 5461   2.031   5.959   5.368
 1521SOL    HW1 5462   1.950   6.006   5.403
 1521SOL    HW2 5463   2.010   5.862   5.355
 1522SOL     OW 5464   1.611   2.105   5.844
 1522SOL    HW1 5465   1.688   2.064   5.795
 1522SOL    HW2 5466   1.637   2.195   5.878
 1523SOL     OW 5467   5.616   0.843   1.562
 1523SOL    HW1 5468   5.581   0.827   1.470
 1523SOL    HW2 5469   5.630   0.941   1.576
 1524SOL     OW 5470   0.802   1.873   0.837
 1524SOL    HW1 5471   0.814   1.820   0.753
 1524SOL    HW2 5472   0.808   1.812   0.916
 1525SOL     OW 5473   5.190   1.602   4.931
 1525SOL    HW1 5474   5.163   1.506   4.937
 1525SOL    HW2 5475   5.136   1.656   4.996
 1526SOL     OW 5476   5.362   2.744   0.675
 1526SOL    HW1 5477   5.266   2.719   0.668
 1526SOL    HW2 5478   5.385   2.763   0.770
 1527SOL     OW 5479   2.088   0.117   4.911
 1527SOL    HW1 5480   2.140   0.034   4.932
 1527SOL    HW2 5481   2.117   0.152   4.822
 1528SOL     OW 5482   4.850   6.037   3.094
 1528SOL    HW1 5483   4.795   6.090   3.030
 1528SOL    HW2 5484   4.856   5.942   3.063
 1529SOL     OW 5485   1.539   6.742   5.401
 1529SOL    HW1 5486   1.616   6.767   5.343
 1529SOL    HW2 5487   1.561   6.762   5.496
 1530SOL     OW 5488   3.631   6.655   1.689
 1530SOL    HW1 5489   3.690   6.657   1.608
 1530SOL    HW2 5490   3.538   6.681   1.663
 1531SOL     OW 5491   5.582   1.426   6.677
 1531SOL    HW1 5492   5.588   1.385   6.586
 1531SOL    HW2 5493   5.635   1.511   6.679
 1532SOL     OW 5494   2.929   1.125   5.024
 1532SOL    HW1 5495   2.873   1.200   5.060
 1532SOL    HW2 5496   3.016   1.161   4.989
 1533SOL     OW 5497   4.532   3.060   0.880
 1533SOL    HW1 5498   4.521   3.105   0.969
 1533SOL    HW2 5499   4.575   2.971   0.893
 1534SOL     OW 5500   6.525   0.360   0.607
 1534SOL    HW1 5501   6.469   0.290   0.651
 1534SOL    HW2 5502   6.622   0.336   0.614
 1535SOL     OW 5503   4.562   4.443   4.396
 1535SOL    HW1 5504   4.621   4.434   4.476
 1535SOL    HW2 5505   4.617   4.431   4.313
 1536SOL     OW 5506   2.930   6.399   3.121
 1536SOL    HW1 5507   3.004   6.452   3.079
 1536SOL    HW2 5508   2.855   6.388   3.056
 1537SOL     OW 5509   1.719   5.813   4.479
 1537SOL    HW1 5510   1.621   5.832   4.470
 1537SOL    HW2 5511   1.741   5.728   4.432
 1538SOL     OW 5512   3.346   6.060   0.089
 1538SOL    HW1 5513   3.435   6.096   0.063
 1538SOL    HW2 5514   3.332   6.073   0.187
 1539SOL     OW 5515   2.506   6.754   2.036
 1539SOL    HW1 5516   2.495   6.714   2.127
 1539SOL    HW2 5517   2.514   6.680   1.969
 1540SOL     OW 5518   6.451   0.712   5.876
 1540SOL    HW1 5519   6.360   0.733   5.912
 1540SOL    HW2 5520   6.521   0.756   5.933
 1541SOL     OW 5521   5.354   1.984   1.929
 1541SOL    HW1 5522   5.257   1.960   1.933
 1541SOL    HW2 5523   5.386   2.009   2.020
 1542SOL     OW 5524   6.842   5.159   1.490
 1542SOL    HW1 5525   6.871   5.063   1.499
 1542SOL    HW2 5526   6.743   5.164   1.490
 1543SOL     OW 5527   3.396   3.133   2.680
 1543SOL    HW1 5528   3.348   3.163   2.598
 1543SOL    HW2 5529   3.334   3.081   2.738
 1544SOL     OW 5530   3.323   3.276   1.521
 1544SOL    HW1 5531   3.386   3.333   1.469
 1544SOL    HW2 5532   3.366   3.248   1.607
 1545SOL     OW 5533   0.555   6.358   5.885
 1545SOL    HW1 5534   0.559   6.261   5.909
 1545SOL    HW2 5535   0.462   6.381   5.855
 1546SOL     OW 5536   0.463   6.568   0.888
 1546SOL    HW1 5537   0.405   6.643   0.919
 1546SOL    HW2 5538   0.416   6.481   0.902
 1547SOL     OW 5539   2.804   6.456   0.668
 1547SOL    HW1 5540   2.783   6.373   0.616
 1547SOL    HW2 5541   2.820   6.432   0.764
 1548SOL     OW 5542   6.374   4.062   3.124
 1548SOL    HW1 5543   6.333   3.985   3.074
 1548SOL    HW2 5544   6.302   4.116   3.166
 1549SOL     OW 5545   6.105   1.919   0.993
 1549SOL    HW1 5546   6.054   1.965   0.920
 1549SOL    HW2 5547   6.093   1.970   1.078
 1550SOL     OW 5548   2.605   5.081   2.205
 1550SOL    HW1 5549   2.592   5.149   2.278
 1550SOL    HW2 5550   2.700   5.050   2.207
 1551SOL     OW 5551   1.114   2.131   1.667
 1551SOL    HW1 5552   1.119   2.054   1.730
 1551SOL    HW2 5553   1.128   2.099   1.574
 1552SOL     OW 5554   1.628   6.370   2.371
 1552SOL    HW1 5555   1.631   6.452   2.314
 1552SOL    HW2 5556   1.532   6.348   2.392
 1553SOL     OW 5557   6.017   1.829   5.473
 1553SOL    HW1 5558   5.944   1.786   5.526
 1553SOL    HW2 5559   5.987   1.920   5.444
 1554SOL     OW 5560   2.835   3.285   0.184
 1554SOL    HW1 5561   2.817   3.189   0.164
 1554SOL    HW2 5562   2.763   3.342   0.144
 1555SOL     OW 5563   4.635   1.669   1.034
 1555SOL    HW1 5564   4.713   1.610   1.053
 1555SOL    HW2 5565   4.553   1.632   1.078
 1556SOL     OW 5566   2.604   2.256   0.546
 1556SOL    HW1 5567   2.545   2.175   0.552
 1556SOL    HW2 5568   2.700   2.227   0.539
 1557SOL     OW 5569   2.488   2.473   1.217
 1557SOL    HW1 5570   2.556   2.399   1.219
 1557SOL    HW2 5571   2.525   2.554   1.263
 1558SOL     OW 5572   4.916   2.687   0.288
 1558SOL    HW1 5573   4.984   2.761   0.285
 1558SOL    HW2 5574   4.902   2.650   0.196
 1559SOL     OW 5575   2.149   6.181   4.220
 1559SOL    HW1 5576   2.218   6.243   4.257
 1559SOL    HW2 5577   2.132   6.107   4.286
 1560SOL     OW 5578   4.690   3.573   1.434
 1560SOL    HW1 5579   4.628   3.591   1.510
 1560SOL    HW2 5580   4.643   3.519   1.364
 1561SOL     OW 5581   6.030   6.416   1.005
 1561SOL    HW1 5582   5.984   6.468   0.933
 1561SOL    HW2 5583   5.963   6.359   1.053
 1562SOL     OW 5584   2.781   0.104   3.050
 1562SOL    HW1 5585   2.795   0.149   3.138
 1562SOL    HW2 5586   2.866   0.059   3.022
 1563SOL     OW 5587   2.246   4.322   3.436
 1563SOL    HW1 5588   2.308   4.368   3.372
 1563SOL    HW2 5589   2.190   4.256   3.386
 1564SOL     OW 5590   2.000   1.841   2.979
 1564SOL    HW1 5591   1.908   1.829   3.016
 1564SOL    HW2 5592   2.067   1.834   3.052
 1565SOL     OW 5593   5.386   1.679   5.456
 1565SOL    HW1 5594   5.390   1.657   5.359
 1565SOL    HW2 5595   5.296   1.654   5.493
 1566SOL     OW 5596   0.992   3.486   3.737
 1566SOL    HW1 5597   1.091   3.478   3.741
 1566SOL    HW2 5598   0.960   3.459   3.646
 1567SOL     OW 5599   5.958   1.146   4.571
 1567SOL    HW1 5600   5.896   1.199   4.629
 1567SOL    HW2 5601   5.909   1.068   4.533
 1568SOL     OW 5602   1.841   4.753   0.924
 1568SOL    HW1 5603   1.744   4.734   0.913
 1568SOL    HW2 5604   1.869   4.735   1.018
 1569SOL     OW 5605   2.192   1.192   2.319
 1569SOL    HW1 5606   2.185   1.212   2.416
 1569SOL    HW2 5607   2.183   1.277   2.266
 1570SOL     OW 5608   2.877   5.681   6.279
 1570SOL    HW1 5609   2.888   5.737   6.361
 1570SOL    HW2 5610   2.779   5.666   6.263
 1571SOL     OW 5611   1.144   1.200   4.174
 1571SOL    HW1 5612   1.071   1.150   4.127
 1571SOL    HW2 5613   1.230   1.185   4.126
 1572SOL     OW 5614   2.345   5.128   3.689
 1572SOL    HW1 5615   2.344   5.069   3.769
 1572SOL    HW2 5616   2.434   5.174   3.683
 1573SOL     OW 5617   5.416   5.791   0.000
 1573SOL    HW1 5618   5.330   5.828   6.991
 1573SOL    HW2 5619   5.477   5.865   0.029
 1574SOL     OW 5620   0.405   2.798   3.381
 1574SOL    HW1 5621   0.472   2.814   3.453
 1574SOL    HW2 5622   0.450   2.803   3.291
 1575SOL     OW 5623   6.733   1.955   7.015
 1575SOL    HW1 5624   6.755   1.882   6.950
 1575SOL    HW2 5625   6.780   1.937   0.079
 1576SOL     OW 5626   0.625   6.099   2.822
 1576SOL    HW1 5627   0.621   6.167   2.895
 1576SOL    HW2 5628   0.650   6.010   2.860
 1577SOL     OW 5629   4.318   6.052   4.094
 1577SOL    HW1 5630   4.316   6.005   4.006
 1577SOL    HW2 5631   4.354   6.145   4.081
 1578SOL     OW 5632   5.535   1.847   1.729
 1578SOL    HW1 5633   5.510   1.867   1.635
 1578SOL    HW2 5634   5.466   1.885   1.791
 1579SOL     OW 5635   1.634   3.830   2.653
 1579SOL    HW1 5636   1.707   3.836   2.585
 1579SOL    HW2 5637   1.576   3.752   2.633
 1580SOL     OW 5638   3.166   3.307   4.349
 1580SOL    HW1 5639   3.213   3.383   4.395
 1580SOL    HW2 5640   3.103   3.264   4.413
 1581SOL     OW 5641   5.305   3.797   5.178
 1581SOL    HW1 5642   5.285   3.702   5.205
 1581SOL    HW2 5643   5.251   3.859   5.234
 1582SOL     OW 5644   3.961   5.990   3.959
 1582SOL    HW1 5645   3.861   5.998   3.950
 1582SOL    HW2 5646   3.986   6.002   4.055
 1583SOL     OW 5647   0.604   5.417   4.769
 1583SOL    HW1 5648   0.512   5.453   4.786
 1583SOL    HW2 5649   0.668   5.460   4.832
 1584SOL     OW 5650   0.399   4.585   0.066
 1584SOL    HW1 5651   0.489   4.624   0.085
 1584SOL    HW2 5652   0.368   4.616   6.998
 1585SOL     OW 5653   4.403   6.643   4.015
 1585SOL    HW1 5654   4.373   6.581   3.943
 1585SOL    HW2 5655   4.472   6.706   3.978
 1586SOL     OW 5656   2.840   5.863   3.693
 1586SOL    HW1 5657   2.849   5.963   3.685
 1586SOL    HW2 5658   2.869   5.835   3.784
 1587SOL     OW 5659   4.306   0.103   6.697
 1587SOL    HW1 5660   4.304   0.061   6.788
 1587SOL    HW2 5661   4.213   0.117   6.665
 1588SOL     OW 5662   6.302   1.620   3.922
 1588SOL    HW1 5663   6.259   1.599   4.009
 1588SOL    HW2 5664   6.396   1.649   3.937
 1589SOL     OW 5665   0.218   1.276   3.760
 1589SOL    HW1 5666   0.146   1.245   3.697
 1589SOL    HW2 5667   0.181   1.283   3.852
 1590SOL     OW 5668   5.577   0.285   3.650
 1590SOL    HW1 5669   5.573   0.283   3.550
 1590SOL    HW2 5670   5.650   0.346   3.680
 1591SOL     OW 5671   0.263   5.226   0.808
 1591SOL    HW1 5672   0.289   5.180   0.893
 1591SOL    HW2 5673   0.326   5.200   0.735
 1592SOL     OW 5674   6.817   4.171   4.481
 1592SOL    HW1 5675   6.823   4.074   4.458
 1592SOL    HW2 5676   6.735   4.187   4.536
 1593SOL     OW 5677   3.854   5.340   1.319
 1593SOL    HW1 5678   3.844   5.275   1.244
 1593SOL    HW2 5679   3.943   5.327   1.363
 1594SOL     OW 5680   5.268   0.647   3.237
 1594SOL    HW1 5681   5.257   0.692   3.148
 1594SOL    HW2 5682   5.363   0.620   3.250
 1595SOL     OW 5683   6.692   3.859   0.340
 1595SOL    HW1 5684   6.636   3.942   0.343
 1595SOL    HW2 5685   6.670   3.806   0.258
 1596SOL     OW 5686   5.397   4.323   4.229
 1596SOL    HW1 5687   5.481   4.274   4.208
 1596SOL    HW2 5688   5.394   4.343   4.327
 1597SOL     OW 5689   4.451   6.959   1.082
 1597SOL    HW1 5690   4.412   6.867   1.081
 1597SOL    HW2 5691   4.550   6.953   1.083
 1598SOL     OW 5692   0.770   5.805   6.004
 1598SOL    HW1 5693   0.762   5.896   5.964
 1598SOL    HW2 5694   0.680   5.762   6.008
 1599SOL     OW 5695   5.043   4.979   4.230
 1599SOL    HW1 5696   5.006   5.050   4.170
 1599SOL    HW2 5697   4.982   4.967   4.309
 1600SOL     OW 5698   5.259   1.146   1.591
 1600SOL    HW1 5699   5.264   1.244   1.569
 1600SOL    HW2 5700   5.257   1.093   1.507
 1601SOL     OW 5701   6.036   0.507   5.159
 1601SOL    HW1 5702   6.004   0.534   5.069
 1601SOL    HW2 5703   6.026   0.408   5.170
 1602SOL     OW 5704   3.481   5.936   3.510
 1602SOL    HW1 5705   3.563   5.987   3.484
 1602SOL    HW2 5706   3.487   5.912   3.607
 1603SOL     OW 5707   3.361   5.784   1.379
 1603SOL    HW1 5708   3.287   5.735   1.424
 1603SOL    HW2 5709   3.335   5.804   1.285
 1604SOL     OW 5710   4.480   5.334   1.658
 1604SOL    HW1 5711   4.417   5.409   1.676
 1604SOL    HW2 5712   4.574   5.364   1.674
 1605SOL     OW 5713   4.001   4.885   0.233
 1605SOL    HW1 5714   4.001   4.973   0.185
 1605SOL    HW2 5715   3.986   4.900   0.330
 1606SOL     OW 5716   4.824   5.875   4.852
 1606SOL    HW1 5717   4.764   5.907   4.779
 1606SOL    HW2 5718   4.786   5.793   4.894
 1607SOL     OW 5719   4.750   4.084   3.884
 1607SOL    HW1 5720   4.792   4.000   3.850
 1607SOL    HW2 5721   4.752   4.084   3.984
 1608SOL     OW 5722   6.389   3.021   2.851
 1608SOL    HW1 5723   6.441   3.054   2.930
 1608SOL    HW2 5724   6.333   3.096   2.814
 1609SOL     OW 5725   1.450   0.259   0.807
 1609SOL    HW1 5726   1.492   0.170   0.788
 1609SOL    HW2 5727   1.495   0.329   0.751
 1610SOL     OW 5728   5.746   5.442   1.224
 1610SOL    HW1 5729   5.679   5.424   1.152
 1610SOL    HW2 5730   5.702   5.433   1.314
 1611SOL     OW 5731   0.171   4.543   6.581
 1611SOL    HW1 5732   0.128   4.582   6.663
 1611SOL    HW2 5733   0.261   4.584   6.568
 1612SOL     OW 5734   5.288   0.902   2.297
 1612SOL    HW1 5735   5.346   0.863   2.225
 1612SOL    HW2 5736   5.218   0.835   2.323
 1613SOL     OW 5737   0.191   6.213   2.792
 1613SOL    HW1 5738   0.096   6.200   2.820
 1613SOL    HW2 5739   0.206   6.309   2.767
 1614SOL     OW 5740   6.234   0.997   5.985
 1614SOL    HW1 5741   6.180   0.982   6.068
 1614SOL    HW2 5742   6.258   1.093   5.978
 1615SOL     OW 5743   6.361   3.099   5.767
 1615SOL    HW1 5744   6.282   3.085   5.707
 1615SOL    HW2 5745   6.339   3.066   5.859
 1616SOL     OW 5746   1.233   1.624   3.420
 1616SOL    HW1 5747   1.163   1.652   3.485
 1616SOL    HW2 5748   1.225   1.526   3.402
 1617SOL     OW 5749   0.105   6.023   4.271
 1617SOL    HW1 5750   0.126   6.072   4.355
 1617SOL    HW2 5751   0.180   6.033   4.206
 1618SOL     OW 5752   3.002   5.205   2.881
 1618SOL    HW1 5753   3.025   5.170   2.972
 1618SOL    HW2 5754   2.915   5.254   2.886
 1619SOL     OW 5755   0.644   3.679   6.206
 1619SOL    HW1 5756   0.727   3.626   6.191
 1619SOL    HW2 5757   0.590   3.681   6.121
 1620SOL     OW 5758   2.557   6.923   4.592
 1620SOL    HW1 5759   2.565   6.935   4.691
 1620SOL    HW2 5760   2.462   6.908   4.567
 1621SOL     OW 5761   5.551   4.663   0.896
 1621SOL    HW1 5762   5.611   4.598   0.849
 1621SOL    HW2 5763   5.542   4.636   0.992
 1622SOL     OW 5764   6.556   3.178   3.208
 1622SOL    HW1 5765   6.504   3.244   3.154
 1622SOL    HW2 5766   6.506   3.091   3.211
 1623SOL     OW 5767   0.466   2.417   3.993
 1623SOL    HW1 5768   0.536   2.366   4.042
 1623SOL    HW2 5769   0.439   2.366   3.911
 1624SOL     OW 5770   4.481   3.110   0.616
 1624SOL    HW1 5771   4.490   3.102   0.716
 1624SOL    HW2 5772   4.570   3.096   0.573
 1625SOL     OW 5773   1.079   6.357   0.113
 1625SOL    HW1 5774   1.130   6.274   0.089
 1625SOL    HW2 5775   1.055   6.407   0.029
 1626SOL     OW 5776   2.585   1.759   1.813
 1626SOL    HW1 5777   2.592   1.768   1.713
 1626SOL    HW2 5778   2.668   1.796   1.855
 1627SOL     OW 5779   4.383   0.979   5.387
 1627SOL    HW1 5780   4.448   1.028   5.329
 1627SOL    HW2 5781   4.402   0.880   5.382
 1628SOL     OW 5782   5.547   5.670   0.965
 1628SOL    HW1 5783   5.510   5.752   1.008
 1628SOL    HW2 5784   5.576   5.691   0.871
 1629SOL     OW 5785   1.717   6.413   2.870
 1629SOL    HW1 5786   1.658   6.485   2.906
 1629SOL    HW2 5787   1.716   6.415   2.770
 1630SOL     OW 5788   0.481   5.056   6.148
 1630SOL    HW1 5789   0.478   4.972   6.093
 1630SOL    HW2 5790   0.491   5.032   6.244
 1631SOL     OW 5791   5.250   4.284   6.981
 1631SOL    HW1 5792   5.186   4.339   0.012
 1631SOL    HW2 5793   5.198   4.230   6.914
 1632SOL     OW 5794   6.111   5.833   2.296
 1632SOL    HW1 5795   6.178   5.865   2.363
 1632SOL    HW2 5796   6.070   5.747   2.328
 1633SOL     OW 5797   6.837   3.746   4.851
 1633SOL    HW1 5798   6.743   3.744   4.885
 1633SOL    HW2 5799   6.852   3.830   4.798
 1634SOL     OW 5800   1.272   4.032   5.943
 1634SOL    HW1 5801   1.262   4.067   5.849
 1634SOL    HW2 5802   1.359   3.984   5.951
 1635SOL     OW 5803   2.438   1.225   3.887
 1635SOL    HW1 5804   2.429   1.318   3.922
 1635SOL    HW2 5805   2.348   1.184   3.875
 1636SOL     OW 5806   6.950   6.186   1.792
 1636SOL    HW1 5807   6.963   6.128   1.873
 1636SOL    HW2 5808   0.008   6.243   1.778
 1637SOL     OW 5809   1.114   1.185   1.737
 1637SOL    HW1 5810   1.114   1.222   1.829
 1637SOL    HW2 5811   1.204   1.198   1.695
 1638SOL     OW 5812   5.376   2.061   3.545
 1638SOL    HW1 5813   5.356   2.088   3.639
 1638SOL    HW2 5814   5.425   1.973   3.544
 1639SOL     OW 5815   5.156   2.076   0.983
 1639SOL    HW1 5816   5.091   2.000   0.988
 1639SOL    HW2 5817   5.241   2.051   1.030
 1640SOL     OW 5818   6.131   1.269   6.696
 1640SOL    HW1 5819   6.162   1.291   6.603
 1640SOL    HW2 5820   6.171   1.182   6.724
 1641SOL     OW 5821   5.861   1.406   2.185
 1641SOL    HW1 5822   5.893   1.354   2.106
 1641SOL    HW2 5823   5.894   1.363   2.269
 1642SOL     OW 5824   0.015   3.233   6.705
 1642SOL    HW1 5825   6.986   3.249   6.790
 1642SOL    HW2 5826   0.043   3.321   6.667
 1643SOL     OW 5827   2.094   5.388   4.768
 1643SOL    HW1 5828   2.049   5.333   4.697
 1643SOL    HW2 5829   2.162   5.448   4.726
 1644SOL     OW 5830   5.692   1.719   0.869
 1644SOL    HW1 5831   5.782   1.709   0.826
 1644SOL    HW2 5832   5.644   1.796   0.828
 1645SOL     OW 5833   2.585   0.867   3.955
 1645SOL    HW1 5834   2.634   0.781   3.964
 1645SOL    HW2 5835   2.594   0.920   4.039
 1646SOL     OW 5836   6.891   5.567   1.895
 1646SOL    HW1 5837   6.894   5.659   1.856
 1646SOL    HW2 5838   6.919   5.570   1.991
 1647SOL     OW 5839   6.754   3.662   5.427
 1647SOL    HW1 5840   6.660   3.691   5.447
 1647SOL    HW2 5841   6.752   3.573   5.380
 1648SOL     OW 5842   5.837   6.137   2.356
 1648SOL    HW1 5843   5.839   6.128   2.257
 1648SOL    HW2 5844   5.743   6.143   2.388
 1649SOL     OW 5845   3.841   0.922   3.304
 1649SOL    HW1 5846   3.745   0.949   3.301
 1649SOL    HW2 5847   3.848   0.823   3.301
 1650SOL     OW 5848   2.679   2.219   4.912
 1650SOL    HW1 5849   2.588   2.197   4.948
 1650SOL    HW2 5850   2.717   2.138   4.867
 1651SOL     OW 5851   1.644   2.418   3.927
 1651SOL    HW1 5852   1.603   2.360   3.998
 1651SOL    HW2 5853   1.576   2.482   3.893
 1652SOL     OW 5854   0.121   4.270   1.778
 1652SOL    HW1 5855   0.165   4.224   1.701
 1652SOL    HW2 5856   0.142   4.368   1.775
 1653SOL     OW 5857   6.109   4.310   1.999
 1653SOL    HW1 5858   6.038   4.263   1.948
 1653SOL    HW2 5859   6.128   4.260   2.083
 1654SOL     OW 5860   6.557   3.268   2.061
 1654SOL    HW1 5861   6.606   3.342   2.106
 1654SOL    HW2 5862   6.590   3.256   1.968
 1655SOL     OW 5863   6.845   0.471   5.551
 1655SOL    HW1 5864   6.940   0.472   5.519
 1655SOL    HW2 5865   6.841   0.510   5.643
 1656SOL     OW 5866   1.723   4.073   3.050
 1656SOL    HW1 5867   1.795   4.084   2.981
 1656SOL    HW2 5868   1.678   4.162   3.066
 1657SOL     OW 5869   0.719   1.483   6.213
 1657SOL    HW1 5870   0.731   1.398   6.265
 1657SOL    HW2 5871   0.665   1.547   6.268
 1658SOL     OW 5872   4.941   0.448   5.456
 1658SOL    HW1 5873   4.851   0.404   5.446
 1658SOL    HW2 5874   4.954   0.477   5.550
 1659SOL     OW 5875   2.859   0.899   6.618
 1659SOL    HW1 5876   2.805   0.961   6.560
 1659SOL    HW2 5877   2.949   0.940   6.635
 1660SOL     OW 5878   2.514   1.215   1.651
 1660SOL    HW1 5879   2.543   1.307   1.622
 1660SOL    HW2 5880   2.530   1.204   1.749
 1661SOL     OW 5881   4.682   5.186   3.266
 1661SOL    HW1 5882   4.620   5.159   3.193
 1661SOL    HW2 5883   4.698   5.107   3.327
 1662SOL     OW 5884   0.453   1.766   3.657
 1662SOL    HW1 5885   0.415   1.847   3.613
 1662SOL    HW2 5886   0.415   1.757   3.749
 1663SOL     OW 5887   6.529   3.878   1.270
 1663SOL    HW1 5888   6.536   3.968   1.227
 1663SOL    HW2 5889   6.559   3.808   1.206
 1664SOL     OW 5890   1.355   1.503   6.518
 1664SOL    HW1 5891   1.454   1.499   6.518
 1664SOL    HW2 5892   1.318   1.431   6.459
 1665SOL     OW 5893   1.632   3.868   0.252
 1665SOL    HW1 5894   1.644   3.773   0.280
 1665SOL    HW2 5895   1.609   3.924   0.332
 1666SOL     OW 5896   5.415   6.340   5.600
 1666SOL    HW1 5897   5.349   6.270   5.627
 1666SOL    HW2 5898   5.435   6.400   5.677
 1667SOL     OW 5899   6.704   5.300   0.830
 1667SOL    HW1 5900   6.688   5.343   0.918
 1667SOL    HW2 5901   6.709   5.371   0.759
 1668SOL     OW 5902   6.719   3.043   1.899
 1668SOL    HW1 5903   6.667   3.111   1.847
 1668SOL    HW2 5904   6.812   3.039   1.865
 1669SOL     OW 5905   6.144   2.834   5.421
 1669SOL    HW1 5906   6.147   2.779   5.504
 1669SOL    HW2 5907   6.160   2.930   5.444
 1670SOL     OW 5908   2.937   4.351   5.359
 1670SOL    HW1 5909   2.939   4.404   5.275
 1670SOL    HW2 5910   2.937   4.253   5.337
 1671SOL     OW 5911   5.877   2.526   0.784
 1671SOL    HW1 5912   5.946   2.572   0.728
 1671SOL    HW2 5913   5.793   2.514   0.730
 1672SOL     OW 5914   0.775   1.718   1.069
 1672SOL    HW1 5915   0.676   1.706   1.066
 1672SOL    HW2 5916   0.801   1.759   1.156
 1673SOL     OW 5917   0.898   0.457   6.376
 1673SOL    HW1 5918   0.798   0.451   6.386
 1673SOL    HW2 5919   0.920   0.487   6.284
 1674SOL     OW 5920   4.724   2.793   3.401
 1674SOL    HW1 5921   4.769   2.751   3.322
 1674SOL    HW2 5922   4.738   2.892   3.400
 1675SOL     OW 5923   5.082   0.853   2.078
 1675SOL    HW1 5924   5.093   0.941   2.032
 1675SOL    HW2 5925   5.023   0.863   2.158
 1676SOL     OW 5926   1.472   2.213   3.988
 1676SOL    HW1 5927   1.445   2.268   3.909
 1676SOL    HW2 5928   1.442   2.118   3.973
 1677SOL     OW 5929   3.103   3.991   1.445
 1677SOL    HW1 5930   3.167   4.056   1.403
 1677SOL    HW2 5931   3.100   4.007   1.544
 1678SOL     OW 5932   6.747   0.302   0.764
 1678SOL    HW1 5933   6.726   0.223   0.822
 1678SOL    HW2 5934   6.715   0.386   0.809
 1679SOL     OW 5935   6.044   2.087   6.962
 1679SOL    HW1 5936   6.098   2.084   0.023
 1679SOL    HW2 5937   5.950   2.114   6.983
 1680SOL     OW 5938   5.205   2.041   3.320
 1680SOL    HW1 5939   5.272   2.042   3.395
 1680SOL    HW2 5940   5.253   2.029   3.233
 1681SOL     OW 5941   4.270   6.430   3.791
 1681SOL    HW1 5942   4.316   6.497   3.733
 1681SOL    HW2 5943   4.175   6.459   3.807
 1682SOL     OW 5944   4.328   1.845   5.369
 1682SOL    HW1 5945   4.357   1.835   5.274
 1682SOL    HW2 5946   4.392   1.906   5.417
 1683SOL     OW 5947   0.934   3.779   3.626
 1683SOL    HW1 5948   0.906   3.758   3.533
 1683SOL    HW2 5949   0.948   3.693   3.676
 1684SOL     OW 5950   3.492   5.701   0.937
 1684SOL    HW1 5951   3.403   5.732   0.971
 1684SOL    HW2 5952   3.481   5.655   0.850
 1685SOL     OW 5953   0.050   2.131   5.734
 1685SOL    HW1 5954   6.998   2.105   5.796
 1685SOL    HW2 5955   0.061   2.060   5.664
 1686SOL     OW 5956   3.227   5.981   1.584
 1686SOL    HW1 5957   3.178   5.902   1.621
 1686SOL    HW2 5958   3.308   5.950   1.535
 1687SOL     OW 5959   4.441   4.046   0.305
 1687SOL    HW1 5960   4.360   4.061   0.361
 1687SOL    HW2 5961   4.515   4.106   0.335
 1688SOL     OW 5962   3.200   0.294   3.008
 1688SOL    HW1 5963   3.133   0.250   2.948
 1688SOL    HW2 5964   3.222   0.233   3.084
 1689SOL     OW 5965   4.222   0.786   1.816
 1689SOL    HW1 5966   4.221   0.856   1.887
 1689SOL    HW2 5967   4.135   0.786   1.768
 1690SOL     OW 5968   0.145   4.525   4.144
 1690SOL    HW1 5969   0.088   4.526   4.227
 1690SOL    HW2 5970   0.086   4.531   4.063
 1691SOL     OW 5971   4.394   3.149   5.325
 1691SOL    HW1 5972   4.465   3.215   5.348
 1691SOL    HW2 5973   4.435   3.062   5.298
 1692SOL     OW 5974   5.695   5.300   2.767
 1692SOL    HW1 5975   5.718   5.214   2.721
 1692SOL    HW2 5976   5.732   5.299   2.860
 1693SOL     OW 5977   6.161   0.522   5.877
 1693SOL    HW1 5978   6.206   0.570   5.953
 1693SOL    HW2 5979   6.177   0.424   5.885
 1694SOL     OW 5980   4.262   1.111   6.702
 1694SOL    HW1 5981   4.310   1.139   6.619
 1694SOL    HW2 5982   4.277   1.013   6.718
 1695SOL     OW 5983   5.060   0.504   5.195
 1695SOL    HW1 5984   5.046   0.520   5.097
 1695SOL    HW2 5985   4.972   0.502   5.242
 1696SOL     OW 5986   5.328   6.794   1.016
 1696SOL    HW1 5987   5.373   6.769   0.931
 1696SOL    HW2 5988   5.328   6.716   1.079
 1697SOL     OW 5989   4.014   3.961   1.795
 1697SOL    HW1 5990   4.078   4.015   1.740
 1697SOL    HW2 5991   3.920   3.982   1.768
 1698SOL     OW 5992   4.833   1.579   1.399
 1698SOL    HW1 5993   4.794   1.666   1.369
 1698SOL    HW2 5994   4.826   1.570   1.498
 1699SOL     OW 5995   1.932   0.783   1.000
 1699SOL    HW1 5996   1.853   0.842   0.980
 1699SOL    HW2 5997   1.900   0.694   1.031
 1700SOL     OW 5998   6.028   3.085   3.239
 1700SOL    HW1 5999   6.064   2.995   3.265
 1700SOL    HW2 6000   5.950   3.073   3.178
 1701SOL     OW 6001   1.209   5.361   5.434
 1701SOL    HW1 6002   1.248   5.282   5.386
 1701SOL    HW2 6003   1.283   5.418   5.470
 1702SOL     OW 6004   2.193   2.631   6.961
 1702SOL    HW1 6005   2.146   2.549   6.995
 1702SOL    HW2 6006   2.242   2.608   6.877
 1703SOL     OW 6007   1.333   1.700   1.756
 1703SOL    HW1 6008   1.411   1.704   1.818
 1703SOL    HW2 6009   1.342   1.621   1.696
 1704SOL     OW 6010   2.819   3.086   6.913
 1704SOL    HW1 6011   2.861   3.176   6.906
 1704SOL    HW2 6012   2.853   3.027   6.841
 1705SOL     OW 6013   5.731   3.069   1.235
 1705SOL    HW1 6014   5.817   3.079   1.285
 1705SOL    HW2 6015   5.658   3.115   1.286
 1706SOL     OW 6016   6.071   0.651   5.650
 1706SOL    HW1 6017   6.156   0.692   5.617
 1706SOL    HW2 6018   6.086   0.611   5.740
 1707SOL     OW 6019   2.881   1.595   2.372
 1707SOL    HW1 6020   2.929   1.530   2.314
 1707SOL    HW2 6021   2.793   1.618   2.330
 1708SOL     OW 6022   2.958   4.870   1.660
 1708SOL    HW1 6023   2.937   4.780   1.621
 1708SOL    HW2 6024   2.965   4.862   1.759
 1709SOL     OW 6025   5.857   4.699   2.672
 1709SOL    HW1 6026   5.954   4.716   2.690
 1709SOL    HW2 6027   5.835   4.726   2.579
 1710SOL     OW 6028   4.832   2.772   2.082
 1710SOL    HW1 6029   4.810   2.864   2.051
 1710SOL    HW2 6030   4.843   2.712   2.003
 1711SOL     OW 6031   4.022   5.115   0.098
 1711SOL    HW1 6032   3.958   5.182   0.135
 1711SOL    HW2 6033   4.034   5.130   0.000
 1712SOL     OW 6034   0.047   2.476   2.517
 1712SOL    HW1 6035   0.017   2.383   2.499
 1712SOL    HW2 6036   6.992   2.532   2.546
 1713SOL     OW 6037   3.063   1.510   2.593
 1713SOL    HW1 6038   3.005   1.554   2.524
 1713SOL    HW2 6039   3.028   1.530   2.684
 1714SOL     OW 6040   3.244   4.934   0.789
 1714SOL    HW1 6041   3.248   4.976   0.698
 1714SOL    HW2 6042   3.284   4.842   0.785
 1715SOL     OW 6043   1.419   5.998   0.487
 1715SOL    HW1 6044   1.407   6.022   0.391
 1715SOL    HW2 6045   1.408   5.900   0.499
 1716SOL     OW 6046   5.226   1.348   2.823
 1716SOL    HW1 6047   5.321   1.379   2.813
 1716SOL    HW2 6048   5.164   1.421   2.796
 1717SOL     OW 6049   3.630   6.456   4.098
 1717SOL    HW1 6050   3.599   6.497   4.012
 1717SOL    HW2 6051   3.624   6.524   4.171
 1718SOL     OW 6052   1.554   3.963   1.940
 1718SOL    HW1 6053   1.652   3.975   1.957
 1718SOL    HW2 6054   1.534   3.977   1.843
 1719SOL     OW 6055   1.719   4.869   3.704
 1719SOL    HW1 6056   1.794   4.906   3.648
 1719SOL    HW2 6057   1.740   4.774   3.728
 1720SOL     OW 6058   1.253   3.044   5.623
 1720SOL    HW1 6059   1.314   3.089   5.558
 1720SOL    HW2 6060   1.231   2.953   5.590
 1721SOL     OW 6061   2.013   2.440   0.012
 1721SOL    HW1 6062   1.956   2.457   0.093
 1721SOL    HW2 6063   1.955   2.422   6.956
 1722SOL     OW 6064   3.722   2.078   2.831
 1722SOL    HW1 6065   3.818   2.103   2.839
 1722SOL    HW2 6066   3.675   2.146   2.774
 1723SOL     OW 6067   6.661   5.436   1.061
 1723SOL    HW1 6068   6.700   5.515   1.108
 1723SOL    HW2 6069   6.573   5.413   1.102
 1724SOL     OW 6070   6.388   3.931   1.674
 1724SOL    HW1 6071   6.362   3.945   1.579
 1724SOL    HW2 6072   6.433   3.842   1.684
 1725SOL     OW 6073   1.666   6.670   4.555
 1725SOL    HW1 6074   1.744   6.639   4.609
 1725SOL    HW2 6075   1.696   6.735   4.486
 1726SOL     OW 6076   5.558   4.776   3.247
 1726SOL    HW1 6077   5.637   4.721   3.272
 1726SOL    HW2 6078   5.509   4.803   3.330
 1727SOL     OW 6079   3.020   3.708   3.451
 1727SOL    HW1 6080   3.034   3.782   3.386
 1727SOL    HW2 6081   2.983   3.628   3.403
 1728SOL     OW 6082   5.368   2.041   4.412
 1728SOL    HW1 6083   5.406   2.041   4.505
 1728SOL    HW2 6084   5.438   2.072   4.348
 1729SOL     OW 6085   1.572   3.448   3.284
 1729SOL    HW1 6086   1.592   3.413   3.193
 1729SOL    HW2 6087   1.483   3.414   3.315
 1730SOL     OW 6088   2.712   0.841   4.504
 1730SOL    HW1 6089   2.655   0.923   4.513
 1730SOL    HW2 6090   2.809   0.867   4.506
 1731SOL     OW 6091   6.102   4.763   3.453
 1731SOL    HW1 6092   6.143   4.692   3.396
 1731SOL    HW2 6093   6.099   4.732   3.548
 1732SOL     OW 6094   4.072   3.384   5.102
 1732SOL    HW1 6095   4.107   3.475   5.122
 1732SOL    HW2 6096   4.043   3.379   5.007
 1733SOL     OW 6097   1.385   1.946   6.936
 1733SOL    HW1 6098   1.362   1.879   6.866
 1733SOL    HW2 6099   1.450   2.012   6.899
 1734SOL     OW 6100   0.897   4.381   2.715
 1734SOL    HW1 6101   0.891   4.290   2.754
 1734SOL    HW2 6102   0.940   4.376   2.625
 1735SOL     OW 6103   3.543   5.540   5.934
 1735SOL    HW1 6104   3.475   5.475   5.968
 1735SOL    HW2 6105   3.633   5.495   5.932
 1736SOL     OW 6106   4.455   1.847   5.103
 1736SOL    HW1 6107   4.382   1.912   5.083
 1736SOL    HW2 6108   4.490   1.808   5.018
 1737SOL     OW 6109   2.499   0.636   0.026
 1737SOL    HW1 6110   2.420   0.690   0.053
 1737SOL    HW2 6111   2.506   0.634   6.949
 1738SOL     OW 6112   1.353   4.072   2.107
 1738SOL    HW1 6113   1.434   4.028   2.068
 1738SOL    HW2 6114   1.376   4.113   2.195
 1739SOL     OW 6115   4.592   5.757   2.819
 1739SOL    HW1 6116   4.650   5.769   2.900
 1739SOL    HW2 6117   4.647   5.717   2.745
 1740SOL     OW 6118   6.718   2.285   4.367
 1740SOL    HW1 6119   6.794   2.341   4.402
 1740SOL    HW2 6120   6.746   2.240   4.282
 1741SOL     OW 6121   1.089   3.001   4.339
 1741SOL    HW1 6122   1.069   2.944   4.260
 1741SOL    HW2 6123   1.011   3.000   4.402
 1742SOL     OW 6124   5.804   0.036   6.545
 1742SOL    HW1 6125   5.824   0.133   6.558
 1742SOL    HW2 6126   5.760   0.023   6.456
 1743SOL     OW 6127   0.622   1.571   2.140
 1743SOL    HW1 6128   0.692   1.590   2.072
 1743SOL    HW2 6129   0.533   1.604   2.108
 1744SOL     OW 6130   3.205   1.892   5.088
 1744SOL    HW1 6131   3.273   1.964   5.072
 1744SOL    HW2 6132   3.222   1.816   5.025
 1745SOL     OW 6133   6.279   6.818   0.834
 1745SOL    HW1 6134   6.287   6.841   0.931
 1745SOL    HW2 6135   6.223   6.886   0.788
 1746SOL     OW 6136   2.318   5.295   2.485
 1746SOL    HW1 6137   2.405   5.295   2.436
 1746SOL    HW2 6138   2.313   5.213   2.542
 1747SOL     OW 6139   2.857   6.677   1.693
 1747SOL    HW1 6140   2.942   6.668   1.642
 1747SOL    HW2 6141   2.846   6.772   1.724
 1748SOL     OW 6142   6.898   1.522   3.549
 1748SOL    HW1 6143   6.809   1.545   3.588
 1748SOL    HW2 6144   6.942   1.604   3.514
 1749SOL     OW 6145   6.573   5.873   2.367
 1749SOL    HW1 6146   6.616   5.963   2.358
 1749SOL    HW2 6147   6.600   5.815   2.290
 1750SOL     OW 6148   2.574   1.571   0.884
 1750SOL    HW1 6149   2.477   1.586   0.863
 1750SOL    HW2 6150   2.585   1.486   0.935
 1751SOL     OW 6151   6.409   4.283   4.928
 1751SOL    HW1 6152   6.315   4.264   4.902
 1751SOL    HW2 6153   6.411   4.363   4.989
 1752SOL     OW 6154   5.817   0.424   2.858
 1752SOL    HW1 6155   5.742   0.398   2.919
 1752SOL    HW2 6156   5.893   0.460   2.912
 1753SOL     OW 6157   6.872   1.540   1.080
 1753SOL    HW1 6158   6.777   1.508   1.081
 1753SOL    HW2 6159   6.902   1.554   0.986
 1754SOL     OW 6160   1.808   4.609   3.689
 1754SOL    HW1 6161   1.830   4.644   3.598
 1754SOL    HW2 6162   1.836   4.513   3.696
 1755SOL     OW 6163   5.525   6.694   5.321
 1755SOL    HW1 6164   5.588   6.683   5.398
 1755SOL    HW2 6165   5.487   6.786   5.322
 1756SOL     OW 6166   4.624   5.197   1.200
 1756SOL    HW1 6167   4.637   5.296   1.198
 1756SOL    HW2 6168   4.637   5.163   1.293
 1757SOL     OW 6169   2.977   5.096   5.157
 1757SOL    HW1 6170   2.923   5.148   5.223
 1757SOL    HW2 6171   2.917   5.032   5.108
 1758SOL     OW 6172   0.448   6.366   4.175
 1758SOL    HW1 6173   0.401   6.352   4.262
 1758SOL    HW2 6174   0.521   6.432   4.187
 1759SOL     OW 6175   1.915   5.192   5.836
 1759SOL    HW1 6176   2.004   5.153   5.813
 1759SOL    HW2 6177   1.925   5.251   5.916
 1760SOL     OW 6178   5.914   1.446   4.198
 1760SOL    HW1 6179   5.842   1.376   4.191
 1760SOL    HW2 6180   5.880   1.523   4.251
 1761SOL     OW 6181   5.016   2.362   3.992
 1761SOL    HW1 6182   5.045   2.457   4.003
 1761SOL    HW2 6183   4.991   2.345   3.896
 1762SOL     OW 6184   0.977   1.631   5.413
 1762SOL    HW1 6185   0.933   1.694   5.349
 1762SOL    HW2 6186   1.076   1.634   5.399
 1763SOL     OW 6187   1.544   5.121   3.928
 1763SOL    HW1 6188   1.619   5.104   3.864
 1763SOL    HW2 6189   1.493   5.201   3.898
 1764SOL     OW 6190   0.537   5.231   3.520
 1764SOL    HW1 6191   0.614   5.200   3.465
 1764SOL    HW2 6192   0.462   5.164   3.513
 1765SOL     OW 6193   5.445   3.891   2.168
 1765SOL    HW1 6194   5.494   3.945   2.100
 1765SOL    HW2 6195   5.388   3.823   2.121
 1766SOL     OW 6196   3.879   4.823   3.219
 1766SOL    HW1 6197   3.806   4.869   3.269
 1766SOL    HW2 6198   3.859   4.826   3.121
 1767SOL     OW 6199   1.900   4.100   1.629
 1767SOL    HW1 6200   1.921   4.057   1.717
 1767SOL    HW2 6201   1.963   4.177   1.613
 1768SOL     OW 6202   3.538   5.123   2.867
 1768SOL    HW1 6203   3.598   5.083   2.798
 1768SOL    HW2 6204   3.486   5.050   2.913
 1769SOL     OW 6205   5.199   0.261   0.713
 1769SOL    HW1 6206   5.215   0.352   0.752
 1769SOL    HW2 6207   5.221   0.191   0.782
 1770SOL     OW 6208   1.978   4.112   0.263
 1770SOL    HW1 6209   2.012   4.079   0.351
 1770SOL    HW2 6210   1.935   4.036   0.214
 1771SOL     OW 6211   1.406   3.277   6.176
 1771SOL    HW1 6212   1.478   3.215   6.143
 1771SOL    HW2 6213   1.439   3.327   6.256
 1772SOL     OW 6214   2.830   5.138   1.828
 1772SOL    HW1 6215   2.930   5.134   1.825
 1772SOL    HW2 6216   2.793   5.101   1.743
 1773SOL     OW 6217   2.216   6.152   4.867
 1773SOL    HW1 6218   2.227   6.171   4.964
 1773SOL    HW2 6219   2.257   6.064   4.844
 1774SOL     OW 6220   5.738   4.949   1.647
 1774SOL    HW1 6221   5.770   4.993   1.562
 1774SOL    HW2 6222   5.805   4.965   1.719
 1775SOL     OW 6223   2.012   6.845   1.203
 1775SOL    HW1 6224   1.973   6.802   1.285
 1775SOL    HW2 6225   2.045   6.937   1.226
 1776SOL     OW 6226   4.842   3.143   5.795
 1776SOL    HW1 6227   4.809   3.219   5.739
 1776SOL    HW2 6228   4.839   3.168   5.892
 1777SOL     OW 6229   4.732   4.559   6.356
 1777SOL    HW1 6230   4.788   4.481   6.327
 1777SOL    HW2 6231   4.650   4.526   6.402
 1778SOL     OW 6232   6.731   0.346   2.936
 1778SOL    HW1 6233   6.793   0.424   2.923
 1778SOL    HW2 6234   6.680   0.329   2.852
 1779SOL     OW 6235   6.893   6.886   4.721
 1779SOL    HW1 6236   6.952   6.884   4.802
 1779SOL    HW2 6237   6.843   6.799   4.715
 1780SOL     OW 6238   2.674   6.821   4.870
 1780SOL    HW1 6239   2.596   6.763   4.844
 1780SOL    HW2 6240   2.758   6.783   4.829
 1781SOL     OW 6241   3.955   1.145   5.452
 1781SOL    HW1 6242   4.038   1.200   5.459
 1781SOL    HW2 6243   3.935   1.103   5.540
 1782SOL     OW 6244   5.443   0.167   2.697
 1782SOL    HW1 6245   5.507   0.243   2.685
 1782SOL    HW2 6246   5.424   0.125   2.609
 1783SOL     OW 6247   1.592   3.413   0.188
 1783SOL    HW1 6248   1.511   3.357   0.205
 1783SOL    HW2 6249   1.673   3.362   0.216
 1784SOL     OW 6250   1.930   5.963   1.279
 1784SOL    HW1 6251   1.952   5.914   1.363
 1784SOL    HW2 6252   1.902   6.057   1.301
 1785SOL     OW 6253   2.275   4.972   5.083
 1785SOL    HW1 6254   2.240   5.054   5.037
 1785SOL    HW2 6255   2.225   4.959   5.169
 1786SOL     OW 6256   0.543   5.729   2.542
 1786SOL    HW1 6257   0.523   5.823   2.573
 1786SOL    HW2 6258   0.633   5.727   2.499
 1787SOL     OW 6259   2.668   2.354   6.291
 1787SOL    HW1 6260   2.621   2.376   6.206
 1787SOL    HW2 6261   2.601   2.332   6.362
 1788SOL     OW 6262   3.634   4.155   0.457
 1788SOL    HW1 6263   3.601   4.249   0.453
 1788SOL    HW2 6264   3.723   4.153   0.502
 1789SOL     OW 6265   6.192   2.791   3.287
 1789SOL    HW1 6266   6.160   2.787   3.192
 1789SOL    HW2 6267   6.118   2.760   3.347
 1790SOL     OW 6268   2.419   2.572   4.635
 1790SOL    HW1 6269   2.398   2.559   4.538
 1790SOL    HW2 6270   2.518   2.565   4.649
 1791SOL     OW 6271   6.026   0.447   3.526
 1791SOL    HW1 6272   6.060   0.486   3.612
 1791SOL    HW2 6273   6.077   0.485   3.449
 1792SOL     OW 6274   6.952   2.997   6.166
 1792SOL    HW1 6275   6.981   3.017   6.072
 1792SOL    HW2 6276   0.000   3.027   6.230
 1793SOL     OW 6277   0.253   1.848   4.734
 1793SOL    HW1 6278   0.243   1.894   4.646
 1793SOL    HW2 6279   0.346   1.864   4.768
 1794SOL     OW 6280   6.944   2.076   6.376
 1794SOL    HW1 6281   6.949   2.005   6.446
 1794SOL    HW2 6282   6.856   2.069   6.328
 1795SOL     OW 6283   6.209   4.347   0.586
 1795SOL    HW1 6284   6.118   4.366   0.623
 1795SOL    HW2 6285   6.279   4.374   0.652
 1796SOL     OW 6286   6.051   0.092   6.758
 1796SOL    HW1 6287   5.974   0.098   6.822
 1796SOL    HW2 6288   6.135   0.116   6.806
 1797SOL     OW 6289   3.044   5.952   5.799
 1797SOL    HW1 6290   3.027   5.980   5.893
 1797SOL    HW2 6291   3.105   5.873   5.798
 1798SOL     OW 6292   2.533   4.157   6.872
 1798SOL    HW1 6293   2.522   4.246   6.827
 1798SOL    HW2 6294   2.612   4.161   6.934
 1799SOL     OW 6295   4.157   1.815   1.624
 1799SOL    HW1 6296   4.093   1.840   1.697
 1799SOL    HW2 6297   4.232   1.762   1.662
 1800SOL     OW 6298   5.778   2.391   5.866
 1800SOL    HW1 6299   5.712   2.316   5.865
 1800SOL    HW2 6300   5.855   2.367   5.924
 1801SOL     OW 6301   0.764   2.009   1.935
 1801SOL    HW1 6302   0.783   1.960   1.850
 1801SOL    HW2 6303   0.667   2.032   1.940
 1802SOL     OW 6304   6.284   4.554   4.741
 1802SOL    HW1 6305   6.201   4.550   4.797
 1802SOL    HW2 6306   6.269   4.617   4.665
 1803SOL     OW 6307   6.383   6.848   3.876
 1803SOL    HW1 6308   6.284   6.843   3.892
 1803SOL    HW2 6309   6.430   6.791   3.944
 1804SOL     OW 6310   1.377   2.948   6.489
 1804SOL    HW1 6311   1.305   3.014   6.512
 1804SOL    HW2 6312   1.363   2.917   6.395
 1805SOL     OW 6313   6.347   5.067   5.871
 1805SOL    HW1 6314   6.275   5.041   5.807
 1805SOL    HW2 6315   6.436   5.042   5.833
 1806SOL     OW 6316   0.482   1.223   1.972
 1806SOL    HW1 6317   0.507   1.182   1.884
 1806SOL    HW2 6318   0.411   1.291   1.959
 1807SOL     OW 6319   6.520   2.758   2.390
 1807SOL    HW1 6320   6.553   2.792   2.478
 1807SOL    HW2 6321   6.430   2.716   2.403
 1808SOL     OW 6322   6.494   0.739   0.271
 1808SOL    HW1 6323   6.448   0.653   0.248
 1808SOL    HW2 6324   6.435   0.815   0.245
 1809SOL     OW 6325   4.202   0.381   4.662
 1809SOL    HW1 6326   4.145   0.355   4.585
 1809SOL    HW2 6327   4.239   0.299   4.705
 1810SOL     OW 6328   1.386   1.243   4.691
 1810SOL    HW1 6329   1.450   1.172   4.720
 1810SOL    HW2 6330   1.429   1.333   4.699
 1811SOL     OW 6331   3.353   5.470   1.790
 1811SOL    HW1 6332   3.307   5.393   1.744
 1811SOL    HW2 6333   3.430   5.499   1.734
 1812SOL     OW 6334   4.075   0.839   0.046
 1812SOL    HW1 6335   4.174   0.856   0.039
 1812SOL    HW2 6336   4.036   0.895   0.118
 1813SOL     OW 6337   6.104   3.728   1.695
 1813SOL    HW1 6338   6.031   3.661   1.688
 1813SOL    HW2 6339   6.184   3.696   1.644
 1814SOL     OW 6340   6.458   5.740   1.201
 1814SOL    HW1 6341   6.453   5.789   1.115
 1814SOL    HW2 6342   6.552   5.709   1.217
 1815SOL     OW 6343   6.387   5.195   1.185
 1815SOL    HW1 6344   6.417   5.277   1.235
 1815SOL    HW2 6345   6.365   5.220   1.091
 1816SOL     OW 6346   3.601   5.020   4.466
 1816SOL    HW1 6347   3.692   4.998   4.502
 1816SOL    HW2 6348   3.532   4.995   4.535
 1817SOL     OW 6349   6.170   2.845   4.212
 1817SOL    HW1 6350   6.185   2.814   4.306
 1817SOL    HW2 6351   6.077   2.882   4.203
 1818SOL     OW 6352   2.291   2.056   0.149
 1818SOL    HW1 6353   2.220   2.099   0.094
 1818SOL    HW2 6354   2.372   2.115   0.152
 1819SOL     OW 6355   0.602   3.144   0.605
 1819SOL    HW1 6356   0.655   3.059   0.607
 1819SOL    HW2 6357   0.544   3.146   0.524
 1820SOL     OW 6358   3.525   6.552   4.918
 1820SOL    HW1 6359   3.587   6.568   4.842
 1820SOL    HW2 6360   3.571   6.497   4.988
 1821SOL     OW 6361   4.341   1.156   2.752
 1821SOL    HW1 6362   4.337   1.065   2.710
 1821SOL    HW2 6363   4.430   1.167   2.797
 1822SOL     OW 6364   2.225   4.436   5.038
 1822SOL    HW1 6365   2.256   4.528   5.012
 1822SOL    HW2 6366   2.154   4.406   4.975
 1823SOL     OW 6367   4.465   0.012   4.386
 1823SOL    HW1 6368   4.483   6.947   4.432
 1823SOL    HW2 6369   4.531   0.025   4.312
 1824SOL     OW 6370   4.545   2.773   1.726
 1824SOL    HW1 6371   4.559   2.849   1.789
 1824SOL    HW2 6372   4.469   2.794   1.664
 1825SOL     OW 6373   1.397   3.512   0.504
 1825SOL    HW1 6374   1.361   3.448   0.436
 1825SOL    HW2 6375   1.478   3.557   0.468
 1826SOL     OW 6376   3.937   3.345   6.887
 1826SOL    HW1 6377   3.955   3.287   6.807
 1826SOL    HW2 6378   3.954   3.441   6.864
 1827SOL     OW 6379   5.218   4.784   0.938
 1827SOL    HW1 6380   5.307   4.824   0.919
 1827SOL    HW2 6381   5.159   4.852   0.982
 1828SOL     OW 6382   2.870   5.383   5.030
 1828SOL    HW1 6383   2.793   5.320   5.021
 1828SOL    HW2 6384   2.866   5.428   5.120
 1829SOL     OW 6385   2.072   6.386   2.471
 1829SOL    HW1 6386   1.978   6.373   2.504
 1829SOL    HW2 6387   2.106   6.301   2.432
 1830SOL     OW 6388   4.290   1.230   6.966
 1830SOL    HW1 6389   4.239   1.307   7.005
 1830SOL    HW2 6390   4.234   1.185   6.896
 1831SOL     OW 6391   3.789   4.198   6.602
 1831SOL    HW1 6392   3.814   4.291   6.631
 1831SOL    HW2 6393   3.808   4.134   6.676
 1832SOL     OW 6394   2.131   2.566   5.449
 1832SOL    HW1 6395   2.165   2.563   5.543
 1832SOL    HW2 6396   2.168   2.645   5.402
 1833SOL     OW 6397   5.642   1.743   0.172
 1833SOL    HW1 6398   5.678   1.728   0.080
 1833SOL    HW2 6399   5.543   1.756   0.167
 1834SOL     OW 6400   1.832   3.546   6.624
 1834SOL    HW1 6401   1.835   3.624   6.686
 1834SOL    HW2 6402   1.745   3.497   6.635
 1835SOL     OW 6403   6.277   0.330   6.747
 1835SOL    HW1 6404   6.196   0.305   6.693
 1835SOL    HW2 6405   6.345   0.373   6.688
 1836SOL     OW 6406   6.047   1.339   4.753
 1836SOL    HW1 6407   6.016   1.388   4.672
 1836SOL    HW2 6408   6.053   1.241   4.733
 1837SOL     OW 6409   1.218   1.815   1.269
 1837SOL    HW1 6410   1.196   1.905   1.306
 1837SOL    HW2 6411   1.182   1.745   1.330
 1838SOL     OW 6412   5.082   0.318   0.211
 1838SOL    HW1 6413   5.169   0.364   0.224
 1838SOL    HW2 6414   5.010   0.385   0.195
 1839SOL     OW 6415   0.115   2.269   6.485
 1839SOL    HW1 6416   0.175   2.209   6.537
 1839SOL    HW2 6417   0.038   2.215   6.448
 1840SOL     OW 6418   2.370   6.801   5.623
 1840SOL    HW1 6419   2.424   6.718   5.613
 1840SOL    HW2 6420   2.391   6.863   5.546
 1841SOL     OW 6421   2.818   6.928   1.809
 1841SOL    HW1 6422   2.786   6.955   1.899
 1841SOL    HW2 6423   2.804   7.004   1.745
 1842SOL     OW 6424   0.311   4.780   1.822
 1842SOL    HW1 6425   0.258   4.830   1.754
 1842SOL    HW2 6426   0.404   4.818   1.827
 1843SOL     OW 6427   3.719   0.773   6.663
 1843SOL    HW1 6428   3.693   0.776   6.759
 1843SOL    HW2 6429   3.697   0.859   6.619
 1844SOL     OW 6430   5.432   3.689   1.407
 1844SOL    HW1 6431   5.340   3.653   1.390
 1844SOL    HW2 6432   5.470   3.645   1.489
 1845SOL     OW 6433   0.547   2.542   4.731
 1845SOL    HW1 6434   0.625   2.493   4.691
 1845SOL    HW2 6435   0.581   2.616   4.790
 1846SOL     OW 6436   3.813   1.403   2.305
 1846SOL    HW1 6437   3.809   1.495   2.344
 1846SOL    HW2 6438   3.768   1.403   2.216
 1847SOL     OW 6439   2.878   5.758   6.767
 1847SOL    HW1 6440   2.938   5.829   6.804
 1847SOL    HW2 6441   2.931   5.674   6.752
 1848SOL     OW 6442   3.342   6.006   4.512
 1848SOL    HW1 6443   3.426   6.029   4.561
 1848SOL    HW2 6444   3.364   5.942   4.438
 1849SOL     OW 6445   4.747   2.705   2.342
 1849SOL    HW1 6446   4.769   2.717   2.245
 1849SOL    HW2 6447   4.668   2.644   2.350
 1850SOL     OW 6448   5.106   1.368   0.702
 1850SOL    HW1 6449   5.141   1.278   0.727
 1850SOL    HW2 6450   5.072   1.367   0.608
 1851SOL     OW 6451   1.221   4.896   3.745
 1851SOL    HW1 6452   1.199   4.993   3.733
 1851SOL    HW2 6453   1.156   4.855   3.809
 1852SOL     OW 6454   0.293   0.096   4.054
 1852SOL    HW1 6455   0.254   0.041   4.128
 1852SOL    HW2 6456   0.357   0.162   4.093
 1853SOL     OW 6457   1.329   2.087   5.322
 1853SOL    HW1 6458   1.235   2.054   5.332
 1853SOL    HW2 6459   1.381   2.023   5.265
 1854SOL     OW 6460   0.990   6.901   3.983
 1854SOL    HW1 6461   0.929   6.923   3.907
 1854SOL    HW2 6462   1.079   6.943   3.968
 1855SOL     OW 6463   6.592   1.427   5.086
 1855SOL    HW1 6464   6.683   1.427   5.129
 1855SOL    HW2 6465   6.574   1.336   5.048
 1856SOL     OW 6466   4.638   3.642   0.026
 1856SOL    HW1 6467   4.725   3.600   0.047
 1856SOL    HW2 6468   4.615   3.709   0.096
 1857SOL     OW 6469   4.876   0.391   6.837
 1857SOL    HW1 6470   4.837   0.304   6.865
 1857SOL    HW2 6471   4.942   0.422   6.905
 1858SOL     OW 6472   4.562   2.103   4.568
 1858SOL    HW1 6473   4.465   2.081   4.553
 1858SOL    HW2 6474   4.578   2.200   4.548
 1859SOL     OW 6475   6.138   6.213   2.969
 1859SOL    HW1 6476   6.059   6.249   2.919
 1859SOL    HW2 6477   6.108   6.140   3.031
 1860SOL     OW 6478   2.324   0.717   0.795
 1860SOL    HW1 6479   2.347   0.812   0.773
 1860SOL    HW2 6480   2.291   0.712   0.889
 1861SOL     OW 6481   6.551   6.908   5.724
 1861SOL    HW1 6482   6.567   6.844   5.800
 1861SOL    HW2 6483   6.639   6.933   5.683
 1862SOL     OW 6484   3.827   4.954   4.896
 1862SOL    HW1 6485   3.826   4.869   4.949
 1862SOL    HW2 6486   3.842   5.031   4.958
 1863SOL     OW 6487   0.269   0.984   1.080
 1863SOL    HW1 6488   0.298   1.025   0.994
 1863SOL    HW2 6489   0.341   0.998   1.149
 1864SOL     OW 6490   2.514   5.825   2.306
 1864SOL    HW1 6491   2.575   5.754   2.272
 1864SOL    HW2 6492   2.447   5.849   2.235
 1865SOL     OW 6493   6.242   2.468   5.931
 1865SOL    HW1 6494   6.335   2.432   5.924
 1865SOL    HW2 6495   6.242   2.549   5.990
 1866SOL     OW 6496   6.981   4.310   5.285
 1866SOL    HW1 6497   6.962   4.408   5.286
 1866SOL    HW2 6498   0.054   4.294   5.308
 1867SOL     OW 6499   1.592   0.434   0.664
 1867SOL    HW1 6500   1.668   0.430   0.728
 1867SOL    HW2 6501   1.576   0.528   0.635
 1868SOL     OW 6502   5.808   3.812   5.986
 1868SOL    HW1 6503   5.737   3.869   5.944
 1868SOL    HW2 6504   5.889   3.868   6.002
 1869SOL     OW 6505   5.042   1.036   5.180
 1869SOL    HW1 6506   5.062   0.941   5.203
 1869SOL    HW2 6507   4.950   1.060   5.213
 1870SOL     OW 6508   5.873   1.213   5.701
 1870SOL    HW1 6509   5.883   1.114   5.710
 1870SOL    HW2 6510   5.786   1.233   5.655
 1871SOL     OW 6511   2.805   4.567   0.206
 1871SOL    HW1 6512   2.734   4.500   0.226
 1871SOL    HW2 6513   2.883   4.520   0.163
 1872SOL     OW 6514   2.358   3.562   6.678
 1872SOL    HW1 6515   2.263   3.591   6.685
 1872SOL    HW2 6516   2.362   3.472   6.634
 1873SOL     OW 6517   6.045   1.108   1.762
 1873SOL    HW1 6518   5.974   1.043   1.734
 1873SOL    HW2 6519   6.134   1.061   1.763
 1874SOL     OW 6520   2.414   5.146   6.799
 1874SOL    HW1 6521   2.396   5.088   6.719
 1874SOL    HW2 6522   2.481   5.101   6.858
 1875SOL     OW 6523   1.050   5.892   2.388
 1875SOL    HW1 6524   1.049   5.959   2.461
 1875SOL    HW2 6525   0.997   5.925   2.310
 1876SOL     OW 6526   0.732   4.994   5.359
 1876SOL    HW1 6527   0.756   4.965   5.266
 1876SOL    HW2 6528   0.816   5.017   5.409
 1877SOL     OW 6529   0.172   0.977   3.514
 1877SOL    HW1 6530   0.130   1.006   3.427
 1877SOL    HW2 6531   0.144   0.884   3.535
 1878SOL     OW 6532   5.817   3.962   4.471
 1878SOL    HW1 6533   5.825   3.866   4.498
 1878SOL    HW2 6534   5.816   3.968   4.371
 1879SOL     OW 6535   3.945   6.342   5.012
 1879SOL    HW1 6536   4.021   6.379   5.065
 1879SOL    HW2 6537   3.970   6.339   4.915
 1880SOL     OW 6538   1.809   3.780   4.327
 1880SOL    HW1 6539   1.814   3.702   4.266
 1880SOL    HW2 6540   1.858   3.858   4.286
 1881SOL     OW 6541   2.928   2.268   2.995
 1881SOL    HW1 6542   2.987   2.341   2.958
 1881SOL    HW2 6543   2.913   2.199   2.925
 1882SOL     OW 6544   4.138   6.830   6.806
 1882SOL    HW1 6545   4.116   6.845   6.902
 1882SOL    HW2 6546   4.142   6.732   6.786
 1883SOL     OW 6547   2.129   3.592   3.331
 1883SOL    HW1 6548   2.142   3.520   3.264
 1883SOL    HW2 6549   2.032   3.609   3.344
 1884SOL     OW 6550   4.818   0.813   0.122
 1884SOL    HW1 6551   4.766   0.898   0.130
 1884SOL    HW2 6552   4.765   0.737   0.160
 1885SOL     OW 6553   0.219   1.653   1.133
 1885SOL    HW1 6554   0.190   1.705   1.053
 1885SOL    HW2 6555   0.146   1.653   1.201
 1886SOL     OW 6556   3.717   3.029   4.817
 1886SOL    HW1 6557   3.716   3.023   4.717
 1886SOL    HW2 6558   3.640   3.084   4.848
 1887SOL     OW 6559   0.906   5.768   5.772
 1887SOL    HW1 6560   0.925   5.680   5.730
 1887SOL    HW2 6561   0.858   5.755   5.859
 1888SOL     OW 6562   2.109   1.877   5.670
 1888SOL    HW1 6563   2.154   1.802   5.719
 1888SOL    HW2 6564   2.151   1.887   5.580
 1889SOL     OW 6565   3.903   4.199   0.210
 1889SOL    HW1 6566   3.928   4.163   0.120
 1889SOL    HW2 6567   3.975   4.259   0.243
 1890SOL     OW 6568   6.161   6.620   6.481
 1890SOL    HW1 6569   6.108   6.679   6.541
 1890SOL    HW2 6570   6.220   6.676   6.423
 1891SOL     OW 6571   5.237   3.335   6.876
 1891SOL    HW1 6572   5.269   3.299   6.788
 1891SOL    HW2 6573   5.212   3.260   6.936
 1892SOL     OW 6574   3.591   1.048   3.321
 1892SOL    HW1 6575   3.600   1.138   3.363
 1892SOL    HW2 6576   3.494   1.023   3.316
 1893SOL     OW 6577   2.779   2.383   6.995
 1893SOL    HW1 6578   2.715   2.460   6.991
 1893SOL    HW2 6579   2.791   2.354   0.067
 1894SOL     OW 6580   5.259   3.138   1.218
 1894SOL    HW1 6581   5.253   3.039   1.232
 1894SOL    HW2 6582   5.250   3.185   1.306
 1895SOL     OW 6583   4.225   5.850   3.264
 1895SOL    HW1 6584   4.174   5.908   3.328
 1895SOL    HW2 6585   4.321   5.878   3.264
 1896SOL     OW 6586   0.076   1.609   4.396
 1896SOL    HW1 6587   0.112   1.604   4.490
 1896SOL    HW2 6588   0.056   1.516   4.364
 1897SOL     OW 6589   5.307   5.213   3.430
 1897SOL    HW1 6590   5.211   5.206   3.455
 1897SOL    HW2 6591   5.315   5.223   3.331
 1898SOL     OW 6592   4.977   6.022   0.620
 1898SOL    HW1 6593   4.997   6.053   0.713
 1898SOL    HW2 6594   4.960   6.101   0.561
 1899SOL     OW 6595   1.584   3.203   4.290
 1899SOL    HW1 6596   1.676   3.165   4.285
 1899SOL    HW2 6597   1.581   3.290   4.241
 1900SOL     OW 6598   2.616   6.046   1.581
 1900SOL    HW1 6599   2.654   6.088   1.498
 1900SOL    HW2 6600   2.608   6.115   1.652
 1901SOL     OW 6601   0.501   1.756   6.373
 1901SOL    HW1 6602   0.527   1.711   6.458
 1901SOL    HW2 6603   0.414   1.804   6.385
 1902SOL     OW 6604   1.603   2.589   4.686
 1902SOL    HW1 6605   1.678   2.655   4.675
 1902SOL    HW2 6606   1.519   2.638   4.710
 1903SOL     OW 6607   6.940   6.084   3.889
 1903SOL    HW1 6608   6.979   6.005   3.937
 1903SOL    HW2 6609   6.996   6.165   3.906
 1904SOL     OW 6610   0.582   0.724   3.952
 1904SOL    HW1 6611   0.590   0.674   4.038
 1904SOL    HW2 6612   0.488   0.757   3.941
 1905SOL     OW 6613   5.792   2.818   6.125
 1905SOL    HW1 6614   5.801   2.734   6.178
 1905SOL    HW2 6615   5.795   2.897   6.186
 1906SOL     OW 6616   2.200   5.849   5.704
 1906SOL    HW1 6617   2.269   5.825   5.635
 1906SOL    HW2 6618   2.171   5.944   5.691
 1907SOL     OW 6619   4.341   6.953   3.260
 1907SOL    HW1 6620   4.414   6.955   3.192
 1907SOL    HW2 6621   4.259   6.914   3.219
 1908SOL     OW 6622   5.433   4.338   0.879
 1908SOL    HW1 6623   5.413   4.404   0.951
 1908SOL    HW2 6624   5.532   4.335   0.864
 1909SOL     OW 6625   5.189   5.428   3.808
 1909SOL    HW1 6626   5.237   5.356   3.757
 1909SOL    HW2 6627   5.219   5.427   3.903
 1910SOL     OW 6628   5.568   3.563   4.075
 1910SOL    HW1 6629   5.570   3.552   4.175
 1910SOL    HW2 6630   5.476   3.546   4.041
 1911SOL     OW 6631   0.781   2.562   5.516
 1911SOL    HW1 6632   0.716   2.546   5.590
 1911SOL    HW2 6633   0.773   2.490   5.448
 1912SOL     OW 6634   3.683   0.402   2.274
 1912SOL    HW1 6635   3.721   0.335   2.337
 1912SOL    HW2 6636   3.734   0.488   2.282
 1913SOL     OW 6637   2.887   4.080   6.739
 1913SOL    HW1 6638   2.907   4.036   6.826
 1913SOL    HW2 6639   2.830   4.020   6.683
 1914SOL     OW 6640   4.250   1.519   5.116
 1914SOL    HW1 6641   4.311   1.520   5.195
 1914SOL    HW2 6642   4.169   1.465   5.137
 1915SOL     OW 6643   2.912   6.452   5.296
 1915SOL    HW1 6644   2.942   6.494   5.382
 1915SOL    HW2 6645   2.819   6.482   5.275
 1916SOL     OW 6646   3.767   6.409   3.021
 1916SOL    HW1 6647   3.865   6.430   3.014
 1916SOL    HW2 6648   3.753   6.310   3.019
 1917SOL     OW 6649   3.980   3.847   3.126
 1917SOL    HW1 6650   4.032   3.854   3.211
 1917SOL    HW2 6651   3.959   3.751   3.107
 1918SOL     OW 6652   0.924   6.637   6.361
 1918SOL    HW1 6653   0.991   6.706   6.389
 1918SOL    HW2 6654   0.971   6.551   6.342
 1919SOL     OW 6655   5.463   0.677   2.161
 1919SOL    HW1 6656   5.419   0.724   2.084
 1919SOL    HW2 6657   5.562   0.689   2.155
 1920SOL     OW 6658   6.007   6.569   4.405
 1920SOL    HW1 6659   5.980   6.584   4.500
 1920SOL    HW2 6660   6.088   6.511   4.402
 1921SOL     OW 6661   2.471   6.546   6.944
 1921SOL    HW1 6662   2.506   6.457   6.975
 1921SOL    HW2 6663   2.371   6.547   6.952
 1922SOL     OW 6664   3.516   4.872   6.805
 1922SOL    HW1 6665   3.481   4.940   6.740
 1922SOL    HW2 6666   3.507   4.907   6.898
 1923SOL     OW 6667   1.436   3.138   1.335
 1923SOL    HW1 6668   1.515   3.114   1.392
 1923SOL    HW2 6669   1.364   3.176   1.392
 1924SOL     OW 6670   0.767   4.195   1.841
 1924SOL    HW1 6671   0.854   4.219   1.883
 1924SOL    HW2 6672   0.750   4.254   1.762
 1925SOL     OW 6673   3.487   4.677   0.418
 1925SOL    HW1 6674   3.442   4.592   0.448
 1925SOL    HW2 6675   3.519   4.727   0.499
 1926SOL     OW 6676   0.197   0.382   3.281
 1926SOL    HW1 6677   0.225   0.333   3.364
 1926SOL    HW2 6678   0.207   0.321   3.203
 1927SOL     OW 6679   5.317   3.261   1.868
 1927SOL    HW1 6680   5.245   3.331   1.862
 1927SOL    HW2 6681   5.354   3.260   1.961
 1928SOL     OW 6682   0.365   5.514   4.789
 1928SOL    HW1 6683   0.305   5.496   4.711
 1928SOL    HW2 6684   0.313   5.562   4.860
 1929SOL     OW 6685   1.441   4.619   3.436
 1929SOL    HW1 6686   1.538   4.635   3.453
 1929SOL    HW2 6687   1.424   4.521   3.424
 1930SOL     OW 6688   6.395   5.839   6.045
 1930SOL    HW1 6689   6.307   5.790   6.044
 1930SOL    HW2 6690   6.447   5.815   5.963
 1931SOL     OW 6691   2.115   2.586   2.945
 1931SOL    HW1 6692   2.181   2.624   2.881
 1931SOL    HW2 6693   2.033   2.645   2.947
 1932SOL     OW 6694   5.946   3.325   2.034
 1932SOL    HW1 6695   5.892   3.389   1.979
 1932SOL    HW2 6696   5.886   3.257   2.076
 1933SOL     OW 6697   1.955   5.163   0.406
 1933SOL    HW1 6698   1.976   5.245   0.458
 1933SOL    HW2 6699   2.021   5.091   0.430
 1934SOL     OW 6700   0.014   6.244   3.109
 1934SOL    HW1 6701   6.976   6.291   3.173
 1934SOL    HW2 6702   6.989   6.231   3.022
 1935SOL     OW 6703   1.050   1.654   2.152
 1935SOL    HW1 6704   1.014   1.732   2.102
 1935SOL    HW2 6705   0.979   1.616   2.212
 1936SOL     OW 6706   0.448   6.049   5.168
 1936SOL    HW1 6707   0.521   6.078   5.230
 1936SOL    HW2 6708   0.489   6.015   5.083
 1937SOL     OW 6709   4.576   1.871   3.548
 1937SOL    HW1 6710   4.535   1.824   3.626
 1937SOL    HW2 6711   4.512   1.939   3.512
 1938SOL     OW 6712   4.664   0.143   3.732
 1938SOL    HW1 6713   4.631   0.229   3.770
 1938SOL    HW2 6714   4.678   0.154   3.633
 1939SOL     OW 6715   2.769   0.711   4.116
 1939SOL    HW1 6716   2.845   0.684   4.175
 1939SOL    HW2 6717   2.704   0.766   4.169
 1940SOL     OW 6718   6.505   0.222   6.909
 1940SOL    HW1 6719   6.565   0.276   6.850
 1940SOL    HW2 6720   6.410   0.241   6.886
 1941SOL     OW 6721   4.360   5.091   2.669
 1941SOL    HW1 6722   4.358   5.085   2.769
 1941SOL    HW2 6723   4.420   5.020   2.633
 1942SOL     OW 6724   0.165   3.540   2.715
 1942SOL    HW1 6725   0.188   3.562   2.809
 1942SOL    HW2 6726   0.098   3.466   2.714
 1943SOL     OW 6727   3.521   5.222   3.383
 1943SOL    HW1 6728   3.492   5.204   3.289
 1943SOL    HW2 6729   3.477   5.306   3.416
 1944SOL     OW 6730   6.557   6.397   1.636
 1944SOL    HW1 6731   6.574   6.468   1.567
 1944SOL    HW2 6732   6.459   6.376   1.638
 1945SOL     OW 6733   3.193   5.229   2.204
 1945SOL    HW1 6734   3.213   5.143   2.157
 1945SOL    HW2 6735   3.155   5.294   2.139
 1946SOL     OW 6736   1.333   6.489   6.558
 1946SOL    HW1 6737   1.248   6.502   6.609
 1946SOL    HW2 6738   1.403   6.450   6.619
 1947SOL     OW 6739   4.286   1.323   3.558
 1947SOL    HW1 6740   4.218   1.364   3.619
 1947SOL    HW2 6741   4.336   1.395   3.510
 1948SOL     OW 6742   6.510   2.887   5.065
 1948SOL    HW1 6743   6.514   2.987   5.067
 1948SOL    HW2 6744   6.429   2.856   5.114
 1949SOL     OW 6745   4.562   3.454   0.258
 1949SOL    HW1 6746   4.653   3.457   0.215
 1949SOL    HW2 6747   4.492   3.463   0.188
 1950SOL     OW 6748   2.277   4.777   0.801
 1950SOL    HW1 6749   2.230   4.861   0.773
 1950SOL    HW2 6750   2.276   4.770   0.901
 1951SOL     OW 6751   5.810   3.028   6.324
 1951SOL    HW1 6752   5.719   3.045   6.362
 1951SOL    HW2 6753   5.874   3.098   6.356
 1952SOL     OW 6754   2.921   3.481   3.325
 1952SOL    HW1 6755   2.898   3.429   3.243
 1952SOL    HW2 6756   2.919   3.420   3.405
 1953SOL     OW 6757   0.495   2.075   4.404
 1953SOL    HW1 6758   0.422   2.122   4.353
 1953SOL    HW2 6759   0.462   1.986   4.434
 1954SOL     OW 6760   2.108   2.625   4.417
 1954SOL    HW1 6761   2.072   2.604   4.326
 1954SOL    HW2 6762   2.164   2.548   4.449
 1955SOL     OW 6763   6.397   5.694   2.915
 1955SOL    HW1 6764   6.343   5.702   2.831
 1955SOL    HW2 6765   6.337   5.667   2.991
 1956SOL     OW 6766   3.662   6.121   3.363
 1956SOL    HW1 6767   3.584   6.127   3.301
 1956SOL    HW2 6768   3.731   6.059   3.325
 1957SOL     OW 6769   2.416   5.987   5.865
 1957SOL    HW1 6770   2.422   5.923   5.789
 1957SOL    HW2 6771   2.413   5.936   5.951
 1958SOL     OW 6772   4.547   3.450   5.963
 1958SOL    HW1 6773   4.537   3.515   5.887
 1958SOL    HW2 6774   4.481   3.376   5.953
 1959SOL     OW 6775   2.899   0.243   0.977
 1959SOL    HW1 6776   2.971   0.303   1.012
 1959SOL    HW2 6777   2.845   0.291   0.908
 1960SOL     OW 6778   4.922   5.269   3.127
 1960SOL    HW1 6779   4.872   5.190   3.161
 1960SOL    HW2 6780   4.869   5.352   3.145
 1961SOL     OW 6781   5.601   4.431   4.948
 1961SOL    HW1 6782   5.595   4.523   4.988
 1961SOL    HW2 6783   5.536   4.371   4.994
 1962SOL     OW 6784   0.817   6.518   3.820
 1962SOL    HW1 6785   0.735   6.573   3.801
 1962SOL    HW2 6786   0.872   6.563   3.889
 1963SOL     OW 6787   2.588   1.305   3.501
 1963SOL    HW1 6788   2.626   1.218   3.471
 1963SOL    HW2 6789   2.628   1.331   3.589
 1964SOL     OW 6790   6.831   2.545   2.034
 1964SOL    HW1 6791   6.794   2.613   1.972
 1964SOL    HW2 6792   6.883   2.591   2.107
 1965SOL     OW 6793   1.841   0.091   3.339
 1965SOL    HW1 6794   1.879   0.065   3.250
 1965SOL    HW2 6795   1.854   0.017   3.405
 1966SOL     OW 6796   6.735   6.379   0.116
 1966SOL    HW1 6797   6.831   6.406   0.125
 1966SOL    HW2 6798   6.714   6.366   0.019
 1967SOL     OW 6799   6.322   2.275   4.668
 1967SOL    HW1 6800   6.390   2.240   4.733
 1967SOL    HW2 6801   6.356   2.359   4.626
 1968SOL     OW 6802   4.355   5.671   4.201
 1968SOL    HW1 6803   4.295   5.676   4.122
 1968SOL    HW2 6804   4.442   5.630   4.175
 1969SOL     OW 6805   6.297   0.747   1.637
 1969SOL    HW1 6806   6.237   0.679   1.680
 1969SOL    HW2 6807   6.324   0.815   1.705
 1970SOL     OW 6808   2.239   1.753   4.734
 1970SOL    HW1 6809   2.265   1.802   4.650
 1970SOL    HW2 6810   2.141   1.765   4.749
 1971SOL     OW 6811   0.269   1.496   6.283
 1971SOL    HW1 6812   0.341   1.545   6.233
 1971SOL    HW2 6813   0.218   1.438   6.219
 1972SOL     OW 6814   1.072   6.900   3.600
 1972SOL    HW1 6815   1.092   6.912   3.697
 1972SOL    HW2 6816   0.992   6.955   3.575
 1973SOL     OW 6817   3.384   3.226   0.201
 1973SOL    HW1 6818   3.399   3.128   0.188
 1973SOL    HW2 6819   3.286   3.246   0.190
 1974SOL     OW 6820   6.013   6.118   4.318
 1974SOL    HW1 6821   6.011   6.174   4.235
 1974SOL    HW2 6822   6.107   6.098   4.343
 1975SOL     OW 6823   2.430   7.006   3.929
 1975SOL    HW1 6824   2.509   7.016   3.868
 1975SOL    HW2 6825   2.457   0.009   4.022
 1976SOL     OW 6826   6.190   4.724   5.991
 1976SOL    HW1 6827   6.220   4.773   6.073
 1976SOL    HW2 6828   6.109   4.768   5.952
 1977SOL     OW 6829   3.398   2.095   5.002
 1977SOL    HW1 6830   3.357   2.185   4.988
 1977SOL    HW2 6831   3.495   2.106   5.022
 1978SOL     OW 6832   0.147   2.620   4.894
 1978SOL    HW1 6833   0.143   2.685   4.818
 1978SOL    HW2 6834   0.196   2.538   4.865
 1979SOL     OW 6835   0.017   4.346   2.741
 1979SOL    HW1 6836   0.067   4.265   2.773
 1979SOL    HW2 6837   6.999   4.393   2.819
 1980SOL     OW 6838   2.459   0.471   2.910
 1980SOL    HW1 6839   2.485   0.376   2.893
 1980SOL    HW2 6840   2.519   0.510   2.979
 1981SOL     OW 6841   5.613   3.302   2.245
 1981SOL    HW1 6842   5.526   3.276   2.202
 1981SOL    HW2 6843   5.682   3.234   2.224
 1982SOL     OW 6844   0.097   6.816   5.474
 1982SOL    HW1 6845   0.126   6.862   5.389
 1982SOL    HW2 6846   0.055   6.729   5.451
 1983SOL     OW 6847   0.924   4.978   1.594
 1983SOL    HW1 6848   1.000   5.029   1.554
 1983SOL    HW2 6849   0.859   4.953   1.521
 1984SOL     OW 6850   4.267   0.810   5.782
 1984SOL    HW1 6851   4.191   0.791   5.720
 1984SOL    HW2 6852   4.347   0.757   5.753
 1985SOL     OW 6853   0.984   5.337   1.963
 1985SOL    HW1 6854   1.000   5.239   1.971
 1985SOL    HW2 6855   1.035   5.385   2.035
 1986SOL     OW 6856   6.333   2.412   0.775
 1986SOL    HW1 6857   6.325   2.505   0.811
 1986SOL    HW2 6858   6.427   2.395   0.746
 1987SOL     OW 6859   2.316   3.421   0.126
 1987SOL    HW1 6860   2.238   3.395   0.069
 1987SOL    HW2 6861   2.290   3.419   0.222
 1988SOL     OW 6862   4.980   2.677   1.208
 1988SOL    HW1 6863   4.895   2.633   1.179
 1988SOL    HW2 6864   4.959   2.769   1.242
 1989SOL     OW 6865   2.725   2.244   3.313
 1989SOL    HW1 6866   2.663   2.193   3.252
 1989SOL    HW2 6867   2.694   2.338   3.321
 1990SOL     OW 6868   1.058   0.384   2.919
 1990SOL    HW1 6869   1.078   0.346   3.009
 1990SOL    HW2 6870   0.959   0.400   2.911
 1991SOL     OW 6871   5.012   5.736   2.709
 1991SOL    HW1 6872   5.004   5.831   2.739
 1991SOL    HW2 6873   5.067   5.685   2.776
 1992SOL     OW 6874   1.997   5.691   5.245
 1992SOL    HW1 6875   2.064   5.618   5.238
 1992SOL    HW2 6876   1.974   5.725   5.153
 1993SOL     OW 6877   3.257   3.028   4.068
 1993SOL    HW1 6878   3.290   2.966   3.997
 1993SOL    HW2 6879   3.329   3.094   4.091
 1994SOL     OW 6880   6.490   1.949   1.449
 1994SOL    HW1 6881   6.471   1.927   1.544
 1994SOL    HW2 6882   6.463   2.044   1.430
 1995SOL     OW 6883   4.175   2.557   1.479
 1995SOL    HW1 6884   4.223   2.478   1.519
 1995SOL    HW2 6885   4.093   2.576   1.533
 1996SOL     OW 6886   2.176   5.095   5.758
 1996SOL    HW1 6887   2.244   5.153   5.714
 1996SOL    HW2 6888   2.175   5.005   5.713
 1997SOL     OW 6889   5.396   6.129   4.554
 1997SOL    HW1 6890   5.326   6.103   4.619
 1997SOL    HW2 6891   5.423   6.224   4.570
 1998SOL     OW 6892   3.237   4.924   4.978
 1998SOL    HW1 6893   3.303   4.996   4.997
 1998SOL    HW2 6894   3.285   4.836   4.971
 1999SOL     OW 6895   3.417   1.808   2.030
 1999SOL    HW1 6896   3.402   1.731   1.968
 1999SOL    HW2 6897   3.449   1.775   2.118
 2000SOL     OW 6898   2.520   1.579   5.197
 2000SOL    HW1 6899   2.596   1.642   5.185
 2000SOL    HW2 6900   2.444   1.627   5.241
 2001SOL     OW 6901   2.105   3.080   0.109
 2001SOL    HW1 6902   2.089   3.176   0.087
 2001SOL    HW2 6903   2.193   3.052   0.070
 2002SOL     OW 6904   1.582   4.784   4.843
 2002SOL    HW1 6905   1.487   4.756   4.858
 2002SOL    HW2 6906   1.593   4.881   4.864
 2003SOL     OW 6907   6.367   3.661   3.415
 2003SOL    HW1 6908   6.276   3.627   3.439
 2003SOL    HW2 6909   6.366   3.761   3.415
 2004SOL     OW 6910   3.230   0.067   6.752
 2004SOL    HW1 6911   3.132   0.053   6.743
 2004SOL    HW2 6912   3.247   0.155   6.796
 2005SOL     OW 6913   2.502   6.928   5.383
 2005SOL    HW1 6914   2.520   6.871   5.303
 2005SOL    HW2 6915   2.582   6.986   5.401
 2006SOL     OW 6916   4.679   0.005   2.887
 2006SOL    HW1 6917   4.626   6.961   2.834
 2006SOL    HW2 6918   4.763   6.985   2.919
 2007SOL     OW 6919   0.171   5.270   6.965
 2007SOL    HW1 6920   0.185   5.306   0.035
 2007SOL    HW2 6921   0.088   5.310   6.926
 2008SOL     OW 6922   0.311   5.981   5.845
 2008SOL    HW1 6923   0.339   5.905   5.787
 2008SOL    HW2 6924   0.240   5.950   5.909
 2009SOL     OW 6925   1.479   0.600   0.005
 2009SOL    HW1 6926   1.574   0.583   7.002
 2009SOL    HW2 6927   1.456   0.695   7.009
 2010SOL     OW 6928   2.555   1.047   1.144
 2010SOL    HW1 6929   2.626   1.011   1.084
 2010SOL    HW2 6930   2.514   0.971   1.195
 2011SOL     OW 6931   6.577   1.452   4.598
 2011SOL    HW1 6932   6.674   1.458   4.619
 2011SOL    HW2 6933   6.524   1.461   4.682
 2012SOL     OW 6934   6.774   3.756   1.776
 2012SOL    HW1 6935   6.762   3.853   1.754
 2012SOL    HW2 6936   6.866   3.727   1.751
 2013SOL     OW 6937   3.690   2.589   1.753
 2013SOL    HW1 6938   3.670   2.512   1.812
 2013SOL    HW2 6939   3.639   2.669   1.784
 2014SOL     OW 6940   3.156   5.310   3.557
 2014SOL    HW1 6941   3.092   5.380   3.591
 2014SOL    HW2 6942   3.250   5.339   3.577
 2015SOL     OW 6943   2.622   5.137   0.095
 2015SOL    HW1 6944   2.596   5.231   0.114
 2015SOL    HW2 6945   2.722   5.130   0.088
 2016SOL     OW 6946   6.552   5.349   5.045
 2016SOL    HW1 6947   6.531   5.251   5.046
 2016SOL    HW2 6948   6.473   5.400   5.009
 2017SOL     OW 6949   1.427   5.042   1.579
 2017SOL    HW1 6950   1.336   5.002   1.578
 2017SOL    HW2 6951   1.496   4.970   1.564
 2018SOL     OW 6952   0.298   4.493   5.453
 2018SOL    HW1 6953   0.284   4.583   5.412
 2018SOL    HW2 6954   0.214   4.465   5.500
 2019SOL     OW 6955   4.933   0.510   2.606
 2019SOL    HW1 6956   4.945   0.608   2.589
 2019SOL    HW2 6957   5.019   0.462   2.587
 2020SOL     OW 6958   2.437   5.243   3.224
 2020SOL    HW1 6959   2.499   5.166   3.237
 2020SOL    HW2 6960   2.350   5.225   3.269
 2021SOL     OW 6961   1.884   6.006   2.135
 2021SOL    HW1 6962   1.835   6.060   2.203
 2021SOL    HW2 6963   1.822   5.983   2.060
 2022SOL     OW 6964   3.944   5.618   1.293
 2022SOL    HW1 6965   3.888   5.697   1.269
 2022SOL    HW2 6966   3.888   5.536   1.296
 2023SOL     OW 6967   6.709   2.568   6.011
 2023SOL    HW1 6968   6.780   2.629   5.975
 2023SOL    HW2 6969   6.749   2.508   6.080
 2024SOL     OW 6970   5.107   0.059   3.715
 2024SOL    HW1 6971   5.175   7.012   3.694
 2024SOL    HW2 6972   5.091   0.116   3.634
 2025SOL     OW 6973   5.942   0.872   1.411
 2025SOL    HW1 6974   5.905   0.811   1.481
 2025SOL    HW2 6975   6.038   0.892   1.432
 2026SOL     OW 6976   1.950   1.960   4.955
 2026SOL    HW1 6977   1.948   1.889   4.884
 2026SOL    HW2 6978   1.961   1.917   5.044
 2027SOL     OW 6979   6.509   0.099   2.394
 2027SOL    HW1 6980   6.519   0.008   2.434
 2027SOL    HW2 6981   6.484   0.091   2.298
 2028SOL     OW 6982   3.831   4.100   5.726
 2028SOL    HW1 6983   3.796   4.014   5.690
 2028SOL    HW2 6984   3.769   4.134   5.797
 2029SOL     OW 6985   2.162   0.357   0.143
 2029SOL    HW1 6986   2.189   0.410   0.224
 2029SOL    HW2 6987   2.237   0.357   0.077
 2030SOL     OW 6988   2.184   3.023   2.508
 2030SOL    HW1 6989   2.219   2.962   2.437
 2030SOL    HW2 6990   2.227   3.001   2.595
 2031SOL     OW 6991   5.728   6.782   2.461
 2031SOL    HW1 6992   5.716   6.840   2.541
 2031SOL    HW2 6993   5.771   6.835   2.387
 2032SOL     OW 6994   4.273   6.232   2.331
 2032SOL    HW1 6995   4.276   6.328   2.359
 2032SOL    HW2 6996   4.342   6.180   2.381
 2033SOL     OW 6997   0.081   4.740   6.743
 2033SOL    HW1 6998   0.028   4.797   6.680
 2033SOL    HW2 6999   0.032   4.733   6.830
 2034SOL     OW 7000   2.179   5.392   4.273
 2034SOL    HW1 7001   2.175   5.296   4.245
 2034SOL    HW2 7002   2.234   5.443   4.207
 2035SOL     OW 7003   0.459   1.750   3.336
 2035SOL    HW1 7004   0.468   1.764   3.237
 2035SOL    HW2 7005   0.497   1.830   3.384
 2036SOL     OW 7006   0.834   4.748   1.102
 2036SOL    HW1 7007   0.920   4.698   1.093
 2036SOL    HW2 7008   0.768   4.691   1.153
 2037SOL     OW 7009   0.580   3.042   6.587
 2037SOL    HW1 7010   0.555   2.953   6.625
 2037SOL    HW2 7011   0.503   3.079   6.536
 2038SOL     OW 7012   1.604   0.050   4.792
 2038SOL    HW1 7013   1.593   0.108   4.711
 2038SOL    HW2 7014   1.684   7.014   4.780
 2039SOL     OW 7015   1.163   5.454   2.159
 2039SOL    HW1 7016   1.170   5.554   2.158
 2039SOL    HW2 7017   1.157   5.422   2.253
 2040SOL     OW 7018   3.957   3.131   4.781
 2040SOL    HW1 7019   4.009   3.046   4.782
 2040SOL    HW2 7020   3.861   3.112   4.799
 2041SOL     OW 7021   5.196   3.011   6.764
 2041SOL    HW1 7022   5.225   2.922   6.730
 2041SOL    HW2 7023   5.107   3.035   6.725
 2042SOL     OW 7024   3.188   6.398   0.376
 2042SOL    HW1 7025   3.167   6.356   0.288
 2042SOL    HW2 7026   3.157   6.493   0.375
 2043SOL     OW 7027   5.094   5.677   2.451
 2043SOL    HW1 7028   5.062   5.668   2.545
 2043SOL    HW2 7029   5.039   5.618   2.391
 2044SOL     OW 7030   6.698   0.665   2.385
 2044SOL    HW1 7031   6.764   0.623   2.323
 2044SOL    HW2 7032   6.607   0.631   2.364
 2045SOL     OW 7033   3.405   6.842   5.801
 2045SOL    HW1 7034   3.351   6.921   5.829
 2045SOL    HW2 7035   3.402   6.833   5.701
 2046SOL     OW 7036   5.850   0.203   6.018
 2046SOL    HW1 7037   5.881   0.224   5.925
 2046SOL    HW2 7038   5.760   0.159   6.013
 2047SOL     OW 7039   5.192   3.151   0.072
 2047SOL    HW1 7040   5.226   3.167   0.165
 2047SOL    HW2 7041   5.259   3.096   0.022
 2048SOL     OW 7042   4.553   6.345   5.459
 2048SOL    HW1 7043   4.644   6.381   5.440
 2048SOL    HW2 7044   4.489   6.421   5.472
 2049SOL     OW 7045   5.379   5.592   6.561
 2049SOL    HW1 7046   5.404   5.523   6.492
 2049SOL    HW2 7047   5.442   5.585   6.638
 2050SOL     OW 7048   5.611   1.221   3.198
 2050SOL    HW1 7049   5.546   1.222   3.274
 2050SOL    HW2 7050   5.686   1.159   3.219
 2051SOL     OW 7051   3.034   5.929   1.174
 2051SOL    HW1 7052   2.995   5.883   1.254
 2051SOL    HW2 7053   2.961   5.977   1.125
 2052SOL     OW 7054   1.656   2.802   1.139
 2052SOL    HW1 7055   1.598   2.816   1.059
 2052SOL    HW2 7056   1.662   2.704   1.159
 2053SOL     OW 7057   4.648   0.757   0.637
 2053SOL    HW1 7058   4.669   0.792   0.728
 2053SOL    HW2 7059   4.635   0.833   0.573
 2054SOL     OW 7060   0.660   3.161   1.411
 2054SOL    HW1 7061   0.617   3.214   1.483
 2054SOL    HW2 7062   0.740   3.209   1.377
 2055SOL     OW 7063   6.537   0.927   3.763
 2055SOL    HW1 7064   6.578   1.011   3.728
 2055SOL    HW2 7065   6.530   0.861   3.689
 2056SOL     OW 7066   0.227   6.422   2.411
 2056SOL    HW1 7067   0.269   6.477   2.339
 2056SOL    HW2 7068   0.133   6.453   2.427
 2057SOL     OW 7069   4.895   2.997   4.391
 2057SOL    HW1 7070   4.974   2.935   4.396
 2057SOL    HW2 7071   4.841   2.974   4.310
 2058SOL     OW 7072   0.887   1.259   0.941
 2058SOL    HW1 7073   0.974   1.248   0.989
 2058SOL    HW2 7074   0.827   1.182   0.961
 2059SOL     OW 7075   1.822   0.856   7.017
 2059SOL    HW1 7076   1.791   0.887   0.085
 2059SOL    HW2 7077   1.861   0.764   0.003
 2060SOL     OW 7078   0.487   4.883   3.057
 2060SOL    HW1 7079   0.417   4.899   3.126
 2060SOL    HW2 7080   0.459   4.808   2.998
 2061SOL     OW 7081   1.420   0.219   0.335
 2061SOL    HW1 7082   1.450   0.274   0.257
 2061SOL    HW2 7083   1.487   0.227   0.409
 2062SOL     OW 7084   3.814   0.219   4.154
 2062SOL    HW1 7085   3.876   0.153   4.112
 2062SOL    HW2 7086   3.820   0.212   4.253
 2063SOL     OW 7087   2.423   2.967   1.295
 2063SOL    HW1 7088   2.350   3.033   1.277
 2063SOL    HW2 7089   2.486   3.005   1.364
 2064SOL     OW 7090   1.034   2.009   0.871
 2064SOL    HW1 7091   1.108   1.955   0.910
 2064SOL    HW2 7092   0.953   1.952   0.860
 2065SOL     OW 7093   0.103   2.999   2.997
 2065SOL    HW1 7094   0.115   3.065   3.072
 2065SOL    HW2 7095   0.080   2.909   3.035
 2066SOL     OW 7096   0.898   6.341   3.280
 2066SOL    HW1 7097   0.837   6.380   3.348
 2066SOL    HW2 7098   0.845   6.284   3.217
 2067SOL     OW 7099   0.114   0.599   0.693
 2067SOL    HW1 7100   0.089   0.684   0.647
 2067SOL    HW2 7101   0.203   0.567   0.659
 2068SOL     OW 7102   2.350   2.498   5.060
 2068SOL    HW1 7103   2.306   2.524   4.974
 2068SOL    HW2 7104   2.407   2.574   5.092
 2069SOL     OW 7105   1.447   2.303   1.749
 2069SOL    HW1 7106   1.434   2.229   1.815
 2069SOL    HW2 7107   1.540   2.299   1.714
 2070SOL     OW 7108   0.330   1.674   2.099
 2070SOL    HW1 7109   0.287   1.600   2.151
 2070SOL    HW2 7110   0.326   1.758   2.152
 2071SOL     OW 7111   2.489   5.814   5.615
 2071SOL    HW1 7112   2.504   5.727   5.569
 2071SOL    HW2 7113   2.569   5.839   5.669
 2072SOL     OW 7114   5.291   4.778   2.374
 2072SOL    HW1 7115   5.357   4.852   2.382
 2072SOL    HW2 7116   5.235   4.773   2.456
 2073SOL     OW 7117   3.226   6.382   5.116
 2073SOL    HW1 7118   3.281   6.350   5.038
 2073SOL    HW2 7119   3.212   6.307   5.180
 2074SOL     OW 7120   5.463   1.693   3.032
 2074SOL    HW1 7121   5.461   1.593   3.033
 2074SOL    HW2 7122   5.478   1.725   2.939
 2075SOL     OW 7123   3.757   3.257   6.509
 2075SOL    HW1 7124   3.682   3.195   6.485
 2075SOL    HW2 7125   3.737   3.349   6.475
 2076SOL     OW 7126   4.971   6.592   0.354
 2076SOL    HW1 7127   5.033   6.514   0.347
 2076SOL    HW2 7128   4.998   6.661   0.287
 2077SOL     OW 7129   4.209   0.749   4.838
 2077SOL    HW1 7130   4.177   0.710   4.752
 2077SOL    HW2 7131   4.213   0.849   4.829
 2078SOL     OW 7132   4.293   6.120   3.709
 2078SOL    HW1 7133   4.284   6.204   3.762
 2078SOL    HW2 7134   4.259   6.134   3.616
 2079SOL     OW 7135   5.465   0.294   4.051
 2079SOL    HW1 7136   5.392   0.250   3.999
 2079SOL    HW2 7137   5.449   0.281   4.149
 2080SOL     OW 7138   2.886   1.956   3.129
 2080SOL    HW1 7139   2.833   2.011   3.065
 2080SOL    HW2 7140   2.832   1.940   3.212
 2081SOL     OW 7141   1.482   5.684   3.831
 2081SOL    HW1 7142   1.547   5.628   3.780
 2081SOL    HW2 7143   1.450   5.760   3.774
 2082SOL     OW 7144   4.947   0.803   2.592
 2082SOL    HW1 7145   4.847   0.798   2.601
 2082SOL    HW2 7146   4.985   0.863   2.662
 2083SOL     OW 7147   3.808   4.474   5.800
 2083SOL    HW1 7148   3.854   4.509   5.882
 2083SOL    HW2 7149   3.716   4.514   5.795
 2084SOL     OW 7150   0.092   2.529   2.920
 2084SOL    HW1 7151   0.155   2.496   2.850
 2084SOL    HW2 7152   0.101   2.474   3.003
 2085SOL     OW 7153   5.877   6.584   0.225
 2085SOL    HW1 7154   5.907   6.582   0.320
 2085SOL    HW2 7155   5.873   6.490   0.190
 2086SOL     OW 7156   3.743   5.517   6.966
 2086SOL    HW1 7157   3.646   5.538   6.971
 2086SOL    HW2 7158   3.788   5.549   0.028
 2087SOL     OW 7159   5.839   6.213   3.040
 2087SOL    HW1 7160   5.923   6.159   3.046
 2087SOL    HW2 7161   5.760   6.153   3.052
 2088SOL     OW 7162   2.217   6.587   1.422
 2088SOL    HW1 7163   2.191   6.525   1.496
 2088SOL    HW2 7164   2.205   6.681   1.453
 2089SOL     OW 7165   2.757   1.093   6.447
 2089SOL    HW1 7166   2.689   1.106   6.375
 2089SOL    HW2 7167   2.750   1.168   6.513
 2090SOL     OW 7168   3.072   3.920   3.623
 2090SOL    HW1 7169   3.043   3.832   3.585
 2090SOL    HW2 7170   3.117   3.905   3.711
 2091SOL     OW 7171   2.510   4.379   1.636
 2091SOL    HW1 7172   2.423   4.333   1.655
 2091SOL    HW2 7173   2.584   4.332   1.684
 2092SOL     OW 7174   6.160   0.253   0.691
 2092SOL    HW1 7175   6.244   0.205   0.717
 2092SOL    HW2 7176   6.184   0.345   0.657
 2093SOL     OW 7177   1.717   1.440   1.597
 2093SOL    HW1 7178   1.668   1.449   1.510
 2093SOL    HW2 7179   1.815   1.432   1.579
 2094SOL     OW 7180   0.057   0.515   2.448
 2094SOL    HW1 7181   0.077   0.605   2.488
 2094SOL    HW2 7182   6.982   0.495   2.458
 2095SOL     OW 7183   6.109   4.536   5.224
 2095SOL    HW1 7184   6.139   4.516   5.318
 2095SOL    HW2 7185   6.017   4.500   5.210
 2096SOL     OW 7186   4.822   4.304   3.750
 2096SOL    HW1 7187   4.908   4.256   3.733
 2096SOL    HW2 7188   4.753   4.238   3.780
 2097SOL     OW 7189   6.322   3.504   5.680
 2097SOL    HW1 7190   6.227   3.483   5.706
 2097SOL    HW2 7191   6.384   3.466   5.748
 2098SOL     OW 7192   4.001   0.698   4.380
 2098SOL    HW1 7193   3.975   0.792   4.358
 2098SOL    HW2 7194   3.965   0.636   4.310
 2099SOL     OW 7195   2.258   1.892   3.450
 2099SOL    HW1 7196   2.332   1.958   3.442
 2099SOL    HW2 7197   2.176   1.937   3.487
 2100SOL     OW 7198   4.681   4.786   5.946
 2100SOL    HW1 7199   4.634   4.710   5.990
 2100SOL    HW2 7200   4.615   4.859   5.927
 2101SOL     OW 7201   5.761   6.923   1.717
 2101SOL    HW1 7202   5.812   6.931   1.631
 2101SOL    HW2 7203   5.769   6.830   1.752
 2102SOL     OW 7204   6.921   5.274   1.238
 2102SOL    HW1 7205   6.840   5.292   1.182
 2102SOL    HW2 7206   6.892   5.238   1.327
 2103SOL     OW 7207   3.153   3.899   6.591
 2103SOL    HW1 7208   3.125   3.860   6.678
 2103SOL    HW2 7209   3.219   3.973   6.608
 2104SOL     OW 7210   1.141   5.098   6.292
 2104SOL    HW1 7211   1.179   5.119   6.202
 2104SOL    HW2 7212   1.186   5.016   6.329
 2105SOL     OW 7213   6.194   5.913   2.771
 2105SOL    HW1 7214   6.203   5.993   2.831
 2105SOL    HW2 7215   6.127   5.933   2.699
 2106SOL     OW 7216   5.765   6.378   5.976
 2106SOL    HW1 7217   5.683   6.339   6.018
 2106SOL    HW2 7218   5.744   6.467   5.936
 2107SOL     OW 7219   2.774   5.117   0.466
 2107SOL    HW1 7220   2.812   5.075   0.548
 2107SOL    HW2 7221   2.726   5.048   0.412
 2108SOL     OW 7222   5.538   4.625   6.481
 2108SOL    HW1 7223   5.440   4.618   6.500
 2108SOL    HW2 7224   5.560   4.572   6.400
 2109SOL     OW 7225   5.353   5.710   2.740
 2109SOL    HW1 7226   5.426   5.652   2.704
 2109SOL    HW2 7227   5.331   5.780   2.673
 2110SOL     OW 7228   1.200   4.727   5.346
 2110SOL    HW1 7229   1.235   4.718   5.439
 2110SOL    HW2 7230   1.109   4.686   5.342
 2111SOL     OW 7231   1.794   2.117   6.755
 2111SOL    HW1 7232   1.840   2.115   6.666
 2111SOL    HW2 7233   1.836   2.049   6.816
 2112SOL     OW 7234   5.157   3.814   0.575
 2112SOL    HW1 7235   5.102   3.876   0.518
 2112SOL    HW2 7236   5.123   3.721   0.563
 2113SOL     OW 7237   6.775   1.068   3.618
 2113SOL    HW1 7238   6.840   1.143   3.631
 2113SOL    HW2 7239   6.682   1.102   3.626
 2114SOL     OW 7240   1.572   2.994   6.929
 2114SOL    HW1 7241   1.565   2.912   6.872
 2114SOL    HW2 7242   1.502   3.059   6.902
 2115SOL     OW 7243   4.118   5.299   1.830
 2115SOL    HW1 7244   4.031   5.281   1.784
 2115SOL    HW2 7245   4.146   5.393   1.811
 2116SOL     OW 7246   0.228   4.066   4.301
 2116SOL    HW1 7247   0.238   4.000   4.226
 2116SOL    HW2 7248   0.234   4.159   4.264
 2117SOL     OW 7249   6.387   5.865   5.640
 2117SOL    HW1 7250   6.320   5.920   5.691
 2117SOL    HW2 7251   6.415   5.915   5.558
 2118SOL     OW 7252   0.126   3.044   2.365
 2118SOL    HW1 7253   0.186   2.999   2.432
 2118SOL    HW2 7254   0.091   2.976   2.301
 2119SOL     OW 7255   4.156   6.300   0.195
 2119SOL    HW1 7256   4.251   6.283   0.220
 2119SOL    HW2 7257   4.124   6.384   0.240
 2120SOL     OW 7258   6.299   3.944   2.254
 2120SOL    HW1 7259   6.338   3.991   2.174
 2120SOL    HW2 7260   6.363   3.950   2.330
 2121SOL     OW 7261   0.560   4.016   5.257
 2121SOL    HW1 7262   0.462   4.012   5.277
 2121SOL    HW2 7263   0.611   3.965   5.326
 2122SOL     OW 7264   3.805   4.861   5.178
 2122SOL    HW1 7265   3.769   4.782   5.228
 2122SOL    HW2 7266   3.734   4.932   5.172
 2123SOL     OW 7267   3.832   5.822   3.214
 2123SOL    HW1 7268   3.809   5.787   3.123
 2123SOL    HW2 7269   3.848   5.745   3.276
 2124SOL     OW 7270   2.418   2.261   1.891
 2124SOL    HW1 7271   2.480   2.282   1.816
 2124SOL    HW2 7272   2.438   2.170   1.926
 2125SOL     OW 7273   4.780   5.994   0.235
 2125SOL    HW1 7274   4.827   5.927   0.293
 2125SOL    HW2 7275   4.682   5.991   0.255
 2126SOL     OW 7276   2.936   2.230   0.823
 2126SOL    HW1 7277   2.837   2.218   0.812
 2126SOL    HW2 7278   2.981   2.140   0.817
 2127SOL     OW 7279   5.532   2.578   4.293
 2127SOL    HW1 7280   5.491   2.642   4.357
 2127SOL    HW2 7281   5.577   2.505   4.344
 2128SOL     OW 7282   0.599   3.757   4.331
 2128SOL    HW1 7283   0.586   3.856   4.324
 2128SOL    HW2 7284   0.631   3.721   4.243
 2129SOL     OW 7285   4.522   2.226   4.955
 2129SOL    HW1 7286   4.572   2.290   4.896
 2129SOL    HW2 7287   4.564   2.136   4.950
 2130SOL     OW 7288   5.061   6.779   3.315
 2130SOL    HW1 7289   4.980   6.758   3.370
 2130SOL    HW2 7290   5.111   6.694   3.296
 2131SOL     OW 7291   4.880   1.584   6.904
 2131SOL    HW1 7292   4.919   1.667   6.944
 2131SOL    HW2 7293   4.904   1.580   6.806
 2132SOL     OW 7294   1.110   3.540   1.280
 2132SOL    HW1 7295   1.075   3.457   1.235
 2132SOL    HW2 7296   1.208   3.529   1.297
 2133SOL     OW 7297   2.365   3.820   6.438
 2133SOL    HW1 7298   2.370   3.744   6.502
 2133SOL    HW2 7299   2.365   3.907   6.488
 2134SOL     OW 7300   0.137   6.860   6.924
 2134SOL    HW1 7301   0.224   6.893   6.958
 2134SOL    HW2 7302   0.151   6.775   6.872
 2135SOL     OW 7303   6.499   5.528   5.499
 2135SOL    HW1 7304   6.409   5.570   5.498
 2135SOL    HW2 7305   6.497   5.445   5.554
 2136SOL     OW 7306   1.684   5.190   6.992
 2136SOL    HW1 7307   1.723   5.186   6.900
 2136SOL    HW2 7308   1.732   5.126   0.030
 2137SOL     OW 7309   1.365   6.784   3.593
 2137SOL    HW1 7310   1.360   6.878   3.559
 2137SOL    HW2 7311   1.273   6.753   3.618
 2138SOL     OW 7312   5.049   1.979   2.081
 2138SOL    HW1 7313   5.077   1.938   1.994
 2138SOL    HW2 7314   4.963   2.028   2.069
 2139SOL     OW 7315   2.708   5.910   5.746
 2139SOL    HW1 7316   2.751   5.992   5.708
 2139SOL    HW2 7317   2.731   5.903   5.843
 2140SOL     OW 7318   2.172   1.941   3.180
 2140SOL    HW1 7319   2.186   1.894   3.267
 2140SOL    HW2 7320   2.130   2.030   3.198
 2141SOL     OW 7321   6.775   3.484   2.526
 2141SOL    HW1 7322   6.741   3.576   2.546
 2141SOL    HW2 7323   6.849   3.461   2.589
 2142SOL     OW 7324   1.842   1.599   1.972
 2142SOL    HW1 7325   1.907   1.641   1.909
 2142SOL    HW2 7326   1.755   1.648   1.968
 2143SOL     OW 7327   6.544   5.746   5.819
 2143SOL    HW1 7328   6.486   5.810   5.770
 2143SOL    HW2 7329   6.599   5.694   5.754
 2144SOL     OW 7330   6.121   4.154   2.928
 2144SOL    HW1 7331   6.211   4.110   2.935
 2144SOL    HW2 7332   6.050   4.083   2.923
 2145SOL     OW 7333   3.195   1.525   3.472
 2145SOL    HW1 7334   3.281   1.537   3.422
 2145SOL    HW2 7335   3.128   1.592   3.440
 2146SOL     OW 7336   2.101   1.544   6.636
 2146SOL    HW1 7337   2.187   1.591   6.615
 2146SOL    HW2 7338   2.087   1.470   6.570
 2147SOL     OW 7339   6.511   0.309   5.449
 2147SOL    HW1 7340   6.610   0.301   5.444
 2147SOL    HW2 7341   6.486   0.381   5.514
 2148SOL     OW 7342   1.462   2.628   5.143
 2148SOL    HW1 7343   1.517   2.545   5.144
 2148SOL    HW2 7344   1.506   2.697   5.202
 2149SOL     OW 7345   0.560   6.767   0.091
 2149SOL    HW1 7346   0.476   6.757   0.037
 2149SOL    HW2 7347   0.555   6.708   0.171
 2150SOL     OW 7348   2.105   2.811   0.569
 2150SOL    HW1 7349   2.170   2.738   0.549
 2150SOL    HW2 7350   2.155   2.896   0.588
 2151SOL     OW 7351   1.066   5.322   6.445
 2151SOL    HW1 7352   1.093   5.400   6.389
 2151SOL    HW2 7353   1.049   5.243   6.386
 2152SOL     OW 7354   5.284   6.495   3.954
 2152SOL    HW1 7355   5.249   6.433   3.884
 2152SOL    HW2 7356   5.283   6.450   4.043
 2153SOL     OW 7357   4.670   0.041   4.105
 2153SOL    HW1 7358   4.590   0.040   4.046
 2153SOL    HW2 7359   4.727   0.119   4.081
 2154SOL     OW 7360   2.607   6.625   2.532
 2154SOL    HW1 7361   2.587   6.631   2.434
 2154SOL    HW2 7362   2.528   6.657   2.584
 2155SOL     OW 7363   5.051   0.617   0.564
 2155SOL    HW1 7364   5.033   0.520   0.581
 2155SOL    HW2 7365   5.028   0.670   0.645
 2156SOL     OW 7366   6.095   1.654   4.371
 2156SOL    HW1 7367   6.110   1.738   4.423
 2156SOL    HW2 7368   6.018   1.666   4.309
 2157SOL     OW 7369   4.562   6.215   3.485
 2157SOL    HW1 7370   4.598   6.222   3.578
 2157SOL    HW2 7371   4.636   6.203   3.420
 2158SOL     OW 7372   2.958   6.901   0.593
 2158SOL    HW1 7373   2.895   6.883   0.668
 2158SOL    HW2 7374   3.042   6.942   0.629
 2159SOL     OW 7375   0.283   1.909   5.499
 2159SOL    HW1 7376   0.257   1.969   5.423
 2159SOL    HW2 7377   0.364   1.856   5.473
 2160SOL     OW 7378   5.423   6.826   6.794
 2160SOL    HW1 7379   5.444   6.816   6.697
 2160SOL    HW2 7380   5.500   6.871   6.840
 2161SOL     OW 7381   1.258   3.685   0.682
 2161SOL    HW1 7382   1.309   3.684   0.596
 2161SOL    HW2 7383   1.322   3.675   0.759
 2162SOL     OW 7384   1.998   6.885   0.211
 2162SOL    HW1 7385   1.905   6.857   0.185
 2162SOL    HW2 7386   2.019   6.972   0.167
 2163SOL     OW 7387   0.859   2.967   4.493
 2163SOL    HW1 7388   0.860   3.063   4.521
 2163SOL    HW2 7389   0.902   2.910   4.563
 2164SOL     OW 7390   2.189   4.464   1.951
 2164SOL    HW1 7391   2.227   4.374   1.973
 2164SOL    HW2 7392   2.256   4.534   1.976
 2165SOL     OW 7393   6.342   1.917   5.684
 2165SOL    HW1 7394   6.307   1.977   5.613
 2165SOL    HW2 7395   6.442   1.923   5.687
 2166SOL     OW 7396   6.954   2.297   1.947
 2166SOL    HW1 7397   6.907   2.244   1.876
 2166SOL    HW2 7398   6.917   2.390   1.950
 2167SOL     OW 7399   1.428   2.329   2.716
 2167SOL    HW1 7400   1.373   2.404   2.678
 2167SOL    HW2 7401   1.510   2.367   2.759
 2168SOL     OW 7402   1.405   2.587   3.537
 2168SOL    HW1 7403   1.305   2.578   3.529
 2168SOL    HW2 7404   1.432   2.574   3.633
 2169SOL     OW 7405   6.877   6.936   0.990
 2169SOL    HW1 7406   6.926   6.911   1.073
 2169SOL    HW2 7407   6.835   6.854   0.950
 2170SOL     OW 7408   1.755   2.694   6.230
 2170SOL    HW1 7409   1.740   2.604   6.270
 2170SOL    HW2 7410   1.785   2.759   6.300
 2171SOL     OW 7411   6.687   6.189   1.376
 2171SOL    HW1 7412   6.760   6.257   1.390
 2171SOL    HW2 7413   6.632   6.181   1.459
 2172SOL     OW 7414   2.245   2.581   4.835
 2172SOL    HW1 7415   2.311   2.571   4.760
 2172SOL    HW2 7416   2.157   2.542   4.808
 2173SOL     OW 7417   4.255   0.637   5.220
 2173SOL    HW1 7418   4.210   0.612   5.134
 2173SOL    HW2 7419   4.193   0.693   5.275
 2174SOL     OW 7420   5.358   0.130   5.973
 2174SOL    HW1 7421   5.423   0.205   5.976
 2174SOL    HW2 7422   5.266   0.165   5.991
 2175SOL     OW 7423   3.426   2.862   5.784
 2175SOL    HW1 7424   3.492   2.831   5.716
 2175SOL    HW2 7425   3.448   2.822   5.873
 2176SOL     OW 7426   6.583   1.597   2.886
 2176SOL    HW1 7427   6.560   1.684   2.930
 2176SOL    HW2 7428   6.549   1.597   2.792
 2177SOL     OW 7429   0.614   1.065   5.128
 2177SOL    HW1 7430   0.653   0.997   5.190
 2177SOL    HW2 7431   0.517   1.045   5.114
 2178SOL     OW 7432   1.702   3.010   2.642
 2178SOL    HW1 7433   1.702   2.925   2.589
 2178SOL    HW2 7434   1.796   3.043   2.652
 2179SOL     OW 7435   1.772   4.009   6.951
 2179SOL    HW1 7436   1.829   4.066   6.891
 2179SOL    HW2 7437   1.703   3.961   6.896
 2180SOL     OW 7438   0.294   5.102   3.019
 2180SOL    HW1 7439   0.386   5.106   2.980
 2180SOL    HW2 7440   0.240   5.034   2.969
 2181SOL     OW 7441   4.333   4.622   3.584
 2181SOL    HW1 7442   4.348   4.530   3.619
 2181SOL    HW2 7443   4.236   4.645   3.592
 2182SOL     OW 7444   0.276   6.795   1.252
 2182SOL    HW1 7445   0.357   6.757   1.295
 2182SOL    HW2 7446   0.275   6.895   1.265
 2183SOL     OW 7447   3.676   3.345   6.868
 2183SOL    HW1 7448   3.772   3.323   6.884
 2183SOL    HW2 7449   3.669   3.442   6.844
 2184SOL     OW 7450   6.411   1.884   6.792
 2184SOL    HW1 7451   6.372   1.884   6.700
 2184SOL    HW2 7452   6.508   1.858   6.788
 2185SOL     OW 7453   0.430   1.077   6.202
 2185SOL    HW1 7454   0.441   0.985   6.165
 2185SOL    HW2 7455   0.409   1.140   6.128
 2186SOL     OW 7456   6.798   6.484   5.324
 2186SOL    HW1 7457   6.842   6.396   5.304
 2186SOL    HW2 7458   6.779   6.490   5.422
 2187SOL     OW 7459   5.925   4.144   1.857
 2187SOL    HW1 7460   5.956   4.049   1.846
 2187SOL    HW2 7461   5.831   4.153   1.822
 2188SOL     OW 7462   3.093   1.522   1.439
 2188SOL    HW1 7463   3.007   1.471   1.443
 2188SOL    HW2 7464   3.142   1.497   1.356
 2189SOL     OW 7465   2.294   0.945   2.379
 2189SOL    HW1 7466   2.222   0.906   2.436
 2189SOL    HW2 7467   2.258   1.024   2.329
 2190SOL     OW 7468   6.630   4.907   1.770
 2190SOL    HW1 7469   6.538   4.900   1.732
 2190SOL    HW2 7470   6.683   4.827   1.743
 2191SOL     OW 7471   3.469   6.916   6.742
 2191SOL    HW1 7472   3.402   6.989   6.755
 2191SOL    HW2 7473   3.424   6.836   6.704
 2192SOL     OW 7474   4.862   2.421   1.905
 2192SOL    HW1 7475   4.931   2.447   1.838
 2192SOL    HW2 7476   4.776   2.468   1.884
 2193SOL     OW 7477   1.666   0.418   5.404
 2193SOL    HW1 7478   1.749   0.430   5.349
 2193SOL    HW2 7479   1.657   0.495   5.467
 2194SOL     OW 7480   0.929   4.456   5.894
 2194SOL    HW1 7481   1.007   4.477   5.952
 2194SOL    HW2 7482   0.877   4.539   5.876
 2195SOL     OW 7483   0.108   4.359   5.581
 2195SOL    HW1 7484   0.008   4.368   5.573
 2195SOL    HW2 7485   0.131   4.268   5.613
 2196SOL     OW 7486   4.192   1.564   6.644
 2196SOL    HW1 7487   4.131   1.487   6.626
 2196SOL    HW2 7488   4.287   1.537   6.626
 2197SOL     OW 7489   4.269   5.357   6.614
 2197SOL    HW1 7490   4.197   5.382   6.549
 2197SOL    HW2 7491   4.271   5.258   6.626
 2198SOL     OW 7492   1.468   1.059   5.987
 2198SOL    HW1 7493   1.500   1.078   5.894
 2198SOL    HW2 7494   1.521   0.983   6.025
 2199SOL     OW 7495   4.168   6.770   3.776
 2199SOL    HW1 7496   4.220   6.699   3.728
 2199SOL    HW2 7497   4.216   6.857   3.767
 2200SOL     OW 7498   2.476   2.035   4.653
 2200SOL    HW1 7499   2.411   1.970   4.612
 2200SOL    HW2 7500   2.428   2.120   4.676
 2201SOL     OW 7501   6.238   3.233   4.759
 2201SOL    HW1 7502   6.319   3.174   4.765
 2201SOL    HW2 7503   6.156   3.177   4.768
 2202SOL     OW 7504   4.344   0.085   4.660
 2202SOL    HW1 7505   4.410   0.155   4.686
 2202SOL    HW2 7506   4.358   0.059   4.564
 2203SOL     OW 7507   2.182   6.318   1.197
 2203SOL    HW1 7508   2.226   6.377   1.265
 2203SOL    HW2 7509   2.173   6.368   1.111
 2204SOL     OW 7510   4.948   2.887   0.662
 2204SOL    HW1 7511   5.020   2.829   0.698
 2204SOL    HW2 7512   4.943   2.972   0.714
 2205SOL     OW 7513   5.027   5.791   1.060
 2205SOL    HW1 7514   5.123   5.817   1.066
 2205SOL    HW2 7515   5.013   5.706   1.110
 2206SOL     OW 7516   3.567   2.977   5.357
 2206SOL    HW1 7517   3.527   2.887   5.343
 2206SOL    HW2 7518   3.665   2.973   5.339
 2207SOL     OW 7519   4.439   4.836   1.467
 2207SOL    HW1 7520   4.475   4.753   1.509
 2207SOL    HW2 7521   4.413   4.817   1.373
 2208SOL     OW 7522   6.670   6.501   3.101
 2208SOL    HW1 7523   6.755   6.555   3.094
 2208SOL    HW2 7524   6.625   6.522   3.188
 2209SOL     OW 7525   2.547   5.654   3.909
 2209SOL    HW1 7526   2.528   5.741   3.864
 2209SOL    HW2 7527   2.583   5.671   4.001
 2210SOL     OW 7528   5.211   6.440   2.184
 2210SOL    HW1 7529   5.175   6.485   2.102
 2210SOL    HW2 7530   5.157   6.358   2.204
 2211SOL     OW 7531   1.673   0.641   1.696
 2211SOL    HW1 7532   1.600   0.705   1.672
 2211SOL    HW2 7533   1.748   0.690   1.741
 2212SOL     OW 7534   3.129   6.231   6.449
 2212SOL    HW1 7535   3.029   6.219   6.456
 2212SOL    HW2 7536   3.149   6.321   6.413
 2213SOL     OW 7537   3.194   1.504   4.453
 2213SOL    HW1 7538   3.259   1.470   4.385
 2213SOL    HW2 7539   3.239   1.571   4.512
 2214SOL     OW 7540   4.245   4.788   6.569
 2214SOL    HW1 7541   4.298   4.747   6.643
 2214SOL    HW2 7542   4.148   4.768   6.582
 2215SOL     OW 7543   6.240   5.416   6.224
 2215SOL    HW1 7544   6.269   5.405   6.129
 2215SOL    HW2 7545   6.316   5.453   6.278
 2216SOL     OW 7546   0.219   6.403   6.949
 2216SOL    HW1 7547   0.235   6.386   6.852
 2216SOL    HW2 7548   0.257   6.328   7.003
 2217SOL     OW 7549   4.009   1.346   3.404
 2217SOL    HW1 7550   3.954   1.273   3.444
 2217SOL    HW2 7551   4.018   1.421   3.470
 2218SOL     OW 7552   6.173   5.667   5.749
 2218SOL    HW1 7553   6.141   5.717   5.829
 2218SOL    HW2 7554   6.255   5.711   5.711
 2219SOL     OW 7555   5.427   2.098   0.277
 2219SOL    HW1 7556   5.367   2.178   0.281
 2219SOL    HW2 7557   5.491   2.109   0.201
 2220SOL     OW 7558   6.724   6.548   4.373
 2220SOL    HW1 7559   6.755   6.459   4.339
 2220SOL    HW2 7560   6.734   6.616   4.301
 2221SOL     OW 7561   4.854   0.315   4.023
 2221SOL    HW1 7562   4.842   0.322   3.924
 2221SOL    HW2 7563   4.939   0.359   4.050
 2222SOL     OW 7564   3.392   0.857   4.089
 2222SOL    HW1 7565   3.383   0.927   4.018
 2222SOL    HW2 7566   3.437   0.896   4.169
 2223SOL     OW 7567   0.777   0.029   5.312
 2223SOL    HW1 7568   0.747   0.024   5.407
 2223SOL    HW2 7569   0.846   0.100   5.302
 2224SOL     OW 7570   5.421   4.363   6.787
 2224SOL    HW1 7571   5.347   4.363   6.854
 2224SOL    HW2 7572   5.399   4.427   6.713
 2225SOL     OW 7573   6.349   0.791   0.486
 2225SOL    HW1 7574   6.417   0.772   0.416
 2225SOL    HW2 7575   6.257   0.782   0.447
 2226SOL     OW 7576   2.959   3.351   6.895
 2226SOL    HW1 7577   3.014   3.369   6.976
 2226SOL    HW2 7578   3.019   3.345   6.814
 2227SOL     OW 7579   4.488   1.555   1.620
 2227SOL    HW1 7580   4.476   1.458   1.599
 2227SOL    HW2 7581   4.419   1.584   1.687
 2228SOL     OW 7582   4.955   6.701   6.425
 2228SOL    HW1 7583   4.983   6.605   6.438
 2228SOL    HW2 7584   4.939   6.718   6.328
 2229SOL     OW 7585   3.407   2.951   4.447
 2229SOL    HW1 7586   3.411   2.974   4.349
 2229SOL    HW2 7587   3.313   2.963   4.479
 2230SOL     OW 7588   6.631   1.241   6.300
 2230SOL    HW1 7589   6.621   1.313   6.231
 2230SOL    HW2 7590   6.673   1.161   6.258
 2231SOL     OW 7591   1.339   0.020   6.157
 2231SOL    HW1 7592   1.297   6.997   6.079
 2231SOL    HW2 7593   1.418   0.073   6.125
 2232SOL     OW 7594   1.700   0.901   6.561
 2232SOL    HW1 7595   1.789   0.871   6.527
 2232SOL    HW2 7596   1.697   0.893   6.661
 2233SOL     OW 7597   2.718   5.920   1.312
 2233SOL    HW1 7598   2.621   5.935   1.295
 2233SOL    HW2 7599   2.729   5.857   1.389
 2234SOL     OW 7600   5.111   1.849   1.825
 2234SOL    HW1 7601   5.144   1.757   1.802
 2234SOL    HW2 7602   5.148   1.915   1.760
 2235SOL     OW 7603   1.031   2.389   3.366
 2235SOL    HW1 7604   1.113   2.333   3.381
 2235SOL    HW2 7605   1.048   2.454   3.293
 2236SOL     OW 7606   2.638   4.644   5.217
 2236SOL    HW1 7607   2.580   4.588   5.159
 2236SOL    HW2 7608   2.734   4.620   5.202
 2237SOL     OW 7609   6.053   6.704   6.182
 2237SOL    HW1 7610   6.009   6.634   6.239
 2237SOL    HW2 7611   6.025   6.691   6.086
 2238SOL     OW 7612   5.506   3.909   1.864
 2238SOL    HW1 7613   5.597   3.933   1.831
 2238SOL    HW2 7614   5.476   3.824   1.819
 2239SOL     OW 7615   3.636   0.205   3.070
 2239SOL    HW1 7616   3.597   0.293   3.042
 2239SOL    HW2 7617   3.736   0.208   3.057
 2240SOL     OW 7618   5.186   5.291   2.630
 2240SOL    HW1 7619   5.282   5.316   2.641
 2240SOL    HW2 7620   5.132   5.328   2.706
 2241SOL     OW 7621   1.008   2.048   3.150
 2241SOL    HW1 7622   1.094   2.013   3.112
 2241SOL    HW2 7623   1.010   2.148   3.150
 2242SOL     OW 7624   5.183   2.164   4.057
 2242SOL    HW1 7625   5.109   2.229   4.037
 2242SOL    HW2 7626   5.262   2.213   4.093
 2243SOL     OW 7627   2.730   0.751   0.105
 2243SOL    HW1 7628   2.638   0.715   0.091
 2243SOL    HW2 7629   2.770   0.776   0.017
 2244SOL     OW 7630   2.285   1.739   1.208
 2244SOL    HW1 7631   2.276   1.703   1.115
 2244SOL    HW2 7632   2.227   1.820   1.218
 2245SOL     OW 7633   6.886   1.042   0.563
 2245SOL    HW1 7634   6.934   1.059   0.477
 2245SOL    HW2 7635   6.794   1.080   0.558
 2246SOL     OW 7636   5.512   0.965   5.495
 2246SOL    HW1 7637   5.435   1.013   5.453
 2246SOL    HW2 7638   5.592   1.025   5.497
 2247SOL     OW 7639   3.686   3.478   1.703
 2247SOL    HW1 7640   3.773   3.441   1.735
 2247SOL    HW2 7641   3.630   3.505   1.781
 2248SOL     OW 7642   5.620   3.182   4.621
 2248SOL    HW1 7643   5.712   3.217   4.609
 2248SOL    HW2 7644   5.573   3.233   4.693
 2249SOL     OW 7645   2.511   6.178   3.350
 2249SOL    HW1 7646   2.517   6.260   3.293
 2249SOL    HW2 7647   2.416   6.161   3.375
 2250SOL     OW 7648   4.425   5.962   6.016
 2250SOL    HW1 7649   4.368   5.991   5.939
 2250SOL    HW2 7650   4.497   5.901   5.983
 2251SOL     OW 7651   3.793   6.659   4.700
 2251SOL    HW1 7652   3.736   6.737   4.673
 2251SOL    HW2 7653   3.745   6.574   4.680
 2252SOL     OW 7654   3.741   1.157   2.403
 2252SOL    HW1 7655   3.783   1.237   2.362
 2252SOL    HW2 7656   3.808   1.082   2.406
 2253SOL     OW 7657   1.538   2.947   1.750
 2253SOL    HW1 7658   1.451   2.968   1.707
 2253SOL    HW2 7659   1.613   2.982   1.693
 2254SOL     OW 7660   3.202   2.987   2.816
 2254SOL    HW1 7661   3.165   3.011   2.906
 2254SOL    HW2 7662   3.149   3.034   2.745
 2255SOL     OW 7663   1.381   2.052   6.244
 2255SOL    HW1 7664   1.336   2.064   6.333
 2255SOL    HW2 7665   1.343   1.973   6.197
 2256SOL     OW 7666   4.926   0.118   1.206
 2256SOL    HW1 7667   4.876   0.181   1.265
 2256SOL    HW2 7668   4.923   0.150   1.112
 2257SOL     OW 7669   0.466   0.603   6.325
 2257SOL    HW1 7670   0.393   0.653   6.373
 2257SOL    HW2 7671   0.541   0.585   6.389
 2258SOL     OW 7672   2.511   0.282   3.308
 2258SOL    HW1 7673   2.451   0.211   3.272
 2258SOL    HW2 7674   2.458   0.346   3.364
 2259SOL     OW 7675   6.102   0.431   5.499
 2259SOL    HW1 7676   6.160   0.416   5.419
 2259SOL    HW2 7677   6.126   0.519   5.541
 2260SOL     OW 7678   1.188   4.005   1.392
 2260SOL    HW1 7679   1.167   3.913   1.360
 2260SOL    HW2 7680   1.116   4.068   1.360
 2261SOL     OW 7681   4.699   4.504   6.720
 2261SOL    HW1 7682   4.760   4.579   6.694
 2261SOL    HW2 7683   4.604   4.531   6.702
 2262SOL     OW 7684   6.352   0.453   3.797
 2262SOL    HW1 7685   6.317   0.392   3.868
 2262SOL    HW2 7686   6.344   0.409   3.708
 2263SOL     OW 7687   2.516   4.393   6.717
 2263SOL    HW1 7688   2.482   4.431   6.631
 2263SOL    HW2 7689   2.614   4.375   6.708
 2264SOL     OW 7690   2.046   0.566   6.766
 2264SOL    HW1 7691   2.019   0.658   6.737
 2264SOL    HW2 7692   2.088   0.571   6.856
 2265SOL     OW 7693   0.508   6.361   3.523
 2265SOL    HW1 7694   0.455   6.434   3.564
 2265SOL    HW2 7695   0.604   6.370   3.550
 2266SOL     OW 7696   4.614   4.065   6.981
 2266SOL    HW1 7697   4.639   3.996   0.027
 2266SOL    HW2 7698   4.519   4.092   6.994
 2267SOL     OW 7699   5.609   2.992   4.812
 2267SOL    HW1 7700   5.632   3.072   4.755
 2267SOL    HW2 7701   5.680   2.923   4.802
 2268SOL     OW 7702   0.857   6.013   4.695
 2268SOL    HW1 7703   0.840   6.061   4.781
 2268SOL    HW2 7704   0.833   5.917   4.705
 2269SOL     OW 7705   1.858   2.504   5.365
 2269SOL    HW1 7706   1.907   2.433   5.315
 2269SOL    HW2 7707   1.906   2.526   5.449
 2270SOL     OW 7708   4.614   1.567   6.059
 2270SOL    HW1 7709   4.714   1.569   6.051
 2270SOL    HW2 7710   4.574   1.555   5.969
 2271SOL     OW 7711   4.028   5.713   5.246
 2271SOL    HW1 7712   3.946   5.676   5.204
 2271SOL    HW2 7713   4.019   5.711   5.346
 2272SOL     OW 7714   5.972   0.635   6.469
 2272SOL    HW1 7715   6.015   0.546   6.482
 2272SOL    HW2 7716   5.996   0.696   6.545
 2273SOL     OW 7717   1.341   2.275   4.234
 2273SOL    HW1 7718   1.392   2.244   4.154
 2273SOL    HW2 7719   1.393   2.253   4.317
 2274SOL     OW 7720   1.469   1.127   6.731
 2274SOL    HW1 7721   1.558   1.148   6.772
 2274SOL    HW2 7722   1.482   1.067   6.653
 2275SOL     OW 7723   5.573   3.432   3.197
 2275SOL    HW1 7724   5.547   3.466   3.288
 2275SOL    HW2 7725   5.610   3.339   3.205
 2276SOL     OW 7726   1.930   1.931   1.493
 2276SOL    HW1 7727   1.930   1.937   1.593
 2276SOL    HW2 7728   1.924   1.834   1.466
 2277SOL     OW 7729   3.786   2.938   3.281
 2277SOL    HW1 7730   3.828   3.019   3.240
 2277SOL    HW2 7731   3.705   2.912   3.229
 2278SOL     OW 7732   6.777   3.498   3.803
 2278SOL    HW1 7733   6.783   3.595   3.827
 2278SOL    HW2 7734   6.806   3.442   3.880
 2279SOL     OW 7735   0.680   5.186   5.615
 2279SOL    HW1 7736   0.720   5.242   5.543
 2279SOL    HW2 7737   0.734   5.196   5.699
 2280SOL     OW 7738   4.881   2.640   5.557
 2280SOL    HW1 7739   4.898   2.554   5.509
 2280SOL    HW2 7740   4.966   2.671   5.600
 2281SOL     OW 7741   5.089   6.860   2.332
 2281SOL    HW1 7742   5.125   6.933   2.273
 2281SOL    HW2 7743   5.147   6.779   2.325
 2282SOL     OW 7744   3.465   5.106   6.000
 2282SOL    HW1 7745   3.395   5.086   5.932
 2282SOL    HW2 7746   3.453   5.045   6.078
 2283SOL     OW 7747   6.842   1.029   5.109
 2283SOL    HW1 7748   6.790   1.083   5.175
 2283SOL    HW2 7749   6.899   0.963   5.158
 2284SOL     OW 7750   1.473   3.621   6.319
 2284SOL    HW1 7751   1.567   3.654   6.324
 2284SOL    HW2 7752   1.460   3.546   6.384
 2285SOL     OW 7753   1.471   5.099   6.549
 2285SOL    HW1 7754   1.522   5.104   6.463
 2285SOL    HW2 7755   1.530   5.064   6.621
 2286SOL     OW 7756   4.718   4.285   2.461
 2286SOL    HW1 7757   4.652   4.300   2.535
 2286SOL    HW2 7758   4.796   4.347   2.473
 2287SOL     OW 7759   1.625   1.310   4.167
 2287SOL    HW1 7760   1.669   1.400   4.162
 2287SOL    HW2 7761   1.695   1.241   4.188
 2288SOL     OW 7762   6.393   5.160   3.230
 2288SOL    HW1 7763   6.491   5.142   3.237
 2288SOL    HW2 7764   6.344   5.107   3.299
 2289SOL     OW 7765   0.292   4.922   0.129
 2289SOL    HW1 7766   0.259   4.972   0.049
 2289SOL    HW2 7767   0.389   4.939   0.141
 2290SOL     OW 7768   0.895   5.403   6.952
 2290SOL    HW1 7769   0.896   5.381   6.854
 2290SOL    HW2 7770   0.989   5.412   6.984
 2291SOL     OW 7771   1.909   1.739   6.675
 2291SOL    HW1 7772   1.857   1.737   6.589
 2291SOL    HW2 7773   1.973   1.662   6.677
 2292SOL     OW 7774   2.240   0.929   4.376
 2292SOL    HW1 7775   2.244   1.019   4.418
 2292SOL    HW2 7776   2.229   0.859   4.448
 2293SOL     OW 7777   5.207   4.165   3.097
 2293SOL    HW1 7778   5.145   4.128   3.166
 2293SOL    HW2 7779   5.199   4.264   3.095
 2294SOL     OW 7780   3.798   6.778   0.004
 2294SOL    HW1 7781   3.777   6.795   6.930
 2294SOL    HW2 7782   3.734   6.713   0.042
 2295SOL     OW 7783   1.029   0.762   2.012
 2295SOL    HW1 7784   0.969   0.770   1.932
 2295SOL    HW2 7785   0.975   0.778   2.095
 2296SOL     OW 7786   2.862   6.307   0.276
 2296SOL    HW1 7787   2.804   6.386   0.255
 2296SOL    HW2 7788   2.948   6.315   0.226
 2297SOL     OW 7789   4.196   6.285   6.423
 2297SOL    HW1 7790   4.224   6.235   6.341
 2297SOL    HW2 7791   4.192   6.221   6.500
 2298SOL     OW 7792   4.483   3.186   6.628
 2298SOL    HW1 7793   4.562   3.130   6.603
 2298SOL    HW2 7794   4.511   3.255   6.694
 2299SOL     OW 7795   4.425   0.128   1.274
 2299SOL    HW1 7796   4.442   0.062   1.200
 2299SOL    HW2 7797   4.498   0.196   1.275
 2300SOL     OW 7798   0.856   5.181   1.076
 2300SOL    HW1 7799   0.944   5.137   1.063
 2300SOL    HW2 7800   0.786   5.133   1.022
 2301SOL     OW 7801   3.529   3.251   1.751
 2301SOL    HW1 7802   3.580   3.166   1.771
 2301SOL    HW2 7803   3.593   3.321   1.719
 2302SOL     OW 7804   2.653   5.349   2.671
 2302SOL    HW1 7805   2.690   5.318   2.759
 2302SOL    HW2 7806   2.675   5.446   2.658
 2303SOL     OW 7807   0.209   3.505   6.364
 2303SOL    HW1 7808   0.281   3.571   6.385
 2303SOL    HW2 7809   0.145   3.500   6.440
 2304SOL     OW 7810   1.822   1.274   4.687
 2304SOL    HW1 7811   1.792   1.217   4.611
 2304SOL    HW2 7812   1.903   1.232   4.729
 2305SOL     OW 7813   4.274   4.937   1.685
 2305SOL    HW1 7814   4.257   5.032   1.661
 2305SOL    HW2 7815   4.340   4.897   1.620
 2306SOL     OW 7816   0.287   4.386   0.211
 2306SOL    HW1 7817   0.316   4.468   0.163
 2306SOL    HW2 7818   0.188   4.379   0.210
 2307SOL     OW 7819   0.146   0.706   3.025
 2307SOL    HW1 7820   0.138   0.610   3.000
 2307SOL    HW2 7821   0.206   0.715   3.105
 2308SOL     OW 7822   1.224   6.993   0.082
 2308SOL    HW1 7823   1.127   6.980   0.098
 2308SOL    HW2 7824   1.273   6.993   0.170
 2309SOL     OW 7825   2.128   5.039   6.423
 2309SOL    HW1 7826   2.100   4.996   6.509
 2309SOL    HW2 7827   2.073   5.003   6.348
 2310SOL     OW 7828   5.339   1.476   3.208
 2310SOL    HW1 7829   5.292   1.540   3.147
 2310SOL    HW2 7830   5.420   1.439   3.161
 2311SOL     OW 7831   2.709   6.986   2.839
 2311SOL    HW1 7832   2.729   0.005   2.928
 2311SOL    HW2 7833   2.794   6.977   2.788
 2312SOL     OW 7834   2.436   1.293   2.536
 2312SOL    HW1 7835   2.473   1.217   2.482
 2312SOL    HW2 7836   2.483   1.297   2.623
 2313SOL     OW 7837   4.838   4.702   1.772
 2313SOL    HW1 7838   4.875   4.611   1.755
 2313SOL    HW2 7839   4.873   4.766   1.704
 2314SOL     OW 7840   6.347   5.874   3.279
 2314SOL    HW1 7841   6.383   5.912   3.194
 2314SOL    HW2 7842   6.338   5.774   3.269
 2315SOL     OW 7843   4.994   6.510   5.197
 2315SOL    HW1 7844   5.011   6.497   5.099
 2315SOL    HW2 7845   5.021   6.428   5.247
 2316SOL     OW 7846   3.714   1.823   5.946
 2316SOL    HW1 7847   3.704   1.764   5.866
 2316SOL    HW2 7848   3.748   1.770   6.023
 2317SOL     OW 7849   0.036   4.967   2.573
 2317SOL    HW1 7850   0.135   4.963   2.565
 2317SOL    HW2 7851   0.010   4.944   2.667
 2318SOL     OW 7852   1.300   4.499   3.993
 2318SOL    HW1 7853   1.208   4.465   4.011
 2318SOL    HW2 7854   1.325   4.481   3.898
 2319SOL     OW 7855   2.490   5.784   2.900
 2319SOL    HW1 7856   2.474   5.833   2.986
 2319SOL    HW2 7857   2.524   5.848   2.831
 2320SOL     OW 7858   0.848   1.811   5.221
 2320SOL    HW1 7859   0.793   1.838   5.142
 2320SOL    HW2 7860   0.915   1.882   5.241
 2321SOL     OW 7861   1.969   5.124   5.238
 2321SOL    HW1 7862   1.954   5.095   5.143
 2321SOL    HW2 7863   1.986   5.044   5.295
 2322SOL     OW 7864   1.996   3.979   1.865
 2322SOL    HW1 7865   2.094   3.962   1.857
 2322SOL    HW2 7866   1.947   3.892   1.871
 2323SOL     OW 7867   2.800   5.882   0.389
 2323SOL    HW1 7868   2.835   5.842   0.473
 2323SOL    HW2 7869   2.777   5.809   0.324
 2324SOL     OW 7870   6.505   5.037   2.647
 2324SOL    HW1 7871   6.593   5.002   2.679
 2324SOL    HW2 7872   6.490   5.008   2.553
 2325SOL     OW 7873   6.575   4.522   2.894
 2325SOL    HW1 7874   6.546   4.458   2.965
 2325SOL    HW2 7875   6.524   4.607   2.902
 2326SOL     OW 7876   2.055   0.086   0.089
 2326SOL    HW1 7877   2.116   0.163   0.113
 2326SOL    HW2 7878   1.987   0.117   0.022
 2327SOL     OW 7879   6.181   6.313   1.900
 2327SOL    HW1 7880   6.175   6.364   1.986
 2327SOL    HW2 7881   6.126   6.359   1.830
 2328SOL     OW 7882   2.074   3.597   2.454
 2328SOL    HW1 7883   2.032   3.565   2.538
 2328SOL    HW2 7884   2.147   3.534   2.427
 2329SOL     OW 7885   0.625   4.676   2.699
 2329SOL    HW1 7886   0.722   4.658   2.715
 2329SOL    HW2 7887   0.583   4.598   2.653
 2330SOL     OW 7888   6.240   2.974   1.445
 2330SOL    HW1 7889   6.249   3.019   1.533
 2330SOL    HW2 7890   6.212   2.879   1.458
 2331SOL     OW 7891   4.991   5.608   1.331
 2331SOL    HW1 7892   4.959   5.518   1.304
 2331SOL    HW2 7893   5.088   5.603   1.355
 2332SOL     OW 7894   6.211   0.039   6.104
 2332SOL    HW1 7895   6.117   0.038   6.137
 2332SOL    HW2 7896   6.219   7.001   6.025
 2333SOL     OW 7897   1.375   4.532   2.673
 2333SOL    HW1 7898   1.327   4.542   2.587
 2333SOL    HW2 7899   1.469   4.502   2.656
 2334SOL     OW 7900   3.387   1.307   6.435
 2334SOL    HW1 7901   3.415   1.254   6.355
 2334SOL    HW2 7902   3.379   1.403   6.410
 2335SOL     OW 7903   6.555   1.181   3.669
 2335SOL    HW1 7904   6.483   1.175   3.600
 2335SOL    HW2 7905   6.532   1.252   3.736
 2336SOL     OW 7906   1.831   1.678   3.465
 2336SOL    HW1 7907   1.798   1.595   3.420
 2336SOL    HW2 7908   1.930   1.671   3.478
 2337SOL     OW 7909   3.977   1.003   1.815
 2337SOL    HW1 7910   3.892   1.053   1.800
 2337SOL    HW2 7911   3.966   0.909   1.785
 2338SOL     OW 7912   6.672   3.918   3.663
 2338SOL    HW1 7913   6.646   3.859   3.739
 2338SOL    HW2 7914   6.754   3.882   3.619
 2339SOL     OW 7915   3.427   2.845   2.860
 2339SOL    HW1 7916   3.417   2.749   2.885
 2339SOL    HW2 7917   3.337   2.882   2.837
 2340SOL     OW 7918   2.060   3.667   0.064
 2340SOL    HW1 7919   2.082   3.588   0.121
 2340SOL    HW2 7920   2.008   3.733   0.119
 2341SOL     OW 7921   2.903   4.773   4.171
 2341SOL    HW1 7922   2.837   4.740   4.239
 2341SOL    HW2 7923   2.861   4.771   4.080
 2342SOL     OW 7924   3.777   0.977   4.532
 2342SOL    HW1 7925   3.733   1.064   4.553
 2342SOL    HW2 7926   3.801   0.930   4.617
 2343SOL     OW 7927   0.097   0.127   0.933
 2343SOL    HW1 7928   0.174   0.066   0.916
 2343SOL    HW2 7929   0.021   0.075   0.972
 2344SOL     OW 7930   5.928   4.615   0.024
 2344SOL    HW1 7931   5.952   4.567   0.108
 2344SOL    HW2 7932   5.902   4.709   0.045
 2345SOL     OW 7933   3.650   6.416   4.643
 2345SOL    HW1 7934   3.714   6.341   4.660
 2345SOL    HW2 7935   3.589   6.392   4.568
 2346SOL     OW 7936   5.037   3.568   0.578
 2346SOL    HW1 7937   4.952   3.568   0.525
 2346SOL    HW2 7938   5.089   3.484   0.558
 2347SOL     OW 7939   1.415   1.151   1.618
 2347SOL    HW1 7940   1.405   1.148   1.519
 2347SOL    HW2 7941   1.491   1.093   1.646
 2348SOL     OW 7942   0.269   5.606   2.664
 2348SOL    HW1 7943   0.175   5.621   2.694
 2348SOL    HW2 7944   0.331   5.666   2.715
 2349SOL     OW 7945   0.825   4.532   4.801
 2349SOL    HW1 7946   0.863   4.537   4.894
 2349SOL    HW2 7947   0.785   4.620   4.776
 2350SOL     OW 7948   5.411   4.019   0.328
 2350SOL    HW1 7949   5.328   4.060   0.366
 2350SOL    HW2 7950   5.443   4.074   0.250
 2351SOL     OW 7951   2.329   6.074   1.660
 2351SOL    HW1 7952   2.404   6.140   1.652
 2351SOL    HW2 7953   2.248   6.109   1.613
 2352SOL     OW 7954   6.781   2.575   3.316
 2352SOL    HW1 7955   6.758   2.513   3.242
 2352SOL    HW2 7956   6.711   2.647   3.321
 2353SOL     OW 7957   2.888   5.642   4.098
 2353SOL    HW1 7958   2.926   5.553   4.123
 2353SOL    HW2 7959   2.796   5.650   4.135
 2354SOL     OW 7960   2.515   2.569   3.545
 2354SOL    HW1 7961   2.576   2.492   3.564
 2354SOL    HW2 7962   2.512   2.629   3.625
 2355SOL     OW 7963   2.313   5.480   4.645
 2355SOL    HW1 7964   2.322   5.396   4.591
 2355SOL    HW2 7965   2.327   5.559   4.586
 2356SOL     OW 7966   6.981   2.545   0.044
 2356SOL    HW1 7967   6.893   2.540   7.019
 2356SOL    HW2 7968   0.032   2.556   6.999
 2357SOL     OW 7969   2.155   6.861   2.808
 2357SOL    HW1 7970   2.144   6.774   2.855
 2357SOL    HW2 7971   2.186   6.845   2.715
 2358SOL     OW 7972   4.509   5.366   5.941
 2358SOL    HW1 7973   4.607   5.374   5.957
 2358SOL    HW2 7974   4.468   5.458   5.943
 2359SOL     OW 7975   1.913   0.301   4.983
 2359SOL    HW1 7976   1.914   0.338   5.077
 2359SOL    HW2 7977   1.984   0.232   4.974
 2360SOL     OW 7978   6.547   3.749   0.152
 2360SOL    HW1 7979   6.533   3.650   0.145
 2360SOL    HW2 7980   6.598   3.782   0.073
 2361SOL     OW 7981   3.849   1.219   0.398
 2361SOL    HW1 7982   3.795   1.271   0.332
 2361SOL    HW2 7983   3.797   1.207   0.482
 2362SOL     OW 7984   2.702   5.616   3.112
 2362SOL    HW1 7985   2.618   5.564   3.094
 2362SOL    HW2 7986   2.701   5.650   3.206
 2363SOL     OW 7987   4.079   0.764   3.970
 2363SOL    HW1 7988   4.166   0.718   3.954
 2363SOL    HW2 7989   4.005   0.697   3.969
 2364SOL     OW 7990   1.291   2.769   1.408
 2364SOL    HW1 7991   1.304   2.785   1.310
 2364SOL    HW2 7992   1.203   2.725   1.423
 2365SOL     OW 7993   4.948   1.974   0.433
 2365SOL    HW1 7994   4.962   2.022   0.347
 2365SOL    HW2 7995   4.907   2.037   0.500
 2366SOL     OW 7996   4.516   5.400   0.736
 2366SOL    HW1 7997   4.541   5.314   0.692
 2366SOL    HW2 7998   4.454   5.382   0.812
 2367SOL     OW 7999   2.097   3.514   6.032
 2367SOL    HW1 8000   2.158   3.516   5.953
 2367SOL    HW2 8001   2.003   3.496   6.001
 2368SOL     OW 8002   5.872   6.378   1.802
 2368SOL    HW1 8003   5.911   6.361   1.711
 2368SOL    HW2 8004   5.904   6.467   1.835
 2369SOL     OW 8005   2.330   1.507   3.214
 2369SOL    HW1 8006   2.394   1.525   3.139
 2369SOL    HW2 8007   2.357   1.560   3.294
 2370SOL     OW 8008   6.129   2.611   6.192
 2370SOL    HW1 8009   6.197   2.683   6.180
 2370SOL    HW2 8010   6.037   2.649   6.182
 2371SOL     OW 8011   1.749   5.956   1.886
 2371SOL    HW1 8012   1.684   5.881   1.886
 2371SOL    HW2 8013   1.805   5.952   1.803
 2372SOL     OW 8014   6.295   2.757   2.833
 2372SOL    HW1 8015   6.291   2.857   2.834
 2372SOL    HW2 8016   6.389   2.727   2.847
 2373SOL     OW 8017   2.407   3.504   6.356
 2373SOL    HW1 8018   2.464   3.477   6.278
 2373SOL    HW2 8019   2.388   3.602   6.350
 2374SOL     OW 8020   5.493   2.431   4.770
 2374SOL    HW1 8021   5.516   2.349   4.823
 2374SOL    HW2 8022   5.456   2.501   4.831
 2375SOL     OW 8023   1.269   6.810   5.943
 2375SOL    HW1 8024   1.289   6.759   5.860
 2375SOL    HW2 8025   1.170   6.814   5.957
 2376SOL     OW 8026   0.155   2.379   4.004
 2376SOL    HW1 8027   0.182   2.290   4.041
 2376SOL    HW2 8028   0.229   2.445   4.020
 2377SOL     OW 8029   3.331   2.887   3.849
 2377SOL    HW1 8030   3.421   2.905   3.809
 2377SOL    HW2 8031   3.301   2.796   3.822
 2378SOL     OW 8032   5.285   2.119   0.736
 2378SOL    HW1 8033   5.254   2.110   0.831
 2378SOL    HW2 8034   5.368   2.175   0.734
 2379SOL     OW 8035   6.725   6.701   6.255
 2379SOL    HW1 8036   6.658   6.662   6.318
 2379SOL    HW2 8037   6.808   6.724   6.304
 2380SOL     OW 8038   6.387   2.057   2.784
 2380SOL    HW1 8039   6.296   2.036   2.819
 2380SOL    HW2 8040   6.383   2.142   2.731
 2381SOL     OW 8041   1.862   6.088   2.571
 2381SOL    HW1 8042   1.887   6.029   2.495
 2381SOL    HW2 8043   1.936   6.088   2.639
 2382SOL     OW 8044   1.506   3.200   5.687
 2382SOL    HW1 8045   1.467   3.109   5.706
 2382SOL    HW2 8046   1.574   3.222   5.757
 2383SOL     OW 8047   5.964   5.515   1.915
 2383SOL    HW1 8048   5.942   5.600   1.964
 2383SOL    HW2 8049   5.984   5.443   1.981
 2384SOL     OW 8050   4.118   1.374   1.516
 2384SOL    HW1 8051   4.156   1.439   1.451
 2384SOL    HW2 8052   4.030   1.341   1.483
 2385SOL     OW 8053   1.374   2.471   7.004
 2385SOL    HW1 8054   1.295   2.410   6.994
 2385SOL    HW2 8055   1.427   2.472   6.919
 2386SOL     OW 8056   4.427   4.740   3.827
 2386SOL    HW1 8057   4.392   4.753   3.734
 2386SOL    HW2 8058   4.421   4.644   3.852
 2387SOL     OW 8059   1.240   1.495   2.821
 2387SOL    HW1 8060   1.284   1.521   2.906
 2387SOL    HW2 8061   1.309   1.472   2.753
 2388SOL     OW 8062   0.089   1.618   3.950
 2388SOL    HW1 8063   0.145   1.611   3.868
 2388SOL    HW2 8064   0.132   1.680   4.016
 2389SOL     OW 8065   3.438   6.429   2.514
 2389SOL    HW1 8066   3.425   6.330   2.521
 2389SOL    HW2 8067   3.534   6.450   2.499
 2390SOL     OW 8068   3.243   4.645   1.173
 2390SOL    HW1 8069   3.299   4.676   1.250
 2390SOL    HW2 8070   3.149   4.632   1.204
 2391SOL     OW 8071   4.278   5.266   4.473
 2391SOL    HW1 8072   4.330   5.278   4.558
 2391SOL    HW2 8073   4.336   5.223   4.404
 2392SOL     OW 8074   4.097   1.308   6.641
 2392SOL    HW1 8075   4.005   1.269   6.637
 2392SOL    HW2 8076   4.160   1.241   6.681
 2393SOL     OW 8077   3.576   5.026   5.254
 2393SOL    HW1 8078   3.624   5.063   5.334
 2393SOL    HW2 8079   3.508   4.958   5.285
 2394SOL     OW 8080   6.932   4.841   5.828
 2394SOL    HW1 8081   6.943   4.939   5.812
 2394SOL    HW2 8082   6.980   4.790   5.756
 2395SOL     OW 8083   4.463   6.284   6.637
 2395SOL    HW1 8084   4.489   6.318   6.546
 2395SOL    HW2 8085   4.417   6.196   6.628
 2396SOL     OW 8086   2.795   5.637   1.355
 2396SOL    HW1 8087   2.771   5.620   1.451
 2396SOL    HW2 8088   2.873   5.700   1.351
 2397SOL     OW 8089   0.460   3.358   4.395
 2397SOL    HW1 8090   0.512   3.365   4.480
 2397SOL    HW2 8091   0.425   3.448   4.370
 2398SOL     OW 8092   4.762   3.619   5.445
 2398SOL    HW1 8093   4.855   3.587   5.427
 2398SOL    HW2 8094   4.703   3.600   5.366
 2399SOL     OW 8095   4.663   2.315   1.589
 2399SOL    HW1 8096   4.614   2.339   1.673
 2399SOL    HW2 8097   4.748   2.267   1.612
 2400SOL     OW 8098   1.731   5.046   0.302
 2400SOL    HW1 8099   1.814   5.100   0.313
 2400SOL    HW2 8100   1.747   4.972   0.238
 2401SOL     OW 8101   6.260   5.726   6.547
 2401SOL    HW1 8102   6.232   5.817   6.579
 2401SOL    HW2 8103   6.311   5.735   6.461
 2402SOL     OW 8104   6.736   6.685   4.120
 2402SOL    HW1 8105   6.738   6.659   4.024
 2402SOL    HW2 8106   6.813   6.746   4.139
 2403SOL     OW 8107   1.218   1.113   3.828
 2403SOL    HW1 8108   1.295   1.133   3.888
 2403SOL    HW2 8109   1.191   1.017   3.838
 2404SOL     OW 8110   1.458   0.183   6.718
 2404SOL    HW1 8111   1.380   0.167   6.778
 2404SOL    HW2 8112   1.474   0.102   6.662
 2405SOL     OW 8113   3.017   4.613   1.378
 2405SOL    HW1 8114   2.947   4.610   1.307
 2405SOL    HW2 8115   2.976   4.642   1.465
 2406SOL     OW 8116   5.105   0.928   1.243
 2406SOL    HW1 8117   5.170   0.957   1.313
 2406SOL    HW2 8118   5.051   1.007   1.214
 2407SOL     OW 8119   5.108   6.753   3.722
 2407SOL    HW1 8120   5.034   6.793   3.668
 2407SOL    HW2 8121   5.072   6.681   3.780
 2408SOL     OW 8122   4.350   4.738   2.096
 2408SOL    HW1 8123   4.287   4.707   2.167
 2408SOL    HW2 8124   4.410   4.662   2.069
 2409SOL     OW 8125   1.151   4.426   0.605
 2409SOL    HW1 8126   1.152   4.360   0.681
 2409SOL    HW2 8127   1.204   4.390   0.528
 2410SOL     OW 8128   4.115   3.334   2.884
 2410SOL    HW1 8129   4.114   3.341   2.983
 2410SOL    HW2 8130   4.089   3.422   2.844
 2411SOL     OW 8131   3.738   0.459   4.803
 2411SOL    HW1 8132   3.648   0.446   4.761
 2411SOL    HW2 8133   3.727   0.498   4.894
 2412SOL     OW 8134   4.222   3.848   1.166
 2412SOL    HW1 8135   4.313   3.856   1.125
 2412SOL    HW2 8136   4.192   3.938   1.197
 2413SOL     OW 8137   3.909   0.302   3.085
 2413SOL    HW1 8138   3.978   0.232   3.104
 2413SOL    HW2 8139   3.913   0.373   3.155
 2414SOL     OW 8140   5.271   3.086   4.459
 2414SOL    HW1 8141   5.363   3.122   4.449
 2414SOL    HW2 8142   5.205   3.161   4.458
 2415SOL     OW 8143   4.129   0.562   3.646
 2415SOL    HW1 8144   4.049   0.564   3.706
 2415SOL    HW2 8145   4.100   0.577   3.551
 2416SOL     OW 8146   5.769   1.788   6.304
 2416SOL    HW1 8147   5.687   1.791   6.361
 2416SOL    HW2 8148   5.745   1.761   6.211
 2417SOL     OW 8149   3.469   3.931   5.225
 2417SOL    HW1 8150   3.452   4.012   5.281
 2417SOL    HW2 8151   3.555   3.889   5.254
 2418SOL     OW 8152   3.044   3.189   2.372
 2418SOL    HW1 8153   3.143   3.203   2.374
 2418SOL    HW2 8154   3.018   3.146   2.286
 2419SOL     OW 8155   6.800   0.352   3.682
 2419SOL    HW1 8156   6.776   0.417   3.754
 2419SOL    HW2 8157   6.821   0.402   3.597
 2420SOL     OW 8158   2.245   6.854   2.040
 2420SOL    HW1 8159   2.204   6.904   1.964
 2420SOL    HW2 8160   2.336   6.821   2.014
 2421SOL     OW 8161   3.688   2.083   3.111
 2421SOL    HW1 8162   3.785   2.081   3.134
 2421SOL    HW2 8163   3.677   2.071   3.012
 2422SOL     OW 8164   5.403   1.513   1.203
 2422SOL    HW1 8165   5.315   1.470   1.221
 2422SOL    HW2 8166   5.429   1.498   1.107
 2423SOL     OW 8167   1.596   4.984   2.416
 2423SOL    HW1 8168   1.570   5.069   2.371
 2423SOL    HW2 8169   1.559   4.983   2.509
 2424SOL     OW 8170   6.708   0.123   0.329
 2424SOL    HW1 8171   6.664   0.199   0.282
 2424SOL    HW2 8172   6.652   0.096   0.407
 2425SOL     OW 8173   6.918   7.000   4.454
 2425SOL    HW1 8174   6.935   6.927   4.521
 2425SOL    HW2 8175   6.834   0.026   4.478
 2426SOL     OW 8176   1.926   5.194   4.290
 2426SOL    HW1 8177   2.011   5.199   4.341
 2426SOL    HW2 8178   1.878   5.109   4.312
 2427SOL     OW 8179   6.632   0.573   5.394
 2427SOL    HW1 8180   6.690   0.529   5.463
 2427SOL    HW2 8181   6.678   0.567   5.305
 2428SOL     OW 8182   5.712   1.832   0.436
 2428SOL    HW1 8183   5.679   1.809   0.344
 2428SOL    HW2 8184   5.661   1.781   0.504
 2429SOL     OW 8185   4.567   4.940   2.581
 2429SOL    HW1 8186   4.648   4.957   2.524
 2429SOL    HW2 8187   4.592   4.881   2.658
 2430SOL     OW 8188   4.668   0.402   2.607
 2430SOL    HW1 8189   4.753   0.452   2.624
 2430SOL    HW2 8190   4.625   0.380   2.695
 2431SOL     OW 8191   4.140   6.763   2.432
 2431SOL    HW1 8192   4.152   6.862   2.422
 2431SOL    HW2 8193   4.080   6.745   2.510
 2432SOL     OW 8194   2.315   5.829   2.103
 2432SOL    HW1 8195   2.359   5.848   2.015
 2432SOL    HW2 8196   2.225   5.789   2.087
 2433SOL     OW 8197   5.144   6.732   0.608
 2433SOL    HW1 8198   5.068   6.718   0.545
 2433SOL    HW2 8199   5.108   6.753   0.699
 2434SOL     OW 8200   3.338   3.112   4.730
 2434SOL    HW1 8201   3.415   3.105   4.666
 2434SOL    HW2 8202   3.327   3.024   4.778
 2435SOL     OW 8203   5.648   6.019   6.112
 2435SOL    HW1 8204   5.633   5.924   6.082
 2435SOL    HW2 8205   5.739   6.027   6.152
 2436SOL     OW 8206   2.993   4.369   0.974
 2436SOL    HW1 8207   3.087   4.372   0.942
 2436SOL    HW2 8208   2.992   4.364   1.074
 2437SOL     OW 8209   0.147   0.738   5.798
 2437SOL    HW1 8210   0.088   0.796   5.742
 2437SOL    HW2 8211   0.110   0.733   5.891
 2438SOL     OW 8212   3.410   3.681   0.663
 2438SOL    HW1 8213   3.378   3.672   0.757
 2438SOL    HW2 8214   3.498   3.729   0.662
 2439SOL     OW 8215   5.991   4.406   6.122
 2439SOL    HW1 8216   6.019   4.363   6.208
 2439SOL    HW2 8217   5.947   4.494   6.142
 2440SOL     OW 8218   5.875   5.294   5.939
 2440SOL    HW1 8219   5.797   5.249   5.983
 2440SOL    HW2 8220   5.874   5.273   5.841
 2441SOL     OW 8221   6.609   2.345   0.711
 2441SOL    HW1 8222   6.651   2.387   0.791
 2441SOL    HW2 8223   6.654   2.379   0.628
 2442SOL     OW 8224   6.421   1.989   4.582
 2442SOL    HW1 8225   6.359   1.927   4.631
 2442SOL    HW2 8226   6.418   2.079   4.625
 2443SOL     OW 8227   2.832   4.836   6.008
 2443SOL    HW1 8228   2.784   4.777   5.944
 2443SOL    HW2 8229   2.880   4.908   5.958
 2444SOL     OW 8230   3.470   2.671   6.230
 2444SOL    HW1 8231   3.532   2.692   6.154
 2444SOL    HW2 8232   3.417   2.752   6.254
 2445SOL     OW 8233   1.218   0.230   0.955
 2445SOL    HW1 8234   1.296   0.225   0.892
 2445SOL    HW2 8235   1.227   0.311   1.012
 2446SOL     OW 8236   4.856   2.796   6.508
 2446SOL    HW1 8237   4.870   2.712   6.560
 2446SOL    HW2 8238   4.789   2.781   6.436
 2447SOL     OW 8239   1.222   3.702   6.445
 2447SOL    HW1 8240   1.191   3.694   6.350
 2447SOL    HW2 8241   1.321   3.719   6.446
 2448SOL     OW 8242   6.758   0.897   4.895
 2448SOL    HW1 8243   6.779   0.953   4.975
 2448SOL    HW2 8244   6.660   0.881   4.889
 2449SOL     OW 8245   6.832   3.022   5.460
 2449SOL    HW1 8246   6.759   3.020   5.529
 2449SOL    HW2 8247   6.834   2.934   5.412
 2450SOL     OW 8248   2.716   3.368   1.367
 2450SOL    HW1 8249   2.640   3.427   1.394
 2450SOL    HW2 8250   2.803   3.417   1.378
 2451SOL     OW 8251   1.877   6.083   3.770
 2451SOL    HW1 8252   1.935   6.098   3.849
 2451SOL    HW2 8253   1.812   6.009   3.789
 2452SOL     OW 8254   2.384   1.667   4.296
 2452SOL    HW1 8255   2.331   1.678   4.212
 2452SOL    HW2 8256   2.442   1.748   4.309
 2453SOL     OW 8257   0.089   4.202   0.677
 2453SOL    HW1 8258   0.108   4.188   0.580
 2453SOL    HW2 8259   0.051   4.119   0.717
 2454SOL     OW 8260   1.037   6.577   1.940
 2454SOL    HW1 8261   1.062   6.500   1.998
 2454SOL    HW2 8262   1.117   6.610   1.891
 2455SOL     OW 8263   5.729   3.692   1.355
 2455SOL    HW1 8264   5.691   3.710   1.446
 2455SOL    HW2 8265   5.826   3.716   1.354
 2456SOL     OW 8266   2.607   6.646   1.576
 2456SOL    HW1 8267   2.622   6.564   1.520
 2456SOL    HW2 8268   2.694   6.673   1.618
 2457SOL     OW 8269   5.318   5.570   0.780
 2457SOL    HW1 8270   5.316   5.509   0.859
 2457SOL    HW2 8271   5.231   5.564   0.731
 2458SOL     OW 8272   0.593   6.328   1.370
 2458SOL    HW1 8273   0.563   6.411   1.322
 2458SOL    HW2 8274   0.518   6.263   1.374
 2459SOL     OW 8275   1.560   1.763   0.030
 2459SOL    HW1 8276   1.648   1.763   7.005
 2459SOL    HW2 8277   1.514   1.850   0.015
 2460SOL     OW 8278   2.157   4.493   1.086
 2460SOL    HW1 8279   2.147   4.580   1.133
 2460SOL    HW2 8280   2.249   4.485   1.048
 2461SOL     OW 8281   4.472   1.353   3.295
 2461SOL    HW1 8282   4.425   1.438   3.271
 2461SOL    HW2 8283   4.565   1.373   3.326
 2462SOL     OW 8284   2.937   4.426   6.207
 2462SOL    HW1 8285   3.025   4.445   6.162
 2462SOL    HW2 8286   2.881   4.369   6.147
 2463SOL     OW 8287   1.014   3.440   5.442
 2463SOL    HW1 8288   1.079   3.364   5.448
 2463SOL    HW2 8289   1.001   3.481   5.532
 2464SOL     OW 8290   1.067   3.588   0.878
 2464SOL    HW1 8291   1.091   3.611   0.784
 2464SOL    HW2 8292   1.025   3.668   0.922
 2465SOL     OW 8293   6.065   3.686   3.162
 2465SOL    HW1 8294   6.047   3.770   3.214
 2465SOL    HW2 8295   5.978   3.645   3.134
 2466SOL     OW 8296   4.306   1.618   1.797
 2466SOL    HW1 8297   4.346   1.647   1.884
 2466SOL    HW2 8298   4.222   1.567   1.814
 2467SOL     OW 8299   1.021   1.175   4.403
 2467SOL    HW1 8300   0.960   1.098   4.384
 2467SOL    HW2 8301   1.067   1.203   4.319
 2468SOL     OW 8302   5.968   5.331   6.214
 2468SOL    HW1 8303   6.055   5.282   6.217
 2468SOL    HW2 8304   5.922   5.313   6.128
 2469SOL     OW 8305   2.663   2.196   5.921
 2469SOL    HW1 8306   2.618   2.285   5.921
 2469SOL    HW2 8307   2.623   2.138   5.992
 2470SOL     OW 8308   5.289   2.835   1.270
 2470SOL    HW1 8309   5.258   2.834   1.365
 2470SOL    HW2 8310   5.254   2.755   1.223
 2471SOL     OW 8311   0.023   1.299   3.157
 2471SOL    HW1 8312   6.961   1.348   3.176
 2471SOL    HW2 8313   0.045   1.306   3.060
 2472SOL     OW 8314   6.404   0.808   4.003
 2472SOL    HW1 8315   6.307   0.828   3.996
 2472SOL    HW2 8316   6.454   0.866   3.938
 2473SOL     OW 8317   0.717   5.581   4.973
 2473SOL    HW1 8318   0.796   5.534   5.013
 2473SOL    HW2 8319   0.647   5.594   5.043
 2474SOL     OW 8320   5.836   6.891   4.451
 2474SOL    HW1 8321   5.763   6.823   4.443
 2474SOL    HW2 8322   5.901   6.863   4.521
 2475SOL     OW 8323   3.646   2.910   6.524
 2475SOL    HW1 8324   3.615   2.964   6.446
 2475SOL    HW2 8325   3.654   2.814   6.496
 2476SOL     OW 8326   0.783   1.149   3.516
 2476SOL    HW1 8327   0.689   1.117   3.506
 2476SOL    HW2 8328   0.797   1.185   3.608
 2477SOL     OW 8329   4.508   4.538   1.992
 2477SOL    HW1 8330   4.506   4.439   1.981
 2477SOL    HW2 8331   4.469   4.582   1.911
 2478SOL     OW 8332   0.113   0.478   2.906
 2478SOL    HW1 8333   0.121   0.382   2.882
 2478SOL    HW2 8334   0.020   0.509   2.886
 2479SOL     OW 8335   1.257   2.875   0.593
 2479SOL    HW1 8336   1.281   2.815   0.517
 2479SOL    HW2 8337   1.198   2.949   0.561
 2480SOL     OW 8338   6.405   4.829   1.153
 2480SOL    HW1 8339   6.458   4.910   1.129
 2480SOL    HW2 8340   6.405   4.817   1.252
 2481SOL     OW 8341   4.193   4.676   2.513
 2481SOL    HW1 8342   4.147   4.599   2.557
 2481SOL    HW2 8343   4.127   4.727   2.458
 2482SOL     OW 8344   3.985   2.191   4.627
 2482SOL    HW1 8345   3.890   2.216   4.645
 2482SOL    HW2 8346   4.007   2.208   4.531
 2483SOL     OW 8347   0.680   3.311   0.103
 2483SOL    HW1 8348   0.746   3.369   0.150
 2483SOL    HW2 8349   0.618   3.367   0.049
 2484SOL     OW 8350   3.640   4.307   5.550
 2484SOL    HW1 8351   3.671   4.400   5.527
 2484SOL    HW2 8352   3.716   4.257   5.592
 2485SOL     OW 8353   0.624   4.700   0.124
 2485SOL    HW1 8354   0.647   4.720   0.028
 2485SOL    HW2 8355   0.709   4.695   0.177
 2486SOL     OW 8356   0.762   5.188   4.010
 2486SOL    HW1 8357   0.767   5.161   4.106
 2486SOL    HW2 8358   0.801   5.115   3.953
 2487SOL     OW 8359   2.551   1.313   1.037
 2487SOL    HW1 8360   2.552   1.305   0.937
 2487SOL    HW2 8361   2.541   1.222   1.078
 2488SOL     OW 8362   2.744   5.466   6.938
 2488SOL    HW1 8363   2.729   5.565   6.931
 2488SOL    HW2 8364   2.728   5.437   0.010
 2489SOL     OW 8365   6.401   5.795   4.557
 2489SOL    HW1 8366   6.497   5.800   4.529
 2489SOL    HW2 8367   6.353   5.730   4.497
 2490SOL     OW 8368   6.056   2.562   1.196
 2490SOL    HW1 8369   6.066   2.621   1.276
 2490SOL    HW2 8370   6.030   2.617   1.117
 2491SOL     OW 8371   6.679   4.242   2.699
 2491SOL    HW1 8372   6.694   4.340   2.701
 2491SOL    HW2 8373   6.603   4.221   2.637
 2492SOL     OW 8374   3.663   2.032   0.070
 2492SOL    HW1 8375   3.655   2.068   7.000
 2492SOL    HW2 8376   3.653   1.933   0.068
 2493SOL     OW 8377   6.972   0.918   5.670
 2493SOL    HW1 8378   6.873   0.913   5.656
 2493SOL    HW2 8379   7.016   0.957   5.590
 2494SOL     OW 8380   5.332   5.501   0.347
 2494SOL    HW1 8381   5.306   5.476   0.254
 2494SOL    HW2 8382   5.336   5.419   0.404
 2495SOL     OW 8383   6.945   1.202   2.196
 2495SOL    HW1 8384   0.009   1.151   2.200
 2495SOL    HW2 8385   6.924   1.223   2.100
 2496SOL     OW 8386   1.908   4.724   0.585
 2496SOL    HW1 8387   1.885   4.693   0.677
 2496SOL    HW2 8388   1.934   4.820   0.586
 2497SOL     OW 8389   5.985   1.254   6.387
 2497SOL    HW1 8390   5.931   1.298   6.314
 2497SOL    HW2 8391   6.073   1.300   6.395
 2498SOL     OW 8392   1.040   3.360   4.721
 2498SOL    HW1 8393   1.019   3.416   4.801
 2498SOL    HW2 8394   1.087   3.415   4.652
 2499SOL     OW 8395   5.290   0.584   6.610
 2499SOL    HW1 8396   5.243   0.659   6.657
 2499SOL    HW2 8397   5.306   0.509   6.674
 2500SOL     OW 8398   5.568   3.091   5.832
 2500SOL    HW1 8399   5.657   3.112   5.873
 2500SOL    HW2 8400   5.582   3.051   5.741
 2501SOL     OW 8401   6.161   4.725   1.095
 2501SOL    HW1 8402   6.113   4.712   1.181
 2501SOL    HW2 8403   6.247   4.774   1.111
 2502SOL     OW 8404   1.224   6.661   3.078
 2502SOL    HW1 8405   1.229   6.601   3.158
 2502SOL    HW2 8406   1.193   6.752   3.106
 2503SOL     OW 8407   5.675   5.991   3.437
 2503SOL    HW1 8408   5.769   6.023   3.451
 2503SOL    HW2 8409   5.670   5.938   3.352
 2504SOL     OW 8410   2.670   4.993   2.949
 2504SOL    HW1 8411   2.689   4.895   2.956
 2504SOL    HW2 8412   2.572   5.009   2.961
 2505SOL     OW 8413   4.843   3.942   4.485
 2505SOL    HW1 8414   4.789   3.879   4.429
 2505SOL    HW2 8415   4.932   3.958   4.442
 2506SOL     OW 8416   1.301   1.663   0.091
 2506SOL    HW1 8417   1.389   1.684   0.049
 2506SOL    HW2 8418   1.250   1.599   0.033
 2507SOL     OW 8419   0.004   5.997   0.590
 2507SOL    HW1 8420   6.999   5.907   0.556
 2507SOL    HW2 8421   0.090   6.025   0.546
 2508SOL     OW 8422   1.580   1.427   1.348
 2508SOL    HW1 8423   1.577   1.509   1.291
 2508SOL    HW2 8424   1.616   1.351   1.295
 2509SOL     OW 8425   5.952   0.095   4.092
 2509SOL    HW1 8426   5.872   0.148   4.065
 2509SOL    HW2 8427   5.924   0.000   4.109
 2510SOL     OW 8428   3.523   5.935   2.915
 2510SOL    HW1 8429   3.583   6.011   2.889
 2510SOL    HW2 8430   3.443   5.934   2.855
 2511SOL     OW 8431   0.851   5.065   4.244
 2511SOL    HW1 8432   0.939   5.021   4.263
 2511SOL    HW2 8433   0.790   5.055   4.323
 2512SOL     OW 8434   5.966   3.068   4.665
 2512SOL    HW1 8435   5.936   3.155   4.703
 2512SOL    HW2 8436   5.927   2.993   4.718
 2513SOL     OW 8437   0.554   5.029   1.603
 2513SOL    HW1 8438   0.454   5.036   1.600
 2513SOL    HW2 8439   0.580   4.943   1.647
 2514SOL     OW 8440   6.575   1.988   4.324
 2514SOL    HW1 8441   6.519   1.960   4.402
 2514SOL    HW2 8442   6.564   2.086   4.308
 2515SOL     OW 8443   0.756   4.610   6.404
 2515SOL    HW1 8444   0.811   4.599   6.322
 2515SOL    HW2 8445   0.723   4.520   6.435
 2516SOL     OW 8446   4.205   6.890   4.803
 2516SOL    HW1 8447   4.227   6.914   4.898
 2516SOL    HW2 8448   4.255   6.951   4.741
 2517SOL     OW 8449   2.782   5.732   0.166
 2517SOL    HW1 8450   2.742   5.726   0.075
 2517SOL    HW2 8451   2.882   5.730   0.160
 2518SOL     OW 8452   2.039   1.692   0.140
 2518SOL    HW1 8453   2.064   1.600   0.108
 2518SOL    HW2 8454   2.085   1.760   0.083
 2519SOL     OW 8455   6.322   4.344   4.576
 2519SOL    HW1 8456   6.293   4.372   4.485
 2519SOL    HW2 8457   6.329   4.425   4.635
 2520SOL     OW 8458   4.171   5.858   1.031
 2520SOL    HW1 8459   4.097   5.801   0.993
 2520SOL    HW2 8460   4.259   5.820   1.003
 2521SOL     OW 8461   5.709   6.716   5.538
 2521SOL    HW1 8462   5.799   6.721   5.495
 2521SOL    HW2 8463   5.710   6.645   5.609
 2522SOL     OW 8464   3.173   5.014   5.522
 2522SOL    HW1 8465   3.142   4.951   5.451
 2522SOL    HW2 8466   3.164   5.108   5.488
 2523SOL     OW 8467   0.934   2.056   6.959
 2523SOL    HW1 8468   0.932   2.053   6.859
 2523SOL    HW2 8469   0.982   1.975   6.993
 2524SOL     OW 8470   1.865   0.256   4.216
 2524SOL    HW1 8471   1.879   0.160   4.193
 2524SOL    HW2 8472   1.773   0.284   4.188
 2525SOL     OW 8473   2.876   4.825   2.420
 2525SOL    HW1 8474   2.845   4.801   2.327
 2525SOL    HW2 8475   2.849   4.919   2.440
 2526SOL     OW 8476   1.711   3.153   4.718
 2526SOL    HW1 8477   1.672   3.123   4.632
 2526SOL    HW2 8478   1.655   3.228   4.755
 2527SOL     OW 8479   6.829   0.052   3.966
 2527SOL    HW1 8480   6.871   7.016   4.036
 2527SOL    HW2 8481   6.799   7.018   3.889
 2528SOL     OW 8482   5.422   4.798   2.045
 2528SOL    HW1 8483   5.503   4.851   2.019
 2528SOL    HW2 8484   5.432   4.704   2.014
 2529SOL     OW 8485   5.016   4.807   4.538
 2529SOL    HW1 8486   5.109   4.840   4.553
 2529SOL    HW2 8487   5.005   4.718   4.581
 2530SOL     OW 8488   1.274   6.548   3.306
 2530SOL    HW1 8489   1.362   6.546   3.354
 2530SOL    HW2 8490   1.206   6.594   3.363
 2531SOL     OW 8491   5.546   2.635   6.354
 2531SOL    HW1 8492   5.494   2.718   6.335
 2531SOL    HW2 8493   5.642   2.650   6.330
 2532SOL     OW 8494   0.180   5.619   6.729
 2532SOL    HW1 8495   0.209   5.701   6.680
 2532SOL    HW2 8496   0.236   5.541   6.700
 2533SOL     OW 8497   5.165   0.753   4.163
 2533SOL    HW1 8498   5.230   0.827   4.150
 2533SOL    HW2 8499   5.160   0.698   4.079
 2534SOL     OW 8500   6.489   1.594   2.626
 2534SOL    HW1 8501   6.432   1.661   2.578
 2534SOL    HW2 8502   6.491   1.509   2.574
 2535SOL     OW 8503   3.129   1.472   1.849
 2535SOL    HW1 8504   3.077   1.549   1.887
 2535SOL    HW2 8505   3.174   1.501   1.764
 2536SOL     OW 8506   0.658   7.021   3.350
 2536SOL    HW1 8507   0.683   0.072   3.413
 2536SOL    HW2 8508   0.602   0.036   3.276
 2537SOL     OW 8509   2.100   6.154   2.045
 2537SOL    HW1 8510   2.105   6.105   1.958
 2537SOL    HW2 8511   2.025   6.118   2.100
 2538SOL     OW 8512   6.673   5.513   5.267
 2538SOL    HW1 8513   6.610   5.498   5.344
 2538SOL    HW2 8514   6.634   5.472   5.184
 2539SOL     OW 8515   1.095   0.118   5.137
 2539SOL    HW1 8516   1.166   0.059   5.175
 2539SOL    HW2 8517   1.068   0.186   5.206
 2540SOL     OW 8518   5.508   2.790   1.689
 2540SOL    HW1 8519   5.454   2.781   1.773
 2540SOL    HW2 8520   5.522   2.700   1.648
 2541SOL     OW 8521   2.064   0.778   0.172
 2541SOL    HW1 8522   1.992   0.713   0.196
 2541SOL    HW2 8523   2.049   0.864   0.221
 2542SOL     OW 8524   4.023   1.882   2.762
 2542SOL    HW1 8525   4.061   1.790   2.748
 2542SOL    HW2 8526   3.946   1.877   2.825
 2543SOL     OW 8527   5.680   6.450   5.158
 2543SOL    HW1 8528   5.712   6.364   5.197
 2543SOL    HW2 8529   5.624   6.499   5.224
 2544SOL     OW 8530   0.214   0.386   0.343
 2544SOL    HW1 8531   0.261   0.436   0.416
 2544SOL    HW2 8532   0.196   0.293   0.373
 2545SOL     OW 8533   0.574   1.541   0.114
 2545SOL    HW1 8534   0.487   1.588   0.128
 2545SOL    HW2 8535   0.644   1.607   0.086
 2546SOL     OW 8536   5.917   3.228   3.474
 2546SOL    HW1 8537   5.891   3.318   3.510
 2546SOL    HW2 8538   5.928   3.234   3.374
 2547SOL     OW 8539   5.919   3.854   0.749
 2547SOL    HW1 8540   5.905   3.927   0.816
 2547SOL    HW2 8541   5.856   3.779   0.768
 2548SOL     OW 8542   6.293   0.411   5.313
 2548SOL    HW1 8543   6.356   0.366   5.376
 2548SOL    HW2 8544   6.307   0.510   5.315
 2549SOL     OW 8545   2.799   4.350   6.681
 2549SOL    HW1 8546   2.822   4.337   6.585
 2549SOL    HW2 8547   2.842   4.278   6.736
 2550SOL     OW 8548   4.034   0.863   1.094
 2550SOL    HW1 8549   4.129   0.879   1.120
 2550SOL    HW2 8550   4.027   0.777   1.043
 2551SOL     OW 8551   2.806   4.608   1.161
 2551SOL    HW1 8552   2.768   4.530   1.112
 2551SOL    HW2 8553   2.823   4.683   1.097
 2552SOL     OW 8554   3.014   5.809   1.423
 2552SOL    HW1 8555   2.992   5.888   1.480
 2552SOL    HW2 8556   3.086   5.755   1.467
 2553SOL     OW 8557   4.332   2.139   1.474
 2553SOL    HW1 8558   4.369   2.167   1.385
 2553SOL    HW2 8559   4.406   2.102   1.530
 2554SOL     OW 8560   1.224   6.225   0.909
 2554SOL    HW1 8561   1.182   6.159   0.972
 2554SOL    HW2 8562   1.233   6.183   0.819
 2555SOL     OW 8563   0.595   6.068   4.354
 2555SOL    HW1 8564   0.533   6.089   4.279
 2555SOL    HW2 8565   0.554   6.095   4.441
 2556SOL     OW 8566   5.511   0.845   0.681
 2556SOL    HW1 8567   5.497   0.944   0.685
 2556SOL    HW2 8568   5.609   0.825   0.686
 2557SOL     OW 8569   2.792   1.454   6.988
 2557SOL    HW1 8570   2.734   1.403   0.028
 2557SOL    HW2 8571   2.788   1.552   7.011
 2558SOL     OW 8572   6.079   2.751   1.515
 2558SOL    HW1 8573   6.086   2.664   1.562
 2558SOL    HW2 8574   5.991   2.794   1.534
 2559SOL     OW 8575   6.710   5.938   3.186
 2559SOL    HW1 8576   6.625   5.925   3.135
 2559SOL    HW2 8577   6.689   5.950   3.283
 2560SOL     OW 8578   4.286   2.841   1.591
 2560SOL    HW1 8579   4.250   2.770   1.530
 2560SOL    HW2 8580   4.212   2.878   1.647
 2561SOL     OW 8581   3.566   0.679   4.543
 2561SOL    HW1 8582   3.481   0.700   4.591
 2561SOL    HW2 8583   3.644   0.715   4.594
 2562SOL     OW 8584   1.921   6.394   5.010
 2562SOL    HW1 8585   1.850   6.459   5.036
 2562SOL    HW2 8586   1.938   6.332   5.087
 2563SOL     OW 8587   4.609   2.574   6.954
 2563SOL    HW1 8588   4.647   2.482   6.952
 2563SOL    HW2 8589   4.622   2.614   0.022
 2564SOL     OW 8590   1.646   0.999   1.667
 2564SOL    HW1 8591   1.700   0.980   1.585
 2564SOL    HW2 8592   1.698   1.058   1.728
 2565SOL     OW 8593   6.764   0.167   1.009
 2565SOL    HW1 8594   6.665   0.175   1.024
 2565SOL    HW2 8595   6.792   0.072   1.022
 2566SOL     OW 8596   2.800   1.503   0.774
 2566SOL    HW1 8597   2.880   1.558   0.796
 2566SOL    HW2 8598   2.717   1.549   0.806
 2567SOL     OW 8599   2.114   0.800   5.905
 2567SOL    HW1 8600   2.203   0.799   5.952
 2567SOL    HW2 8601   2.125   0.844   5.816
 2568SOL     OW 8602   3.114   6.387   6.855
 2568SOL    HW1 8603   3.140   6.483   6.846
 2568SOL    HW2 8604   3.023   6.373   6.816
 2569SOL     OW 8605   2.802   6.206   6.833
 2569SOL    HW1 8606   2.825   6.159   6.918
 2569SOL    HW2 8607   2.722   6.263   6.847
 2570SOL     OW 8608   6.877   0.095   3.442
 2570SOL    HW1 8609   6.802   0.075   3.379
 2570SOL    HW2 8610   6.881   0.193   3.459
 2571SOL     OW 8611   3.193   3.645   2.359
 2571SOL    HW1 8612   3.275   3.703   2.366
 2571SOL    HW2 8613   3.148   3.642   2.448
 2572SOL     OW 8614   3.242   6.602   2.454
 2572SOL    HW1 8615   3.164   6.542   2.438
 2572SOL    HW2 8616   3.323   6.547   2.475
 2573SOL     OW 8617   6.007   0.617   2.498
 2573SOL    HW1 8618   5.915   0.612   2.538
 2573SOL    HW2 8619   6.045   0.709   2.512
 2574SOL     OW 8620   0.653   4.416   2.052
 2574SOL    HW1 8621   0.737   4.438   2.003
 2574SOL    HW2 8622   0.674   4.352   2.126
 2575SOL     OW 8623   4.438   3.513   5.407
 2575SOL    HW1 8624   4.476   3.546   5.321
 2575SOL    HW2 8625   4.481   3.426   5.431
 2576SOL     OW 8626   0.382   0.580   3.110
 2576SOL    HW1 8627   0.432   0.626   3.184
 2576SOL    HW2 8628   0.342   0.495   3.145
 2577SOL     OW 8629   1.566   4.520   0.636
 2577SOL    HW1 8630   1.628   4.532   0.559
 2577SOL    HW2 8631   1.551   4.422   0.651
 2578SOL     OW 8632   5.001   1.310   4.924
 2578SOL    HW1 8633   5.001   1.211   4.937
 2578SOL    HW2 8634   4.998   1.355   5.013
 2579SOL     OW 8635   0.284   1.937   6.378
 2579SOL    HW1 8636   0.269   1.931   6.477
 2579SOL    HW2 8637   0.319   2.027   6.355
 2580SOL     OW 8638   1.564   2.502   5.454
 2580SOL    HW1 8639   1.633   2.561   5.497
 2580SOL    HW2 8640   1.474   2.522   5.494
 2581SOL     OW 8641   4.347   6.559   4.299
 2581SOL    HW1 8642   4.367   6.605   4.213
 2581SOL    HW2 8643   4.297   6.474   4.281
 2582SOL     OW 8644   6.731   4.839   3.009
 2582SOL    HW1 8645   6.641   4.826   3.050
 2582SOL    HW2 8646   6.720   4.880   2.918
 2583SOL     OW 8647   2.760   1.065   6.900
 2583SOL    HW1 8648   2.842   1.122   6.911
 2583SOL    HW2 8649   2.784   0.969   6.913
 2584SOL     OW 8650   3.622   0.039   3.309
 2584SOL    HW1 8651   3.592   0.104   3.239
 2584SOL    HW2 8652   3.706   7.016   3.277
 2585SOL     OW 8653   3.484   0.920   2.935
 2585SOL    HW1 8654   3.454   0.828   2.910
 2585SOL    HW2 8655   3.412   0.986   2.913
 2586SOL     OW 8656   1.134   2.023   4.246
 2586SOL    HW1 8657   1.206   2.087   4.272
 2586SOL    HW2 8658   1.064   2.021   4.317
 2587SOL     OW 8659   6.444   4.361   3.545
 2587SOL    HW1 8660   6.447   4.323   3.637
 2587SOL    HW2 8661   6.362   4.416   3.533
 2588SOL     OW 8662   3.333   0.166   2.565
 2588SOL    HW1 8663   3.417   0.144   2.516
 2588SOL    HW2 8664   3.254   0.156   2.504
 2589SOL     OW 8665   4.403   6.648   1.935
 2589SOL    HW1 8666   4.371   6.555   1.950
 2589SOL    HW2 8667   4.372   6.707   2.011
 2590SOL     OW 8668   4.641   6.185   3.798
 2590SOL    HW1 8669   4.738   6.210   3.788
 2590SOL    HW2 8670   4.630   6.087   3.778
 2591SOL     OW 8671   5.683   0.731   1.143
 2591SOL    HW1 8672   5.772   0.777   1.141
 2591SOL    HW2 8673   5.683   0.655   1.078
 2592SOL     OW 8674   2.739   5.030   1.588
 2592SOL    HW1 8675   2.805   4.954   1.591
 2592SOL    HW2 8676   2.656   5.004   1.636
 2593SOL     OW 8677   2.226   0.155   4.074
 2593SOL    HW1 8678   2.217   0.253   4.054
 2593SOL    HW2 8679   2.322   0.130   4.076
 2594SOL     OW 8680   2.399   5.754   6.092
 2594SOL    HW1 8681   2.409   5.676   6.029
 2594SOL    HW2 8682   2.310   5.748   6.137
 2595SOL     OW 8683   0.003   3.121   5.031
 2595SOL    HW1 8684   0.027   3.216   5.048
 2595SOL    HW2 8685   6.987   3.111   4.939
 2596SOL     OW 8686   4.602   1.850   0.818
 2596SOL    HW1 8687   4.548   1.924   0.857
 2596SOL    HW2 8688   4.627   1.785   0.889
 2597SOL     OW 8689   2.453   2.274   6.478
 2597SOL    HW1 8690   2.372   2.219   6.462
 2597SOL    HW2 8691   2.430   2.352   6.536
 2598SOL     OW 8692   6.360   1.162   2.923
 2598SOL    HW1 8693   6.373   1.258   2.947
 2598SOL    HW2 8694   6.314   1.156   2.834
 2599SOL     OW 8695   4.877   5.617   5.616
 2599SOL    HW1 8696   4.901   5.712   5.594
 2599SOL    HW2 8697   4.787   5.614   5.659
 2600SOL     OW 8698   0.378   2.903   4.668
 2600SOL    HW1 8699   0.375   2.971   4.594
 2600SOL    HW2 8700   0.465   2.854   4.665
 2601SOL     OW 8701   4.342   4.321   5.344
 2601SOL    HW1 8702   4.327   4.357   5.251
 2601SOL    HW2 8703   4.349   4.397   5.408
 2602SOL     OW 8704   6.085   6.834   0.165
 2602SOL    HW1 8705   6.117   6.872   0.251
 2602SOL    HW2 8706   6.046   6.743   0.181
 2603SOL     OW 8707   1.827   1.722   6.937
 2603SOL    HW1 8708   1.892   1.686   7.004
 2603SOL    HW2 8709   1.871   1.727   6.847
 2604SOL     OW 8710   5.821   1.456   0.711
 2604SOL    HW1 8711   5.859   1.548   0.724
 2604SOL    HW2 8712   5.894   1.388   0.720
 2605SOL     OW 8713   5.577   2.434   5.592
 2605SOL    HW1 8714   5.543   2.434   5.686
 2605SOL    HW2 8715   5.560   2.345   5.550
 2606SOL     OW 8716   6.294   4.382   1.718
 2606SOL    HW1 8717   6.371   4.427   1.761
 2606SOL    HW2 8718   6.286   4.289   1.754
 2607SOL     OW 8719   0.375   0.991   3.161
 2607SOL    HW1 8720   0.396   1.071   3.103
 2607SOL    HW2 8721   0.459   0.962   3.207
 2608SOL     OW 8722   4.436   0.572   7.019
 2608SOL    HW1 8723   4.503   0.547   6.949
 2608SOL    HW2 8724   4.385   0.491   0.025
 2609SOL     OW 8725   0.965   4.269   3.722
 2609SOL    HW1 8726   0.968   4.306   3.629
 2609SOL    HW2 8727   0.935   4.174   3.719
 2610SOL     OW 8728   5.552   5.415   4.499
 2610SOL    HW1 8729   5.610   5.361   4.437
 2610SOL    HW2 8730   5.609   5.481   4.547
 2611SOL     OW 8731   2.726   6.492   1.831
 2611SOL    HW1 8732   2.647   6.471   1.773
 2611SOL    HW2 8733   2.786   6.555   1.783
 2612SOL     OW 8734   1.027   6.695   4.446
 2612SOL    HW1 8735   1.010   6.758   4.522
 2612SOL    HW2 8736   1.121   6.661   4.451
 2613SOL     OW 8737   4.158   1.930   6.841
 2613SOL    HW1 8738   4.143   1.902   6.746
 2613SOL    HW2 8739   4.089   1.886   6.900
 2614SOL     OW 8740   6.327   6.522   6.681
 2614SOL    HW1 8741   6.416   6.565   6.666
 2614SOL    HW2 8742   6.263   6.553   6.610
 2615SOL     OW 8743   0.281   4.131   1.239
 2615SOL    HW1 8744   0.243   4.223   1.227
 2615SOL    HW2 8745   0.379   4.138   1.256
 2616SOL     OW 8746   3.730   4.027   1.789
 2616SOL    HW1 8747   3.662   3.982   1.730
 2616SOL    HW2 8748   3.682   4.076   1.862
 2617SOL     OW 8749   2.839   6.905   1.343
 2617SOL    HW1 8750   2.880   6.996   1.355
 2617SOL    HW2 8751   2.825   6.889   1.245
 2618SOL     OW 8752   1.380   5.950   0.179
 2618SOL    HW1 8753   1.313   6.001   0.125
 2618SOL    HW2 8754   1.465   6.003   0.184
 2619SOL     OW 8755   6.290   1.087   2.070
 2619SOL    HW1 8756   6.242   1.060   2.154
 2619SOL    HW2 8757   6.335   1.008   2.030
 2620SOL     OW 8758   2.003   5.656   3.831
 2620SOL    HW1 8759   2.096   5.620   3.837
 2620SOL    HW2 8760   1.973   5.687   3.921
 2621SOL     OW 8761   1.794   5.579   4.408
 2621SOL    HW1 8762   1.890   5.553   4.416
 2621SOL    HW2 8763   1.774   5.604   4.314
 2622SOL     OW 8764   2.409   2.578   4.364
 2622SOL    HW1 8765   2.356   2.660   4.345
 2622SOL    HW2 8766   2.348   2.504   4.392
 2623SOL     OW 8767   2.983   0.147   5.566
 2623SOL    HW1 8768   3.038   0.222   5.529
 2623SOL    HW2 8769   3.021   0.118   5.654
 2624SOL     OW 8770   4.950   2.299   4.610
 2624SOL    HW1 8771   5.032   2.290   4.554
 2624SOL    HW2 8772   4.938   2.217   4.665
 2625SOL     OW 8773   2.390   0.084   5.799
 2625SOL    HW1 8774   2.454   0.030   5.745
 2625SOL    HW2 8775   2.439   0.133   5.871
 2626SOL     OW 8776   2.503   6.690   3.347
 2626SOL    HW1 8777   2.438   6.674   3.272
 2626SOL    HW2 8778   2.482   6.777   3.391
 2627SOL     OW 8779   0.960   0.641   4.853
 2627SOL    HW1 8780   0.991   0.587   4.775
 2627SOL    HW2 8781   0.894   0.588   4.906
 2628SOL     OW 8782   5.022   5.149   6.991
 2628SOL    HW1 8783   5.004   5.235   6.944
 2628SOL    HW2 8784   5.120   5.128   6.986
 2629SOL     OW 8785   2.867   3.631   1.917
 2629SOL    HW1 8786   2.877   3.612   2.015
 2629SOL    HW2 8787   2.958   3.644   1.876
 2630SOL     OW 8788   3.693   1.820   2.242
 2630SOL    HW1 8789   3.610   1.874   2.260
 2630SOL    HW2 8790   3.707   1.756   2.317
 2631SOL     OW 8791   3.324   6.803   4.060
 2631SOL    HW1 8792   3.370   6.877   4.109
 2631SOL    HW2 8793   3.378   6.778   3.979
 2632SOL     OW 8794   4.856   1.529   1.140
 2632SOL    HW1 8795   4.949   1.567   1.132
 2632SOL    HW2 8796   4.830   1.526   1.237
 2633SOL     OW 8797   0.332   2.298   0.077
 2633SOL    HW1 8798   0.415   2.334   0.121
 2633SOL    HW2 8799   0.336   2.318   7.001
 2634SOL     OW 8800   2.210   5.005   0.478
 2634SOL    HW1 8801   2.269   4.998   0.398
 2634SOL    HW2 8802   2.150   4.925   0.483
 2635SOL     OW 8803   6.598   4.120   3.471
 2635SOL    HW1 8804   6.602   4.039   3.529
 2635SOL    HW2 8805   6.547   4.192   3.518
 2636SOL     OW 8806   5.687   4.957   5.451
 2636SOL    HW1 8807   5.668   4.887   5.520
 2636SOL    HW2 8808   5.610   5.020   5.445
 2637SOL     OW 8809   5.342   5.182   2.114
 2637SOL    HW1 8810   5.345   5.091   2.073
 2637SOL    HW2 8811   5.337   5.174   2.213
 2638SOL     OW 8812   4.651   5.653   0.842
 2638SOL    HW1 8813   4.620   5.562   0.816
 2638SOL    HW2 8814   4.725   5.682   0.782
 2639SOL     OW 8815   6.738   0.754   0.168
 2639SOL    HW1 8816   6.800   0.736   0.244
 2639SOL    HW2 8817   6.646   0.768   0.203
 2640SOL     OW 8818   6.700   6.101   0.617
 2640SOL    HW1 8819   6.710   6.197   0.589
 2640SOL    HW2 8820   6.704   6.042   0.537
 2641SOL     OW 8821   6.983   5.703   1.080
 2641SOL    HW1 8822   0.004   5.771   1.138
 2641SOL    HW2 8823   6.992   5.730   0.984
 2642SOL     OW 8824   6.591   0.026   4.111
 2642SOL    HW1 8825   6.600   0.018   4.210
 2642SOL    HW2 8826   6.682   0.031   4.070
 2643SOL     OW 8827   1.809   0.581   2.116
 2643SOL    HW1 8828   1.733   0.622   2.165
 2643SOL    HW2 8829   1.870   0.535   2.182
 2644SOL     OW 8830   5.650   6.446   4.886
 2644SOL    HW1 8831   5.706   6.365   4.869
 2644SOL    HW2 8832   5.647   6.463   4.985
 2645SOL     OW 8833   5.345   5.837   6.454
 2645SOL    HW1 8834   5.401   5.896   6.511
 2645SOL    HW2 8835   5.352   5.743   6.487
 2646SOL     OW 8836   5.505   5.365   5.441
 2646SOL    HW1 8837   5.546   5.356   5.350
 2646SOL    HW2 8838   5.550   5.441   5.490
 2647SOL     OW 8839   3.385   4.436   0.555
 2647SOL    HW1 8840   3.483   4.417   0.556
 2647SOL    HW2 8841   3.339   4.382   0.625
 2648SOL     OW 8842   4.482   1.553   3.681
 2648SOL    HW1 8843   4.502   1.630   3.742
 2648SOL    HW2 8844   4.503   1.467   3.727
 2649SOL     OW 8845   3.079   3.948   5.039
 2649SOL    HW1 8846   3.020   3.956   4.959
 2649SOL    HW2 8847   3.174   3.961   5.011
 2650SOL     OW 8848   0.369   6.966   2.094
 2650SOL    HW1 8849   0.349   6.935   2.186
 2650SOL    HW2 8850   0.408   6.891   2.041
 2651SOL     OW 8851   1.525   0.004   2.694
 2651SOL    HW1 8852   1.531   0.014   2.594
 2651SOL    HW2 8853   1.455   6.959   2.717
 2652SOL     OW 8854   3.306   2.807   2.104
 2652SOL    HW1 8855   3.251   2.735   2.147
 2652SOL    HW2 8856   3.382   2.766   2.054
 2653SOL     OW 8857   6.208   0.070   1.048
 2653SOL    HW1 8858   6.185   0.167   1.062
 2653SOL    HW2 8859   6.125   0.015   1.055
 2654SOL     OW 8860   6.794   3.166   5.862
 2654SOL    HW1 8861   6.882   3.120   5.852
 2654SOL    HW2 8862   6.810   3.265   5.873
 2655SOL     OW 8863   5.528   4.669   3.825
 2655SOL    HW1 8864   5.487   4.605   3.891
 2655SOL    HW2 8865   5.472   4.672   3.742
 2656SOL     OW 8866   6.000   3.157   5.104
 2656SOL    HW1 8867   6.086   3.162   5.155
 2656SOL    HW2 8868   6.007   3.216   5.023
 2657SOL     OW 8869   3.878   1.873   5.620
 2657SOL    HW1 8870   3.970   1.878   5.659
 2657SOL    HW2 8871   3.823   1.949   5.654
 2658SOL     OW 8872   6.822   4.117   5.370
 2658SOL    HW1 8873   6.880   4.048   5.413
 2658SOL    HW2 8874   6.879   4.191   5.334
 2659SOL     OW 8875   6.357   1.142   3.488
 2659SOL    HW1 8876   6.280   1.098   3.533
 2659SOL    HW2 8877   6.325   1.192   3.407
 2660SOL     OW 8878   1.055   2.104   3.695
 2660SOL    HW1 8879   1.048   2.046   3.776
 2660SOL    HW2 8880   1.076   2.048   3.615
 2661SOL     OW 8881   3.507   6.600   3.532
 2661SOL    HW1 8882   3.410   6.589   3.554
 2661SOL    HW2 8883   3.519   6.592   3.433
 2662SOL     OW 8884   3.716   1.206   3.889
 2662SOL    HW1 8885   3.813   1.228   3.895
 2662SOL    HW2 8886   3.704   1.107   3.882
 2663SOL     OW 8887   0.629   4.012   2.985
 2663SOL    HW1 8888   0.621   3.926   3.034
 2663SOL    HW2 8889   0.634   3.994   2.886
 2664SOL     OW 8890   4.819   4.265   1.810
 2664SOL    HW1 8891   4.734   4.273   1.863
 2664SOL    HW2 8892   4.885   4.210   1.862
 2665SOL     OW 8893   4.118   0.853   5.369
 2665SOL    HW1 8894   4.073   0.906   5.297
 2665SOL    HW2 8895   4.212   0.885   5.382
 2666SOL     OW 8896   5.072   6.084   2.060
 2666SOL    HW1 8897   5.050   6.163   2.116
 2666SOL    HW2 8898   5.141   6.029   2.106
 2667SOL     OW 8899   1.764   4.690   2.541
 2667SOL    HW1 8900   1.687   4.672   2.480
 2667SOL    HW2 8901   1.823   4.760   2.501
 2668SOL     OW 8902   6.836   2.746   5.321
 2668SOL    HW1 8903   6.814   2.653   5.350
 2668SOL    HW2 8904   6.886   2.743   5.234
 2669SOL     OW 8905   3.781   5.968   4.836
 2669SOL    HW1 8906   3.755   6.001   4.926
 2669SOL    HW2 8907   3.731   5.884   4.815
 2670SOL     OW 8908   1.891   6.613   4.222
 2670SOL    HW1 8909   1.898   6.516   4.200
 2670SOL    HW2 8910   1.978   6.645   4.260
 2671SOL     OW 8911   3.094   3.728   6.823
 2671SOL    HW1 8912   3.130   3.634   6.826
 2671SOL    HW2 8913   3.018   3.737   6.887
 2672SOL     OW 8914   0.674   4.567   0.812
 2672SOL    HW1 8915   0.593   4.540   0.864
 2672SOL    HW2 8916   0.750   4.506   0.834
 2673SOL     OW 8917   3.845   1.832   2.963
 2673SOL    HW1 8918   3.765   1.873   3.008
 2673SOL    HW2 8919   3.853   1.736   2.990
 2674SOL     OW 8920   5.024   6.178   4.833
 2674SOL    HW1 8921   5.089   6.131   4.774
 2674SOL    HW2 8922   4.932   6.170   4.796
 2675SOL     OW 8923   0.305   5.180   5.816
 2675SOL    HW1 8924   0.226   5.240   5.801
 2675SOL    HW2 8925   0.280   5.106   5.878
 2676SOL     OW 8926   4.673   0.072   1.721
 2676SOL    HW1 8927   4.615   0.004   1.765
 2676SOL    HW2 8928   4.757   0.084   1.774
 2677SOL     OW 8929   2.376   4.667   2.016
 2677SOL    HW1 8930   2.450   4.691   1.953
 2677SOL    HW2 8931   2.395   4.705   2.106
 2678SOL     OW 8932   0.951   6.470   6.938
 2678SOL    HW1 8933   0.900   6.417   6.870
 2678SOL    HW2 8934   0.895   6.546   6.970
 2679SOL     OW 8935   2.112   5.172   1.400
 2679SOL    HW1 8936   2.021   5.160   1.441
 2679SOL    HW2 8937   2.108   5.239   1.326
 2680SOL     OW 8938   6.566   2.465   1.066
 2680SOL    HW1 8939   6.627   2.413   1.126
 2680SOL    HW2 8940   6.617   2.497   0.986
 2681SOL     OW 8941   1.672   2.179   1.702
 2681SOL    HW1 8942   1.731   2.119   1.756
 2681SOL    HW2 8943   1.724   2.213   1.623
 2682SOL     OW 8944   0.506   2.886   3.812
 2682SOL    HW1 8945   0.486   2.800   3.764
 2682SOL    HW2 8946   0.544   2.952   3.747
 2683SOL     OW 8947   1.905   0.003   0.661
 2683SOL    HW1 8948   1.927   6.963   0.737
 2683SOL    HW2 8949   1.900   6.973   0.576
 2684SOL     OW 8950   2.777   4.728   2.906
 2684SOL    HW1 8951   2.721   4.654   2.869
 2684SOL    HW2 8952   2.835   4.764   2.833
 2685SOL     OW 8953   5.079   4.480   5.773
 2685SOL    HW1 8954   5.159   4.533   5.800
 2685SOL    HW2 8955   5.060   4.410   5.843
 2686SOL     OW 8956   1.287   3.503   4.830
 2686SOL    HW1 8957   1.318   3.580   4.886
 2686SOL    HW2 8958   1.329   3.419   4.863
 2687SOL     OW 8959   4.489   5.173   3.024
 2687SOL    HW1 8960   4.438   5.100   2.978
 2687SOL    HW2 8961   4.463   5.261   2.985
 2688SOL     OW 8962   3.193   4.287   5.461
 2688SOL    HW1 8963   3.204   4.301   5.559
 2688SOL    HW2 8964   3.099   4.305   5.435
 2689SOL     OW 8965   5.926   1.903   3.847
 2689SOL    HW1 8966   5.900   1.952   3.930
 2689SOL    HW2 8967   5.873   1.938   3.770
 2690SOL     OW 8968   3.576   4.144   3.324
 2690SOL    HW1 8969   3.483   4.131   3.289
 2690SOL    HW2 8970   3.574   4.145   3.424
 2691SOL     OW 8971   0.945   6.042   1.009
 2691SOL    HW1 8972   1.041   6.034   1.033
 2691SOL    HW2 8973   0.919   5.964   0.950
 2692SOL     OW 8974   6.909   4.315   4.237
 2692SOL    HW1 8975   6.878   4.288   4.328
 2692SOL    HW2 8976   6.866   4.402   4.211
 2693SOL     OW 8977   2.135   3.675   2.778
 2693SOL    HW1 8978   2.102   3.609   2.710
 2693SOL    HW2 8979   2.164   3.759   2.731
 2694SOL     OW 8980   1.736   1.315   2.696
 2694SOL    HW1 8981   1.722   1.379   2.620
 2694SOL    HW2 8982   1.792   1.238   2.664
 2695SOL     OW 8983   3.951   2.155   1.896
 2695SOL    HW1 8984   3.963   2.237   1.840
 2695SOL    HW2 8985   3.853   2.135   1.906
 2696SOL     OW 8986   2.973   3.614   6.073
 2696SOL    HW1 8987   3.059   3.590   6.118
 2696SOL    HW2 8988   2.968   3.568   5.985
 2697SOL     OW 8989   2.368   0.869   5.016
 2697SOL    HW1 8990   2.463   0.899   5.007
 2697SOL    HW2 8991   2.364   0.769   5.006
 2698SOL     OW 8992   1.797   1.427   6.973
 2698SOL    HW1 8993   1.772   1.411   6.877
 2698SOL    HW2 8994   1.761   1.516   7.002
 2699SOL     OW 8995   1.467   4.763   3.798
 2699SOL    HW1 8996   1.375   4.803   3.795
 2699SOL    HW2 8997   1.533   4.829   3.763
 2700SOL     OW 8998   2.132   4.319   2.976
 2700SOL    HW1 8999   2.063   4.388   2.999
 2700SOL    HW2 9000   2.113   4.235   3.027
 2701SOL     OW 9001   1.991   0.600   5.510
 2701SOL    HW1 9002   2.028   0.568   5.597
 2701SOL    HW2 9003   1.912   0.658   5.526
 2702SOL     OW 9004   6.020   6.342   2.417
 2702SOL    HW1 9005   5.973   6.428   2.434
 2702SOL    HW2 9006   5.956   6.276   2.378
 2703SOL     OW 9007   2.070   2.655   2.487
 2703SOL    HW1 9008   2.169   2.666   2.479
 2703SOL    HW2 9009   2.025   2.691   2.405
 2704SOL     OW 9010   0.683   6.465   0.236
 2704SOL    HW1 9011   0.747   6.389   0.230
 2704SOL    HW2 9012   0.622   6.464   0.157
 2705SOL     OW 9013   0.535   2.868   2.680
 2705SOL    HW1 9014   0.514   2.771   2.680
 2705SOL    HW2 9015   0.630   2.882   2.707
 2706SOL     OW 9016   6.573   2.207   3.502
 2706SOL    HW1 9017   6.507   2.242   3.568
 2706SOL    HW2 9018   6.527   2.192   3.414
 2707SOL     OW 9019   3.663   0.974   0.375
 2707SOL    HW1 9020   3.598   1.020   0.435
 2707SOL    HW2 9021   3.652   1.008   0.282
 2708SOL     OW 9022   1.615   4.727   6.740
 2708SOL    HW1 9023   1.616   4.688   6.647
 2708SOL    HW2 9024   1.539   4.686   6.792
 2709SOL     OW 9025   3.977   0.146   1.962
 2709SOL    HW1 9026   4.058   0.191   1.923
 2709SOL    HW2 9027   3.965   0.176   2.056
 2710SOL     OW 9028   5.693   3.842   3.178
 2710SOL    HW1 9029   5.601   3.871   3.207
 2710SOL    HW2 9030   5.758   3.857   3.252
 2711SOL     OW 9031   0.407   6.523   1.667
 2711SOL    HW1 9032   0.415   6.535   1.766
 2711SOL    HW2 9033   0.472   6.454   1.636
 2712SOL     OW 9034   3.164   5.428   2.887
 2712SOL    HW1 9035   3.155   5.455   2.983
 2712SOL    HW2 9036   3.114   5.343   2.871
 2713SOL     OW 9037   2.148   2.916   5.570
 2713SOL    HW1 9038   2.122   3.010   5.548
 2713SOL    HW2 9039   2.206   2.879   5.498
 2714SOL     OW 9040   5.593   0.973   6.734
 2714SOL    HW1 9041   5.589   0.946   6.638
 2714SOL    HW2 9042   5.519   0.929   6.784
 2715SOL     OW 9043   5.864   0.292   0.142
 2715SOL    HW1 9044   5.776   0.259   0.176
 2715SOL    HW2 9045   5.866   0.392   0.147
 2716SOL     OW 9046   6.166   6.537   2.211
 2716SOL    HW1 9047   6.120   6.618   2.249
 2716SOL    HW2 9048   6.261   6.560   2.190
 2717SOL     OW 9049   0.498   6.769   3.381
 2717SOL    HW1 9050   0.507   6.681   3.335
 2717SOL    HW2 9051   0.573   6.829   3.353
 2718SOL     OW 9052   6.722   3.915   3.067
 2718SOL    HW1 9053   6.817   3.885   3.077
 2718SOL    HW2 9054   6.661   3.845   3.106
 2719SOL     OW 9055   4.611   4.371   3.098
 2719SOL    HW1 9056   4.543   4.372   3.024
 2719SOL    HW2 9057   4.569   4.404   3.183
 2720SOL     OW 9058   0.427   6.759   4.243
 2720SOL    HW1 9059   0.479   6.681   4.208
 2720SOL    HW2 9060   0.350   6.778   4.182
 2721SOL     OW 9061   5.430   6.258   2.987
 2721SOL    HW1 9062   5.501   6.324   2.960
 2721SOL    HW2 9063   5.408   6.200   2.908
 2722SOL     OW 9064   0.735   6.011   2.384
 2722SOL    HW1 9065   0.733   6.051   2.476
 2722SOL    HW2 9066   0.819   6.037   2.338
 2723SOL     OW 9067   2.119   2.185   4.263
 2723SOL    HW1 9068   2.109   2.085   4.269
 2723SOL    HW2 9069   2.062   2.220   4.190
 2724SOL     OW 9070   4.824   5.961   5.695
 2724SOL    HW1 9071   4.730   5.934   5.675
 2724SOL    HW2 9072   4.825   6.023   5.774
 2725SOL     OW 9073   2.107   5.157   2.314
 2725SOL    HW1 9074   2.191   5.171   2.366
 2725SOL    HW2 9075   2.046   5.236   2.327
 2726SOL     OW 9076   3.945   5.956   2.863
 2726SOL    HW1 9077   3.989   5.950   2.773
 2726SOL    HW2 9078   4.015   5.950   2.934
 2727SOL     OW 9079   2.255   5.565   3.825
 2727SOL    HW1 9080   2.259   5.470   3.857
 2727SOL    HW2 9081   2.310   5.574   3.742
 2728SOL     OW 9082   2.271   6.498   5.496
 2728SOL    HW1 9083   2.352   6.457   5.455
 2728SOL    HW2 9084   2.244   6.446   5.577
 2729SOL     OW 9085   0.098   4.195   2.488
 2729SOL    HW1 9086   0.151   4.173   2.569
 2729SOL    HW2 9087   0.001   4.177   2.506
 2730SOL     OW 9088   1.396   3.361   1.627
 2730SOL    HW1 9089   1.385   3.454   1.662
 2730SOL    HW2 9090   1.481   3.322   1.662
 2731SOL     OW 9091   2.106   3.315   6.986
 2731SOL    HW1 9092   2.132   3.294   6.891
 2731SOL    HW2 9093   2.011   3.346   6.988
 2732SOL     OW 9094   5.912   3.332   4.730
 2732SOL    HW1 9095   5.853   3.392   4.785
 2732SOL    HW2 9096   5.951   3.385   4.655
 2733SOL     OW 9097   2.227   0.116   6.726
 2733SOL    HW1 9098   2.290   0.045   6.757
 2733SOL    HW2 9099   2.226   0.191   6.792
 2734SOL     OW 9100   1.905   0.158   3.878
 2734SOL    HW1 9101   1.825   0.157   3.819
 2734SOL    HW2 9102   1.984   0.122   3.828
 2735SOL     OW 9103   1.544   5.440   1.508
 2735SOL    HW1 9104   1.563   5.359   1.563
 2735SOL    HW2 9105   1.462   5.486   1.542
 2736SOL     OW 9106   4.366   0.356   6.752
 2736SOL    HW1 9107   4.371   0.258   6.731
 2736SOL    HW2 9108   4.459   0.393   6.761
 2737SOL     OW 9109   4.211   4.074   5.391
 2737SOL    HW1 9110   4.263   4.159   5.393
 2737SOL    HW2 9111   4.131   4.082   5.451
 2738SOL     OW 9112   0.029   3.883   5.199
 2738SOL    HW1 9113   0.013   3.892   5.298
 2738SOL    HW2 9114   7.006   3.958   5.151
 2739SOL     OW 9115   4.714   3.724   6.653
 2739SOL    HW1 9116   4.636   3.692   6.707
 2739SOL    HW2 9117   4.749   3.648   6.598
 2740SOL     OW 9118   6.308   2.701   4.454
 2740SOL    HW1 9119   6.289   2.688   4.552
 2740SOL    HW2 9120   6.389   2.758   4.443
 2741SOL     OW 9121   2.253   3.548   5.823
 2741SOL    HW1 9122   2.288   3.460   5.788
 2741SOL    HW2 9123   2.330   3.604   5.853
 2742SOL     OW 9124   2.496   5.982   5.387
 2742SOL    HW1 9125   2.577   5.973   5.329
 2742SOL    HW2 9126   2.488   5.900   5.445
 2743SOL     OW 9127   5.548   3.907   5.951
 2743SOL    HW1 9128   5.542   3.963   6.033
 2743SOL    HW2 9129   5.534   3.811   5.975
 2744SOL     OW 9130   5.160   6.534   1.265
 2744SOL    HW1 9131   5.247   6.552   1.219
 2744SOL    HW2 9132   5.175   6.475   1.344
 2745SOL     OW 9133   3.065   5.415   2.046
 2745SOL    HW1 9134   3.045   5.422   1.948
 2745SOL    HW2 9135   3.090   5.505   2.082
 2746SOL     OW 9136   0.977   2.655   7.012
 2746SOL    HW1 9137   1.057   2.711   0.011
 2746SOL    HW2 9138   0.910   2.663   0.063
 2747SOL     OW 9139   4.961   6.394   4.019
 2747SOL    HW1 9140   5.004   6.462   4.078
 2747SOL    HW2 9141   4.964   6.426   3.924
 2748SOL     OW 9142   5.530   1.212   4.516
 2748SOL    HW1 9143   5.613   1.158   4.503
 2748SOL    HW2 9144   5.452   1.151   4.529
 2749SOL     OW 9145   5.551   5.147   3.083
 2749SOL    HW1 9146   5.569   5.054   3.049
 2749SOL    HW2 9147   5.629   5.206   3.062
 2750SOL     OW 9148   0.898   0.233   0.180
 2750SOL    HW1 9149   0.929   0.159   0.239
 2750SOL    HW2 9150   0.974   0.294   0.160
 2751SOL     OW 9151   1.366   0.471   6.656
 2751SOL    HW1 9152   1.266   0.469   6.659
 2751SOL    HW2 9153   1.402   0.381   6.681
 2752SOL     OW 9154   0.059   6.396   6.200
 2752SOL    HW1 9155   0.139   6.453   6.220
 2752SOL    HW2 9156   7.017   6.448   6.144
 2753SOL     OW 9157   3.496   5.281   4.418
 2753SOL    HW1 9158   3.553   5.358   4.389
 2753SOL    HW2 9159   3.552   5.198   4.421
 2754SOL     OW 9160   1.149   5.107   4.033
 2754SOL    HW1 9161   1.246   5.092   4.051
 2754SOL    HW2 9162   1.136   5.194   3.986
 2755SOL     OW 9163   4.645   6.648   2.702
 2755SOL    HW1 9164   4.692   6.708   2.638
 2755SOL    HW2 9165   4.563   6.610   2.660
 2756SOL     OW 9166   0.206   3.088   4.831
 2756SOL    HW1 9167   0.197   3.044   4.920
 2756SOL    HW2 9168   0.174   3.025   4.760
 2757SOL     OW 9169   5.072   3.928   5.584
 2757SOL    HW1 9170   5.026   4.017   5.581
 2757SOL    HW2 9171   5.158   3.936   5.634
 2758SOL     OW 9172   0.046   6.603   1.458
 2758SOL    HW1 9173   0.108   6.660   1.511
 2758SOL    HW2 9174   0.079   6.597   1.364
 2759SOL     OW 9175   3.967   3.870   4.626
 2759SOL    HW1 9176   4.008   3.785   4.591
 2759SOL    HW2 9177   3.988   3.880   4.723
 2760SOL     OW 9178   4.844   5.198   2.729
 2760SOL    HW1 9179   4.815   5.131   2.661
 2760SOL    HW2 9180   4.896   5.271   2.685
 2761SOL     OW 9181   1.858   3.437   3.953
 2761SOL    HW1 9182   1.833   3.509   3.888
 2761SOL    HW2 9183   1.823   3.461   4.044
 2762SOL     OW 9184   4.317   1.389   2.221
 2762SOL    HW1 9185   4.231   1.439   2.222
 2762SOL    HW2 9186   4.392   1.452   2.202
 2763SOL     OW 9187   5.566   1.058   4.045
 2763SOL    HW1 9188   5.552   1.031   4.141
 2763SOL    HW2 9189   5.582   0.977   3.990
 2764SOL     OW 9190   6.962   2.216   2.702
 2764SOL    HW1 9191   6.945   2.120   2.722
 2764SOL    HW2 9192   6.939   2.235   2.607
 2765SOL     OW 9193   6.969   6.744   0.045
 2765SOL    HW1 9194   6.980   6.645   0.054
 2765SOL    HW2 9195   0.025   6.782   7.018
 2766SOL     OW 9196   5.232   0.174   0.007
 2766SOL    HW1 9197   5.167   0.193   0.079
 2766SOL    HW2 9198   5.324   0.166   0.046
 2767SOL     OW 9199   0.600   5.983   6.219
 2767SOL    HW1 9200   0.685   5.930   6.218
 2767SOL    HW2 9201   0.612   6.063   6.278
 2768SOL     OW 9202   4.115   0.192   1.435
 2768SOL    HW1 9203   4.139   0.164   1.528
 2768SOL    HW2 9204   4.015   0.193   1.425
 2769SOL     OW 9205   0.837   5.177   5.834
 2769SOL    HW1 9206   0.787   5.090   5.828
 2769SOL    HW2 9207   0.846   5.204   5.929
 2770SOL     OW 9208   2.461   6.858   0.575
 2770SOL    HW1 9209   2.397   6.783   0.560
 2770SOL    HW2 9210   2.502   6.849   0.666
 2771SOL     OW 9211   3.798   6.087   5.584
 2771SOL    HW1 9212   3.812   6.177   5.625
 2771SOL    HW2 9213   3.885   6.052   5.550
 2772SOL     OW 9214   6.204   1.694   2.771
 2772SOL    HW1 9215   6.197   1.662   2.676
 2772SOL    HW2 9216   6.119   1.740   2.797
 2773SOL     OW 9217   5.131   1.719   6.139
 2773SOL    HW1 9218   5.082   1.787   6.194
 2773SOL    HW2 9219   5.119   1.739   6.042
 2774SOL     OW 9220   6.097   6.820   3.831
 2774SOL    HW1 9221   6.038   6.752   3.875
 2774SOL    HW2 9222   6.043   6.899   3.803
 2775SOL     OW 9223   0.257   2.573   4.567
 2775SOL    HW1 9224   0.344   2.551   4.611
 2775SOL    HW2 9225   0.221   2.658   4.605
 2776SOL     OW 9226   5.062   4.267   5.947
 2776SOL    HW1 9227   5.139   4.247   6.008
 2776SOL    HW2 9228   4.979   4.229   5.986
 2777SOL     OW 9229   1.500   1.506   0.562
 2777SOL    HW1 9230   1.455   1.595   0.550
 2777SOL    HW2 9231   1.598   1.520   0.576
 2778SOL     OW 9232   2.773   6.248   6.094
 2778SOL    HW1 9233   2.844   6.181   6.076
 2778SOL    HW2 9234   2.700   6.238   6.026
 2779SOL     OW 9235   5.014   1.255   3.901
 2779SOL    HW1 9236   4.934   1.254   3.840
 2779SOL    HW2 9237   5.013   1.174   3.958
 2780SOL     OW 9238   0.412   0.231   4.932
 2780SOL    HW1 9239   0.510   0.212   4.942
 2780SOL    HW2 9240   0.399   0.330   4.927
 2781SOL     OW 9241   6.914   6.905   2.973
 2781SOL    HW1 9242   6.936   6.957   3.056
 2781SOL    HW2 9243   6.988   6.839   2.956
 2782SOL     OW 9244   5.548   6.722   5.062
 2782SOL    HW1 9245   5.537   6.682   5.152
 2782SOL    HW2 9246   5.628   6.784   5.062
 2783SOL     OW 9247   0.064   2.034   1.710
 2783SOL    HW1 9248   0.007   1.992   1.780
 2783SOL    HW2 9249   0.018   2.030   1.622
 2784SOL     OW 9250   1.444   2.105   1.930
 2784SOL    HW1 9251   1.492   2.060   2.005
 2784SOL    HW2 9252   1.346   2.084   1.935
 2785SOL     OW 9253   5.203   3.415   3.724
 2785SOL    HW1 9254   5.161   3.326   3.739
 2785SOL    HW2 9255   5.283   3.405   3.664
 2786SOL     OW 9256   0.398   5.765   0.897
 2786SOL    HW1 9257   0.308   5.790   0.932
 2786SOL    HW2 9258   0.393   5.675   0.853
 2787SOL     OW 9259   0.231   6.615   6.202
 2787SOL    HW1 9260   0.240   6.664   6.289
 2787SOL    HW2 9261   0.296   6.652   6.137
 2788SOL     OW 9262   2.863   6.478   6.734
 2788SOL    HW1 9263   2.880   6.489   6.636
 2788SOL    HW2 9264   2.775   6.519   6.757
 2789SOL     OW 9265   2.103   2.112   3.572
 2789SOL    HW1 9266   2.095   2.068   3.661
 2789SOL    HW2 9267   2.019   2.162   3.551
 2790SOL     OW 9268   0.980   4.719   1.408
 2790SOL    HW1 9269   1.018   4.688   1.321
 2790SOL    HW2 9270   0.920   4.798   1.392
 2791SOL     OW 9271   0.206   3.655   5.742
 2791SOL    HW1 9272   0.190   3.660   5.841
 2791SOL    HW2 9273   0.123   3.624   5.696
 2792SOL     OW 9274   3.162   2.542   0.052
 2792SOL    HW1 9275   3.177   2.620   7.014
 2792SOL    HW2 9276   3.083   2.560   0.110
 2793SOL     OW 9277   4.533   3.636   6.169
 2793SOL    HW1 9278   4.444   3.636   6.214
 2793SOL    HW2 9279   4.529   3.578   6.087
 2794SOL     OW 9280   1.187   2.131   6.474
 2794SOL    HW1 9281   1.112   2.065   6.472
 2794SOL    HW2 9282   1.173   2.195   6.550
 2795SOL     OW 9283   1.374   6.978   0.300
 2795SOL    HW1 9284   1.386   6.912   0.374
 2795SOL    HW2 9285   1.434   0.034   0.315
 2796SOL     OW 9286   3.286   5.840   7.000
 2796SOL    HW1 9287   3.295   5.867   6.904
 2796SOL    HW2 9288   3.288   5.921   0.035
 2797SOL     OW 9289   4.941   4.005   4.818
 2797SOL    HW1 9290   4.905   4.017   4.726
 2797SOL    HW2 9291   4.867   4.015   4.885
 2798SOL     OW 9292   5.786   2.597   1.495
 2798SOL    HW1 9293   5.846   2.521   1.469
 2798SOL    HW2 9294   5.693   2.579   1.463
 2799SOL     OW 9295   3.414   0.055   4.426
 2799SOL    HW1 9296   3.417   0.154   4.437
 2799SOL    HW2 9297   3.496   0.014   4.466
 2800SOL     OW 9298   4.519   1.342   0.245
 2800SOL    HW1 9299   4.584   1.275   0.281
 2800SOL    HW2 9300   4.569   1.419   0.206
 2801SOL     OW 9301   0.270   4.384   3.361
 2801SOL    HW1 9302   0.348   4.414   3.415
 2801SOL    HW2 9303   0.285   4.291   3.327
 2802SOL     OW 9304   2.033   4.401   4.143
 2802SOL    HW1 9305   1.941   4.362   4.151
 2802SOL    HW2 9306   2.045   4.472   4.212
 2803SOL     OW 9307   2.927   2.920   6.710
 2803SOL    HW1 9308   3.016   2.930   6.665
 2803SOL    HW2 9309   2.912   2.823   6.731
 2804SOL     OW 9310   5.410   2.808   3.526
 2804SOL    HW1 9311   5.325   2.778   3.483
 2804SOL    HW2 9312   5.453   2.879   3.470
 2805SOL     OW 9313   3.853   5.309   0.205
 2805SOL    HW1 9314   3.761   5.348   0.200
 2805SOL    HW2 9315   3.913   5.371   0.255
 2806SOL     OW 9316   0.585   3.035   5.073
 2806SOL    HW1 9317   0.540   2.960   5.024
 2806SOL    HW2 9318   0.678   3.046   5.039
 2807SOL     OW 9319   4.658   1.550   3.943
 2807SOL    HW1 9320   4.565   1.587   3.952
 2807SOL    HW2 9321   4.723   1.625   3.939
 2808SOL     OW 9322   0.984   6.117   6.627
 2808SOL    HW1 9323   0.950   6.026   6.602
 2808SOL    HW2 9324   1.083   6.113   6.637
 2809SOL     OW 9325   0.796   6.333   0.495
 2809SOL    HW1 9326   0.829   6.298   0.407
 2809SOL    HW2 9327   0.874   6.360   0.552
 2810SOL     OW 9328   0.151   6.576   2.158
 2810SOL    HW1 9329   0.251   6.578   2.159
 2810SOL    HW2 9330   0.116   6.670   2.158
 2811SOL     OW 9331   1.006   0.196   0.670
 2811SOL    HW1 9332   0.977   0.108   0.707
 2811SOL    HW2 9333   1.065   0.181   0.591
 2812SOL     OW 9334   2.013   0.793   1.304
 2812SOL    HW1 9335   2.055   0.746   1.382
 2812SOL    HW2 9336   2.033   0.743   1.220
 2813SOL     OW 9337   5.856   2.293   1.697
 2813SOL    HW1 9338   5.873   2.336   1.609
 2813SOL    HW2 9339   5.830   2.197   1.684
 2814SOL     OW 9340   2.250   3.986   6.724
 2814SOL    HW1 9341   2.187   4.058   6.754
 2814SOL    HW2 9342   2.339   4.025   6.702
 2815SOL     OW 9343   6.036   6.301   4.806
 2815SOL    HW1 9344   6.123   6.349   4.811
 2815SOL    HW2 9345   6.006   6.297   4.710
 2816SOL     OW 9346   0.825   4.890   5.101
 2816SOL    HW1 9347   0.804   4.963   5.035
 2816SOL    HW2 9348   0.840   4.804   5.052
 2817SOL     OW 9349   2.938   0.989   1.519
 2817SOL    HW1 9350   2.858   0.939   1.486
 2817SOL    HW2 9351   3.000   0.926   1.566
 2818SOL     OW 9352   2.278   0.787   0.488
 2818SOL    HW1 9353   2.305   0.871   0.442
 2818SOL    HW2 9354   2.280   0.800   0.587
 2819SOL     OW 9355   6.128   0.396   6.391
 2819SOL    HW1 9356   6.086   0.401   6.300
 2819SOL    HW2 9357   6.137   0.301   6.419
 2820SOL     OW 9358   1.422   1.821   0.314
 2820SOL    HW1 9359   1.385   1.745   0.261
 2820SOL    HW2 9360   1.501   1.861   0.267
 2821SOL     OW 9361   3.513   2.390   5.942
 2821SOL    HW1 9362   3.434   2.341   5.979
 2821SOL    HW2 9363   3.595   2.366   5.993
 2822SOL     OW 9364   4.335   3.401   1.398
 2822SOL    HW1 9365   4.288   3.371   1.480
 2822SOL    HW2 9366   4.353   3.500   1.404
 2823SOL     OW 9367   5.441   4.012   3.138
 2823SOL    HW1 9368   5.493   4.043   3.058
 2823SOL    HW2 9369   5.355   4.062   3.144
 2824SOL     OW 9370   0.449   4.247   5.441
 2824SOL    HW1 9371   0.386   4.323   5.461
 2824SOL    HW2 9372   0.537   4.284   5.413
 2825SOL     OW 9373   5.121   2.793   5.622
 2825SOL    HW1 9374   5.093   2.863   5.687
 2825SOL    HW2 9375   5.118   2.830   5.529
 2826SOL     OW 9376   3.200   2.915   6.641
 2826SOL    HW1 9377   3.192   2.985   6.570
 2826SOL    HW2 9378   3.273   2.940   6.704
 2827SOL     OW 9379   6.894   1.612   0.243
 2827SOL    HW1 9380   6.804   1.584   0.274
 2827SOL    HW2 9381   6.963   1.547   0.276
 2828SOL     OW 9382   1.878   3.871   0.139
 2828SOL    HW1 9383   1.808   3.840   0.203
 2828SOL    HW2 9384   1.834   3.911   0.058
 2829SOL     OW 9385   3.235   4.488   0.957
 2829SOL    HW1 9386   3.318   4.499   0.902
 2829SOL    HW2 9387   3.243   4.542   1.040
 2830SOL     OW 9388   2.657   5.378   4.680
 2830SOL    HW1 9389   2.720   5.304   4.704
 2830SOL    HW2 9390   2.581   5.340   4.626
 2831SOL     OW 9391   5.429   1.586   1.821
 2831SOL    HW1 9392   5.474   1.674   1.806
 2831SOL    HW2 9393   5.394   1.583   1.915
 2832SOL     OW 9394   1.316   3.609   1.721
 2832SOL    HW1 9395   1.242   3.611   1.654
 2832SOL    HW2 9396   1.280   3.634   1.811
 2833SOL     OW 9397   6.349   1.897   3.400
 2833SOL    HW1 9398   6.386   1.830   3.464
 2833SOL    HW2 9399   6.304   1.970   3.450
 2834SOL     OW 9400   2.942   0.611   4.308
 2834SOL    HW1 9401   2.975   0.706   4.313
 2834SOL    HW2 9402   2.903   0.585   4.396
 2835SOL     OW 9403   6.649   1.601   0.724
 2835SOL    HW1 9404   6.617   1.531   0.661
 2835SOL    HW2 9405   6.724   1.565   0.779
 2836SOL     OW 9406   2.787   6.401   2.076
 2836SOL    HW1 9407   2.830   6.475   2.129
 2836SOL    HW2 9408   2.754   6.437   1.989
 2837SOL     OW 9409   5.066   3.997   3.306
 2837SOL    HW1 9410   5.090   3.935   3.232
 2837SOL    HW2 9411   5.121   3.976   3.387
 2838SOL     OW 9412   6.873   4.429   6.187
 2838SOL    HW1 9413   6.809   4.443   6.263
 2838SOL    HW2 9414   6.828   4.374   6.116
 2839SOL     OW 9415   5.638   2.854   6.671
 2839SOL    HW1 9416   5.690   2.903   6.741
 2839SOL    HW2 9417   5.551   2.823   6.711
 2840SOL     OW 9418   6.366   5.821   5.230
 2840SOL    HW1 9419   6.355   5.723   5.247
 2840SOL    HW2 9420   6.289   5.854   5.175
 2841SOL     OW 9421   5.630   3.385   2.915
 2841SOL    HW1 9422   5.608   3.482   2.907
 2841SOL    HW2 9423   5.631   3.359   3.011
 2842SOL     OW 9424   1.030   6.228   3.526
 2842SOL    HW1 9425   0.996   6.247   3.434
 2842SOL    HW2 9426   1.048   6.314   3.574
 2843SOL     OW 9427   0.790   2.778   3.970
 2843SOL    HW1 9428   0.722   2.776   4.043
 2843SOL    HW2 9429   0.747   2.808   3.885
 2844SOL     OW 9430   5.752   4.179   0.039
 2844SOL    HW1 9431   5.751   4.176   0.139
 2844SOL    HW2 9432   5.846   4.176   0.007
 2845SOL     OW 9433   3.554   1.829   1.035
 2845SOL    HW1 9434   3.598   1.910   0.995
 2845SOL    HW2 9435   3.612   1.792   1.107
 2846SOL     OW 9436   5.374   0.787   6.175
 2846SOL    HW1 9437   5.380   0.690   6.152
 2846SOL    HW2 9438   5.328   0.836   6.101
 2847SOL     OW 9439   5.590   4.597   2.754
 2847SOL    HW1 9440   5.684   4.626   2.738
 2847SOL    HW2 9441   5.584   4.498   2.749
 2848SOL     OW 9442   0.264   3.920   0.520
 2848SOL    HW1 9443   0.211   3.996   0.480
 2848SOL    HW2 9444   0.350   3.911   0.470
 2849SOL     OW 9445   5.230   1.121   0.473
 2849SOL    HW1 9446   5.243   1.218   0.453
 2849SOL    HW2 9447   5.198   1.109   0.567
 2850SOL     OW 9448   6.923   1.483   0.832
 2850SOL    HW1 9449   6.923   1.389   0.798
 2850SOL    HW2 9450   6.980   1.539   0.771
 2851SOL     OW 9451   3.339   3.056   2.222
 2851SOL    HW1 9452   3.314   2.965   2.190
 2851SOL    HW2 9453   3.399   3.100   2.155
 2852SOL     OW 9454   0.727   4.696   5.335
 2852SOL    HW1 9455   0.824   4.700   5.356
 2852SOL    HW2 9456   0.680   4.775   5.376
 2853SOL     OW 9457   6.936   5.103   5.688
 2853SOL    HW1 9458   6.849   5.149   5.671
 2853SOL    HW2 9459   7.004   5.171   5.717
 2854SOL     OW 9460   3.326   0.418   6.649
 2854SOL    HW1 9461   3.398   0.468   6.601
 2854SOL    HW2 9462   3.312   0.329   6.606
 2855SOL     OW 9463   2.795   2.342   4.407
 2855SOL    HW1 9464   2.866   2.309   4.345
 2855SOL    HW2 9465   2.731   2.400   4.357
 2856SOL     OW 9466   1.441   5.300   4.887
 2856SOL    HW1 9467   1.492   5.270   4.806
 2856SOL    HW2 9468   1.489   5.270   4.969
 2857SOL     OW 9469   0.943   4.243   0.300
 2857SOL    HW1 9470   0.907   4.230   0.208
 2857SOL    HW2 9471   0.972   4.338   0.312
 2858SOL     OW 9472   5.454   4.480   3.996
 2858SOL    HW1 9473   5.412   4.443   4.079
 2858SOL    HW2 9474   5.525   4.419   3.963
 2859SOL     OW 9475   0.516   5.241   1.995
 2859SOL    HW1 9476   0.434   5.250   1.938
 2859SOL    HW2 9477   0.518   5.315   2.063
 2860SOL     OW 9478   1.257   6.124   2.939
 2860SOL    HW1 9479   1.248   6.090   3.033
 2860SOL    HW2 9480   1.343   6.175   2.931
 2861SOL     OW 9481   5.784   3.300   5.255
 2861SOL    HW1 9482   5.879   3.287   5.228
 2861SOL    HW2 9483   5.766   3.252   5.341
 2862SOL     OW 9484   4.623   1.300   0.596
 2862SOL    HW1 9485   4.656   1.216   0.641
 2862SOL    HW2 9486   4.657   1.302   0.502
 2863SOL     OW 9487   5.599   1.545   6.313
 2863SOL    HW1 9488   5.539   1.481   6.361
 2863SOL    HW2 9489   5.568   1.638   6.331
 2864SOL     OW 9490   4.430   4.771   0.660
 2864SOL    HW1 9491   4.353   4.834   0.659
 2864SOL    HW2 9492   4.462   4.757   0.566
 2865SOL     OW 9493   5.594   4.468   6.249
 2865SOL    HW1 9494   5.522   4.450   6.182
 2865SOL    HW2 9495   5.639   4.382   6.273
 2866SOL     OW 9496   4.766   5.915   1.192
 2866SOL    HW1 9497   4.681   5.949   1.152
 2866SOL    HW2 9498   4.810   5.851   1.128
 2867SOL     OW 9499   0.284   5.904   3.487
 2867SOL    HW1 9500   0.237   5.967   3.425
 2867SOL    HW2 9501   0.332   5.955   3.558
 2868SOL     OW 9502   6.589   0.171   5.221
 2868SOL    HW1 9503   6.570   0.269   5.225
 2868SOL    HW2 9504   6.619   0.139   5.311
 2869SOL     OW 9505   6.042   4.490   4.882
 2869SOL    HW1 9506   5.971   4.423   4.907
 2869SOL    HW2 9507   6.017   4.580   4.919
 2870SOL     OW 9508   0.784   1.156   1.299
 2870SOL    HW1 9509   0.777   1.153   1.199
 2870SOL    HW2 9510   0.757   1.246   1.332
 2871SOL     OW 9511   4.727   1.408   3.323
 2871SOL    HW1 9512   4.735   1.506   3.340
 2871SOL    HW2 9513   4.776   1.357   3.394
 2872SOL     OW 9514   3.500   1.639   2.530
 2872SOL    HW1 9515   3.469   1.590   2.611
 2872SOL    HW2 9516   3.566   1.709   2.556
 2873SOL     OW 9517   0.310   0.125   2.663
 2873SOL    HW1 9518   0.404   0.128   2.697
 2873SOL    HW2 9519   0.299   0.047   2.601
 2874SOL     OW 9520   1.421   0.948   1.900
 2874SOL    HW1 9521   1.473   0.907   1.975
 2874SOL    HW2 9522   1.461   1.036   1.876
 2875SOL     OW 9523   2.950   0.858   2.329
 2875SOL    HW1 9524   3.012   0.874   2.252
 2875SOL    HW2 9525   2.856   0.853   2.295
 2876SOL     OW 9526   1.217   6.896   1.291
 2876SOL    HW1 9527   1.175   6.986   1.294
 2876SOL    HW2 9528   1.283   6.887   1.366
 2877SOL     OW 9529   0.874   3.349   6.549
 2877SOL    HW1 9530   0.967   3.344   6.515
 2877SOL    HW2 9531   0.875   3.356   6.649
 2878SOL     OW 9532   4.129   3.631   4.337
 2878SOL    HW1 9533   4.030   3.637   4.340
 2878SOL    HW2 9534   4.166   3.657   4.427
 2879SOL     OW 9535   6.244   6.265   0.114
 2879SOL    HW1 9536   6.325   6.232   0.163
 2879SOL    HW2 9537   6.270   6.335   0.048
 2880SOL     OW 9538   1.401   1.381   2.639
 2880SOL    HW1 9539   1.498   1.399   2.620
 2880SOL    HW2 9540   1.382   1.284   2.622
 2881SOL     OW 9541   5.129   5.663   6.673
 2881SOL    HW1 9542   5.156   5.717   6.753
 2881SOL    HW2 9543   5.210   5.634   6.623
 2882SOL     OW 9544   4.824   6.247   0.424
 2882SOL    HW1 9545   4.799   6.301   0.344
 2882SOL    HW2 9546   4.751   6.182   0.446
 2883SOL     OW 9547   5.258   6.298   3.217
 2883SOL    HW1 9548   5.191   6.225   3.227
 2883SOL    HW2 9549   5.257   6.333   3.124
 2884SOL     OW 9550   6.186   5.771   3.627
 2884SOL    HW1 9551   6.182   5.805   3.721
 2884SOL    HW2 9552   6.203   5.848   3.564
 2885SOL     OW 9553   0.669   3.910   3.391
 2885SOL    HW1 9554   0.658   3.970   3.470
 2885SOL    HW2 9555   0.580   3.873   3.365
 2886SOL     OW 9556   1.946   4.414   5.348
 2886SOL    HW1 9557   1.928   4.476   5.425
 2886SOL    HW2 9558   2.005   4.339   5.379
 2887SOL     OW 9559   0.110   4.691   2.977
 2887SOL    HW1 9560   0.204   4.716   2.957
 2887SOL    HW2 9561   0.108   4.608   3.033
 2888SOL     OW 9562   4.718   6.040   6.659
 2888SOL    HW1 9563   4.648   6.027   6.589
 2888SOL    HW2 9564   4.674   6.066   6.745
 2889SOL     OW 9565   4.013   5.174   3.719
 2889SOL    HW1 9566   3.925   5.129   3.705
 2889SOL    HW2 9567   4.062   5.181   3.632
 2890SOL     OW 9568   1.509   1.665   0.820
 2890SOL    HW1 9569   1.462   1.697   0.738
 2890SOL    HW2 9570   1.603   1.698   0.820
 2891SOL     OW 9571   1.282   1.724   5.402
 2891SOL    HW1 9572   1.316   1.696   5.492
 2891SOL    HW2 9573   1.350   1.781   5.358
 2892SOL     OW 9574   5.905   3.692   2.412
 2892SOL    HW1 9575   5.808   3.717   2.409
 2892SOL    HW2 9576   5.956   3.749   2.348
 2893SOL     OW 9577   6.609   6.260   5.299
 2893SOL    HW1 9578   6.528   6.225   5.251
 2893SOL    HW2 9579   6.586   6.346   5.344
 2894SOL     OW 9580   1.608   5.432   1.232
 2894SOL    HW1 9581   1.611   5.400   1.326
 2894SOL    HW2 9582   1.700   5.455   1.201
 2895SOL     OW 9583   4.808   6.825   6.221
 2895SOL    HW1 9584   4.784   6.836   6.125
 2895SOL    HW2 9585   4.728   6.794   6.273
 2896SOL     OW 9586   6.762   0.067   6.548
 2896SOL    HW1 9587   6.832   0.016   6.597
 2896SOL    HW2 9588   6.744   0.153   6.595
 2897SOL     OW 9589   2.609   6.405   3.687
 2897SOL    HW1 9590   2.671   6.439   3.617
 2897SOL    HW2 9591   2.610   6.305   3.687
 2898SOL     OW 9592   5.430   2.428   2.559
 2898SOL    HW1 9593   5.460   2.480   2.639
 2898SOL    HW2 9594   5.431   2.488   2.478
 2899SOL     OW 9595   6.443   2.724   1.054
 2899SOL    HW1 9596   6.467   2.629   1.074
 2899SOL    HW2 9597   6.432   2.774   1.139
 2900SOL     OW 9598   3.181   3.231   5.044
 2900SOL    HW1 9599   3.168   3.329   5.034
 2900SOL    HW2 9600   3.270   3.214   5.088
 2901SOL     OW 9601   1.687   3.254   1.425
 2901SOL    HW1 9602   1.763   3.275   1.363
 2901SOL    HW2 9603   1.703   3.165   1.468
 2902SOL     OW 9604   5.138   6.049   3.650
 2902SOL    HW1 9605   5.201   6.029   3.575
 2902SOL    HW2 9606   5.065   5.981   3.651
 2903SOL     OW 9607   0.863   5.385   1.730
 2903SOL    HW1 9608   0.772   5.343   1.724
 2903SOL    HW2 9609   0.904   5.362   1.818
 2904SOL     OW 9610   3.170   5.038   4.030
 2904SOL    HW1 9611   3.140   5.033   4.125
 2904SOL    HW2 9612   3.119   4.970   3.976
 2905SOL     OW 9613   1.603   4.391   0.976
 2905SOL    HW1 9614   1.686   4.371   1.027
 2905SOL    HW2 9615   1.557   4.306   0.953
 2906SOL     OW 9616   6.288   6.291   6.395
 2906SOL    HW1 9617   6.276   6.390   6.383
 2906SOL    HW2 9618   6.311   6.271   6.490
 2907SOL     OW 9619   0.097   1.364   6.122
 2907SOL    HW1 9620   0.142   1.356   6.032
 2907SOL    HW2 9621   0.058   1.276   6.147
 2908SOL     OW 9622   3.703   5.814   3.685
 2908SOL    HW1 9623   3.668   5.740   3.627
 2908SOL    HW2 9624   3.694   5.789   3.781
 2909SOL     OW 9625   0.116   6.444   0.735
 2909SOL    HW1 9626   0.125   6.400   0.646
 2909SOL    HW2 9627   0.133   6.542   0.726
 2910SOL     OW 9628   1.143   0.157   4.115
 2910SOL    HW1 9629   1.189   0.096   4.051
 2910SOL    HW2 9630   1.209   0.189   4.184
 2911SOL     OW 9631   6.858   3.336   3.484
 2911SOL    HW1 9632   6.822   3.258   3.432
 2911SOL    HW2 9633   6.938   3.306   3.536
 2912SOL     OW 9634   0.037   1.610   3.091
 2912SOL    HW1 9635   6.968   1.568   3.093
 2912SOL    HW2 9636   0.104   1.542   3.064
 2913SOL     OW 9637   1.010   6.633   3.956
 2913SOL    HW1 9638   1.025   6.732   3.963
 2913SOL    HW2 9639   1.090   6.585   3.992
 2914SOL     OW 9640   3.832   4.673   0.934
 2914SOL    HW1 9641   3.928   4.667   0.904
 2914SOL    HW2 9642   3.803   4.583   0.967
 2915SOL     OW 9643   2.180   0.108   3.777
 2915SOL    HW1 9644   2.233   0.031   3.742
 2915SOL    HW2 9645   2.185   0.109   3.877
 2916SOL     OW 9646   0.295   5.725   6.398
 2916SOL    HW1 9647   0.264   5.799   6.458
 2916SOL    HW2 9648   0.390   5.702   6.419
 2917SOL     OW 9649   1.734   1.708   3.812
 2917SOL    HW1 9650   1.722   1.613   3.785
 2917SOL    HW2 9651   1.778   1.758   3.738
 2918SOL     OW 9652   4.746   1.288   1.082
 2918SOL    HW1 9653   4.763   1.245   0.993
 2918SOL    HW2 9654   4.792   1.377   1.085
 2919SOL     OW 9655   1.047   5.345   4.961
 2919SOL    HW1 9656   1.005   5.304   4.880
 2919SOL    HW2 9657   0.977   5.356   5.032
 2920SOL     OW 9658   2.820   2.318   1.694
 2920SOL    HW1 9659   2.848   2.379   1.620
 2920SOL    HW2 9660   2.876   2.336   1.776
 2921SOL     OW 9661   0.105   5.134   3.659
 2921SOL    HW1 9662   0.083   5.122   3.562
 2921SOL    HW2 9663   0.021   5.127   3.713
 2922SOL     OW 9664   3.879   4.865   3.750
 2922SOL    HW1 9665   3.851   4.863   3.846
 2922SOL    HW2 9666   3.799   4.883   3.692
 2923SOL     OW 9667   1.250   4.096   3.449
 2923SOL    HW1 9668   1.334   4.062   3.408
 2923SOL    HW2 9669   1.188   4.127   3.376
 2924SOL     OW 9670   4.541   1.193   6.923
 2924SOL    HW1 9671   4.603   1.267   6.949
 2924SOL    HW2 9672   4.447   1.220   6.940
 2925SOL     OW 9673   5.410   6.876   4.708
 2925SOL    HW1 9674   5.462   6.791   4.711
 2925SOL    HW2 9675   5.396   6.904   4.613
 2926SOL     OW 9676   0.288   2.509   5.153
 2926SOL    HW1 9677   0.367   2.455   5.126
 2926SOL    HW2 9678   0.231   2.527   5.072
 2927SOL     OW 9679   0.756   1.769   2.727
 2927SOL    HW1 9680   0.851   1.771   2.759
 2927SOL    HW2 9681   0.704   1.703   2.781
 2928SOL     OW 9682   4.926   4.800   0.179
 2928SOL    HW1 9683   4.878   4.872   0.229
 2928SOL    HW2 9684   5.006   4.771   0.232
 2929SOL     OW 9685   1.741   1.638   3.083
 2929SOL    HW1 9686   1.665   1.574   3.091
 2929SOL    HW2 9687   1.827   1.590   3.101
 2930SOL     OW 9688   0.677   2.983   4.299
 2930SOL    HW1 9689   0.670   2.903   4.238
 2930SOL    HW2 9690   0.755   2.970   4.361
 2931SOL     OW 9691   5.606   4.102   5.489
 2931SOL    HW1 9692   5.572   4.027   5.432
 2931SOL    HW2 9693   5.660   4.065   5.564
 2932SOL     OW 9694   0.031   6.889   0.583
 2932SOL    HW1 9695   0.037   6.837   0.499
 2932SOL    HW2 9696   0.007   6.984   0.562
 2933SOL     OW 9697   0.508   0.446   6.884
 2933SOL    HW1 9698   0.452   0.366   6.864
 2933SOL    HW2 9699   0.559   0.431   6.969
 2934SOL     OW 9700   5.518   4.864   2.613
 2934SOL    HW1 9701   5.508   4.766   2.633
 2934SOL    HW2 9702   5.488   4.917   2.692
 2935SOL     OW 9703   0.710   4.578   6.087
 2935SOL    HW1 9704   0.673   4.485   6.089
 2935SOL    HW2 9705   0.807   4.576   6.112
 2936SOL     OW 9706   4.485   6.171   2.519
 2936SOL    HW1 9707   4.440   6.163   2.608
 2936SOL    HW2 9708   4.539   6.089   2.501
 2937SOL     OW 9709   6.268   3.243   3.285
 2937SOL    HW1 9710   6.200   3.173   3.307
 2937SOL    HW2 9711   6.232   3.304   3.214
 2938SOL     OW 9712   0.238   5.366   1.459
 2938SOL    HW1 9713   0.190   5.431   1.400
 2938SOL    HW2 9714   0.336   5.389   1.461
 2939SOL     OW 9715   6.243   5.836   1.775
 2939SOL    HW1 9716   6.205   5.901   1.709
 2939SOL    HW2 9717   6.259   5.883   1.863
 2940SOL     OW 9718   4.770   5.482   3.193
 2940SOL    HW1 9719   4.674   5.508   3.181
 2940SOL    HW2 9720   4.783   5.438   3.281
 2941SOL     OW 9721   3.094   5.128   1.863
 2941SOL    HW1 9722   3.098   5.029   1.853
 2941SOL    HW2 9723   3.184   5.162   1.889
 2942SOL     OW 9724   2.825   1.925   0.656
 2942SOL    HW1 9725   2.841   1.995   0.587
 2942SOL    HW2 9726   2.737   1.941   0.701
 2943SOL     OW 9727   0.164   4.535   3.841
 2943SOL    HW1 9728   0.168   4.509   3.744
 2943SOL    HW2 9729   0.219   4.617   3.856
 2944SOL     OW 9730   0.828   4.988   3.516
 2944SOL    HW1 9731   0.887   4.910   3.497
 2944SOL    HW2 9732   0.741   4.977   3.468
 2945SOL     OW 9733   5.433   3.585   0.861
 2945SOL    HW1 9734   5.413   3.680   0.839
 2945SOL    HW2 9735   5.366   3.526   0.817
 2946SOL     OW 9736   3.335   3.743   4.526
 2946SOL    HW1 9737   3.297   3.656   4.496
 2946SOL    HW2 9738   3.405   3.727   4.595
 2947SOL     OW 9739   6.653   6.779   0.514
 2947SOL    HW1 9740   6.622   6.730   0.432
 2947SOL    HW2 9741   6.749   6.755   0.532
 2948SOL     OW 9742   6.349   4.491   0.775
 2948SOL    HW1 9743   6.298   4.503   0.859
 2948SOL    HW2 9744   6.443   4.523   0.788
 2949SOL     OW 9745   1.515   6.348   1.070
 2949SOL    HW1 9746   1.568   6.264   1.084
 2949SOL    HW2 9747   1.452   6.335   0.993
 2950SOL     OW 9748   5.158   4.912   2.084
 2950SOL    HW1 9749   5.251   4.883   2.106
 2950SOL    HW2 9750   5.133   4.881   1.993
 2951SOL     OW 9751   0.558   2.472   0.787
 2951SOL    HW1 9752   0.535   2.499   0.881
 2951SOL    HW2 9753   0.637   2.523   0.756
 2952SOL     OW 9754   1.048   1.424   4.504
 2952SOL    HW1 9755   1.039   1.428   4.604
 2952SOL    HW2 9756   1.062   1.329   4.476
 2953SOL     OW 9757   1.007   5.371   3.168
 2953SOL    HW1 9758   0.950   5.427   3.107
 2953SOL    HW2 9759   1.013   5.278   3.132
 2954SOL     OW 9760   0.531   4.787   6.066
 2954SOL    HW1 9761   0.604   4.722   6.084
 2954SOL    HW2 9762   0.448   4.760   6.114
 2955SOL     OW 9763   1.448   4.949   5.893
 2955SOL    HW1 9764   1.542   4.968   5.866
 2955SOL    HW2 9765   1.386   4.975   5.818
 2956SOL     OW 9766   6.327   3.473   5.206
 2956SOL    HW1 9767   6.272   3.418   5.143
 2956SOL    HW2 9768   6.387   3.533   5.155
 2957SOL     OW 9769   1.421   4.976   1.936
 2957SOL    HW1 9770   1.511   5.018   1.941
 2957SOL    HW2 9771   1.381   4.993   1.846
 2958SOL     OW 9772   1.853   3.759   1.097
 2958SOL    HW1 9773   1.802   3.684   1.055
 2958SOL    HW2 9774   1.861   3.743   1.195
 2959SOL     OW 9775   0.562   4.386   3.961
 2959SOL    HW1 9776   0.657   4.414   3.954
 2959SOL    HW2 9777   0.524   4.373   3.869
 2960SOL     OW 9778   5.320   6.047   0.852
 2960SOL    HW1 9779   5.224   6.051   0.879
 2960SOL    HW2 9780   5.333   6.098   0.767
 2961SOL     OW 9781   5.941   2.048   0.815
 2961SOL    HW1 9782   5.935   2.036   0.716
 2961SOL    HW2 9783   5.959   2.144   0.836
 2962SOL     OW 9784   6.563   0.613   3.891
 2962SOL    HW1 9785   6.512   0.696   3.915
 2962SOL    HW2 9786   6.507   0.555   3.832
 2963SOL     OW 9787   2.131   1.571   6.025
 2963SOL    HW1 9788   2.170   1.636   5.960
 2963SOL    HW2 9789   2.043   1.538   5.991
 2964SOL     OW 9790   0.963   0.755   5.707
 2964SOL    HW1 9791   0.918   0.791   5.625
 2964SOL    HW2 9792   1.042   0.812   5.730
 2965SOL     OW 9793   5.999   0.374   6.161
 2965SOL    HW1 9794   6.089   0.339   6.137
 2965SOL    HW2 9795   5.929   0.317   6.117
 2966SOL     OW 9796   3.653   6.838   3.028
 2966SOL    HW1 9797   3.669   6.739   3.029
 2966SOL    HW2 9798   3.558   6.856   3.054
 2967SOL     OW 9799   5.772   0.185   5.236
 2967SOL    HW1 9800   5.721   0.217   5.156
 2967SOL    HW2 9801   5.859   0.146   5.206
 2968SOL     OW 9802   1.787   4.088   2.006
 2968SOL    HW1 9803   1.796   4.183   2.034
 2968SOL    HW2 9804   1.858   4.066   1.939
 2969SOL     OW 9805   4.260   1.996   4.975
 2969SOL    HW1 9806   4.304   2.060   4.912
 2969SOL    HW2 9807   4.198   2.045   5.035
 2970SOL     OW 9808   3.186   2.560   6.110
 2970SOL    HW1 9809   3.206   2.529   6.017
 2970SOL    HW2 9810   3.271   2.572   6.160
 2971SOL     OW 9811   4.136   3.206   5.737
 2971SOL    HW1 9812   4.139   3.304   5.717
 2971SOL    HW2 9813   4.062   3.187   5.802
 2972SOL     OW 9814   0.564   5.610   6.467
 2972SOL    HW1 9815   0.650   5.633   6.513
 2972SOL    HW2 9816   0.582   5.541   6.397
 2973SOL     OW 9817   5.308   0.508   4.172
 2973SOL    HW1 9818   5.303   0.486   4.075
 2973SOL    HW2 9819   5.392   0.471   4.211
 2974SOL     OW 9820   5.180   5.116   2.422
 2974SOL    HW1 9821   5.156   5.182   2.493
 2974SOL    HW2 9822   5.112   5.117   2.349
 2975SOL     OW 9823   0.636   3.379   4.634
 2975SOL    HW1 9824   0.562   3.324   4.675
 2975SOL    HW2 9825   0.666   3.449   4.699
 2976SOL     OW 9826   4.152   0.409   1.112
 2976SOL    HW1 9827   4.238   0.441   1.152
 2976SOL    HW2 9828   4.145   0.310   1.125
 2977SOL     OW 9829   1.513   1.480   2.298
 2977SOL    HW1 9830   1.414   1.467   2.305
 2977SOL    HW2 9831   1.557   1.393   2.277
 2978SOL     OW 9832   3.264   6.123   0.325
 2978SOL    HW1 9833   3.290   6.092   0.416
 2978SOL    HW2 9834   3.165   6.129   0.319
 2979SOL     OW 9835   2.048   1.288   5.218
 2979SOL    HW1 9836   1.952   1.267   5.238
 2979SOL    HW2 9837   2.105   1.208   5.237
 2980SOL     OW 9838   2.943   3.346   3.092
 2980SOL    HW1 9839   2.925   3.350   2.994
 2980SOL    HW2 9840   2.999   3.266   3.113
 2981SOL     OW 9841   2.673   1.881   1.569
 2981SOL    HW1 9842   2.709   1.794   1.535
 2981SOL    HW2 9843   2.745   1.928   1.621
 2982SOL     OW 9844   0.577   0.073   2.484
 2982SOL    HW1 9845   0.651   0.033   2.431
 2982SOL    HW2 9846   0.608   0.089   2.578
 2983SOL     OW 9847   6.259   2.360   6.281
 2983SOL    HW1 9848   6.200   2.421   6.229
 2983SOL    HW2 9849   6.346   2.406   6.300
 2984SOL     OW 9850   0.630   6.022   1.153
 2984SOL    HW1 9851   0.712   6.074   1.177
 2984SOL    HW2 9852   0.652   5.925   1.147
 2985SOL     OW 9853   6.899   6.765   5.675
 2985SOL    HW1 9854   6.956   6.764   5.593
 2985SOL    HW2 9855   6.856   6.855   5.685
 2986SOL     OW 9856   4.043   3.827   2.845
 2986SOL    HW1 9857   4.039   3.732   2.813
 2986SOL    HW2 9858   4.054   3.827   2.945
 2987SOL     OW 9859   2.673   6.146   5.528
 2987SOL    HW1 9860   2.760   6.173   5.486
 2987SOL    HW2 9861   2.635   6.067   5.480
 2988SOL     OW 9862   0.948   2.116   6.675
 2988SOL    HW1 9863   0.906   2.205   6.657
 2988SOL    HW2 9864   0.955   2.065   6.589
 2989SOL     OW 9865   5.699   3.553   6.091
 2989SOL    HW1 9866   5.769   3.488   6.122
 2989SOL    HW2 9867   5.742   3.628   6.042
 2990SOL     OW 9868   4.950   2.073   4.765
 2990SOL    HW1 9869   4.930   2.008   4.692
 2990SOL    HW2 9870   5.025   2.038   4.821
 2991SOL     OW 9871   6.159   2.585   0.217
 2991SOL    HW1 9872   6.223   2.528   0.267
 2991SOL    HW2 9873   6.180   2.681   0.233
 2992SOL     OW 9874   2.169   4.375   4.462
 2992SOL    HW1 9875   2.112   4.317   4.520
 2992SOL    HW2 9876   2.262   4.378   4.498
 2993SOL     OW 9877   3.951   5.017   6.531
 2993SOL    HW1 9878   3.884   5.091   6.538
 2993SOL    HW2 9879   3.940   4.955   6.609
 2994SOL     OW 9880   2.607   4.950   4.736
 2994SOL    HW1 9881   2.656   5.035   4.754
 2994SOL    HW2 9882   2.649   4.902   4.659
 2995SOL     OW 9883   5.321   0.285   2.206
 2995SOL    HW1 9884   5.268   0.294   2.123
 2995SOL    HW2 9885   5.388   0.211   2.195
 2996SOL     OW 9886   0.201   0.528   4.003
 2996SOL    HW1 9887   0.117   0.539   3.950
 2996SOL    HW2 9888   0.185   0.464   4.078
 2997SOL     OW 9889   4.715   5.721   3.773
 2997SOL    HW1 9890   4.764   5.808   3.782
 2997SOL    HW2 9891   4.721   5.688   3.679
 2998SOL     OW 9892   2.955   0.066   2.052
 2998SOL    HW1 9893   2.948   0.097   1.957
 2998SOL    HW2 9894   2.868   0.081   2.099
 2999SOL     OW 9895   2.328   5.215   0.682
 2999SOL    HW1 9896   2.422   5.224   0.650
 2999SOL    HW2 9897   2.279   5.152   0.622
 3000SOL     OW 9898   1.868   4.167   6.734
 3000SOL    HW1 9899   1.954   4.195   6.777
 3000SOL    HW2 9900   1.886   4.133   6.642
 3001SOL     OW 9901   3.392   0.413   6.210
 3001SOL    HW1 9902   3.363   0.487   6.150
 3001SOL    HW2 9903   3.311   0.369   6.250
 3002SOL     OW 9904   1.518   2.202   1.454
 3002SOL    HW1 9905   1.544   2.155   1.538
 3002SOL    HW2 9906   1.438   2.260   1.471
 3003SOL     OW 9907   1.373   5.852   6.842
 3003SOL    HW1 9908   1.308   5.911   6.890
 3003SOL    HW2 9909   1.325   5.802   6.770
 3004SOL     OW 9910   2.980   0.828   4.681
 3004SOL    HW1 9911   3.055   0.869   4.733
 3004SOL    HW2 9912   2.894   0.874   4.705
 3005SOL     OW 9913   2.556   1.459   6.812
 3005SOL    HW1 9914   2.521   1.366   6.799
 3005SOL    HW2 9915   2.653   1.455   6.832
 3006SOL     OW 9916   5.970   0.916   5.844
 3006SOL    HW1 9917   6.030   0.881   5.772
 3006SOL    HW2 9918   6.025   0.942   5.923
 3007SOL     OW 9919   6.091   5.797   5.988
 3007SOL    HW1 9920   6.055   5.890   5.996
 3007SOL    HW2 9921   6.098   5.756   6.079
 3008SOL     OW 9922   5.404   3.557   5.319
 3008SOL    HW1 9923   5.429   3.487   5.387
 3008SOL    HW2 9924   5.382   3.642   5.366
 3009SOL     OW 9925   5.663   3.759   1.603
 3009SOL    HW1 9926   5.673   3.859   1.605
 3009SOL    HW2 9927   5.586   3.732   1.661
 3010SOL     OW 9928   4.327   4.438   1.465
 3010SOL    HW1 9929   4.415   4.428   1.512
 3010SOL    HW2 9930   4.253   4.410   1.525
 3011SOL     OW 9931   5.741   0.080   1.209
 3011SOL    HW1 9932   5.761   0.058   1.114
 3011SOL    HW2 9933   5.643   0.068   1.226
 3012SOL     OW 9934   1.919   2.135   4.712
 3012SOL    HW1 9935   1.937   2.231   4.735
 3012SOL    HW2 9936   1.963   2.075   4.778
 3013SOL     OW 9937   0.635   5.199   5.171
 3013SOL    HW1 9938   0.676   5.124   5.222
 3013SOL    HW2 9939   0.576   5.163   5.099
 3014SOL     OW 9940   3.854   7.006   0.769
 3014SOL    HW1 9941   3.889   0.076   0.785
 3014SOL    HW2 9942   3.928   6.939   0.782
 3015SOL     OW 9943   2.436   6.760   6.013
 3015SOL    HW1 9944   2.463   6.848   6.052
 3015SOL    HW2 9945   2.514   6.719   5.966
 3016SOL     OW 9946   2.998   1.377   4.272
 3016SOL    HW1 9947   3.045   1.461   4.302
 3016SOL    HW2 9948   2.900   1.386   4.287
 3017SOL     OW 9949   1.793   6.189   6.894
 3017SOL    HW1 9950   1.837   6.160   6.979
 3017SOL    HW2 9951   1.825   6.132   6.819
 3018SOL     OW 9952   2.208   2.765   1.809
 3018SOL    HW1 9953   2.289   2.709   1.822
 3018SOL    HW2 9954   2.140   2.743   1.880
 3019SOL     OW 9955   0.953   1.314   5.210
 3019SOL    HW1 9956   0.984   1.223   5.185
 3019SOL    HW2 9957   0.994   1.341   5.297
 3020SOL     OW 9958   5.747   4.237   6.329
 3020SOL    HW1 9959   5.847   4.230   6.326
 3020SOL    HW2 9960   5.712   4.185   6.408
 3021SOL     OW 9961   4.342   6.757   4.516
 3021SOL    HW1 9962   4.363   6.708   4.431
 3021SOL    HW2 9963   4.256   6.806   4.506
 3022SOL     OW 9964   3.705   6.465   2.491
 3022SOL    HW1 9965   3.740   6.483   2.399
 3022SOL    HW2 9966   3.708   6.548   2.546
 3023SOL     OW 9967   5.225   4.586   4.966
 3023SOL    HW1 9968   5.151   4.637   4.922
 3023SOL    HW2 9969   5.243   4.502   4.915
 3024SOL     OW 9970   6.030   1.520   6.604
 3024SOL    HW1 9971   6.009   1.470   6.519
 3024SOL    HW2 9972   6.074   1.458   6.669
 3025SOL     OW 9973   3.686   5.541   1.024
 3025SOL    HW1 9974   3.624   5.619   1.015
 3025SOL    HW2 9975   3.780   5.573   1.020
 3026SOL     OW 9976   6.939   6.128   2.396
 3026SOL    HW1 9977   7.007   6.094   2.461
 3026SOL    HW2 9978   6.984   6.163   2.315
 3027SOL     OW 9979   4.010   0.204   0.851
 3027SOL    HW1 9980   4.061   0.135   0.902
 3027SOL    HW2 9981   4.062   0.289   0.848
 3028SOL     OW 9982   3.681   3.636   3.863
 3028SOL    HW1 9983   3.699   3.564   3.930
 3028SOL    HW2 9984   3.628   3.597   3.787
 3029SOL     OW 9985   0.152   2.329   5.308
 3029SOL    HW1 9986   0.185   2.353   5.399
 3029SOL    HW2 9987   0.195   2.387   5.239
 3030SOL     OW 9988   0.110   3.894   6.359
 3030SOL    HW1 9989   0.112   3.854   6.450
 3030SOL    HW2 9990   0.176   3.847   6.300
 3031SOL     OW 9991   0.341   4.686   6.849
 3031SOL    HW1 9992   0.261   4.722   6.800
 3031SOL    HW2 9993   0.409   4.656   6.783
 3032SOL     OW 9994   4.114   0.130   3.451
 3032SOL    HW1 9995   4.108   0.187   3.533
 3032SOL    HW2 9996   4.210   0.115   3.428
 3033SOL     OW 9997   1.945   0.439   6.512
 3033SOL    HW1 9998   2.033   0.399   6.487
 3033SOL    HW2 9999   1.953   0.486   6.599
 3034SOL     OW10000   5.004   3.481   3.249
 3034SOL    HW110001   4.923   3.537   3.265
 3034SOL    HW210002   5.024   3.478   3.151
 3035SOL     OW10003   6.331   4.382   6.564
 3035SOL    HW110004   6.377   4.402   6.477
 3035SOL    HW210005   6.392   4.330   6.623
 3036SOL     OW10006   2.983   2.655   6.767
 3036SOL    HW110007   2.931   2.575   6.737
 3036SOL    HW210008   3.008   2.644   6.863
 3037SOL     OW10009   0.670   5.404   6.287
 3037SOL    HW110010   0.704   5.369   6.200
 3037SOL    HW210011   0.598   5.343   6.321
 3038SOL     OW10012   5.702   4.928   4.899
 3038SOL    HW110013   5.729   4.975   4.984
 3038SOL    HW210014   5.607   4.899   4.906
 3039SOL     OW10015   6.253   3.472   6.688
 3039SOL    HW110016   6.248   3.547   6.754
 3039SOL    HW210017   6.313   3.499   6.612
 3040SOL     OW10018   3.547   6.476   6.727
 3040SOL    HW110019   3.481   6.551   6.738
 3040SOL    HW210020   3.553   6.424   6.812
 3041SOL     OW10021   2.559   5.854   6.452
 3041SOL    HW110022   2.613   5.777   6.486
 3041SOL    HW210023   2.589   5.879   6.360
 3042SOL     OW10024   0.148   5.473   4.592
 3042SOL    HW110025   0.076   5.541   4.579
 3042SOL    HW210026   0.166   5.427   4.505
 3043SOL     OW10027   2.272   3.496   0.981
 3043SOL    HW110028   2.335   3.476   1.056
 3043SOL    HW210029   2.183   3.522   1.018
 3044SOL     OW10030   3.914   4.001   3.723
 3044SOL    HW110031   3.946   3.985   3.816
 3044SOL    HW210032   3.899   3.913   3.677
 3045SOL     OW10033   5.609   0.200   3.388
 3045SOL    HW110034   5.689   0.142   3.376
 3045SOL    HW210035   5.532   0.163   3.336
 3046SOL     OW10036   6.784   5.835   1.533
 3046SOL    HW110037   6.707   5.774   1.548
 3046SOL    HW210038   6.787   5.863   1.437
 3047SOL     OW10039   4.269   1.874   3.962
 3047SOL    HW110040   4.196   1.885   3.894
 3047SOL    HW210041   4.316   1.961   3.975
 3048SOL     OW10042   4.347   5.111   0.866
 3048SOL    HW110043   4.434   5.064   0.879
 3048SOL    HW210044   4.305   5.081   0.780
 3049SOL     OW10045   0.338   0.556   1.180
 3049SOL    HW110046   0.303   0.495   1.110
 3049SOL    HW210047   0.285   0.641   1.179
 3050SOL     OW10048   3.846   2.491   5.359
 3050SOL    HW110049   3.763   2.442   5.332
 3050SOL    HW210050   3.850   2.578   5.309
 3051SOL     OW10051   2.163   4.435   6.102
 3051SOL    HW110052   2.136   4.519   6.055
 3051SOL    HW210053   2.133   4.440   6.198
 3052SOL     OW10054   5.845   6.621   4.189
 3052SOL    HW110055   5.774   6.555   4.163
 3052SOL    HW210056   5.878   6.599   4.281
 3053SOL     OW10057   0.656   5.587   5.777
 3053SOL    HW110058   0.658   5.648   5.697
 3053SOL    HW210059   0.561   5.562   5.796
 3054SOL     OW10060   5.867   6.653   3.529
 3054SOL    HW110061   5.961   6.685   3.542
 3054SOL    HW210062   5.838   6.671   3.435
 3055SOL     OW10063   5.725   6.073   0.770
 3055SOL    HW110064   5.701   6.017   0.691
 3055SOL    HW210065   5.705   6.169   0.751
 3056SOL     OW10066   4.628   2.394   1.331
 3056SOL    HW110067   4.553   2.460   1.328
 3056SOL    HW210068   4.644   2.364   1.425
 3057SOL     OW10069   6.633   2.445   3.113
 3057SOL    HW110070   6.554   2.498   3.084
 3057SOL    HW210071   6.606   2.351   3.131
 3058SOL     OW10072   5.543   3.788   6.606
 3058SOL    HW110073   5.573   3.883   6.608
 3058SOL    HW210074   5.540   3.756   6.511
 3059SOL     OW10075   1.632   2.799   3.269
 3059SOL    HW110076   1.610   2.786   3.172
 3059SOL    HW210077   1.731   2.806   3.280
 3060SOL     OW10078   6.432   3.080   3.855
 3060SOL    HW110079   6.495   3.030   3.915
 3060SOL    HW210080   6.393   3.016   3.788
 3061SOL     OW10081   5.484   5.893   2.486
 3061SOL    HW110082   5.580   5.867   2.499
 3061SOL    HW210083   5.435   5.817   2.443
 3062SOL     OW10084   4.042   5.185   6.842
 3062SOL    HW110085   4.109   5.136   6.787
 3062SOL    HW210086   3.950   5.155   6.818
 3063SOL     OW10087   6.191   5.459   1.110
 3063SOL    HW110088   6.216   5.473   1.206
 3063SOL    HW210089   6.105   5.508   1.091
 3064SOL     OW10090   5.019   0.775   5.930
 3064SOL    HW110091   5.114   0.806   5.942
 3064SOL    HW210092   5.014   0.715   5.851
 3065SOL     OW10093   4.961   1.459   6.354
 3065SOL    HW110094   4.949   1.489   6.259
 3065SOL    HW210095   4.902   1.513   6.414
 3066SOL     OW10096   5.673   6.997   5.766
 3066SOL    HW110097   5.722   6.969   5.683
 3066SOL    HW210098   5.577   7.016   5.744
 3067SOL     OW10099   0.919   2.223   4.704
 3067SOL    HW110100   0.839   2.168   4.728
 3067SOL    HW210101   0.997   2.193   4.759
 3068SOL     OW10102   5.932   0.517   0.824
 3068SOL    HW110103   5.963   0.610   0.842
 3068SOL    HW210104   5.872   0.517   0.744
 3069SOL     OW10105   5.655   5.793   3.981
 3069SOL    HW110106   5.615   5.884   3.992
 3069SOL    HW210107   5.583   5.728   3.957
 3070SOL     OW10108   2.309   1.663   0.533
 3070SOL    HW110109   2.393   1.643   0.583
 3070SOL    HW210110   2.237   1.600   0.563
 3071SOL     OW10111   6.523   4.128   4.470
 3071SOL    HW110112   6.462   4.190   4.520
 3071SOL    HW210113   6.487   4.035   4.474
 3072SOL     OW10114   1.797   6.817   4.360
 3072SOL    HW110115   1.875   6.862   4.402
 3072SOL    HW210116   1.827   6.734   4.314
 3073SOL     OW10117   0.386   5.255   3.248
 3073SOL    HW110118   0.396   5.174   3.190
 3073SOL    HW210119   0.461   5.258   3.314
 3074SOL     OW10120   3.140   3.513   2.063
 3074SOL    HW110121   3.077   3.550   2.131
 3074SOL    HW210122   3.118   3.417   2.046
 3075SOL     OW10123   4.019   4.956   0.503
 3075SOL    HW110124   3.925   4.928   0.486
 3075SOL    HW210125   4.022   5.056   0.515
 3076SOL     OW10126   2.191   0.966   3.997
 3076SOL    HW110127   2.153   1.036   3.936
 3076SOL    HW210128   2.205   1.006   4.088
 3077SOL     OW10129   6.659   3.713   2.639
 3077SOL    HW110130   6.759   3.714   2.646
 3077SOL    HW210131   6.620   3.705   2.731
 3078SOL     OW10132   6.293   4.609   1.554
 3078SOL    HW110133   6.313   4.695   1.601
 3078SOL    HW210134   6.302   4.533   1.618
 3079SOL     OW10135   0.013   4.071   2.209
 3079SOL    HW110136   0.001   4.093   2.112
 3079SOL    HW210137   0.014   4.156   2.262
 3080SOL     OW10138   3.029   5.006   1.242
 3080SOL    HW110139   3.008   4.909   1.250
 3080SOL    HW210140   3.116   5.017   1.194
 3081SOL     OW10141   1.970   2.395   6.019
 3081SOL    HW110142   2.010   2.337   5.948
 3081SOL    HW210143   2.012   2.373   6.107
 3082SOL     OW10144   6.468   3.683   4.745
 3082SOL    HW110145   6.526   3.625   4.802
 3082SOL    HW210146   6.372   3.660   4.761
 3083SOL     OW10147   4.713   5.655   1.853
 3083SOL    HW110148   4.756   5.726   1.909
 3083SOL    HW210149   4.670   5.697   1.773
 3084SOL     OW10150   0.413   5.399   4.208
 3084SOL    HW110151   0.493   5.456   4.190
 3084SOL    HW210152   0.403   5.330   4.137
 3085SOL     OW10153   6.919   5.753   5.492
 3085SOL    HW110154   6.937   5.831   5.432
 3085SOL    HW210155   6.981   5.678   5.469
 3086SOL     OW10156   6.123   6.328   6.134
 3086SOL    HW110157   6.172   6.376   6.061
 3086SOL    HW210158   6.181   6.258   6.173
 3087SOL     OW10159   3.239   0.106   1.419
 3087SOL    HW110160   3.207   0.043   1.491
 3087SOL    HW210161   3.307   0.168   1.457
 3088SOL     OW10162   2.381   3.223   5.380
 3088SOL    HW110163   2.332   3.145   5.340
 3088SOL    HW210164   2.470   3.233   5.336
 3089SOL     OW10165   4.063   6.842   0.055
 3089SOL    HW110166   3.971   6.817   0.028
 3089SOL    HW210167   4.081   6.808   0.147
 3090SOL     OW10168   1.095   1.941   2.620
 3090SOL    HW110169   1.069   1.855   2.664
 3090SOL    HW210170   1.178   1.977   2.664
 3091SOL     OW10171   1.437   1.903   5.834
 3091SOL    HW110172   1.356   1.950   5.799
 3091SOL    HW210173   1.519   1.952   5.807
 3092SOL     OW10174   5.060   1.929   3.795
 3092SOL    HW110175   5.065   1.846   3.739
 3092SOL    HW210176   5.019   2.003   3.742
 3093SOL     OW10177   6.180   5.585   0.027
 3093SOL    HW110178   6.091   5.584   0.073
 3093SOL    HW210179   6.246   5.635   0.083
 3094SOL     OW10180   2.224   1.133   6.568
 3094SOL    HW110181   2.209   1.041   6.532
 3094SOL    HW210182   2.249   1.126   6.665
 3095SOL     OW10183   1.783   3.449   5.988
 3095SOL    HW110184   1.761   3.413   6.079
 3095SOL    HW210185   1.779   3.375   5.921
 3096SOL     OW10186   2.159   3.346   3.748
 3096SOL    HW110187   2.154   3.341   3.848
 3096SOL    HW210188   2.170   3.441   3.720
 3097SOL     OW10189   4.919   2.533   6.620
 3097SOL    HW110190   5.012   2.543   6.653
 3097SOL    HW210191   4.915   2.459   6.552
 3098SOL     OW10192   1.905   4.019   2.777
 3098SOL    HW110193   1.878   3.937   2.826
 3098SOL    HW210194   2.005   4.023   2.772
 3099SOL     OW10195   0.334   0.955   5.886
 3099SOL    HW110196   0.255   0.900   5.859
 3099SOL    HW210197   0.404   0.950   5.815
 3100SOL     OW10198   5.879   3.919   2.968
 3100SOL    HW110199   5.813   3.884   3.035
 3100SOL    HW210200   5.881   3.859   2.889
 3101SOL     OW10201   5.052   0.414   4.223
 3101SOL    HW110202   5.013   0.454   4.305
 3101SOL    HW210203   5.128   0.470   4.191
 3102SOL     OW10204   5.670   3.166   3.189
 3102SOL    HW110205   5.727   3.123   3.120
 3102SOL    HW210206   5.617   3.096   3.237
 3103SOL     OW10207   1.424   1.116   2.533
 3103SOL    HW110208   1.520   1.090   2.538
 3103SOL    HW210209   1.367   1.035   2.537
 3104SOL     OW10210   5.850   1.446   6.237
 3104SOL    HW110211   5.774   1.481   6.292
 3104SOL    HW210212   5.825   1.449   6.140
 3105SOL     OW10213   5.581   4.616   0.273
 3105SOL    HW110214   5.595   4.557   0.193
 3105SOL    HW210215   5.557   4.560   0.352
 3106SOL     OW10216   5.424   1.988   5.802
 3106SOL    HW110217   5.363   2.013   5.877
 3106SOL    HW210218   5.370   1.948   5.727
 3107SOL     OW10219   4.296   2.075   4.552
 3107SOL    HW110220   4.274   2.122   4.638
 3107SOL    HW210221   4.232   2.104   4.481
 3108SOL     OW10222   2.358   4.935   3.875
 3108SOL    HW110223   2.259   4.943   3.881
 3108SOL    HW210224   2.385   4.840   3.890
 3109SOL     OW10225   0.165   5.335   4.345
 3109SOL    HW110226   0.087   5.316   4.286
 3109SOL    HW210227   0.242   5.367   4.289
 3110SOL     OW10228   2.001   5.170   3.881
 3110SOL    HW110229   1.993   5.252   3.937
 3110SOL    HW210230   1.914   5.153   3.835
 3111SOL     OW10231   6.763   3.761   3.921
 3111SOL    HW110232   6.759   3.730   4.016
 3111SOL    HW210233   6.847   3.814   3.906
 3112SOL     OW10234   4.577   0.139   0.897
 3112SOL    HW110235   4.563   0.088   0.812
 3112SOL    HW210236   4.548   0.083   0.975
 3113SOL     OW10237   1.489   6.312   3.599
 3113SOL    HW110238   1.481   6.394   3.543
 3113SOL    HW210239   1.441   6.326   3.685
 3114SOL     OW10240   5.099   5.341   5.273
 3114SOL    HW110241   5.159   5.360   5.351
 3114SOL    HW210242   5.148   5.362   5.188
 3115SOL     OW10243   5.110   5.456   4.620
 3115SOL    HW110244   5.028   5.487   4.669
 3115SOL    HW210245   5.098   5.472   4.522
 3116SOL     OW10246   0.831   2.647   6.581
 3116SOL    HW110247   0.739   2.626   6.548
 3116SOL    HW210248   0.870   2.721   6.526
 3117SOL     OW10249   4.505   6.963   1.855
 3117SOL    HW110250   4.414   6.922   1.847
 3117SOL    HW210251   4.553   6.924   1.933
 3118SOL     OW10252   0.605   2.238   3.522
 3118SOL    HW110253   0.518   2.259   3.479
 3118SOL    HW210254   0.678   2.241   3.454
 3119SOL     OW10255   4.586   6.509   3.429
 3119SOL    HW110256   4.568   6.414   3.454
 3119SOL    HW210257   4.522   6.538   3.357
 3120SOL     OW10258   3.772   6.436   6.317
 3120SOL    HW110259   3.693   6.479   6.360
 3120SOL    HW210260   3.810   6.366   6.378
 3121SOL     OW10261   3.955   1.570   2.948
 3121SOL    HW110262   4.048   1.585   2.912
 3121SOL    HW210263   3.957   1.496   3.015
 3122SOL     OW10264   5.542   3.450   6.434
 3122SOL    HW110265   5.565   3.433   6.530
 3122SOL    HW210266   5.574   3.541   6.407
 3123SOL     OW10267   1.932   3.155   2.885
 3123SOL    HW110268   1.943   3.125   2.791
 3123SOL    HW210269   1.972   3.246   2.897
 3124SOL     OW10270   5.050   7.000   5.442
 3124SOL    HW110271   5.073   0.070   5.410
 3124SOL    HW210272   4.994   6.954   5.373
 3125SOL     OW10273   1.963   1.771   4.756
 3125SOL    HW110274   1.907   1.706   4.808
 3125SOL    HW210275   1.923   1.784   4.665
 3126SOL     OW10276   5.475   3.989   4.604
 3126SOL    HW110277   5.439   4.049   4.677
 3126SOL    HW210278   5.479   3.895   4.638
 3127SOL     OW10279   6.554   2.312   6.225
 3127SOL    HW110280   6.647   2.346   6.240
 3127SOL    HW210281   6.524   2.335   6.132
 3128SOL     OW10282   4.449   1.962   1.671
 3128SOL    HW110283   4.459   1.964   1.770
 3128SOL    HW210284   4.529   1.917   1.630
 3129SOL     OW10285   4.433   4.660   0.329
 3129SOL    HW110286   4.465   4.571   0.297
 3129SOL    HW210287   4.335   4.655   0.347
 3130SOL     OW10288   6.256   5.067   2.748
 3130SOL    HW110289   6.255   5.095   2.844
 3130SOL    HW210290   6.350   5.073   2.713
 3131SOL     OW10291   0.109   2.435   3.182
 3131SOL    HW110292   0.065   2.350   3.211
 3131SOL    HW210293   0.128   2.491   3.262
 3132SOL     OW10294   4.852   4.070   6.004
 3132SOL    HW110295   4.827   4.026   6.091
 3132SOL    HW210296   4.817   4.015   5.928
 3133SOL     OW10297   5.639   6.672   4.494
 3133SOL    HW110298   5.684   6.589   4.463
 3133SOL    HW210299   5.618   6.665   4.591
 3134SOL     OW10300   4.082   5.026   2.971
 3134SOL    HW110301   3.987   4.996   2.967
 3134SOL    HW210302   4.086   5.121   3.004
 3135SOL     OW10303   4.161   1.050   5.950
 3135SOL    HW110304   4.134   1.035   6.045
 3135SOL    HW210305   4.213   0.971   5.917
 3136SOL     OW10306   5.992   6.120   2.094
 3136SOL    HW110307   6.087   6.140   2.067
 3136SOL    HW210308   5.932   6.128   2.015
 3137SOL     OW10309   5.143   3.767   0.154
 3137SOL    HW110310   5.228   3.746   0.203
 3137SOL    HW210311   5.120   3.692   0.093
 3138SOL     OW10312   6.966   6.373   5.093
 3138SOL    HW110313   6.989   6.470   5.096
 3138SOL    HW210314   6.989   6.330   5.181
 3139SOL     OW10315   1.315   4.718   2.213
 3139SOL    HW110316   1.324   4.801   2.158
 3139SOL    HW210317   1.317   4.638   2.152
 3140SOL     OW10318   4.699   5.572   6.858
 3140SOL    HW110319   4.760   5.516   6.914
 3140SOL    HW210320   4.748   5.652   6.825
 3141SOL     OW10321   5.929   2.050   0.278
 3141SOL    HW110322   5.971   1.981   0.338
 3141SOL    HW210323   5.992   2.126   0.265
 3142SOL     OW10324   4.134   1.020   3.947
 3142SOL    HW110325   4.133   0.996   3.850
 3142SOL    HW210326   4.114   0.938   4.002
 3143SOL     OW10327   6.042   1.541   0.081
 3143SOL    HW110328   5.973   1.494   0.026
 3143SOL    HW210329   6.083   1.614   0.028
 3144SOL     OW10330   3.827   4.889   6.320
 3144SOL    HW110331   3.904   4.849   6.270
 3144SOL    HW210332   3.861   4.939   6.399
 3145SOL     OW10333   0.676   5.885   5.621
 3145SOL    HW110334   0.675   5.810   5.555
 3145SOL    HW210335   0.755   5.874   5.682
 3146SOL     OW10336   6.711   1.486   4.154
 3146SOL    HW110337   6.774   1.521   4.084
 3146SOL    HW210338   6.641   1.429   4.110
 3147SOL     OW10339   4.864   6.754   0.805
 3147SOL    HW110340   4.768   6.759   0.778
 3147SOL    HW210341   4.885   6.661   0.836
 3148SOL     OW10342   5.698   4.786   0.081
 3148SOL    HW110343   5.766   4.845   0.124
 3148SOL    HW210344   5.642   4.743   0.152
 3149SOL     OW10345   4.550   3.248   6.963
 3149SOL    HW110346   4.575   3.198   0.024
 3149SOL    HW210347   4.480   3.316   6.985
 3150SOL     OW10348   0.151   0.187   5.376
 3150SOL    HW110349   0.205   0.183   5.292
 3150SOL    HW210350   0.170   0.106   5.432
 3151SOL     OW10351   0.223   1.785   6.638
 3151SOL    HW110352   0.308   1.827   6.670
 3151SOL    HW210353   0.160   1.774   6.715
 3152SOL     OW10354   2.781   1.784   6.136
 3152SOL    HW110355   2.758   1.692   6.167
 3152SOL    HW210356   2.699   1.841   6.137
 3153SOL     OW10357   5.833   5.698   1.683
 3153SOL    HW110358   5.869   5.786   1.714
 3153SOL    HW210359   5.891   5.661   1.611
 3154SOL     OW10360   3.389   2.310   0.709
 3154SOL    HW110361   3.486   2.292   0.728
 3154SOL    HW210362   3.373   2.409   0.709
 3155SOL     OW10363   6.689   6.206   6.643
 3155SOL    HW110364   6.756   6.134   6.662
 3155SOL    HW210365   6.721   6.262   6.567
 3156SOL     OW10366   2.703   4.467   0.929
 3156SOL    HW110367   2.607   4.459   0.902
 3156SOL    HW210368   2.759   4.410   0.869
 3157SOL     OW10369   1.529   1.441   3.111
 3157SOL    HW110370   1.452   1.504   3.113
 3157SOL    HW210371   1.504   1.356   3.159
 3158SOL     OW10372   2.041   0.345   6.000
 3158SOL    HW110373   1.951   0.353   6.044
 3158SOL    HW210374   2.057   0.249   5.976
 3159SOL     OW10375   4.657   5.559   1.471
 3159SOL    HW110376   4.616   5.643   1.507
 3159SOL    HW210377   4.710   5.514   1.543
 3160SOL     OW10378   2.307   1.227   5.630
 3160SOL    HW110379   2.385   1.221   5.692
 3160SOL    HW210380   2.332   1.191   5.540
 3161SOL     OW10381   1.993   2.402   1.881
 3161SOL    HW110382   2.024   2.460   1.957
 3161SOL    HW210383   2.054   2.414   1.803
 3162SOL     OW10384   1.420   5.838   2.169
 3162SOL    HW110385   1.439   5.936   2.167
 3162SOL    HW210386   1.352   5.816   2.098
 3163SOL     OW10387   5.233   4.440   1.526
 3163SOL    HW110388   5.201   4.345   1.527
 3163SOL    HW210389   5.165   4.498   1.572
 3164SOL     OW10390   2.339   0.096   3.299
 3164SOL    HW110391   2.267   0.120   3.365
 3164SOL    HW210392   2.298   0.050   3.221
 3165SOL     OW10393   0.297   5.537   6.962
 3165SOL    HW110394   0.264   5.443   6.968
 3165SOL    HW210395   0.247   5.586   6.891
 3166SOL     OW10396   3.561   2.089   4.703
 3166SOL    HW110397   3.587   2.115   4.795
 3166SOL    HW210398   3.493   2.153   4.667
 3167SOL     OW10399   6.554   2.894   2.625
 3167SOL    HW110400   6.486   2.919   2.693
 3167SOL    HW210401   6.610   2.974   2.602
 3168SOL     OW10402   5.491   1.540   0.928
 3168SOL    HW110403   5.585   1.574   0.918
 3168SOL    HW210404   5.427   1.609   0.896
 3169SOL     OW10405   1.161   2.649   2.201
 3169SOL    HW110406   1.253   2.678   2.176
 3169SOL    HW210407   1.136   2.567   2.150
 3170SOL     OW10408   2.487   4.685   3.827
 3170SOL    HW110409   2.465   4.589   3.840
 3170SOL    HW210410   2.555   4.693   3.754
 3171SOL     OW10411   6.143   1.894   4.490
 3171SOL    HW110412   6.086   1.974   4.508
 3171SOL    HW210413   6.203   1.878   4.568
 3172SOL     OW10414   5.909   4.260   1.167
 3172SOL    HW110415   6.008   4.270   1.153
 3172SOL    HW210416   5.869   4.349   1.185
 3173SOL     OW10417   5.530   4.342   0.388
 3173SOL    HW110418   5.532   4.299   0.298
 3173SOL    HW210419   5.443   4.322   0.433
 3174SOL     OW10420   2.813   3.015   0.151
 3174SOL    HW110421   2.734   2.959   0.176
 3174SOL    HW210422   2.820   3.020   0.051
 3175SOL     OW10423   5.861   6.061   5.638
 3175SOL    HW110424   5.919   6.094   5.713
 3175SOL    HW210425   5.796   6.132   5.612
 3176SOL     OW10426   6.798   5.290   4.065
 3176SOL    HW110427   6.760   5.203   4.096
 3176SOL    HW210428   6.898   5.288   4.072
 3177SOL     OW10429   5.500   2.572   1.531
 3177SOL    HW110430   5.501   2.567   1.431
 3177SOL    HW210431   5.509   2.480   1.569
 3178SOL     OW10432   1.458   0.709   2.515
 3178SOL    HW110433   1.555   0.731   2.503
 3178SOL    HW210434   1.448   0.610   2.521
 3179SOL     OW10435   0.521   4.231   3.082
 3179SOL    HW110436   0.522   4.286   2.998
 3179SOL    HW210437   0.570   4.145   3.066
 3180SOL     OW10438   6.109   0.131   6.476
 3180SOL    HW110439   6.109   0.050   6.418
 3180SOL    HW210440   6.070   0.108   6.565
 3181SOL     OW10441   0.035   6.644   4.560
 3181SOL    HW110442   0.004   6.708   4.631
 3181SOL    HW210443   0.069   6.560   4.603
 3182SOL     OW10444   1.370   6.814   1.506
 3182SOL    HW110445   1.440   6.812   1.434
 3182SOL    HW210446   1.410   6.851   1.590
 3183SOL     OW10447   4.210   4.143   0.434
 3183SOL    HW110448   4.156   4.074   0.386
 3183SOL    HW210449   4.216   4.120   0.531
 3184SOL     OW10450   6.456   0.561   4.703
 3184SOL    HW110451   6.360   0.581   4.686
 3184SOL    HW210452   6.464   0.475   4.755
 3185SOL     OW10453   1.210   0.960   6.322
 3185SOL    HW110454   1.307   0.958   6.347
 3185SOL    HW210455   1.166   0.876   6.355
 3186SOL     OW10456   0.888   2.031   6.018
 3186SOL    HW110457   0.832   2.016   6.099
 3186SOL    HW210458   0.840   1.999   5.937
 3187SOL     OW10459   4.781   0.453   3.564
 3187SOL    HW110460   4.859   0.516   3.560
 3187SOL    HW210461   4.770   0.420   3.658
 3188SOL     OW10462   1.262   6.053   1.383
 3188SOL    HW110463   1.207   6.097   1.453
 3188SOL    HW210464   1.359   6.060   1.407
 3189SOL     OW10465   2.418   2.134   5.351
 3189SOL    HW110466   2.410   2.217   5.406
 3189SOL    HW210467   2.436   2.159   5.256
 3190SOL     OW10468   6.464   6.183   4.580
 3190SOL    HW110469   6.433   6.243   4.654
 3190SOL    HW210470   6.523   6.111   4.618
 3191SOL     OW10471   3.970   5.236   0.483
 3191SOL    HW110472   3.934   5.330   0.488
 3191SOL    HW210473   4.023   5.225   0.399
 3192SOL     OW10474   5.334   0.957   3.410
 3192SOL    HW110475   5.331   1.055   3.428
 3192SOL    HW210476   5.421   0.934   3.366
 3193SOL     OW10477   3.570   6.055   4.644
 3193SOL    HW110478   3.566   6.126   4.575
 3193SOL    HW210479   3.640   6.077   4.711
 3194SOL     OW10480   2.425   6.172   6.285
 3194SOL    HW110481   2.465   6.255   6.245
 3194SOL    HW210482   2.339   6.151   6.240
 3195SOL     OW10483   0.209   5.876   1.527
 3195SOL    HW110484   0.203   5.789   1.575
 3195SOL    HW210485   0.128   5.931   1.545
 3196SOL     OW10486   5.542   0.517   3.252
 3196SOL    HW110487   5.534   0.534   3.350
 3196SOL    HW210488   5.632   0.546   3.220
 3197SOL     OW10489   3.177   1.001   0.215
 3197SOL    HW110490   3.080   0.977   0.212
 3197SOL    HW210491   3.232   0.918   0.212
 3198SOL     OW10492   5.625   4.143   4.132
 3198SOL    HW110493   5.682   4.193   4.197
 3198SOL    HW210494   5.564   4.081   4.182
 3199SOL     OW10495   5.240   3.195   4.105
 3199SOL    HW110496   5.282   3.236   4.187
 3199SOL    HW210497   5.144   3.220   4.101
 3200SOL     OW10498   6.779   3.042   4.886
 3200SOL    HW110499   6.728   2.969   4.931
 3200SOL    HW210500   6.724   3.082   4.813
 3201SOL     OW10501   6.161   3.741   2.542
 3201SOL    HW110502   6.240   3.680   2.538
 3201SOL    HW210503   6.084   3.697   2.495
 3202SOL     OW10504   3.050   2.986   5.995
 3202SOL    HW110505   3.005   2.972   5.906
 3202SOL    HW210506   3.070   3.083   6.007
 3203SOL     OW10507   3.304   6.483   1.570
 3203SOL    HW110508   3.338   6.397   1.609
 3203SOL    HW210509   3.262   6.538   1.643
 3204SOL     OW10510   5.075   0.403   3.644
 3204SOL    HW110511   5.170   0.375   3.658
 3204SOL    HW210512   5.068   0.502   3.653
 3205SOL     OW10513   5.423   2.944   0.298
 3205SOL    HW110514   5.433   3.027   0.242
 3205SOL    HW210515   5.447   2.965   0.393
 3206SOL     OW10516   3.717   5.245   6.878
 3206SOL    HW110517   3.719   5.343   6.893
 3206SOL    HW210518   3.661   5.201   6.948
 3207SOL     OW10519   1.912   6.387   3.056
 3207SOL    HW110520   1.853   6.407   2.978
 3207SOL    HW210521   1.859   6.395   3.141
 3208SOL     OW10522   0.015   3.931   0.174
 3208SOL    HW110523   0.107   3.914   0.209
 3208SOL    HW210524   6.985   3.845   0.173
 3209SOL     OW10525   5.258   0.234   4.964
 3209SOL    HW110526   5.312   0.312   4.995
 3209SOL    HW210527   5.308   0.149   4.982
 3210SOL     OW10528   4.691   5.197   2.333
 3210SOL    HW110529   4.690   5.104   2.296
 3210SOL    HW210530   4.615   5.208   2.396
 3211SOL     OW10531   2.734   0.203   6.783
 3211SOL    HW110532   2.765   0.109   6.772
 3211SOL    HW210533   2.814   0.263   6.790
 3212SOL     OW10534   3.712   6.648   4.264
 3212SOL    HW110535   3.691   6.739   4.228
 3212SOL    HW210536   3.809   6.645   4.291
 3213SOL     OW10537   0.996   0.300   5.675
 3213SOL    HW110538   0.953   0.348   5.753
 3213SOL    HW210539   1.079   0.254   5.706
 3214SOL     OW10540   2.328   0.180   2.978
 3214SOL    HW110541   2.414   0.184   2.927
 3214SOL    HW210542   2.334   0.109   3.048
 3215SOL     OW10543   2.159   3.288   1.792
 3215SOL    HW110544   2.227   3.361   1.801
 3215SOL    HW210545   2.068   3.327   1.788
 3216SOL     OW10546   6.823   4.205   1.242
 3216SOL    HW110547   6.910   4.180   1.200
 3216SOL    HW210548   6.834   4.206   1.342
 3217SOL     OW10549   6.103   5.939   3.864
 3217SOL    HW110550   6.099   5.874   3.940
 3217SOL    HW210551   6.011   5.976   3.847
 3218SOL     OW10552   5.805   1.289   3.473
 3218SOL    HW110553   5.859   1.336   3.543
 3218SOL    HW210554   5.753   1.356   3.420
 3219SOL     OW10555   4.801   2.034   4.419
 3219SOL    HW110556   4.729   2.066   4.482
 3219SOL    HW210557   4.784   2.072   4.328
 3220SOL     OW10558   0.020   3.401   5.386
 3220SOL    HW110559   6.968   3.373   5.447
 3220SOL    HW210560   0.106   3.402   5.436
 3221SOL     OW10561   4.043   1.788   2.213
 3221SOL    HW110562   4.034   1.843   2.296
 3221SOL    HW210563   4.109   1.831   2.152
 3222SOL     OW10564   3.112   0.709   3.600
 3222SOL    HW110565   3.203   0.726   3.639
 3222SOL    HW210566   3.050   0.678   3.673
 3223SOL     OW10567   1.743   5.892   0.767
 3223SOL    HW110568   1.835   5.884   0.729
 3223SOL    HW210569   1.747   5.926   0.860
 3224SOL     OW10570   4.486   2.475   3.739
 3224SOL    HW110571   4.509   2.557   3.685
 3224SOL    HW210572   4.455   2.503   3.830
 3225SOL     OW10573   3.595   0.851   5.101
 3225SOL    HW110574   3.670   0.904   5.060
 3225SOL    HW210575   3.593   0.867   5.199
 3226SOL     OW10576   5.776   1.036   0.138
 3226SOL    HW110577   5.773   0.988   0.051
 3226SOL    HW210578   5.699   1.006   0.195
 3227SOL     OW10579   5.907   4.157   5.748
 3227SOL    HW110580   5.890   4.086   5.680
 3227SOL    HW210581   5.917   4.116   5.839
 3228SOL     OW10582   1.982   4.489   0.874
 3228SOL    HW110583   2.052   4.480   0.944
 3228SOL    HW210584   1.950   4.584   0.871
 3229SOL     OW10585   1.216   0.900   0.776
 3229SOL    HW110586   1.264   0.964   0.837
 3229SOL    HW210587   1.258   0.809   0.785
 3230SOL     OW10588   3.252   6.202   5.300
 3230SOL    HW110589   3.187   6.133   5.270
 3230SOL    HW210590   3.233   6.226   5.395
 3231SOL     OW10591   2.870   2.264   2.568
 3231SOL    HW110592   2.836   2.283   2.476
 3231SOL    HW210593   2.970   2.274   2.570
 3232SOL     OW10594   3.036   4.878   3.856
 3232SOL    HW110595   2.936   4.867   3.863
 3232SOL    HW210596   3.068   4.831   3.773
 3233SOL     OW10597   2.499   0.302   5.444
 3233SOL    HW110598   2.411   0.256   5.441
 3233SOL    HW210599   2.563   0.256   5.382
 3234SOL     OW10600   3.637   3.836   0.729
 3234SOL    HW110601   3.646   3.853   0.827
 3234SOL    HW210602   3.727   3.848   0.685
 3235SOL     OW10603   0.180   2.191   2.813
 3235SOL    HW110604   0.250   2.146   2.757
 3235SOL    HW210605   0.097   2.203   2.759
 3236SOL     OW10606   5.894   6.581   0.807
 3236SOL    HW110607   5.939   6.591   0.718
 3236SOL    HW210608   5.819   6.646   0.814
 3237SOL     OW10609   6.098   2.197   5.642
 3237SOL    HW110610   6.175   2.169   5.585
 3237SOL    HW210611   6.097   2.297   5.650
 3238SOL     OW10612   0.383   5.035   1.103
 3238SOL    HW110613   0.402   4.998   1.012
 3238SOL    HW210614   0.395   5.134   1.101
 3239SOL     OW10615   6.181   1.367   5.105
 3239SOL    HW110616   6.196   1.376   5.006
 3239SOL    HW210617   6.231   1.439   5.153
 3240SOL     OW10618   0.837   1.820   1.344
 3240SOL    HW110619   0.742   1.839   1.369
 3240SOL    HW210620   0.870   1.740   1.395
 3241SOL     OW10621   0.257   2.876   5.600
 3241SOL    HW110622   0.180   2.926   5.561
 3241SOL    HW210623   0.338   2.934   5.598
 3242SOL     OW10624   0.307   4.950   5.556
 3242SOL    HW110625   0.399   4.970   5.522
 3242SOL    HW210626   0.313   4.923   5.652
 3243SOL     OW10627   6.284   5.000   5.084
 3243SOL    HW110628   6.214   4.934   5.111
 3243SOL    HW210629   6.241   5.090   5.071
 3244SOL     OW10630   4.901   6.920   6.870
 3244SOL    HW110631   4.866   6.896   6.961
 3244SOL    HW210632   5.001   6.910   6.868
 3245SOL     OW10633   1.896   6.311   4.483
 3245SOL    HW110634   1.933   6.291   4.392
 3245SOL    HW210635   1.879   6.225   4.531
 3246SOL     OW10636   6.317   5.818   2.470
 3246SOL    HW110637   6.409   5.808   2.432
 3246SOL    HW210638   6.311   5.901   2.524
 3247SOL     OW10639   2.375   4.320   4.714
 3247SOL    HW110640   2.289   4.280   4.746
 3247SOL    HW210641   2.447   4.303   4.782
 3248SOL     OW10642   6.090   2.354   3.615
 3248SOL    HW110643   6.020   2.354   3.544
 3248SOL    HW210644   6.047   2.342   3.704
 3249SOL     OW10645   3.962   3.870   4.040
 3249SOL    HW110646   4.023   3.793   4.024
 3249SOL    HW210647   3.969   3.898   4.136
 3250SOL     OW10648   4.619   5.582   3.490
 3250SOL    HW110649   4.520   5.576   3.495
 3250SOL    HW210650   4.659   5.490   3.498
 3251SOL     OW10651   2.180   2.184   2.027
 3251SOL    HW110652   2.257   2.247   2.021
 3251SOL    HW210653   2.162   2.143   1.937
 3252SOL     OW10654   1.620   1.553   2.550
 3252SOL    HW110655   1.579   1.536   2.460
 3252SOL    HW210656   1.581   1.636   2.589
 3253SOL     OW10657   6.491   3.304   0.807
 3253SOL    HW110658   6.549   3.224   0.826
 3253SOL    HW210659   6.395   3.279   0.822
 3254SOL     OW10660   6.083   6.991   0.701
 3254SOL    HW110661   6.109   0.065   0.697
 3254SOL    HW210662   5.988   6.981   0.669
 3255SOL     OW10663   3.848   4.843   2.083
 3255SOL    HW110664   3.767   4.805   2.040
 3255SOL    HW210665   3.842   4.943   2.085
 3256SOL     OW10666   5.699   2.289   1.955
 3256SOL    HW110667   5.773   2.272   2.020
 3256SOL    HW210668   5.731   2.271   1.862
 3257SOL     OW10669   2.599   1.321   2.748
 3257SOL    HW110670   2.652   1.268   2.814
 3257SOL    HW210671   2.572   1.408   2.789
 3258SOL     OW10672   0.513   4.937   4.141
 3258SOL    HW110673   0.565   4.900   4.218
 3258SOL    HW210674   0.558   4.912   4.055
 3259SOL     OW10675   6.238   5.007   3.456
 3259SOL    HW110676   6.188   4.924   3.431
 3259SOL    HW210677   6.178   5.069   3.505
 3260SOL     OW10678   2.706   4.673   3.650
 3260SOL    HW110679   2.673   4.590   3.605
 3260SOL    HW210680   2.794   4.699   3.611
 3261SOL     OW10681   5.836   6.893   4.175
 3261SOL    HW110682   5.829   6.793   4.166
 3261SOL    HW210683   5.851   6.917   4.271
 3262SOL     OW10684   2.681   1.827   2.674
 3262SOL    HW110685   2.658   1.812   2.578
 3262SOL    HW210686   2.778   1.852   2.682
 3263SOL     OW10687   5.685   0.419   1.914
 3263SOL    HW110688   5.589   0.446   1.902
 3263SOL    HW210689   5.727   0.407   1.825
 3264SOL     OW10690   1.232   5.214   6.642
 3264SOL    HW110691   1.180   5.253   6.566
 3264SOL    HW210692   1.312   5.165   6.606
 3265SOL     OW10693   6.694   6.018   5.820
 3265SOL    HW110694   6.772   6.054   5.768
 3265SOL    HW210695   6.679   5.923   5.795
 3266SOL     OW10696   3.929   4.435   6.270
 3266SOL    HW110697   3.891   4.347   6.241
 3266SOL    HW210698   3.925   4.500   6.194
 3267SOL     OW10699   3.092   0.211   0.490
 3267SOL    HW110700   3.190   0.193   0.493
 3267SOL    HW210701   3.072   0.296   0.539
 3268SOL     OW10702   5.415   4.236   2.546
 3268SOL    HW110703   5.498   4.282   2.513
 3268SOL    HW210704   5.380   4.285   2.625
 3269SOL     OW10705   2.181   5.647   0.651
 3269SOL    HW110706   2.126   5.719   0.607
 3269SOL    HW210707   2.221   5.682   0.735
 3270SOL     OW10708   2.002   3.045   6.334
 3270SOL    HW110709   2.033   3.105   6.261
 3270SOL    HW210710   2.057   2.961   6.334
 3271SOL     OW10711   0.601   4.046   1.441
 3271SOL    HW110712   0.610   4.035   1.342
 3271SOL    HW210713   0.679   4.003   1.487
 3272SOL     OW10714   3.652   0.304   0.536
 3272SOL    HW110715   3.653   0.227   0.472
 3272SOL    HW210716   3.745   0.334   0.554
 3273SOL     OW10717   4.491   3.593   6.808
 3273SOL    HW110718   4.528   3.504   6.783
 3273SOL    HW210719   4.520   3.617   6.900
 3274SOL     OW10720   4.521   0.191   2.072
 3274SOL    HW110721   4.519   0.130   2.151
 3274SOL    HW210722   4.554   0.140   1.992
 3275SOL     OW10723   4.900   0.461   1.690
 3275SOL    HW110724   4.987   0.509   1.674
 3275SOL    HW210725   4.847   0.462   1.605
 3276SOL     OW10726   6.004   5.628   0.270
 3276SOL    HW110727   5.908   5.605   0.255
 3276SOL    HW210728   6.054   5.546   0.295
 3277SOL     OW10729   4.659   1.159   2.436
 3277SOL    HW110730   4.626   1.073   2.397
 3277SOL    HW210731   4.585   1.202   2.488
 3278SOL     OW10732   4.754   1.350   6.988
 3278SOL    HW110733   4.785   1.441   6.963
 3278SOL    HW210734   4.829   1.285   6.975
 3279SOL     OW10735   4.267   0.340   2.377
 3279SOL    HW110736   4.203   0.400   2.425
 3279SOL    HW210737   4.357   0.384   2.372
 3280SOL     OW10738   6.891   2.609   4.222
 3280SOL    HW110739   6.988   2.631   4.212
 3280SOL    HW210740   6.862   2.554   4.143
 3281SOL     OW10741   6.149   2.662   2.206
 3281SOL    HW110742   6.181   2.756   2.222
 3281SOL    HW210743   6.176   2.633   2.114
 3282SOL     OW10744   6.695   4.742   5.134
 3282SOL    HW110745   6.695   4.782   5.042
 3282SOL    HW210746   6.734   4.807   5.199
 3283SOL     OW10747   3.430   1.287   0.675
 3283SOL    HW110748   3.416   1.365   0.736
 3283SOL    HW210749   3.481   1.216   0.723
 3284SOL     OW10750   2.176   0.928   5.464
 3284SOL    HW110751   2.275   0.916   5.464
 3284SOL    HW210752   2.138   0.892   5.378
 3285SOL     OW10753   3.946   1.564   4.066
 3285SOL    HW110754   3.934   1.578   4.164
 3285SOL    HW210755   3.872   1.609   4.016
 3286SOL     OW10756   1.082   4.171   3.224
 3286SOL    HW110757   0.997   4.126   3.250
 3286SOL    HW210758   1.144   4.104   3.183
 3287SOL     OW10759   3.291   1.444   0.463
 3287SOL    HW110760   3.219   1.499   0.507
 3287SOL    HW210761   3.360   1.420   0.531
 3288SOL     OW10762   3.016   5.332   1.550
 3288SOL    HW110763   3.062   5.245   1.532
 3288SOL    HW210764   2.917   5.317   1.556
 3289SOL     OW10765   4.915   0.099   0.294
 3289SOL    HW110766   4.957   0.070   0.380
 3289SOL    HW210767   4.974   0.167   0.250
 3290SOL     OW10768   0.843   4.216   0.009
 3290SOL    HW110769   0.754   4.260   0.002
 3290SOL    HW210770   0.895   4.232   6.947
 3291SOL     OW10771   4.962   6.813   5.823
 3291SOL    HW110772   5.034   6.777   5.882
 3291SOL    HW210773   4.976   6.779   5.730
 3292SOL     OW10774   0.401   3.031   1.293
 3292SOL    HW110775   0.353   3.119   1.294
 3292SOL    HW210776   0.470   3.030   1.366
 3293SOL     OW10777   6.513   4.545   2.545
 3293SOL    HW110778   6.487   4.473   2.481
 3293SOL    HW210779   6.466   4.530   2.632
 3294SOL     OW10780   4.165   2.811   5.588
 3294SOL    HW110781   4.231   2.868   5.637
 3294SOL    HW210782   4.208   2.773   5.506
 3295SOL     OW10783   1.100   3.505   3.453
 3295SOL    HW110784   1.128   3.425   3.401
 3295SOL    HW210785   1.004   3.525   3.436
 3296SOL     OW10786   2.327   0.356   6.908
 3296SOL    HW110787   2.270   0.438   6.910
 3296SOL    HW210788   2.421   0.379   6.934
 3297SOL     OW10789   2.942   0.841   5.893
 3297SOL    HW110790   2.846   0.849   5.869
 3297SOL    HW210791   2.987   0.930   5.884
 3298SOL     OW10792   3.905   3.907   6.158
 3298SOL    HW110793   3.945   3.924   6.068
 3298SOL    HW210794   3.836   3.835   6.151
 3299SOL     OW10795   2.613   6.847   4.210
 3299SOL    HW110796   2.632   6.752   4.235
 3299SOL    HW210797   2.691   6.883   4.158
 3300SOL     OW10798   1.827   0.994   3.292
 3300SOL    HW110799   1.746   1.002   3.234
 3300SOL    HW210800   1.876   0.909   3.269
 3301SOL     OW10801   1.243   0.880   2.223
 3301SOL    HW110802   1.205   0.841   2.139
 3301SOL    HW210803   1.237   0.979   2.219
 3302SOL     OW10804   1.313   4.730   4.829
 3302SOL    HW110805   1.336   4.686   4.742
 3302SOL    HW210806   1.232   4.787   4.817
 3303SOL     OW10807   4.416   3.720   0.681
 3303SOL    HW110808   4.419   3.737   0.582
 3303SOL    HW210809   4.322   3.725   0.713
 3304SOL     OW10810   2.349   3.918   1.011
 3304SOL    HW110811   2.426   3.951   1.066
 3304SOL    HW210812   2.288   3.863   1.069
 3305SOL     OW10813   3.213   2.783   6.905
 3305SOL    HW110814   3.189   2.871   6.944
 3305SOL    HW210815   3.173   2.775   6.813
 3306SOL     OW10816   2.839   0.618   0.952
 3306SOL    HW110817   2.928   0.610   0.996
 3306SOL    HW210818   2.830   0.548   0.881
 3307SOL     OW10819   1.903   5.841   5.028
 3307SOL    HW110820   1.911   5.824   4.930
 3307SOL    HW210821   1.812   5.875   5.049
 3308SOL     OW10822   5.437   5.632   1.635
 3308SOL    HW110823   5.384   5.694   1.693
 3308SOL    HW210824   5.379   5.597   1.561
 3309SOL     OW10825   5.800   3.333   4.271
 3309SOL    HW110826   5.706   3.334   4.305
 3309SOL    HW210827   5.818   3.248   4.223
 3310SOL     OW10828   6.199   4.622   6.524
 3310SOL    HW110829   6.236   4.698   6.578
 3310SOL    HW210830   6.204   4.538   6.578
 3311SOL     OW10831   1.785   3.035   1.120
 3311SOL    HW110832   1.787   3.049   1.021
 3311SOL    HW210833   1.733   2.952   1.141
 3312SOL     OW10834   5.330   3.744   0.359
 3312SOL    HW110835   5.273   3.768   0.437
 3312SOL    HW210836   5.376   3.826   0.325
 3313SOL     OW10837   1.078   6.661   3.468
 3313SOL    HW110838   0.980   6.651   3.486
 3313SOL    HW210839   1.106   6.756   3.484
 3314SOL     OW10840   3.012   6.224   3.858
 3314SOL    HW110841   3.014   6.193   3.953
 3314SOL    HW210842   3.040   6.320   3.854
 3315SOL     OW10843   1.359   6.455   3.838
 3315SOL    HW110844   1.369   6.486   3.933
 3315SOL    HW210845   1.263   6.436   3.820
 3316SOL     OW10846   3.746   1.849   0.355
 3316SOL    HW110847   3.814   1.918   0.328
 3316SOL    HW210848   3.771   1.761   0.315
 3317SOL     OW10849   6.035   2.313   0.845
 3317SOL    HW110850   5.970   2.388   0.858
 3317SOL    HW210851   6.102   2.339   0.775
 3318SOL     OW10852   4.022   2.536   0.495
 3318SOL    HW110853   4.009   2.635   0.494
 3318SOL    HW210854   3.961   2.494   0.428
 3319SOL     OW10855   6.317   6.546   4.042
 3319SOL    HW110856   6.343   6.565   3.947
 3319SOL    HW210857   6.370   6.605   4.103
 3320SOL     OW10858   6.196   0.341   2.768
 3320SOL    HW110859   6.183   0.347   2.669
 3320SOL    HW210860   6.173   0.249   2.800
 3321SOL     OW10861   4.554   1.644   6.740
 3321SOL    HW110862   4.633   1.617   6.795
 3321SOL    HW210863   4.501   1.563   6.716
 3322SOL     OW10864   6.302   3.597   1.539
 3322SOL    HW110865   6.292   3.682   1.486
 3322SOL    HW210866   6.383   3.605   1.598
 3323SOL     OW10867   0.867   0.223   2.148
 3323SOL    HW110868   0.813   0.299   2.185
 3323SOL    HW210869   0.831   0.198   2.058
 3324SOL     OW10870   6.543   5.479   6.314
 3324SOL    HW110871   6.611   5.458   6.385
 3324SOL    HW210872   6.579   5.452   6.224
 3325SOL     OW10873   2.652   5.138   6.567
 3325SOL    HW110874   2.570   5.091   6.599
 3325SOL    HW210875   2.718   5.072   6.533
 3326SOL     OW10876   4.118   1.470   1.902
 3326SOL    HW110877   4.126   1.472   2.001
 3326SOL    HW210878   4.125   1.376   1.869
 3327SOL     OW10879   1.695   6.110   5.751
 3327SOL    HW110880   1.680   6.137   5.847
 3327SOL    HW210881   1.628   6.040   5.726
 3328SOL     OW10882   4.564   2.909   5.274
 3328SOL    HW110883   4.643   2.962   5.243
 3328SOL    HW210884   4.591   2.848   5.348
 3329SOL     OW10885   6.769   6.507   5.581
 3329SOL    HW110886   6.857   6.538   5.616
 3329SOL    HW210887   6.702   6.502   5.655
 3330SOL     OW10888   6.579   2.862   3.068
 3330SOL    HW110889   6.513   2.788   3.052
 3330SOL    HW210890   6.619   2.852   3.159
 3331SOL     OW10891   1.697   3.025   0.626
 3331SOL    HW110892   1.725   2.958   0.558
 3331SOL    HW210893   1.742   3.112   0.607
 3332SOL     OW10894   6.981   4.159   1.962
 3332SOL    HW110895   0.015   4.163   1.879
 3332SOL    HW210896   6.949   4.251   1.983
 3333SOL     OW10897   3.085   6.119   5.099
 3333SOL    HW110898   3.086   6.187   5.026
 3333SOL    HW210899   3.093   6.028   5.060
 3334SOL     OW10900   1.534   3.316   1.097
 3334SOL    HW110901   1.520   3.260   1.178
 3334SOL    HW210902   1.543   3.258   1.017
 3335SOL     OW10903   5.269   4.398   4.726
 3335SOL    HW110904   5.197   4.460   4.693
 3335SOL    HW210905   5.325   4.369   4.649
 3336SOL     OW10906   3.517   6.084   5.626
 3336SOL    HW110907   3.490   6.031   5.546
 3336SOL    HW210908   3.609   6.120   5.611
 3337SOL     OW10909   3.990   1.549   0.496
 3337SOL    HW110910   4.065   1.508   0.548
 3337SOL    HW210911   3.903   1.530   0.541
 3338SOL     OW10912   6.954   5.379   0.330
 3338SOL    HW110913   6.915   5.299   0.376
 3338SOL    HW210914   6.880   5.434   0.292
 3339SOL     OW10915   6.978   4.324   6.586
 3339SOL    HW110916   6.983   4.259   6.510
 3339SOL    HW210917   0.003   4.409   6.561
 3340SOL     OW10918   3.913   0.441   1.815
 3340SOL    HW110919   3.991   0.452   1.877
 3340SOL    HW210920   3.838   0.397   1.865
 3341SOL     OW10921   0.879   0.283   6.773
 3341SOL    HW110922   0.917   0.369   6.808
 3341SOL    HW210923   0.849   0.227   6.850
 3342SOL     OW10924   1.845   6.648   5.463
 3342SOL    HW110925   1.887   6.676   5.548
 3342SOL    HW210926   1.747   6.668   5.466
 3343SOL     OW10927   0.540   2.210   0.887
 3343SOL    HW110928   0.523   2.291   0.832
 3343SOL    HW210929   0.460   2.192   0.945
 3344SOL     OW10930   1.620   2.220   6.451
 3344SOL    HW110931   1.611   2.123   6.475
 3344SOL    HW210932   1.562   2.274   6.512
 3345SOL     OW10933   2.822   3.180   6.586
 3345SOL    HW110934   2.833   3.092   6.632
 3345SOL    HW210935   2.873   3.179   6.500
 3346SOL     OW10936   2.211   5.704   2.774
 3346SOL    HW110937   2.309   5.688   2.775
 3346SOL    HW210938   2.182   5.735   2.684
 3347SOL     OW10939   6.025   4.153   4.121
 3347SOL    HW110940   6.101   4.136   4.058
 3347SOL    HW210941   5.975   4.068   4.135
 3348SOL     OW10942   3.773   3.679   3.423
 3348SOL    HW110943   3.743   3.630   3.341
 3348SOL    HW210944   3.759   3.777   3.410
 3349SOL     OW10945   5.006   2.493   0.554
 3349SOL    HW110946   5.032   2.398   0.569
 3349SOL    HW210947   4.908   2.498   0.533
 3350SOL     OW10948   2.607   3.117   1.458
 3350SOL    HW110949   2.638   3.210   1.439
 3350SOL    HW210950   2.643   3.087   1.546
 3351SOL     OW10951   5.900   2.937   0.838
 3351SOL    HW110952   5.856   2.946   0.749
 3351SOL    HW210953   5.998   2.954   0.827
 3352SOL     OW10954   0.060   3.630   0.490
 3352SOL    HW110955   0.038   3.593   0.580
 3352SOL    HW210956   0.125   3.706   0.500
 3353SOL     OW10957   1.370   6.454   6.297
 3353SOL    HW110958   1.352   6.480   6.392
 3353SOL    HW210959   1.410   6.532   6.248
 3354SOL     OW10960   0.781   6.461   1.879
 3354SOL    HW110961   0.755   6.453   1.783
 3354SOL    HW210962   0.874   6.498   1.885
 3355SOL     OW10963   5.754   0.737   2.549
 3355SOL    HW110964   5.676   0.676   2.532
 3355SOL    HW210965   5.757   0.760   2.646
 3356SOL     OW10966   1.370   3.958   6.871
 3356SOL    HW110967   1.453   3.994   6.828
 3356SOL    HW210968   1.295   3.960   6.805
 3357SOL     OW10969   2.706   5.646   2.265
 3357SOL    HW110970   2.705   5.556   2.220
 3357SOL    HW210971   2.768   5.643   2.344
 3358SOL     OW10972   6.977   3.657   3.341
 3358SOL    HW110973   6.941   3.733   3.395
 3358SOL    HW210974   6.904   3.591   3.323
 3359SOL     OW10975   2.165   1.557   1.707
 3359SOL    HW110976   2.097   1.630   1.710
 3359SOL    HW210977   2.155   1.500   1.789
 3360SOL     OW10978   3.007   1.175   6.351
 3360SOL    HW110979   2.930   1.118   6.378
 3360SOL    HW210980   3.093   1.128   6.372
 3361SOL     OW10981   2.675   0.781   2.830
 3361SOL    HW110982   2.658   0.879   2.817
 3361SOL    HW210983   2.655   0.757   2.925
 3362SOL     OW10984   3.071   2.153   4.507
 3362SOL    HW110985   3.030   2.205   4.582
 3362SOL    HW210986   3.046   2.196   4.420
 3363SOL     OW10987   6.228   0.816   7.014
 3363SOL    HW110988   6.240   0.821   0.091
 3363SOL    HW210989   6.273   0.734   6.979
 3364SOL     OW10990   1.454   5.237   5.270
 3364SOL    HW110991   1.468   5.333   5.247
 3364SOL    HW210992   1.453   5.183   5.185
 3365SOL     OW10993   6.578   2.027   5.078
 3365SOL    HW110994   6.642   2.103   5.064
 3365SOL    HW210995   6.554   1.987   4.989
 3366SOL     OW10996   5.275   0.871   0.123
 3366SOL    HW110997   5.239   0.807   0.190
 3366SOL    HW210998   5.276   0.963   0.161
 3367SOL     OW10999   1.948   0.166   2.122
 3367SOL    HW111000   1.914   0.236   2.059
 3367SOL    HW211001   2.047   0.156   2.110
 3368SOL     OW11002   5.932   1.460   4.524
 3368SOL    HW111003   5.958   1.540   4.470
 3368SOL    HW211004   5.833   1.460   4.538
 3369SOL     OW11005   4.048   5.514   6.509
 3369SOL    HW111006   4.057   5.611   6.489
 3369SOL    HW211007   3.997   5.501   6.594
 3370SOL     OW11008   6.291   0.775   5.627
 3370SOL    HW111009   6.322   0.727   5.710
 3370SOL    HW211010   6.325   0.869   5.629
 3371SOL     OW11011   6.527   4.767   1.426
 3371SOL    HW111012   6.559   4.683   1.468
 3371SOL    HW211013   6.509   4.836   1.497
 3372SOL     OW11014   1.315   2.809   3.113
 3372SOL    HW111015   1.415   2.797   3.110
 3372SOL    HW211016   1.275   2.773   3.029
 3373SOL     OW11017   1.034   2.567   6.311
 3373SOL    HW111018   0.968   2.642   6.310
 3373SOL    HW211019   1.127   2.603   6.320
 3374SOL     OW11020   3.633   6.048   5.044
 3374SOL    HW111021   3.570   5.982   5.085
 3374SOL    HW211022   3.695   6.082   5.115
 3375SOL     OW11023   3.321   3.744   4.852
 3375SOL    HW111024   3.319   3.820   4.917
 3375SOL    HW211025   3.411   3.739   4.809
 3376SOL     OW11026   3.302   2.970   1.450
 3376SOL    HW111027   3.279   3.030   1.374
 3376SOL    HW211028   3.223   2.962   1.512
 3377SOL     OW11029   2.931   5.504   6.070
 3377SOL    HW111030   2.902   5.555   6.151
 3377SOL    HW211031   2.872   5.529   5.993
 3378SOL     OW11032   6.735   1.071   1.005
 3378SOL    HW111033   6.817   1.030   1.047
 3378SOL    HW211034   6.665   1.085   1.075
 3379SOL     OW11035   6.061   5.166   5.450
 3379SOL    HW111036   6.111   5.086   5.485
 3379SOL    HW211037   6.122   5.220   5.391
 3380SOL     OW11038   0.628   3.870   5.466
 3380SOL    HW111039   0.599   3.777   5.443
 3380SOL    HW211040   0.728   3.874   5.471
 3381SOL     OW11041   3.051   2.354   1.033
 3381SOL    HW111042   3.150   2.365   1.035
 3381SOL    HW211043   3.025   2.295   0.957
 3382SOL     OW11044   0.040   6.707   0.347
 3382SOL    HW111045   0.124   6.653   0.355
 3382SOL    HW211046   0.018   6.720   0.250
 3383SOL     OW11047   0.381   4.186   1.535
 3383SOL    HW111048   0.451   4.133   1.489
 3383SOL    HW211049   0.411   4.208   1.628
 3384SOL     OW11050   3.296   3.727   3.045
 3384SOL    HW111051   3.275   3.658   3.115
 3384SOL    HW211052   3.381   3.774   3.069
 3385SOL     OW11053   6.691   4.115   3.853
 3385SOL    HW111054   6.724   4.076   3.939
 3385SOL    HW211055   6.706   4.049   3.779
 3386SOL     OW11056   5.734   4.407   4.272
 3386SOL    HW111057   5.720   4.349   4.352
 3386SOL    HW211058   5.770   4.496   4.302
 3387SOL     OW11059   3.457   1.611   2.270
 3387SOL    HW111060   3.528   1.568   2.214
 3387SOL    HW211061   3.479   1.598   2.367
 3388SOL     OW11062   5.782   1.802   1.128
 3388SOL    HW111063   5.857   1.749   1.169
 3388SOL    HW211064   5.745   1.753   1.049
 3389SOL     OW11065   3.987   5.778   2.656
 3389SOL    HW111066   3.889   5.795   2.641
 3389SOL    HW211067   4.003   5.680   2.665
 3390SOL     OW11068   4.574   1.842   5.624
 3390SOL    HW111069   4.565   1.911   5.552
 3390SOL    HW211070   4.572   1.751   5.584
 3391SOL     OW11071   2.935   1.982   4.035
 3391SOL    HW111072   2.896   2.068   4.003
 3391SOL    HW211073   2.861   1.921   4.063
 3392SOL     OW11074   5.305   5.975   3.870
 3392SOL    HW111075   5.257   6.011   3.790
 3392SOL    HW211076   5.373   5.909   3.841
 3393SOL     OW11077   6.946   6.692   6.400
 3393SOL    HW111078   6.956   6.593   6.407
 3393SOL    HW211079   6.988   6.735   6.480
 3394SOL     OW11080   4.935   1.698   1.997
 3394SOL    HW111081   5.002   1.624   1.987
 3394SOL    HW211082   4.962   1.775   1.939
 3395SOL     OW11083   1.895   4.136   4.951
 3395SOL    HW111084   1.971   4.175   5.004
 3395SOL    HW211085   1.909   4.038   4.940
 3396SOL     OW11086   6.248   3.505   4.367
 3396SOL    HW111087   6.297   3.560   4.435
 3396SOL    HW211088   6.301   3.502   4.282
 3397SOL     OW11089   3.081   5.547   6.390
 3397SOL    HW111090   3.162   5.606   6.393
 3397SOL    HW211091   3.007   5.596   6.343
 3398SOL     OW11092   0.415   1.462   3.444
 3398SOL    HW111093   0.332   1.423   3.405
 3398SOL    HW211094   0.435   1.550   3.401
 3399SOL     OW11095   4.236   5.674   4.452
 3399SOL    HW111096   4.176   5.594   4.453
 3399SOL    HW211097   4.305   5.663   4.381
 3400SOL     OW11098   5.050   2.224   0.592
 3400SOL    HW111099   4.964   2.201   0.638
 3400SOL    HW211100   5.126   2.212   0.655
 3401SOL     OW11101   6.625   4.818   6.670
 3401SOL    HW111102   6.679   4.741   6.704
 3401SOL    HW211103   6.529   4.803   6.691
 3402SOL     OW11104   4.082   4.794   1.873
 3402SOL    HW111105   4.010   4.797   1.943
 3402SOL    HW211106   4.072   4.710   1.819
 3403SOL     OW11107   3.929   1.849   6.201
 3403SOL    HW111108   3.912   1.756   6.232
 3403SOL    HW211109   3.954   1.906   6.280
 3404SOL     OW11110   4.997   5.751   2.077
 3404SOL    HW111111   4.913   5.780   2.123
 3404SOL    HW211112   5.032   5.669   2.120
 3405SOL     OW11113   6.188   4.275   6.903
 3405SOL    HW111114   6.098   4.232   6.907
 3405SOL    HW211115   6.227   4.279   6.995
 3406SOL     OW11116   1.191   3.233   1.523
 3406SOL    HW111117   1.261   3.291   1.565
 3406SOL    HW211118   1.209   3.137   1.546
 3407SOL     OW11119   1.110   5.590   2.680
 3407SOL    HW111120   1.065   5.532   2.748
 3407SOL    HW211121   1.081   5.685   2.694
 3408SOL     OW11122   5.339   3.573   2.479
 3408SOL    HW111123   5.420   3.615   2.439
 3408SOL    HW211124   5.358   3.478   2.503
 3409SOL     OW11125   2.689   1.229   6.675
 3409SOL    HW111126   2.709   1.151   6.735
 3409SOL    HW211127   2.765   1.293   6.678
 3410SOL     OW11128   0.278   1.932   0.074
 3410SOL    HW111129   0.216   2.010   0.088
 3410SOL    HW211130   0.363   1.965   0.033
 3411SOL     OW11131   4.878   1.986   2.673
 3411SOL    HW111132   4.963   1.994   2.724
 3411SOL    HW211133   4.886   1.912   2.605
 3412SOL     OW11134   4.150   5.408   0.010
 3412SOL    HW111135   4.066   5.365   6.999
 3412SOL    HW211136   4.215   5.418   6.957
 3413SOL     OW11137   5.359   1.114   2.772
 3413SOL    HW111138   5.283   1.049   2.772
 3413SOL    HW211139   5.323   1.207   2.780
 3414SOL     OW11140   3.564   0.355   5.558
 3414SOL    HW111141   3.571   0.384   5.654
 3414SOL    HW211142   3.548   0.435   5.500
 3415SOL     OW11143   1.789   6.034   5.486
 3415SOL    HW111144   1.784   6.104   5.415
 3415SOL    HW211145   1.760   6.073   5.573
 3416SOL     OW11146   1.972   4.498   5.803
 3416SOL    HW111147   1.938   4.433   5.871
 3416SOL    HW211148   2.003   4.581   5.849
 3417SOL     OW11149   5.058   0.526   1.115
 3417SOL    HW111150   5.033   0.459   1.046
 3417SOL    HW211151   5.157   0.536   1.118
 3418SOL     OW11152   3.010   2.159   5.675
 3418SOL    HW111153   3.073   2.082   5.669
 3418SOL    HW211154   3.003   2.189   5.771
 3419SOL     OW11155   4.789   3.563   6.289
 3419SOL    HW111156   4.693   3.576   6.264
 3419SOL    HW211157   4.838   3.519   6.214
 3420SOL     OW11158   2.991   0.869   5.101
 3420SOL    HW111159   2.902   0.835   5.133
 3420SOL    HW211160   2.982   0.963   5.071
 3421SOL     OW11161   0.533   6.804   3.030
 3421SOL    HW111162   0.626   6.831   3.056
 3421SOL    HW211163   0.499   6.736   3.095
 3422SOL     OW11164   3.276   2.010   2.782
 3422SOL    HW111165   3.236   1.939   2.725
 3422SOL    HW211166   3.276   1.981   2.877
 3423SOL     OW11167   3.523   1.008   1.696
 3423SOL    HW111168   3.583   1.008   1.776
 3423SOL    HW211169   3.540   1.091   1.642
 3424SOL     OW11170   4.694   1.794   1.344
 3424SOL    HW111171   4.713   1.845   1.260
 3424SOL    HW211172   4.598   1.807   1.370
 3425SOL     OW11173   4.275   3.742   1.675
 3425SOL    HW111174   4.324   3.829   1.673
 3425SOL    HW211175   4.217   3.737   1.756
 3426SOL     OW11176   4.856   3.757   0.938
 3426SOL    HW111177   4.848   3.715   1.028
 3426SOL    HW211178   4.765   3.767   0.897
 3427SOL     OW11179   0.830   1.718   0.625
 3427SOL    HW111180   0.905   1.653   0.614
 3427SOL    HW211181   0.753   1.673   0.670
 3428SOL     OW11182   4.470   4.505   3.324
 3428SOL    HW111183   4.489   4.596   3.361
 3428SOL    HW211184   4.371   4.494   3.313
 3429SOL     OW11185   0.460   2.588   1.042
 3429SOL    HW111186   0.545   2.586   1.093
 3429SOL    HW211187   0.409   2.672   1.064
 3430SOL     OW11188   0.874   5.410   6.671
 3430SOL    HW111189   0.964   5.376   6.645
 3430SOL    HW211190   0.803   5.346   6.641
 3431SOL     OW11191   1.881   5.875   6.246
 3431SOL    HW111192   1.879   5.937   6.167
 3431SOL    HW211193   1.844   5.786   6.219
 3432SOL     OW11194   3.849   2.052   6.039
 3432SOL    HW111195   3.882   2.001   6.118
 3432SOL    HW211196   3.799   1.991   5.978
 3433SOL     OW11197   4.122   1.349   4.365
 3433SOL    HW111198   4.150   1.258   4.395
 3433SOL    HW211199   4.083   1.399   4.442
 3434SOL     OW11200   4.279   1.640   3.516
 3434SOL    HW111201   4.263   1.595   3.428
 3434SOL    HW211202   4.370   1.617   3.549
 3435SOL     OW11203   1.110   1.271   6.776
 3435SOL    HW111204   1.165   1.222   6.843
 3435SOL    HW211205   1.135   1.243   6.684
 3436SOL     OW11206   4.065   6.422   2.063
 3436SOL    HW111207   4.026   6.339   2.103
 3436SOL    HW211208   4.017   6.443   1.978
 3437SOL     OW11209   3.855   0.140   0.085
 3437SOL    HW111210   3.872   0.116   7.011
 3437SOL    HW211211   3.783   0.210   0.089
 3438SOL     OW11212   0.686   5.206   6.633
 3438SOL    HW111213   0.637   5.141   6.691
 3438SOL    HW211214   0.634   5.221   6.548
 3439SOL     OW11215   2.466   0.308   3.980
 3439SOL    HW111216   2.452   0.407   3.982
 3439SOL    HW211217   2.483   0.276   4.073
 3440SOL     OW11218   3.585   2.124   0.336
 3440SOL    HW111219   3.613   2.117   0.240
 3440SOL    HW211220   3.559   2.218   0.357
 3441SOL     OW11221   4.643   0.673   4.145
 3441SOL    HW111222   4.725   0.700   4.195
 3441SOL    HW211223   4.566   0.730   4.174
 3442SOL     OW11224   0.946   5.116   2.834
 3442SOL    HW111225   0.901   5.116   2.744
 3442SOL    HW211226   0.877   5.127   2.905
 3443SOL     OW11227   5.426   6.691   4.267
 3443SOL    HW111228   5.355   6.749   4.307
 3443SOL    HW211229   5.491   6.664   4.338
 3444SOL     OW11230   4.097   5.505   0.246
 3444SOL    HW111231   4.134   5.455   0.168
 3444SOL    HW211232   4.012   5.551   0.220
 3445SOL     OW11233   5.941   4.924   5.278
 3445SOL    HW111234   5.860   4.934   5.336
 3445SOL    HW211235   5.988   5.012   5.272
 3446SOL     OW11236   2.056   6.581   1.862
 3446SOL    HW111237   2.098   6.533   1.939
 3446SOL    HW211238   2.127   6.627   1.809
 3447SOL     OW11239   6.189   4.495   5.483
 3447SOL    HW111240   6.207   4.577   5.539
 3447SOL    HW211241   6.140   4.428   5.538
 3448SOL     OW11242   4.039   3.187   0.536
 3448SOL    HW111243   4.087   3.274   0.526
 3448SOL    HW211244   3.974   3.194   0.613
 3449SOL     OW11245   6.640   6.222   3.080
 3449SOL    HW111246   6.710   6.172   3.132
 3449SOL    HW211247   6.655   6.320   3.090
 3450SOL     OW11248   0.646   2.061   1.134
 3450SOL    HW111249   0.624   2.063   1.036
 3450SOL    HW211250   0.611   1.976   1.173
 3451SOL     OW11251   1.874   5.001   4.488
 3451SOL    HW111252   1.885   4.953   4.401
 3451SOL    HW211253   1.786   4.978   4.528
 3452SOL     OW11254   6.764   2.022   0.607
 3452SOL    HW111255   6.759   1.969   0.692
 3452SOL    HW211256   6.845   2.081   0.609
 3453SOL     OW11257   5.943   5.629   5.314
 3453SOL    HW111258   5.909   5.593   5.227
 3453SOL    HW211259   5.867   5.641   5.378
 3454SOL     OW11260   0.425   1.104   0.855
 3454SOL    HW111261   0.350   1.125   0.792
 3454SOL    HW211262   0.465   1.190   0.888
 3455SOL     OW11263   1.212   3.007   3.525
 3455SOL    HW111264   1.308   2.979   3.515
 3455SOL    HW211265   1.169   3.013   3.435
 3456SOL     OW11266   6.010   0.476   0.460
 3456SOL    HW111267   6.048   0.384   0.457
 3456SOL    HW211268   5.915   0.472   0.490
 3457SOL     OW11269   1.842   6.566   3.483
 3457SOL    HW111270   1.876   6.523   3.566
 3457SOL    HW211271   1.831   6.664   3.498
 3458SOL     OW11272   4.771   5.353   0.124
 3458SOL    HW111273   4.678   5.368   0.157
 3458SOL    HW211274   4.767   5.303   0.037
 3459SOL     OW11275   6.316   0.155   3.261
 3459SOL    HW111276   6.291   0.198   3.348
 3459SOL    HW211277   6.299   0.057   3.267
 3460SOL     OW11278   4.312   2.860   0.439
 3460SOL    HW111279   4.305   2.908   0.527
 3460SOL    HW211280   4.281   2.765   0.451
 3461SOL     OW11281   2.908   5.816   3.091
 3461SOL    HW111282   2.852   5.737   3.064
 3461SOL    HW211283   2.868   5.858   3.173
 3462SOL     OW11284   4.869   2.444   2.596
 3462SOL    HW111285   4.813   2.527   2.592
 3462SOL    HW211286   4.962   2.465   2.568
 3463SOL     OW11287   1.019   3.007   0.994
 3463SOL    HW111288   0.940   3.060   0.964
 3463SOL    HW211289   1.054   3.046   1.079
 3464SOL     OW11290   5.565   1.469   6.044
 3464SOL    HW111291   5.567   1.502   6.138
 3464SOL    HW211292   5.649   1.418   6.024
 3465SOL     OW11293   2.080   4.332   1.586
 3465SOL    HW111294   2.105   4.362   1.494
 3465SOL    HW211295   2.059   4.411   1.643
 3466SOL     OW11296   6.434   3.871   4.488
 3466SOL    HW111297   6.431   3.772   4.503
 3466SOL    HW211298   6.367   3.896   4.417
 3467SOL     OW11299   3.779   3.383   0.273
 3467SOL    HW111300   3.708   3.433   0.322
 3467SOL    HW211301   3.737   3.317   0.211
 3468SOL     OW11302   4.151   1.234   1.753
 3468SOL    HW111303   4.155   1.298   1.676
 3468SOL    HW211304   4.065   1.184   1.751
 3469SOL     OW11305   3.808   5.544   5.117
 3469SOL    HW111306   3.745   5.573   5.189
 3469SOL    HW211307   3.830   5.447   5.129
 3470SOL     OW11308   1.343   2.455   1.319
 3470SOL    HW111309   1.356   2.554   1.316
 3470SOL    HW211310   1.311   2.429   1.410
 3471SOL     OW11311   5.121   3.091   4.936
 3471SOL    HW111312   5.170   3.005   4.946
 3471SOL    HW211313   5.043   3.078   4.875
 3472SOL     OW11314   4.844   1.743   2.559
 3472SOL    HW111315   4.885   1.657   2.590
 3472SOL    HW211316   4.752   1.751   2.597
 3473SOL     OW11317   6.210   4.511   2.172
 3473SOL    HW111318   6.155   4.444   2.121
 3473SOL    HW211319   6.161   4.538   2.255
 3474SOL     OW11320   4.868   3.856   3.563
 3474SOL    HW111321   4.781   3.899   3.587
 3474SOL    HW211322   4.906   3.811   3.643
 3475SOL     OW11323   6.908   3.834   4.276
 3475SOL    HW111324   6.849   3.872   4.348
 3475SOL    HW211325   6.975   3.773   4.317
 3476SOL     OW11326   1.867   2.516   3.377
 3476SOL    HW111327   1.834   2.603   3.412
 3476SOL    HW211328   1.967   2.512   3.388
 3477SOL     OW11329   1.015   4.273   1.968
 3477SOL    HW111330   1.114   4.287   1.960
 3477SOL    HW211331   0.996   4.219   2.050
 3478SOL     OW11332   2.927   0.440   1.741
 3478SOL    HW111333   2.870   0.480   1.669
 3478SOL    HW211334   2.937   0.505   1.816
 3479SOL     OW11335   0.975   4.586   5.415
 3479SOL    HW111336   0.995   4.494   5.381
 3479SOL    HW211337   0.988   4.588   5.514
 3480SOL     OW11338   1.295   4.923   6.442
 3480SOL    HW111339   1.253   4.891   6.527
 3480SOL    HW211340   1.363   4.994   6.463
 3481SOL     OW11341   6.092   1.027   4.795
 3481SOL    HW111342   6.071   1.056   4.701
 3481SOL    HW211343   6.126   0.933   4.794
 3482SOL     OW11344   6.292   2.783   6.772
 3482SOL    HW111345   6.303   2.722   6.694
 3482SOL    HW211346   6.206   2.763   6.819
 3483SOL     OW11347   5.101   2.317   4.994
 3483SOL    HW111348   5.102   2.409   5.031
 3483SOL    HW211349   5.016   2.270   5.020
 3484SOL     OW11350   1.303   2.976   4.586
 3484SOL    HW111351   1.246   2.897   4.561
 3484SOL    HW211352   1.250   3.038   4.644
 3485SOL     OW11353   6.925   3.701   0.090
 3485SOL    HW111354   6.978   3.649   0.157
 3485SOL    HW211355   6.845   3.648   0.062
 3486SOL     OW11356   1.769   6.836   4.954
 3486SOL    HW111357   1.720   6.756   4.920
 3486SOL    HW211358   1.864   6.832   4.923
 3487SOL     OW11359   4.433   1.903   6.702
 3487SOL    HW111360   4.470   1.811   6.707
 3487SOL    HW211361   4.368   1.909   6.626
 3488SOL     OW11362   5.128   6.734   5.262
 3488SOL    HW111363   5.060   6.797   5.223
 3488SOL    HW211364   5.118   6.644   5.219
 3489SOL     OW11365   3.295   6.295   0.581
 3489SOL    HW111366   3.265   6.341   0.497
 3489SOL    HW211367   3.230   6.314   0.654
 3490SOL     OW11368   3.669   6.611   0.917
 3490SOL    HW111369   3.595   6.552   0.884
 3490SOL    HW211370   3.678   6.690   0.857
 3491SOL     OW11371   4.789   4.504   5.769
 3491SOL    HW111372   4.818   4.473   5.859
 3491SOL    HW211373   4.699   4.464   5.747
 3492SOL     OW11374   5.644   3.770   3.567
 3492SOL    HW111375   5.593   3.828   3.503
 3492SOL    HW211376   5.599   3.771   3.656
 3493SOL     OW11377   6.921   3.414   5.836
 3493SOL    HW111378   6.873   3.454   5.758
 3493SOL    HW211379   7.005   3.369   5.803
 3494SOL     OW11380   4.130   1.169   2.225
 3494SOL    HW111381   4.042   1.190   2.184
 3494SOL    HW211382   4.193   1.245   2.211
 3495SOL     OW11383   2.024   3.788   3.886
 3495SOL    HW111384   1.932   3.771   3.922
 3495SOL    HW211385   2.018   3.822   3.792
 3496SOL     OW11386   6.130   5.146   1.199
 3496SOL    HW111387   6.228   5.127   1.205
 3496SOL    HW211388   6.112   5.237   1.237
 3497SOL     OW11389   3.468   0.391   1.449
 3497SOL    HW111390   3.504   0.342   1.370
 3497SOL    HW211391   3.544   0.428   1.503
 3498SOL     OW11392   2.585   2.737   1.341
 3498SOL    HW111393   2.646   2.804   1.299
 3498SOL    HW211394   2.503   2.783   1.375
 3499SOL     OW11395   5.606   6.674   4.763
 3499SOL    HW111396   5.626   6.597   4.825
 3499SOL    HW211397   5.654   6.755   4.796
 3500SOL     OW11398   3.004   2.225   3.789
 3500SOL    HW111399   3.095   2.218   3.830
 3500SOL    HW211400   3.012   2.212   3.690
 3501SOL     OW11401   1.735   6.810   6.243
 3501SOL    HW111402   1.743   6.745   6.319
 3501SOL    HW211403   1.652   6.865   6.256
 3502SOL     OW11404   5.237   2.356   1.970
 3502SOL    HW111405   5.214   2.287   1.902
 3502SOL    HW211406   5.265   2.441   1.924
 3503SOL     OW11407   0.880   5.878   6.329
 3503SOL    HW111408   0.864   5.780   6.317
 3503SOL    HW211409   0.970   5.902   6.292
 3504SOL     OW11410   2.300   0.849   0.076
 3504SOL    HW111411   2.336   0.926   0.128
 3504SOL    HW211412   2.202   0.839   0.093
 3505SOL     OW11413   5.154   2.940   5.294
 3505SOL    HW111414   5.063   2.945   5.335
 3505SOL    HW211415   5.153   2.877   5.217
 3506SOL     OW11416   4.305   4.829   5.013
 3506SOL    HW111417   4.219   4.825   5.064
 3506SOL    HW211418   4.328   4.738   4.979
 3507SOL     OW11419   3.178   1.700   1.181
 3507SOL    HW111420   3.247   1.646   1.132
 3507SOL    HW211421   3.135   1.765   1.118
 3508SOL     OW11422   3.888   1.575   6.232
 3508SOL    HW111423   3.801   1.527   6.243
 3508SOL    HW211424   3.943   1.530   6.162
 3509SOL     OW11425   4.531   5.716   6.615
 3509SOL    HW111426   4.451   5.766   6.646
 3509SOL    HW211427   4.606   5.729   6.680
 3510SOL     OW11428   2.376   1.539   1.359
 3510SOL    HW111429   2.354   1.607   1.290
 3510SOL    HW211430   2.473   1.514   1.351
 3511SOL     OW11431   2.637   4.688   1.880
 3511SOL    HW111432   2.664   4.721   1.789
 3511SOL    HW211433   2.712   4.635   1.920
 3512SOL     OW11434   6.916   5.294   6.235
 3512SOL    HW111435   6.894   5.384   6.198
 3512SOL    HW211436   7.003   5.262   6.198
 3513SOL     OW11437   5.365   1.770   0.070
 3513SOL    HW111438   5.348   1.730   7.002
 3513SOL    HW211439   5.315   1.718   0.139
 3514SOL     OW11440   3.117   1.841   2.012
 3514SOL    HW111441   3.082   1.932   1.988
 3514SOL    HW211442   3.217   1.841   2.004
 3515SOL     OW11443   0.450   4.285   4.232
 3515SOL    HW111444   0.382   4.351   4.198
 3515SOL    HW211445   0.432   4.195   4.191
 3516SOL     OW11446   4.774   0.831   1.162
 3516SOL    HW111447   4.839   0.768   1.203
 3516SOL    HW211448   4.742   0.897   1.231
 3517SOL     OW11449   4.817   0.719   1.932
 3517SOL    HW111450   4.742   0.655   1.913
 3517SOL    HW211451   4.785   0.790   1.995
 3518SOL     OW11452   5.922   1.327   5.243
 3518SOL    HW111453   6.021   1.337   5.228
 3518SOL    HW211454   5.878   1.299   5.158
 3519SOL     OW11455   3.451   1.644   1.372
 3519SOL    HW111456   3.364   1.676   1.334
 3519SOL    HW211457   3.527   1.690   1.326
 3520SOL     OW11458   2.494   5.968   4.299
 3520SOL    HW111459   2.461   6.033   4.367
 3520SOL    HW211460   2.583   5.932   4.328
 3521SOL     OW11461   2.496   2.673   6.316
 3521SOL    HW111462   2.595   2.671   6.329
 3521SOL    HW211463   2.467   2.766   6.293
 3522SOL     OW11464   1.277   6.130   6.534
 3522SOL    HW111465   1.314   6.043   6.501
 3522SOL    HW211466   1.352   6.188   6.565
 3523SOL     OW11467   3.482   5.611   0.197
 3523SOL    HW111468   3.399   5.591   0.249
 3523SOL    HW211469   3.460   5.672   0.121
 3524SOL     OW11470   4.498   1.035   3.788
 3524SOL    HW111471   4.479   0.939   3.806
 3524SOL    HW211472   4.481   1.089   3.870
 3525SOL     OW11473   0.046   2.942   3.567
 3525SOL    HW111474   0.043   2.907   3.661
 3525SOL    HW211475   0.009   2.873   3.504
 3526SOL     OW11476   0.220   6.746   1.623
 3526SOL    HW111477   0.268   6.828   1.591
 3526SOL    HW211478   0.286   6.673   1.639
 3527SOL     OW11479   6.547   3.001   0.302
 3527SOL    HW111480   6.581   2.907   0.302
 3527SOL    HW211481   6.505   3.022   0.213
 3528SOL     OW11482   2.310   4.709   4.965
 3528SOL    HW111483   2.307   4.794   5.018
 3528SOL    HW211484   2.404   4.691   4.936
 3529SOL     OW11485   4.435   4.329   0.596
 3529SOL    HW111486   4.513   4.299   0.541
 3529SOL    HW211487   4.362   4.261   0.590
 3530SOL     OW11488   6.378   0.116   0.734
 3530SOL    HW111489   6.429   0.095   0.818
 3530SOL    HW211490   6.418   0.065   0.658
 3531SOL     OW11491   4.718   2.129   0.474
 3531SOL    HW111492   4.680   2.037   0.481
 3531SOL    HW211493   4.688   2.172   0.389
 3532SOL     OW11494   2.402   0.711   1.488
 3532SOL    HW111495   2.438   0.804   1.496
 3532SOL    HW211496   2.309   0.707   1.525
 3533SOL     OW11497   1.867   2.714   2.905
 3533SOL    HW111498   1.796   2.784   2.910
 3533SOL    HW211499   1.855   2.649   2.980
 3534SOL     OW11500   0.733   1.311   0.646
 3534SOL    HW111501   0.734   1.256   0.562
 3534SOL    HW211502   0.697   1.255   0.721
 3535SOL     OW11503   3.736   6.680   3.637
 3535SOL    HW111504   3.644   6.666   3.601
 3535SOL    HW211505   3.771   6.769   3.607
 3536SOL     OW11506   4.084   1.936   3.769
 3536SOL    HW111507   4.112   2.023   3.728
 3536SOL    HW211508   4.079   1.866   3.698
 3537SOL     OW11509   1.621   6.697   2.926
 3537SOL    HW111510   1.673   6.714   2.843
 3537SOL    HW211511   1.534   6.654   2.903
 3538SOL     OW11512   3.140   5.804   1.819
 3538SOL    HW111513   3.191   5.721   1.798
 3538SOL    HW211514   3.049   5.799   1.779
 3539SOL     OW11515   3.389   3.976   4.381
 3539SOL    HW111516   3.301   4.003   4.342
 3539SOL    HW211517   3.378   3.891   4.432
 3540SOL     OW11518   1.502   2.356   3.079
 3540SOL    HW111519   1.546   2.267   3.069
 3540SOL    HW211520   1.510   2.387   3.174
 3541SOL     OW11521   3.903   3.880   4.326
 3541SOL    HW111522   3.808   3.879   4.296
 3541SOL    HW211523   3.906   3.882   4.426
 3542SOL     OW11524   6.731   5.677   1.165
 3542SOL    HW111525   6.731   5.760   1.221
 3542SOL    HW211526   6.818   5.668   1.118
 3543SOL     OW11527   5.187   2.236   4.454
 3543SOL    HW111528   5.235   2.166   4.402
 3543SOL    HW211529   5.220   2.236   4.549
 3544SOL     OW11530   2.835   6.809   6.880
 3544SOL    HW111531   2.840   6.873   6.956
 3544SOL    HW211532   2.818   6.859   6.795
 3545SOL     OW11533   3.169   5.587   0.826
 3545SOL    HW111534   3.147   5.681   0.852
 3545SOL    HW211535   3.206   5.538   0.905
 3546SOL     OW11536   0.911   4.634   2.767
 3546SOL    HW111537   0.955   4.680   2.690
 3546SOL    HW211538   0.894   4.538   2.743
 3547SOL     OW11539   5.086   4.525   4.571
 3547SOL    HW111540   5.097   4.438   4.524
 3547SOL    HW211541   5.134   4.597   4.520
 3548SOL     OW11542   5.311   3.102   5.712
 3548SOL    HW111543   5.380   3.138   5.774
 3548SOL    HW211544   5.230   3.076   5.763
 3549SOL     OW11545   5.068   3.319   2.473
 3549SOL    HW111546   5.028   3.250   2.413
 3549SOL    HW211547   5.168   3.311   2.470
 3550SOL     OW11548   5.073   1.664   3.701
 3550SOL    HW111549   4.983   1.654   3.659
 3550SOL    HW211550   5.124   1.579   3.692
 3551SOL     OW11551   2.039   6.875   2.476
 3551SOL    HW111552   2.094   6.931   2.539
 3551SOL    HW211553   2.088   6.866   2.389
 3552SOL     OW11554   6.524   4.233   2.972
 3552SOL    HW111555   6.555   4.159   2.913
 3552SOL    HW211556   6.478   4.196   3.052
 3553SOL     OW11557   6.000   1.749   3.236
 3553SOL    HW111558   6.023   1.829   3.180
 3553SOL    HW211559   6.028   1.666   3.188
 3554SOL     OW11560   4.232   5.626   6.809
 3554SOL    HW111561   4.156   5.642   6.871
 3554SOL    HW211562   4.224   5.535   6.768
 3555SOL     OW11563   0.882   2.251   3.872
 3555SOL    HW111564   0.912   2.334   3.919
 3555SOL    HW211565   0.949   2.225   3.804
 3556SOL     OW11566   4.353   1.554   6.176
 3556SOL    HW111567   4.318   1.648   6.173
 3556SOL    HW211568   4.447   1.552   6.143
 3557SOL     OW11569   0.890   0.461   3.833
 3557SOL    HW111570   0.874   0.555   3.863
 3557SOL    HW211571   0.810   0.428   3.782
 3558SOL     OW11572   0.585   6.837   1.235
 3558SOL    HW111573   0.600   6.914   1.297
 3558SOL    HW211574   0.577   6.871   1.142
 3559SOL     OW11575   0.717   0.333   6.027
 3559SOL    HW111576   0.793   0.387   6.062
 3559SOL    HW211577   0.736   0.306   5.933
 3560SOL     OW11578   6.892   0.087   1.663
 3560SOL    HW111579   6.910   0.002   1.614
 3560SOL    HW211580   6.979   0.132   1.684
 3561SOL     OW11581   5.411   4.613   3.569
 3561SOL    HW111582   5.398   4.535   3.509
 3561SOL    HW211583   5.495   4.662   3.544
 3562SOL     OW11584   4.074   2.192   2.559
 3562SOL    HW111585   3.986   2.177   2.606
 3562SOL    HW211586   4.068   2.159   2.465
 3563SOL     OW11587   4.292   6.297   1.759
 3563SOL    HW111588   4.227   6.352   1.708
 3563SOL    HW211589   4.263   6.201   1.758
 3564SOL     OW11590   6.074   4.471   2.418
 3564SOL    HW111591   6.004   4.401   2.429
 3564SOL    HW211592   6.099   4.508   2.508
 3565SOL     OW11593   0.973   0.917   5.421
 3565SOL    HW111594   1.047   0.851   5.422
 3565SOL    HW211595   0.982   0.976   5.341
 3566SOL     OW11596   1.174   4.467   6.040
 3566SOL    HW111597   1.236   4.449   5.964
 3566SOL    HW211598   1.223   4.512   6.114
 3567SOL     OW11599   6.997   2.357   1.156
 3567SOL    HW111600   6.969   2.453   1.149
 3567SOL    HW211601   6.921   2.299   1.126
 3568SOL     OW11602   5.038   4.111   3.689
 3568SOL    HW111603   5.080   4.148   3.606
 3568SOL    HW211604   4.971   4.042   3.663
 3569SOL     OW11605   4.089   3.561   3.729
 3569SOL    HW111606   4.036   3.645   3.720
 3569SOL    HW211607   4.039   3.485   3.686
 3570SOL     OW11608   0.183   2.315   5.588
 3570SOL    HW111609   0.136   2.235   5.625
 3570SOL    HW211610   0.282   2.299   5.588
 3571SOL     OW11611   2.812   6.845   4.508
 3571SOL    HW111612   2.871   6.895   4.571
 3571SOL    HW211613   2.722   6.889   4.505
 3572SOL     OW11614   4.994   4.365   2.423
 3572SOL    HW111615   5.063   4.292   2.423
 3572SOL    HW211616   5.038   4.452   2.446
 3573SOL     OW11617   0.297   4.779   3.929
 3573SOL    HW111618   0.373   4.834   3.896
 3573SOL    HW211619   0.330   4.714   3.997
 3574SOL     OW11620   2.063   1.873   6.077
 3574SOL    HW111621   1.979   1.911   6.038
 3574SOL    HW211622   2.041   1.792   6.131
 3575SOL     OW11623   5.182   0.822   6.709
 3575SOL    HW111624   5.161   0.890   6.639
 3575SOL    HW211625   5.108   0.820   6.776
 3576SOL     OW11626   0.759   2.629   0.713
 3576SOL    HW111627   0.789   2.625   0.618
 3576SOL    HW211628   0.836   2.658   0.770
 3577SOL     OW11629   1.838   3.758   4.587
 3577SOL    HW111630   1.798   3.847   4.608
 3577SOL    HW211631   1.824   3.738   4.490
 3578SOL     OW11632   4.403   2.288   0.606
 3578SOL    HW111633   4.403   2.203   0.554
 3578SOL    HW211634   4.400   2.366   0.543
 3579SOL     OW11635   0.852   3.393   2.208
 3579SOL    HW111636   0.851   3.463   2.137
 3579SOL    HW211637   0.935   3.338   2.199
 3580SOL     OW11638   6.839   4.413   1.977
 3580SOL    HW111639   6.744   4.407   1.948
 3580SOL    HW211640   6.858   4.505   2.012
 3581SOL     OW11641   1.852   0.469   2.621
 3581SOL    HW111642   1.756   0.453   2.646
 3581SOL    HW211643   1.899   0.513   2.697
 3582SOL     OW11644   4.901   6.383   6.464
 3582SOL    HW111645   4.917   6.343   6.374
 3582SOL    HW211646   4.929   6.319   6.535
 3583SOL     OW11647   1.641   6.097   0.621
 3583SOL    HW111648   1.557   6.078   0.571
 3583SOL    HW211649   1.670   6.015   0.671
 3584SOL     OW11650   5.598   4.710   4.723
 3584SOL    HW111651   5.677   4.655   4.746
 3584SOL    HW211652   5.554   4.674   4.641
 3585SOL     OW11653   4.222   2.331   3.845
 3585SOL    HW111654   4.196   2.427   3.836
 3585SOL    HW211655   4.169   2.277   3.779
 3586SOL     OW11656   6.511   2.545   5.283
 3586SOL    HW111657   6.529   2.631   5.331
 3586SOL    HW211658   6.554   2.546   5.193
 3587SOL     OW11659   2.165   0.591   6.300
 3587SOL    HW111660   2.161   0.500   6.258
 3587SOL    HW211661   2.226   0.588   6.379
 3588SOL     OW11662   5.957   3.635   4.207
 3588SOL    HW111663   5.918   3.576   4.136
 3588SOL    HW211664   5.957   3.587   4.294
 3589SOL     OW11665   0.495   0.805   6.138
 3589SOL    HW111666   0.472   0.747   6.216
 3589SOL    HW211667   0.430   0.787   6.064
 3590SOL     OW11668   6.125   5.032   5.732
 3590SOL    HW111669   6.028   5.032   5.755
 3590SOL    HW211670   6.140   4.973   5.652
 3591SOL     OW11671   4.861   1.982   0.844
 3591SOL    HW111672   4.802   1.917   0.797
 3591SOL    HW211673   4.832   2.075   0.821
 3592SOL     OW11674   0.814   6.213   1.173
 3592SOL    HW111675   0.864   6.165   1.101
 3592SOL    HW211676   0.862   6.203   1.260
 3593SOL     OW11677   4.354   3.280   5.956
 3593SOL    HW111678   4.339   3.256   6.052
 3593SOL    HW211679   4.289   3.228   5.899
 3594SOL     OW11680   4.590   4.294   5.139
 3594SOL    HW111681   4.586   4.223   5.209
 3594SOL    HW211682   4.503   4.343   5.136
 3595SOL     OW11683   4.753   0.226   5.891
 3595SOL    HW111684   4.787   0.138   5.923
 3595SOL    HW211685   4.664   0.244   5.932
 3596SOL     OW11686   3.416   1.611   1.841
 3596SOL    HW111687   3.506   1.575   1.815
 3596SOL    HW211688   3.356   1.614   1.761
 3597SOL     OW11689   4.154   4.588   5.293
 3597SOL    HW111690   4.223   4.535   5.243
 3597SOL    HW211691   4.065   4.543   5.285
 3598SOL     OW11692   6.759   5.481   4.683
 3598SOL    HW111693   6.743   5.561   4.740
 3598SOL    HW211694   6.853   5.450   4.694
 3599SOL     OW11695   2.578   1.333   5.104
 3599SOL    HW111696   2.509   1.260   5.100
 3599SOL    HW211697   2.540   1.411   5.155
 3600SOL     OW11698   2.148   4.050   0.890
 3600SOL    HW111699   2.221   3.992   0.928
 3600SOL    HW211700   2.081   4.069   0.962
 3601SOL     OW11701   3.307   0.264   5.059
 3601SOL    HW111702   3.330   0.188   5.120
 3601SOL    HW211703   3.262   0.337   5.111
 3602SOL     OW11704   1.627   2.066   0.782
 3602SOL    HW111705   1.530   2.051   0.797
 3602SOL    HW211706   1.669   2.103   0.865
 3603SOL     OW11707   1.354   6.712   6.198
 3603SOL    HW111708   1.323   6.741   6.107
 3603SOL    HW211709   1.419   6.779   6.233
 3604SOL     OW11710   6.997   0.976   4.330
 3604SOL    HW111711   6.956   0.973   4.239
 3604SOL    HW211712   6.946   0.915   4.391
 3605SOL     OW11713   1.379   0.328   4.608
 3605SOL    HW111714   1.398   0.265   4.684
 3605SOL    HW211715   1.463   0.372   4.579
 3606SOL     OW11716   2.082   0.326   3.003
 3606SOL    HW111717   2.162   0.275   2.970
 3606SOL    HW211718   2.097   0.353   3.098
 3607SOL     OW11719   5.951   1.746   4.121
 3607SOL    HW111720   5.952   1.687   4.041
 3607SOL    HW211721   5.996   1.833   4.100
 3608SOL     OW11722   4.054   1.863   5.273
 3608SOL    HW111723   4.037   1.962   5.277
 3608SOL    HW211724   4.142   1.843   5.314
 3609SOL     OW11725   2.941   6.703   4.804
 3609SOL    HW111726   2.989   6.655   4.731
 3609SOL    HW211727   2.941   6.647   4.887
 3610SOL     OW11728   1.148   0.255   5.978
 3610SOL    HW111729   1.242   0.274   6.005
 3610SOL    HW211730   1.118   0.169   6.020
 3611SOL     OW11731   5.358   3.393   2.793
 3611SOL    HW111732   5.302   3.472   2.768
 3611SOL    HW211733   5.454   3.419   2.795
 3612SOL     OW11734   4.955   1.621   0.810
 3612SOL    HW111735   4.999   1.647   0.724
 3612SOL    HW211736   4.862   1.591   0.793
 3613SOL     OW11737   3.923   0.784   2.980
 3613SOL    HW111738   3.872   0.800   3.065
 3613SOL    HW211739   4.003   0.726   3.000
 3614SOL     OW11740   3.296   5.773   0.499
 3614SOL    HW111741   3.305   5.872   0.509
 3614SOL    HW211742   3.211   5.753   0.451
 3615SOL     OW11743   5.560   2.237   4.928
 3615SOL    HW111744   5.618   2.160   4.902
 3615SOL    HW211745   5.612   2.300   4.986
 3616SOL     OW11746   1.662   1.242   1.168
 3616SOL    HW111747   1.739   1.184   1.195
 3616SOL    HW211748   1.674   1.271   1.073
 3617SOL     OW11749   4.071   5.134   4.641
 3617SOL    HW111750   4.124   5.168   4.564
 3617SOL    HW211751   4.056   5.209   4.706
 3618SOL     OW11752   0.996   5.430   4.415
 3618SOL    HW111753   0.907   5.416   4.460
 3618SOL    HW211754   1.051   5.492   4.471
 3619SOL     OW11755   0.169   2.075   2.092
 3619SOL    HW111756   0.195   2.032   2.005
 3619SOL    HW211757   0.236   2.145   2.115
 3620SOL     OW11758   4.850   6.251   5.528
 3620SOL    HW111759   4.793   6.326   5.494
 3620SOL    HW211760   4.815   6.164   5.493
 3621SOL     OW11761   3.109   3.118   3.151
 3621SOL    HW111762   3.094   3.136   3.249
 3621SOL    HW211763   3.171   3.040   3.141
 3622SOL     OW11764   2.625   5.599   6.220
 3622SOL    HW111765   2.604   5.533   6.292
 3622SOL    HW211766   2.541   5.647   6.193
 3623SOL     OW11767   1.956   6.129   5.796
 3623SOL    HW111768   1.984   6.084   5.881
 3623SOL    HW211769   1.863   6.100   5.773
 3624SOL     OW11770   2.518   1.905   2.889
 3624SOL    HW111771   2.431   1.866   2.858
 3624SOL    HW211772   2.586   1.897   2.816
 3625SOL     OW11773   6.093   2.033   1.353
 3625SOL    HW111774   6.109   2.011   1.449
 3625SOL    HW211775   6.180   2.047   1.306
 3626SOL     OW11776   0.459   3.063   5.907
 3626SOL    HW111777   0.481   3.012   5.823
 3626SOL    HW211778   0.523   3.140   5.917
 3627SOL     OW11779   3.312   1.559   2.765
 3627SOL    HW111780   3.306   1.536   2.862
 3627SOL    HW211781   3.223   1.548   2.722
 3628SOL     OW11782   0.342   0.956   1.621
 3628SOL    HW111783   0.404   0.997   1.689
 3628SOL    HW211784   0.321   1.024   1.551
 3629SOL     OW11785   1.912   0.769   4.502
 3629SOL    HW111786   1.880   0.675   4.493
 3629SOL    HW211787   1.834   0.831   4.507
 3630SOL     OW11788   6.616   1.856   2.536
 3630SOL    HW111789   6.693   1.812   2.489
 3630SOL    HW211790   6.634   1.855   2.635
 3631SOL     OW11791   1.971   5.472   2.581
 3631SOL    HW111792   2.054   5.494   2.530
 3631SOL    HW211793   1.926   5.393   2.539
 3632SOL     OW11794   5.258   2.931   2.812
 3632SOL    HW111795   5.325   2.963   2.879
 3632SOL    HW211796   5.210   3.009   2.772
 3633SOL     OW11797   4.761   5.071   5.843
 3633SOL    HW111798   4.792   5.012   5.917
 3633SOL    HW211799   4.775   5.167   5.869
 3634SOL     OW11800   3.083   5.271   6.171
 3634SOL    HW111801   3.137   5.246   6.251
 3634SOL    HW211802   3.079   5.371   6.164
 3635SOL     OW11803   1.810   6.763   2.763
 3635SOL    HW111804   1.867   6.836   2.726
 3635SOL    HW211805   1.842   6.738   2.854
 3636SOL     OW11806   6.886   6.119   4.200
 3636SOL    HW111807   6.829   6.057   4.146
 3636SOL    HW211808   6.971   6.073   4.224
 3637SOL     OW11809   5.315   2.194   6.912
 3637SOL    HW111810   5.287   2.245   6.993
 3637SOL    HW211811   5.238   2.185   6.850
 3638SOL     OW11812   0.725   2.388   3.708
 3638SOL    HW111813   0.781   2.330   3.767
 3638SOL    HW211814   0.678   2.331   3.640
 3639SOL     OW11815   3.560   3.426   4.099
 3639SOL    HW111816   3.607   3.506   4.136
 3639SOL    HW211817   3.483   3.401   4.158
 3640SOL     OW11818   4.595   1.770   2.687
 3640SOL    HW111819   4.569   1.674   2.696
 3640SOL    HW211820   4.515   1.824   2.660
 3641SOL     OW11821   0.530   3.420   1.526
 3641SOL    HW111822   0.535   3.483   1.603
 3641SOL    HW211823   0.582   3.458   1.449
 3642SOL     OW11824   4.269   4.408   6.328
 3642SOL    HW111825   4.189   4.433   6.383
 3642SOL    HW211826   4.271   4.309   6.317
 3643SOL     OW11827   4.348   5.391   4.707
 3643SOL    HW111828   4.265   5.442   4.729
 3643SOL    HW211829   4.419   5.454   4.675
 3644SOL     OW11830   3.671   1.872   1.365
 3644SOL    HW111831   3.642   1.962   1.331
 3644SOL    HW211832   3.633   1.858   1.456
 3645SOL     OW11833   1.751   3.719   3.848
 3645SOL    HW111834   1.680   3.707   3.917
 3645SOL    HW211835   1.732   3.658   3.770
 3646SOL     OW11836   2.544   4.954   5.063
 3646SOL    HW111837   2.445   4.958   5.057
 3646SOL    HW211838   2.572   4.882   5.127
 3647SOL     OW11839   3.538   0.479   0.385
 3647SOL    HW111840   3.603   0.555   0.382
 3647SOL    HW211841   3.578   0.404   0.439
 3648SOL     OW11842   5.921   5.296   3.489
 3648SOL    HW111843   5.997   5.244   3.526
 3648SOL    HW211844   5.860   5.235   3.438
 3649SOL     OW11845   5.403   3.011   6.954
 3649SOL    HW111846   5.499   3.005   6.924
 3649SOL    HW211847   5.344   3.001   6.874
 3650SOL     OW11848   5.302   6.461   0.074
 3650SOL    HW111849   5.248   6.426   0.151
 3650SOL    HW211850   5.270   6.552   0.048
 3651SOL     OW11851   1.111   1.712   5.855
 3651SOL    HW111852   1.023   1.731   5.811
 3651SOL    HW211853   1.100   1.638   5.921
 3652SOL     OW11854   5.804   2.323   2.537
 3652SOL    HW111855   5.864   2.402   2.520
 3652SOL    HW211856   5.709   2.352   2.528
 3653SOL     OW11857   1.761   1.564   0.602
 3653SOL    HW111858   1.789   1.590   0.509
 3653SOL    HW211859   1.781   1.639   0.665
 3654SOL     OW11860   3.829   6.143   0.600
 3654SOL    HW111861   3.833   6.153   0.699
 3654SOL    HW211862   3.922   6.137   0.563
 3655SOL     OW11863   0.879   0.197   4.161
 3655SOL    HW111864   0.975   0.171   4.148
 3655SOL    HW211865   0.822   0.150   4.093
 3656SOL     OW11866   0.538   0.851   0.797
 3656SOL    HW111867   0.628   0.891   0.783
 3656SOL    HW211868   0.468   0.918   0.774
 3657SOL     OW11869   6.266   4.982   6.312
 3657SOL    HW111870   6.244   5.038   6.233
 3657SOL    HW211871   6.308   5.039   6.383
 3658SOL     OW11872   1.859   4.889   5.979
 3658SOL    HW111873   1.817   4.828   6.046
 3658SOL    HW211874   1.833   4.983   5.999
 3659SOL     OW11875   1.133   2.289   7.001
 3659SOL    HW111876   1.069   2.215   6.980
 3659SOL    HW211877   1.177   2.271   0.066
 3660SOL     OW11878   4.511   4.869   4.325
 3660SOL    HW111879   4.464   4.784   4.347
 3660SOL    HW211880   4.555   4.860   4.235
 3661SOL     OW11881   1.179   0.788   5.292
 3661SOL    HW111882   1.274   0.817   5.304
 3661SOL    HW211883   1.161   0.774   5.195
 3662SOL     OW11884   3.820   2.623   5.605
 3662SOL    HW111885   3.901   2.612   5.663
 3662SOL    HW211886   3.837   2.581   5.516
 3663SOL     OW11887   1.505   2.945   5.819
 3663SOL    HW111888   1.420   2.956   5.870
 3663SOL    HW211889   1.579   2.923   5.882
 3664SOL     OW11890   1.967   2.232   0.789
 3664SOL    HW111891   1.900   2.213   0.861
 3664SOL    HW211892   2.021   2.312   0.813
 3665SOL     OW11893   0.057   6.615   5.111
 3665SOL    HW111894   0.028   6.703   5.151
 3665SOL    HW211895   0.123   6.632   5.038
 3666SOL     OW11896   2.140   3.769   5.014
 3666SOL    HW111897   2.181   3.706   5.079
 3666SOL    HW211898   2.185   3.858   5.022
 3667SOL     OW11899   2.402   6.651   1.230
 3667SOL    HW111900   2.345   6.667   1.149
 3667SOL    HW211901   2.344   6.632   1.309
 3668SOL     OW11902   4.628   1.091   0.798
 3668SOL    HW111903   4.554   1.111   0.863
 3668SOL    HW211904   4.660   0.997   0.812
 3669SOL     OW11905   6.808   0.967   2.257
 3669SOL    HW111906   6.841   1.062   2.252
 3669SOL    HW211907   6.878   0.910   2.301
 3670SOL     OW11908   2.207   6.590   2.313
 3670SOL    HW111909   2.136   6.647   2.272
 3670SOL    HW211910   2.165   6.530   2.383
 3671SOL     OW11911   0.674   0.261   5.743
 3671SOL    HW111912   0.739   0.337   5.731
 3671SOL    HW211913   0.613   0.256   5.664
 3672SOL     OW11914   2.765   0.671   3.323
 3672SOL    HW111915   2.818   0.610   3.383
 3672SOL    HW211916   2.679   0.695   3.367
 3673SOL     OW11917   3.529   1.786   1.605
 3673SOL    HW111918   3.507   1.703   1.552
 3673SOL    HW211919   3.445   1.837   1.623
 3674SOL     OW11920   6.545   5.558   6.019
 3674SOL    HW111921   6.463   5.505   5.998
 3674SOL    HW211922   6.549   5.638   5.959
 3675SOL     OW11923   5.833   0.638   5.309
 3675SOL    HW111924   5.826   0.640   5.409
 3675SOL    HW211925   5.895   0.565   5.282
 3676SOL     OW11926   2.007   0.772   6.167
 3676SOL    HW111927   2.064   0.699   6.207
 3676SOL    HW211928   2.019   0.772   6.067
 3677SOL     OW11929   1.594   0.584   4.945
 3677SOL    HW111930   1.507   0.542   4.969
 3677SOL    HW211931   1.580   0.647   4.869
 3678SOL     OW11932   2.716   1.068   3.450
 3678SOL    HW111933   2.811   1.065   3.420
 3678SOL    HW211934   2.704   1.008   3.529
 3679SOL     OW11935   3.158   1.242   2.018
 3679SOL    HW111936   3.114   1.306   1.955
 3679SOL    HW211937   3.192   1.163   1.967
 3680SOL     OW11938   4.395   1.632   4.025
 3680SOL    HW111939   4.341   1.557   4.062
 3680SOL    HW211940   4.353   1.719   4.050
 3681SOL     OW11941   0.966   5.265   3.439
 3681SOL    HW111942   0.999   5.310   3.356
 3681SOL    HW211943   1.000   5.171   3.442
 3682SOL     OW11944   5.104   1.477   1.964
 3682SOL    HW111945   5.103   1.509   1.869
 3682SOL    HW211946   5.079   1.380   1.967
 3683SOL     OW11947   6.417   2.228   0.945
 3683SOL    HW111948   6.349   2.269   0.884
 3683SOL    HW211949   6.453   2.299   1.006
 3684SOL     OW11950   2.811   5.877   5.980
 3684SOL    HW111951   2.893   5.925   6.011
 3684SOL    HW211952   2.742   5.878   6.053
 3685SOL     OW11953   1.406   6.537   2.897
 3685SOL    HW111954   1.360   6.544   2.808
 3685SOL    HW211955   1.348   6.579   2.967
 3686SOL     OW11956   1.066   5.270   0.804
 3686SOL    HW111957   1.078   5.251   0.901
 3686SOL    HW211958   1.023   5.191   0.759
 3687SOL     OW11959   0.355   4.594   4.425
 3687SOL    HW111960   0.376   4.504   4.385
 3687SOL    HW211961   0.258   4.598   4.446
 3688SOL     OW11962   0.237   2.944   1.631
 3688SOL    HW111963   0.274   3.022   1.680
 3688SOL    HW211964   0.295   2.864   1.646
 3689SOL     OW11965   2.637   2.504   5.507
 3689SOL    HW111966   2.647   2.539   5.414
 3689SOL    HW211967   2.727   2.491   5.548
 3690SOL     OW11968   0.174   5.415   2.395
 3690SOL    HW111969   0.203   5.481   2.465
 3690SOL    HW211970   0.251   5.355   2.373
 3691SOL     OW11971   2.580   1.824   7.004
 3691SOL    HW111972   2.627   1.851   0.067
 3691SOL    HW211973   2.523   1.900   6.972
 3692SOL     OW11974   0.874   2.868   5.797
 3692SOL    HW111975   0.966   2.829   5.791
 3692SOL    HW211976   0.839   2.883   5.704
 3693SOL     OW11977   0.393   1.870   2.791
 3693SOL    HW111978   0.329   1.902   2.861
 3693SOL    HW211979   0.420   1.947   2.733
 3694SOL     OW11980   6.983   6.557   1.870
 3694SOL    HW111981   0.011   6.602   1.944
 3694SOL    HW211982   6.924   6.624   1.825
 3695SOL     OW11983   6.013   3.565   5.025
 3695SOL    HW111984   5.931   3.563   4.967
 3695SOL    HW211985   6.006   3.641   5.090
 3696SOL     OW11986   4.257   0.189   4.255
 3696SOL    HW111987   4.328   0.238   4.305
 3696SOL    HW211988   4.287   0.095   4.239
 3697SOL     OW11989   6.759   4.925   2.643
 3697SOL    HW111990   6.757   4.854   2.572
 3697SOL    HW211991   6.838   4.910   2.702
 3698SOL     OW11992   1.173   0.448   3.710
 3698SOL    HW111993   1.078   0.419   3.706
 3698SOL    HW211994   1.210   0.433   3.802
 3699SOL     OW11995   3.141   1.835   3.315
 3699SOL    HW111996   3.116   1.801   3.224
 3699SOL    HW211997   3.205   1.911   3.305
 3700SOL     OW11998   0.893   5.228   4.772
 3700SOL    HW111999   0.860   5.294   4.704
 3700SOL    HW212000   0.914   5.141   4.727
 3701SOL     OW12001   6.433   0.604   2.375
 3701SOL    HW112002   6.435   0.622   2.474
 3701SOL    HW212003   6.419   0.506   2.360
 3702SOL     OW12004   6.639   4.784   3.584
 3702SOL    HW112005   6.693   4.807   3.503
 3702SOL    HW212006   6.586   4.701   3.567
 3703SOL     OW12007   0.807   2.248   3.348
 3703SOL    HW112008   0.836   2.168   3.296
 3703SOL    HW212009   0.886   2.305   3.369
 3704SOL     OW12010   6.518   6.535   1.069
 3704SOL    HW112011   6.456   6.514   0.993
 3704SOL    HW212012   6.494   6.478   1.147
 3705SOL     OW12013   6.428   4.173   3.757
 3705SOL    HW112014   6.365   4.175   3.834
 3705SOL    HW212015   6.520   4.151   3.790
 3706SOL     OW12016   0.409   5.823   6.851
 3706SOL    HW112017   0.460   5.748   6.894
 3706SOL    HW212018   0.473   5.890   6.813
 3707SOL     OW12019   6.764   4.119   3.252
 3707SOL    HW112020   6.693   4.109   3.322
 3707SOL    HW212021   6.772   4.033   3.201
 3708SOL     OW12022   0.965   5.722   6.981
 3708SOL    HW112023   0.948   5.816   7.013
 3708SOL    HW212024   1.022   5.674   0.025
 3709SOL     OW12025   0.479   1.673   1.169
 3709SOL    HW112026   0.490   1.577   1.196
 3709SOL    HW212027   0.389   1.686   1.128
 3710SOL     OW12028   2.201   3.588   5.241
 3710SOL    HW112029   2.116   3.630   5.273
 3710SOL    HW212030   2.278   3.647   5.265
 3711SOL     OW12031   1.594   4.697   5.606
 3711SOL    HW112032   1.667   4.759   5.578
 3711SOL    HW212033   1.628   4.603   5.607
 3712SOL     OW12034   3.323   4.992   3.783
 3712SOL    HW112035   3.269   4.950   3.855
 3712SOL    HW212036   3.265   5.007   3.703
 3713SOL     OW12037   6.483   0.404   6.131
 3713SOL    HW112038   6.581   0.406   6.114
 3713SOL    HW212039   6.455   0.490   6.173
 3714SOL     OW12040   0.477   5.616   0.361
 3714SOL    HW112041   0.574   5.636   0.373
 3714SOL    HW212042   0.465   5.517   0.353
 3715SOL     OW12043   5.651   4.051   2.074
 3715SOL    HW112044   5.702   4.050   2.160
 3715SOL    HW212045   5.640   4.146   2.043
 3716SOL     OW12046   5.146   5.105   5.527
 3716SOL    HW112047   5.123   5.068   5.617
 3716SOL    HW212048   5.063   5.141   5.484
 3717SOL     OW12049   4.713   6.939   1.147
 3717SOL    HW112050   4.760   6.997   1.213
 3717SOL    HW212051   4.780   6.897   1.086
 3718SOL     OW12052   5.236   6.090   6.721
 3718SOL    HW112053   5.312   6.146   6.687
 3718SOL    HW212054   5.172   6.072   6.646
 3719SOL     OW12055   2.902   4.013   0.462
 3719SOL    HW112056   2.928   3.916   0.459
 3719SOL    HW212057   2.960   4.064   0.398
 3720SOL     OW12058   0.867   2.103   0.238
 3720SOL    HW112059   0.905   2.039   0.305
 3720SOL    HW212060   0.879   2.065   0.146
 3721SOL     OW12061   6.778   0.567   5.849
 3721SOL    HW112062   6.750   0.477   5.879
 3721SOL    HW212063   6.704   0.633   5.865
 3722SOL     OW12064   5.582   6.673   1.654
 3722SOL    HW112065   5.507   6.737   1.669
 3722SOL    HW212066   5.644   6.674   1.733
 3723SOL     OW12067   4.261   4.122   6.261
 3723SOL    HW112068   4.342   4.070   6.291
 3723SOL    HW212069   4.248   4.109   6.163
 3724SOL     OW12070   6.131   4.016   5.224
 3724SOL    HW112071   6.125   4.089   5.156
 3724SOL    HW212072   6.227   3.997   5.244
 3725SOL     OW12073   0.058   6.452   1.121
 3725SOL    HW112074   0.137   6.443   1.060
 3725SOL    HW212075   6.998   6.418   1.074
 3726SOL     OW12076   6.090   3.589   5.390
 3726SOL    HW112077   6.062   3.565   5.483
 3726SOL    HW212078   6.147   3.517   5.352
 3727SOL     OW12079   6.382   1.870   4.029
 3727SOL    HW112080   6.477   1.847   4.050
 3727SOL    HW212081   6.321   1.814   4.085
 3728SOL     OW12082   2.234   4.598   0.512
 3728SOL    HW112083   2.203   4.625   0.603
 3728SOL    HW212084   2.158   4.558   0.461
 3729SOL     OW12085   0.131   7.009   6.276
 3729SOL    HW112086   0.061   6.991   6.207
 3729SOL    HW212087   0.172   6.923   6.305
 3730SOL     OW12088   5.846   4.597   4.635
 3730SOL    HW112089   5.874   4.669   4.698
 3730SOL    HW212090   5.900   4.604   4.550
 3731SOL     OW12091   6.550   1.323   1.779
 3731SOL    HW112092   6.607   1.284   1.706
 3731SOL    HW212093   6.458   1.342   1.743
 3732SOL     OW12094   4.334   2.607   6.811
 3732SOL    HW112095   4.268   2.671   6.852
 3732SOL    HW212096   4.413   2.598   6.871
 3733SOL     OW12097   1.921   1.223   3.086
 3733SOL    HW112098   1.916   1.291   3.012
 3733SOL    HW212099   1.832   1.178   3.096
 3734SOL     OW12100   4.212   1.013   1.969
 3734SOL    HW112101   4.174   1.039   2.058
 3734SOL    HW212102   4.143   1.026   1.898
 3735SOL     OW12103   3.699   0.830   2.503
 3735SOL    HW112104   3.775   0.812   2.566
 3735SOL    HW212105   3.615   0.794   2.543
 3736SOL     OW12106   0.793   1.088   6.817
 3736SOL    HW112107   0.772   1.022   6.745
 3736SOL    HW212108   0.841   1.166   6.778
 3737SOL     OW12109   4.964   1.869   4.580
 3737SOL    HW112110   5.055   1.840   4.549
 3737SOL    HW212111   4.916   1.913   4.505
 3738SOL     OW12112   0.929   0.886   0.322
 3738SOL    HW112113   0.852   0.827   0.296
 3738SOL    HW212114   1.009   0.829   0.340
 3739SOL     OW12115   3.297   4.788   6.537
 3739SOL    HW112116   3.343   4.719   6.593
 3739SOL    HW212117   3.218   4.747   6.493
 3740SOL     OW12118   6.770   6.802   6.898
 3740SOL    HW112119   6.837   6.813   6.972
 3740SOL    HW212120   6.679   6.828   6.931
 3741SOL     OW12121   6.093   4.859   6.775
 3741SOL    HW112122   6.129   4.951   6.789
 3741SOL    HW212123   5.996   4.864   6.751
 3742SOL     OW12124   4.876   5.041   1.404
 3742SOL    HW112125   4.911   4.987   1.327
 3742SOL    HW212126   4.779   5.023   1.417
 3743SOL     OW12127   2.323   4.209   1.373
 3743SOL    HW112128   2.362   4.117   1.375
 3743SOL    HW212129   2.243   4.210   1.313
 3744SOL     OW12130   6.240   5.941   2.051
 3744SOL    HW112131   6.314   6.009   2.061
 3744SOL    HW212132   6.196   5.927   2.139
 3745SOL     OW12133   6.274   0.910   2.691
 3745SOL    HW112134   6.372   0.918   2.708
 3745SOL    HW212135   6.233   0.852   2.761
 3746SOL     OW12136   5.385   0.144   5.509
 3746SOL    HW112137   5.319   0.166   5.437
 3746SOL    HW212138   5.474   0.124   5.468
 3747SOL     OW12139   1.800   4.846   5.460
 3747SOL    HW112140   1.725   4.805   5.409
 3747SOL    HW212141   1.878   4.863   5.399
 3748SOL     OW12142   5.020   1.877   3.433
 3748SOL    HW112143   5.090   1.945   3.409
 3748SOL    HW212144   4.974   1.846   3.350
 3749SOL     OW12145   5.577   5.389   0.995
 3749SOL    HW112146   5.591   5.482   0.962
 3749SOL    HW212147   5.613   5.324   0.926
 3750SOL     OW12148   0.063   4.466   1.385
 3750SOL    HW112149   0.148   4.446   1.434
 3750SOL    HW212150   0.053   4.565   1.375
 3751SOL     OW12151   1.843   5.215   0.784
 3751SOL    HW112152   1.811   5.215   0.689
 3751SOL    HW212153   1.904   5.294   0.798
 3752SOL     OW12154   1.506   0.215   6.054
 3752SOL    HW112155   1.601   0.232   6.080
 3752SOL    HW212156   1.454   0.300   6.064
 3753SOL     OW12157   0.729   1.482   5.906
 3753SOL    HW112158   0.642   1.436   5.892
 3753SOL    HW212159   0.757   1.472   6.002
 3754SOL     OW12160   6.477   6.380   1.276
 3754SOL    HW112161   6.544   6.306   1.270
 3754SOL    HW212162   6.509   6.448   1.343
 3755SOL     OW12163   4.592   2.532   3.117
 3755SOL    HW112164   4.618   2.534   3.020
 3755SOL    HW212165   4.675   2.522   3.173
 3756SOL     OW12166   3.272   0.141   0.143
 3756SOL    HW112167   3.214   0.061   0.146
 3756SOL    HW212168   3.350   0.124   0.083
 3757SOL     OW12169   2.936   4.025   5.298
 3757SOL    HW112170   2.982   4.011   5.210
 3757SOL    HW212171   2.840   3.998   5.290
 3758SOL     OW12172   0.601   0.534   1.878
 3758SOL    HW112173   0.552   0.500   1.959
 3758SOL    HW212174   0.628   0.629   1.893
 3759SOL     OW12175   5.764   4.371   0.519
 3759SOL    HW112176   5.666   4.368   0.497
 3759SOL    HW212177   5.785   4.460   0.559
 3760SOL     OW12178   1.854   1.519   5.698
 3760SOL    HW112179   1.904   1.452   5.644
 3760SOL    HW212180   1.777   1.555   5.645
 3761SOL     OW12181   0.285   6.403   4.403
 3761SOL    HW112182   0.224   6.482   4.401
 3761SOL    HW212183   0.236   6.324   4.440
 3762SOL     OW12184   0.201   3.406   1.524
 3762SOL    HW112185   0.243   3.492   1.550
 3762SOL    HW212186   0.141   3.420   1.445
 3763SOL     OW12187   0.317   2.423   4.869
 3763SOL    HW112188   0.387   2.479   4.825
 3763SOL    HW212189   0.356   2.380   4.951
 3764SOL     OW12190   2.268   0.638   3.065
 3764SOL    HW112191   2.340   0.680   3.120
 3764SOL    HW212192   2.309   0.577   2.996
 3765SOL     OW12193   6.165   1.257   3.776
 3765SOL    HW112194   6.210   1.341   3.745
 3765SOL    HW212195   6.118   1.273   3.862
 3766SOL     OW12196   2.035   1.327   4.420
 3766SOL    HW112197   2.063   1.306   4.326
 3766SOL    HW212198   2.093   1.398   4.457
 3767SOL     OW12199   6.617   4.557   1.593
 3767SOL    HW112200   6.717   4.551   1.599
 3767SOL    HW212201   6.580   4.586   1.682
 3768SOL     OW12202   5.089   6.782   1.457
 3768SOL    HW112203   5.047   6.709   1.403
 3768SOL    HW212204   5.141   6.741   1.533
 3769SOL     OW12205   4.241   6.603   4.751
 3769SOL    HW112206   4.181   6.680   4.775
 3769SOL    HW212207   4.276   6.616   4.658
 3770SOL     OW12208   1.695   3.166   0.359
 3770SOL    HW112209   1.615   3.130   0.408
 3770SOL    HW212210   1.715   3.108   0.280
 3771SOL     OW12211   4.748   1.430   5.335
 3771SOL    HW112212   4.654   1.397   5.328
 3771SOL    HW212213   4.802   1.365   5.388
 3772SOL     OW12214   5.082   0.226   3.091
 3772SOL    HW112215   5.151   0.252   3.024
 3772SOL    HW212216   5.069   0.301   3.156
 3773SOL     OW12217   6.170   2.326   1.079
 3773SOL    HW112218   6.118   2.393   1.132
 3773SOL    HW212219   6.120   2.305   0.995
 3774SOL     OW12220   1.972   1.367   1.593
 3774SOL    HW112221   2.032   1.420   1.653
 3774SOL    HW212222   1.982   1.269   1.615
 3775SOL     OW12223   5.632   2.654   3.637
 3775SOL    HW112224   5.569   2.699   3.573
 3775SOL    HW212225   5.682   2.724   3.688
 3776SOL     OW12226   2.947   2.143   6.911
 3776SOL    HW112227   3.040   2.168   6.887
 3776SOL    HW212228   2.901   2.222   6.952
 3777SOL     OW12229   1.390   3.972   3.162
 3777SOL    HW112230   1.472   3.916   3.171
 3777SOL    HW212231   1.411   4.054   3.108
 3778SOL     OW12232   2.076   0.510   1.825
 3778SOL    HW112233   2.098   0.604   1.853
 3778SOL    HW212234   2.156   0.452   1.842
 3779SOL     OW12235   1.719   4.240   0.442
 3779SOL    HW112236   1.735   4.269   0.536
 3779SOL    HW212237   1.721   4.320   0.382
 3780SOL     OW12238   1.894   0.520   4.069
 3780SOL    HW112239   1.961   0.594   4.074
 3780SOL    HW212240   1.915   0.451   4.138
 3781SOL     OW12241   3.071   4.897   4.548
 3781SOL    HW112242   3.047   4.994   4.546
 3781SOL    HW212243   3.008   4.848   4.608
 3782SOL     OW12244   2.769   1.353   2.250
 3782SOL    HW112245   2.864   1.328   2.228
 3782SOL    HW212246   2.742   1.308   2.335
 3783SOL     OW12247   5.150   4.335   5.017
 3783SOL    HW112248   5.110   4.257   5.065
 3783SOL    HW212249   5.229   4.369   5.068
 3784SOL     OW12250   4.781   2.912   4.659
 3784SOL    HW112251   4.812   2.970   4.584
 3784SOL    HW212252   4.775   2.817   4.627
 3785SOL     OW12253   0.140   0.104   2.041
 3785SOL    HW112254   0.130   0.136   2.135
 3785SOL    HW212255   0.214   0.038   2.036
 3786SOL     OW12256   2.672   6.434   1.406
 3786SOL    HW112257   2.709   6.343   1.425
 3786SOL    HW212258   2.695   6.460   1.312
 3787SOL     OW12259   4.218   1.243   3.276
 3787SOL    HW112260   4.150   1.288   3.335
 3787SOL    HW212261   4.305   1.292   3.283
 3788SOL     OW12262   0.059   3.100   2.731
 3788SOL    HW112263   0.135   3.066   2.676
 3788SOL    HW212264   0.074   3.077   2.827
 3789SOL     OW12265   2.053   5.424   2.182
 3789SOL    HW112266   2.121   5.418   2.109
 3789SOL    HW212267   1.973   5.474   2.149
 3790SOL     OW12268   2.072   3.390   2.925
 3790SOL    HW112269   1.997   3.443   2.963
 3790SOL    HW212270   2.144   3.451   2.895
 3791SOL     OW12271   6.883   0.570   2.809
 3791SOL    HW112272   6.850   0.664   2.811
 3791SOL    HW212273   6.847   0.523   2.728
 3792SOL     OW12274   1.645   5.238   6.021
 3792SOL    HW112275   1.644   5.195   5.931
 3792SOL    HW212276   1.607   5.330   6.014
 3793SOL     OW12277   6.846   6.336   2.595
 3793SOL    HW112278   6.750   6.328   2.566
 3793SOL    HW212279   6.901   6.270   2.544
 3794SOL     OW12280   4.498   0.293   4.705
 3794SOL    HW112281   4.480   0.391   4.716
 3794SOL    HW212282   4.590   0.280   4.669
 3795SOL     OW12283   5.581   0.378   0.690
 3795SOL    HW112284   5.621   0.465   0.659
 3795SOL    HW212285   5.535   0.334   0.614
 3796SOL     OW12286   6.981   2.631   1.486
 3796SOL    HW112287   7.009   2.706   1.426
 3796SOL    HW212288   0.007   2.637   1.573
 3797SOL     OW12289   6.453   6.148   2.147
 3797SOL    HW112290   6.410   6.222   2.200
 3797SOL    HW212291   6.547   6.137   2.177
 3798SOL     OW12292   1.334   4.303   0.182
 3798SOL    HW112293   1.344   4.204   0.186
 3798SOL    HW212294   1.386   4.339   0.104
 3799SOL     OW12295   0.686   0.637   5.267
 3799SOL    HW112296   0.769   0.615   5.317
 3799SOL    HW212297   0.607   0.594   5.311
 3800SOL     OW12298   4.677   2.417   4.848
 3800SOL    HW112299   4.629   2.502   4.868
 3800SOL    HW212300   4.772   2.436   4.824
 3801SOL     OW12301   6.970   0.681   6.014
 3801SOL    HW112302   6.937   0.640   5.929
 3801SOL    HW212303   6.953   0.618   6.090
 3802SOL     OW12304   1.950   2.328   5.112
 3802SOL    HW112305   1.887   2.251   5.129
 3802SOL    HW212306   1.897   2.411   5.095
 3803SOL     OW12307   4.650   1.093   1.415
 3803SOL    HW112308   4.674   1.190   1.407
 3803SOL    HW212309   4.713   1.047   1.477
 3804SOL     OW12310   5.138   3.843   4.725
 3804SOL    HW112311   5.097   3.924   4.767
 3804SOL    HW212312   5.065   3.785   4.688
 3805SOL     OW12313   1.949   3.745   1.381
 3805SOL    HW112314   1.955   3.649   1.409
 3805SOL    HW212315   2.038   3.789   1.391
 3806SOL     OW12316   3.785   0.702   0.404
 3806SOL    HW112317   3.744   0.791   0.384
 3806SOL    HW212318   3.873   0.694   0.356
 3807SOL     OW12319   1.800   6.386   2.591
 3807SOL    HW112320   1.830   6.290   2.597
 3807SOL    HW212321   1.743   6.398   2.510
 3808SOL     OW12322   4.081   1.245   0.700
 3808SOL    HW112323   4.176   1.227   0.725
 3808SOL    HW212324   4.070   1.234   0.601
 3809SOL     OW12325   4.167   1.286   0.440
 3809SOL    HW112326   4.097   1.270   0.370
 3809SOL    HW212327   4.220   1.202   0.454
 3810SOL     OW12328   1.599   3.528   6.958
 3810SOL    HW112329   1.537   3.607   6.956
 3810SOL    HW212330   1.581   3.474   0.017
 3811SOL     OW12331   0.383   0.729   5.663
 3811SOL    HW112332   0.303   0.736   5.723
 3811SOL    HW212333   0.392   0.813   5.610
 3812SOL     OW12334   4.567   0.485   5.850
 3812SOL    HW112335   4.628   0.532   5.914
 3812SOL    HW212336   4.547   0.545   5.773
 3813SOL     OW12337   3.972   5.007   1.695
 3813SOL    HW112338   4.055   4.964   1.731
 3813SOL    HW212339   3.896   4.992   1.759
 3814SOL     OW12340   2.209   0.017   1.848
 3814SOL    HW112341   2.299   0.057   1.831
 3814SOL    HW212342   2.142   0.054   1.784
 3815SOL     OW12343   5.055   2.306   2.177
 3815SOL    HW112344   5.117   2.318   2.099
 3815SOL    HW212345   5.039   2.208   2.191
 3816SOL     OW12346   0.439   6.260   0.333
 3816SOL    HW112347   0.477   6.272   0.425
 3816SOL    HW212348   0.453   6.344   0.280
 3817SOL     OW12349   5.432   2.048   5.303
 3817SOL    HW112350   5.382   2.108   5.241
 3817SOL    HW212351   5.506   2.100   5.347
 3818SOL     OW12352   3.396   6.818   3.139
 3818SOL    HW112353   3.381   6.845   3.234
 3818SOL    HW212354   3.322   6.757   3.110
 3819SOL     OW12355   5.815   3.398   6.310
 3819SOL    HW112356   5.894   3.405   6.371
 3819SOL    HW212357   5.735   3.441   6.353
 3820SOL     OW12358   3.979   6.080   3.284
 3820SOL    HW112359   3.957   6.125   3.370
 3820SOL    HW212360   3.980   5.981   3.298
 3821SOL     OW12361   0.615   4.534   1.756
 3821SOL    HW112362   0.674   4.522   1.836
 3821SOL    HW212363   0.556   4.454   1.746
 3822SOL     OW12364   0.852   3.903   1.445
 3822SOL    HW112365   0.897   3.849   1.375
 3822SOL    HW212366   0.909   3.905   1.527
 3823SOL     OW12367   2.609   3.449   5.323
 3823SOL    HW112368   2.525   3.501   5.337
 3823SOL    HW212369   2.688   3.511   5.323
 3824SOL     OW12370   0.500   2.549   6.245
 3824SOL    HW112371   0.552   2.570   6.162
 3824SOL    HW212372   0.411   2.594   6.241
 3825SOL     OW12373   0.639   6.220   6.373
 3825SOL    HW112374   0.627   6.202   6.470
 3825SOL    HW212375   0.562   6.275   6.340
 3826SOL     OW12376   0.153   1.517   1.573
 3826SOL    HW112377   0.077   1.499   1.510
 3826SOL    HW212378   0.126   1.487   1.665
 3827SOL     OW12379   4.609   1.677   2.278
 3827SOL    HW112380   4.509   1.671   2.282
 3827SOL    HW212381   4.636   1.773   2.277
 3828SOL     OW12382   3.634   1.201   1.316
 3828SOL    HW112383   3.612   1.269   1.246
 3828SOL    HW212384   3.615   1.109   1.280
 3829SOL     OW12385   1.131   5.195   3.680
 3829SOL    HW112386   1.142   5.183   3.581
 3829SOL    HW212387   1.061   5.264   3.697
 3830SOL     OW12388   1.600   0.200   5.553
 3830SOL    HW112389   1.617   0.124   5.491
 3830SOL    HW212390   1.646   0.282   5.519
 3831SOL     OW12391   4.716   1.935   2.315
 3831SOL    HW112392   4.677   2.018   2.275
 3831SOL    HW212393   4.814   1.946   2.326
 3832SOL     OW12394   6.041   6.996   2.543
 3832SOL    HW112395   6.140   6.982   2.547
 3832SOL    HW212396   6.020   0.038   2.470
 3833SOL     OW12397   1.371   6.323   2.395
 3833SOL    HW112398   1.351   6.276   2.310
 3833SOL    HW212399   1.325   6.412   2.395
 3834SOL     OW12400   3.188   2.729   0.419
 3834SOL    HW112401   3.173   2.736   0.518
 3834SOL    HW212402   3.245   2.648   0.400
 3835SOL     OW12403   3.107   4.885   3.127
 3835SOL    HW112404   3.108   4.870   3.028
 3835SOL    HW212405   3.024   4.847   3.166
 3836SOL     OW12406   1.504   2.793   6.165
 3836SOL    HW112407   1.584   2.743   6.199
 3836SOL    HW212408   1.509   2.888   6.194
 3837SOL     OW12409   3.369   4.492   6.319
 3837SOL    HW112410   3.302   4.432   6.362
 3837SOL    HW212411   3.460   4.468   6.351
 3838SOL     OW12412   6.995   3.340   4.860
 3838SOL    HW112413   6.991   3.360   4.958
 3838SOL    HW212414   0.068   3.342   4.830
 3839SOL     OW12415   0.714   6.154   6.963
 3839SOL    HW112416   0.720   6.238   6.909
 3839SOL    HW212417   0.675   6.176   0.031
 3840SOL     OW12418   3.606   2.020   3.371
 3840SOL    HW112419   3.609   2.039   3.273
 3840SOL    HW212420   3.695   1.984   3.400
 3841SOL     OW12421   1.640   3.177   3.946
 3841SOL    HW112422   1.641   3.268   3.987
 3841SOL    HW212423   1.733   3.148   3.927
 3842SOL     OW12424   0.903   5.002   6.720
 3842SOL    HW112425   0.845   5.065   6.668
 3842SOL    HW212426   0.868   4.909   6.710
 3843SOL     OW12427   6.652   5.252   6.604
 3843SOL    HW112428   6.662   5.350   6.622
 3843SOL    HW212429   6.601   5.209   6.678
 3844SOL     OW12430   2.994   4.431   5.618
 3844SOL    HW112431   2.957   4.407   5.528
 3844SOL    HW212432   2.926   4.412   5.688
 3845SOL     OW12433   3.182   3.545   4.503
 3845SOL    HW112434   3.218   3.492   4.580
 3845SOL    HW212435   3.084   3.559   4.515
 3846SOL     OW12436   6.649   4.212   4.779
 3846SOL    HW112437   6.567   4.201   4.833
 3846SOL    HW212438   6.661   4.308   4.754
 3847SOL     OW12439   1.212   6.645   1.134
 3847SOL    HW112440   1.112   6.637   1.135
 3847SOL    HW212441   1.239   6.729   1.180
 3848SOL     OW12442   2.720   6.252   2.428
 3848SOL    HW112443   2.715   6.276   2.525
 3848SOL    HW212444   2.652   6.305   2.378
 3849SOL     OW12445   2.457   1.590   4.669
 3849SOL    HW112446   2.394   1.646   4.723
 3849SOL    HW212447   2.537   1.645   4.644
 3850SOL     OW12448   1.687   3.395   1.671
 3850SOL    HW112449   1.763   3.377   1.732
 3850SOL    HW212450   1.705   3.354   1.582
 3851SOL     OW12451   2.793   2.786   0.429
 3851SOL    HW112452   2.842   2.873   0.430
 3851SOL    HW212453   2.726   2.784   0.503
 3852SOL     OW12454   4.028   0.747   5.617
 3852SOL    HW112455   3.952   0.697   5.576
 3852SOL    HW212456   4.078   0.795   5.545
 3853SOL     OW12457   0.455   3.208   2.099
 3853SOL    HW112458   0.544   3.207   2.146
 3853SOL    HW212459   0.386   3.249   2.159
 3854SOL     OW12460   1.532   4.182   4.392
 3854SOL    HW112461   1.435   4.173   4.414
 3854SOL    HW212462   1.547   4.265   4.339
 3855SOL     OW12463   0.173   1.942   5.058
 3855SOL    HW112464   0.182   1.986   4.969
 3855SOL    HW212465   0.108   1.866   5.051
 3856SOL     OW12466   0.980   6.265   6.008
 3856SOL    HW112467   0.947   6.278   6.101
 3856SOL    HW212468   1.045   6.337   5.985
 3857SOL     OW12469   0.096   0.318   6.897
 3857SOL    HW112470   0.061   0.225   6.913
 3857SOL    HW212471   0.191   0.322   6.927
 3858SOL     OW12472   4.267   5.079   6.699
 3858SOL    HW112473   4.364   5.098   6.686
 3858SOL    HW212474   4.238   5.007   6.636
 3859SOL     OW12475   6.626   2.418   2.513
 3859SOL    HW112476   6.687   2.490   2.481
 3859SOL    HW212477   6.680   2.347   2.560
 3860SOL     OW12478   2.416   6.358   5.087
 3860SOL    HW112479   2.328   6.407   5.090
 3860SOL    HW212480   2.398   6.260   5.090
 3861SOL     OW12481   3.316   3.790   0.319
 3861SOL    HW112482   3.364   3.870   0.356
 3861SOL    HW212483   3.222   3.789   0.353
 3862SOL     OW12484   0.507   6.391   5.548
 3862SOL    HW112485   0.575   6.450   5.593
 3862SOL    HW212486   0.493   6.308   5.602
 3863SOL     OW12487   2.350   3.348   0.409
 3863SOL    HW112488   2.321   3.259   0.374
 3863SOL    HW212489   2.450   3.352   0.410
 3864SOL     OW12490   3.271   1.893   1.579
 3864SOL    HW112491   3.238   1.943   1.659
 3864SOL    HW212492   3.294   1.958   1.506
 3865SOL     OW12493   4.279   0.838   2.222
 3865SOL    HW112494   4.335   0.919   2.206
 3865SOL    HW212495   4.337   0.756   2.217
 3866SOL     OW12496   4.572   5.921   6.443
 3866SOL    HW112497   4.637   5.918   6.367
 3866SOL    HW212498   4.566   5.830   6.484
 3867SOL     OW12499   1.991   4.842   2.796
 3867SOL    HW112500   1.905   4.889   2.772
 3867SOL    HW212501   2.064   4.910   2.804
 3868SOL     OW12502   2.392   5.060   2.960
 3868SOL    HW112503   2.435   5.147   2.936
 3868SOL    HW212504   2.296   5.061   2.932
 3869SOL     OW12505   1.184   1.357   3.411
 3869SOL    HW112506   1.104   1.309   3.373
 3869SOL    HW212507   1.177   1.358   3.510
 3870SOL     OW12508   4.007   3.525   0.220
 3870SOL    HW112509   4.075   3.526   0.294
 3870SOL    HW212510   3.935   3.459   0.242
 3871SOL     OW12511   2.865   1.084   4.481
 3871SOL    HW112512   2.778   1.129   4.501
 3871SOL    HW212513   2.940   1.148   4.496
 3872SOL     OW12514   4.908   3.868   0.283
 3872SOL    HW112515   4.991   3.837   0.235
 3872SOL    HW212516   4.893   3.810   0.363
 3873SOL     OW12517   6.284   4.900   1.931
 3873SOL    HW112518   6.320   4.992   1.914
 3873SOL    HW212519   6.193   4.906   1.970
 3874SOL     OW12520   5.488   6.534   5.786
 3874SOL    HW112521   5.493   6.634   5.778
 3874SOL    HW212522   5.578   6.494   5.768
 3875SOL     OW12523   3.252   3.015   0.540
 3875SOL    HW112524   3.301   2.980   0.461
 3875SOL    HW212525   3.273   3.112   0.553
 3876SOL     OW12526   5.443   3.879   2.839
 3876SOL    HW112527   5.381   3.957   2.829
 3876SOL    HW212528   5.407   3.817   2.909
 3877SOL     OW12529   4.418   1.698   2.022
 3877SOL    HW112530   4.394   1.771   2.086
 3877SOL    HW212531   4.516   1.702   2.003
 3878SOL     OW12532   6.250   5.574   5.235
 3878SOL    HW112533   6.156   5.586   5.204
 3878SOL    HW212534   6.308   5.546   5.159
 3879SOL     OW12535   2.200   6.420   0.614
 3879SOL    HW112536   2.114   6.431   0.564
 3879SOL    HW212537   2.202   6.331   0.658
 3880SOL     OW12538   5.649   2.122   4.562
 3880SOL    HW112539   5.561   2.110   4.608
 3880SOL    HW212540   5.706   2.042   4.578
 3881SOL     OW12541   6.843   6.217   5.587
 3881SOL    HW112542   6.811   6.311   5.600
 3881SOL    HW212543   6.918   6.216   5.521
 3882SOL     OW12544   7.021   6.075   7.001
 3882SOL    HW112545   6.962   6.055   0.057
 3882SOL    HW212546   0.086   6.028   7.013
 3883SOL     OW12547   4.072   2.053   0.425
 3883SOL    HW112548   4.058   2.056   0.326
 3883SOL    HW212549   4.060   2.145   0.463
 3884SOL     OW12550   3.029   6.016   6.057
 3884SOL    HW112551   3.060   5.968   6.139
 3884SOL    HW212552   3.081   6.101   6.047
 3885SOL     OW12553   0.692   1.169   3.961
 3885SOL    HW112554   0.719   1.116   4.042
 3885SOL    HW212555   0.691   1.109   3.881
 3886SOL     OW12556   0.045   6.398   4.670
 3886SOL    HW112557   0.054   6.339   4.750
 3886SOL    HW212558   6.972   6.428   4.661
 3887SOL     OW12559   0.382   3.232   5.075
 3887SOL    HW112560   0.446   3.156   5.068
 3887SOL    HW212561   0.327   3.222   5.158
 3888SOL     OW12562   4.700   2.242   3.391
 3888SOL    HW112563   4.723   2.167   3.453
 3888SOL    HW212564   4.747   2.230   3.304
 3889SOL     OW12565   6.350   5.432   0.642
 3889SOL    HW112566   6.343   5.494   0.720
 3889SOL    HW212567   6.447   5.416   0.620
 3890SOL     OW12568   6.148   3.090   3.558
 3890SOL    HW112569   6.072   3.141   3.517
 3890SOL    HW212570   6.111   3.024   3.624
 3891SOL     OW12571   3.832   4.180   6.163
 3891SOL    HW112572   3.781   4.197   6.078
 3891SOL    HW212573   3.853   4.082   6.170
 3892SOL     OW12574   4.877   5.920   4.233
 3892SOL    HW112575   4.922   5.848   4.181
 3892SOL    HW212576   4.786   5.937   4.195
 3893SOL     OW12577   2.731   5.945   4.923
 3893SOL    HW112578   2.652   5.888   4.947
 3893SOL    HW212579   2.808   5.887   4.897
 3894SOL     OW12580   5.473   5.940   5.848
 3894SOL    HW112581   5.483   5.850   5.890
 3894SOL    HW212582   5.548   5.954   5.783
 3895SOL     OW12583   1.271   1.896   5.120
 3895SOL    HW112584   1.246   1.800   5.130
 3895SOL    HW212585   1.326   1.908   5.037
 3896SOL     OW12586   6.591   2.824   0.816
 3896SOL    HW112587   6.547   2.763   0.883
 3896SOL    HW212588   6.605   2.914   0.858
 3897SOL     OW12589   2.610   0.666   3.087
 3897SOL    HW112590   2.678   0.601   3.120
 3897SOL    HW212591   2.616   0.751   3.140
 3898SOL     OW12592   3.419   3.911   2.843
 3898SOL    HW112593   3.502   3.856   2.833
 3898SOL    HW212594   3.440   3.994   2.896
 3899SOL     OW12595   4.596   1.215   6.091
 3899SOL    HW112596   4.498   1.210   6.069
 3899SOL    HW212597   4.649   1.209   6.007
 3900SOL     OW12598   0.976   2.504   4.002
 3900SOL    HW112599   0.981   2.467   4.094
 3900SOL    HW212600   0.889   2.551   3.989
 3901SOL     OW12601   3.976   6.597   4.502
 3901SOL    HW112602   3.923   6.592   4.587
 3901SOL    HW212603   4.038   6.676   4.506
 3902SOL     OW12604   2.844   4.773   3.212
 3902SOL    HW112605   2.769   4.753   3.275
 3902SOL    HW212606   2.814   4.760   3.118
 3903SOL     OW12607   2.551   4.128   6.162
 3903SOL    HW112608   2.488   4.137   6.239
 3903SOL    HW212609   2.593   4.037   6.164
 3904SOL     OW12610   2.812   6.341   0.966
 3904SOL    HW112611   2.719   6.378   0.958
 3904SOL    HW212612   2.854   6.372   1.051
 3905SOL     OW12613   4.254   6.489   5.465
 3905SOL    HW112614   4.317   6.564   5.442
 3905SOL    HW212615   4.242   6.430   5.386
 3906SOL     OW12616   6.695   5.976   3.987
 3906SOL    HW112617   6.629   5.920   3.936
 3906SOL    HW212618   6.776   5.992   3.931
 3907SOL     OW12619   1.734   0.736   5.134
 3907SOL    HW112620   1.700   0.714   5.226
 3907SOL    HW212621   1.694   0.673   5.068
 3908SOL     OW12622   2.281   1.889   4.483
 3908SOL    HW112623   2.342   1.939   4.422
 3908SOL    HW212624   2.197   1.866   4.435
 3909SOL     OW12625   6.702   3.289   2.724
 3909SOL    HW112626   6.735   3.200   2.693
 3909SOL    HW212627   6.685   3.347   2.644
 3910SOL     OW12628   1.597   2.076   0.170
 3910SOL    HW112629   1.523   2.126   0.214
 3910SOL    HW212630   1.667   2.053   0.237
 3911SOL     OW12631   6.449   0.645   2.643
 3911SOL    HW112632   6.480   0.740   2.640
 3911SOL    HW212633   6.434   0.618   2.738
 3912SOL     OW12634   4.852   4.469   0.984
 3912SOL    HW112635   4.777   4.531   0.960
 3912SOL    HW212636   4.832   4.425   1.071
 3913SOL     OW12637   4.096   4.565   0.742
 3913SOL    HW112638   4.188   4.529   0.731
 3913SOL    HW212639   4.100   4.658   0.777
 3914SOL     OW12640   0.541   0.944   0.318
 3914SOL    HW112641   0.533   0.846   0.302
 3914SOL    HW212642   0.516   0.993   0.234
 3915SOL     OW12643   5.179   6.849   4.857
 3915SOL    HW112644   5.252   6.899   4.811
 3915SOL    HW212645   5.216   6.765   4.897
 3916SOL     OW12646   1.973   2.758   2.257
 3916SOL    HW112647   2.028   2.831   2.217
 3916SOL    HW212648   1.886   2.752   2.207
 3917SOL     OW12649   3.360   5.461   2.065
 3917SOL    HW112650   3.289   5.522   2.100
 3917SOL    HW212651   3.363   5.467   1.965
 3918SOL     OW12652   3.947   6.277   0.023
 3918SOL    HW112653   4.028   6.270   0.081
 3918SOL    HW212654   3.884   6.202   0.043
 3919SOL     OW12655   5.188   4.233   3.508
 3919SOL    HW112656   5.183   4.286   3.423
 3919SOL    HW212657   5.191   4.296   3.586
 3920SOL     OW12658   4.268   0.445   5.605
 3920SOL    HW112659   4.176   0.482   5.593
 3920SOL    HW212660   4.268   0.380   5.681
 3921SOL     OW12661   1.221   3.930   5.486
 3921SOL    HW112662   1.239   3.832   5.473
 3921SOL    HW212663   1.249   3.980   5.405
 3922SOL     OW12664   5.420   1.443   3.883
 3922SOL    HW112665   5.411   1.539   3.859
 3922SOL    HW212666   5.352   1.419   3.953
 3923SOL     OW12667   5.819   0.674   1.586
 3923SOL    HW112668   5.761   0.755   1.590
 3923SOL    HW212669   5.804   0.627   1.498
 3924SOL     OW12670   5.736   4.881   3.892
 3924SOL    HW112671   5.671   4.812   3.859
 3924SOL    HW212672   5.701   4.922   3.976
 3925SOL     OW12673   3.645   4.431   1.530
 3925SOL    HW112674   3.573   4.428   1.599
 3925SOL    HW212675   3.692   4.519   1.534
 3926SOL     OW12676   0.676   6.142   5.330
 3926SOL    HW112677   0.623   6.102   5.405
 3926SOL    HW212678   0.763   6.176   5.365
 3927SOL     OW12679   5.766   6.184   5.251
 3927SOL    HW112680   5.693   6.115   5.249
 3927SOL    HW212681   5.849   6.146   5.210
 3928SOL     OW12682   4.404   5.520   2.478
 3928SOL    HW112683   4.392   5.566   2.566
 3928SOL    HW212684   4.377   5.424   2.487
 3929SOL     OW12685   1.925   0.935   5.099
 3929SOL    HW112686   1.845   0.875   5.111
 3929SOL    HW212687   2.007   0.886   5.127
 3930SOL     OW12688   2.087   5.779   4.647
 3930SOL    HW112689   1.990   5.786   4.671
 3930SOL    HW212690   2.098   5.718   4.569
 3931SOL     OW12691   0.191   1.912   0.349
 3931SOL    HW112692   0.184   2.003   0.389
 3931SOL    HW212693   0.240   1.917   0.262
 3932SOL     OW12694   1.751   4.419   2.844
 3932SOL    HW112695   1.827   4.451   2.787
 3932SOL    HW212696   1.779   4.416   2.940
 3933SOL     OW12697   1.204   0.188   1.663
 3933SOL    HW112698   1.147   0.109   1.682
 3933SOL    HW212699   1.151   0.257   1.614
 3934SOL     OW12700   1.242   6.751   1.866
 3934SOL    HW112701   1.318   6.809   1.839
 3934SOL    HW212702   1.160   6.807   1.882
 3935SOL     OW12703   6.857   1.083   4.721
 3935SOL    HW112704   6.803   1.012   4.766
 3935SOL    HW212705   6.823   1.095   4.627
 3936SOL     OW12706   6.224   4.606   4.141
 3936SOL    HW112707   6.181   4.675   4.083
 3936SOL    HW212708   6.271   4.651   4.217
 3937SOL     OW12709   1.783   6.706   6.899
 3937SOL    HW112710   1.773   6.686   6.996
 3937SOL    HW212711   1.828   6.795   6.887
 3938SOL     OW12712   1.165   4.859   6.661
 3938SOL    HW112713   1.126   4.771   6.634
 3938SOL    HW212714   1.092   4.920   6.692
 3939SOL     OW12715   2.111   5.984   4.395
 3939SOL    HW112716   2.106   5.965   4.493
 3939SOL    HW212717   2.041   5.930   4.348
 3940SOL     OW12718   2.227   5.965   6.722
 3940SOL    HW112719   2.299   6.008   6.776
 3940SOL    HW212720   2.267   5.898   6.659
 3941SOL     OW12721   5.568   4.887   3.008
 3941SOL    HW112722   5.475   4.899   2.973
 3941SOL    HW212723   5.565   4.834   3.093
 3942SOL     OW12724   0.953   6.968   0.231
 3942SOL    HW112725   1.006   6.918   0.299
 3942SOL    HW212726   0.878   6.911   0.197
 3943SOL     OW12727   0.409   4.654   0.356
 3943SOL    HW112728   0.411   4.754   0.359
 3943SOL    HW212729   0.388   4.624   0.263
 3944SOL     OW12730   5.495   2.944   0.557
 3944SOL    HW112731   5.463   3.021   0.612
 3944SOL    HW212732   5.470   2.858   0.602
 3945SOL     OW12733   0.275   0.900   2.873
 3945SOL    HW112734   0.250   0.868   2.964
 3945SOL    HW212735   0.274   0.823   2.809
 3946SOL     OW12736   4.934   1.021   0.959
 3946SOL    HW112737   4.878   0.940   0.978
 3946SOL    HW212738   4.934   1.081   1.039
 3947SOL     OW12739   5.225   7.015   0.882
 3947SOL    HW112740   5.279   6.944   0.927
 3947SOL    HW212741   5.138   6.975   0.851
 3948SOL     OW12742   1.816   1.632   4.171
 3948SOL    HW112743   1.761   1.710   4.201
 3948SOL    HW212744   1.819   1.628   4.071
 3949SOL     OW12745   6.219   6.709   2.569
 3949SOL    HW112746   6.179   6.732   2.480
 3949SOL    HW212747   6.174   6.763   2.640
 3950SOL     OW12748   2.589   4.664   1.567
 3950SOL    HW112749   2.512   4.728   1.569
 3950SOL    HW212750   2.560   4.575   1.603
 3951SOL     OW12751   6.952   2.769   3.084
 3951SOL    HW112752   6.947   2.738   3.179
 3951SOL    HW212753   6.955   2.689   3.023
 3952SOL     OW12754   5.823   5.432   6.812
 3952SOL    HW112755   5.923   5.431   6.802
 3952SOL    HW212756   5.788   5.522   6.785
 3953SOL     OW12757   3.355   2.871   4.855
 3953SOL    HW112758   3.308   2.875   4.943
 3953SOL    HW212759   3.368   2.776   4.828
 3954SOL     OW12760   1.026   4.827   6.155
 3954SOL    HW112761   1.123   4.815   6.135
 3954SOL    HW212762   1.005   4.924   6.164
 3955SOL     OW12763   6.107   3.273   0.250
 3955SOL    HW112764   6.144   3.207   0.315
 3955SOL    HW212765   6.139   3.365   0.274
 3956SOL     OW12766   6.951   3.018   4.675
 3956SOL    HW112767   6.945   3.117   4.659
 3956SOL    HW212768   6.896   2.994   4.755
 3957SOL     OW12769   1.932   2.751   1.936
 3957SOL    HW112770   1.898   2.710   1.851
 3957SOL    HW212771   1.873   2.722   2.012
 3958SOL     OW12772   5.231   5.506   1.089
 3958SOL    HW112773   5.282   5.461   1.162
 3958SOL    HW212774   5.144   5.460   1.075
 3959SOL     OW12775   2.766   4.661   0.630
 3959SOL    HW112776   2.836   4.633   0.696
 3959SOL    HW212777   2.773   4.760   0.614
 3960SOL     OW12778   5.895   3.500   1.011
 3960SOL    HW112779   5.874   3.452   1.097
 3960SOL    HW212780   5.884   3.436   0.935
 3961SOL     OW12781   6.846   1.056   1.734
 3961SOL    HW112782   6.781   1.122   1.696
 3961SOL    HW212783   6.805   1.011   1.813
 3962SOL     OW12784   0.350   6.625   6.768
 3962SOL    HW112785   0.403   6.542   6.750
 3962SOL    HW212786   0.412   6.698   6.795
 3963SOL     OW12787   6.481   2.682   4.856
 3963SOL    HW112788   6.387   2.674   4.823
 3963SOL    HW212789   6.484   2.747   4.932
 3964SOL     OW12790   5.906   5.289   6.486
 3964SOL    HW112791   5.885   5.302   6.390
 3964SOL    HW212792   5.926   5.192   6.502
 3965SOL     OW12793   2.483   5.442   1.536
 3965SOL    HW112794   2.444   5.351   1.526
 3965SOL    HW212795   2.419   5.510   1.501
 3966SOL     OW12796   6.835   4.241   5.816
 3966SOL    HW112797   6.833   4.270   5.720
 3966SOL    HW212798   6.851   4.321   5.874
 3967SOL     OW12799   2.802   0.395   0.766
 3967SOL    HW112800   2.716   0.368   0.723
 3967SOL    HW212801   2.870   0.414   0.695
 3968SOL     OW12802   4.686   2.537   0.663
 3968SOL    HW112803   4.732   2.485   0.735
 3968SOL    HW212804   4.723   2.511   0.574
 3969SOL     OW12805   6.121   6.548   1.285
 3969SOL    HW112806   6.054   6.598   1.340
 3969SOL    HW212807   6.093   6.551   1.189
 3970SOL     OW12808   6.018   4.135   3.700
 3970SOL    HW112809   5.920   4.120   3.694
 3970SOL    HW212810   6.064   4.051   3.728
 3971SOL     OW12811   6.979   5.796   4.235
 3971SOL    HW112812   0.007   5.710   4.238
 3971SOL    HW212813   0.020   5.872   4.228
 3972SOL     OW12814   0.644   0.450   6.478
 3972SOL    HW112815   0.661   0.505   6.560
 3972SOL    HW212816   0.607   0.361   6.505
 3973SOL     OW12817   4.073   2.863   1.764
 3973SOL    HW112818   4.015   2.907   1.832
 3973SOL    HW212819   4.022   2.789   1.719
 3974SOL     OW12820   5.404   0.830   6.896
 3974SOL    HW112821   5.344   0.848   6.974
 3974SOL    HW212822   5.349   0.823   6.812
 3975SOL     OW12823   0.256   6.305   3.789
 3975SOL    HW112824   0.213   6.310   3.879
 3975SOL    HW212825   0.189   6.329   3.719
 3976SOL     OW12826   0.684   3.325   5.437
 3976SOL    HW112827   0.734   3.298   5.519
 3976SOL    HW212828   0.717   3.413   5.404
 3977SOL     OW12829   2.311   4.704   5.880
 3977SOL    HW112830   2.379   4.767   5.917
 3977SOL    HW212831   2.355   4.620   5.850
 3978SOL     OW12832   4.611   3.300   6.214
 3978SOL    HW112833   4.595   3.341   6.304
 3978SOL    HW212834   4.554   3.347   6.146
 3979SOL     OW12835   0.004   5.459   2.720
 3979SOL    HW112836   6.972   5.453   2.636
 3979SOL    HW212837   6.967   5.444   2.799
 3980SOL     OW12838   5.322   4.390   3.705
 3980SOL    HW112839   5.343   4.360   3.798
 3980SOL    HW212840   5.389   4.458   3.676
 3981SOL     OW12841   6.888   1.012   6.798
 3981SOL    HW112842   6.878   1.069   6.879
 3981SOL    HW212843   6.804   0.960   6.783
 3982SOL     OW12844   2.278   2.870   3.711
 3982SOL    HW112845   2.326   2.957   3.702
 3982SOL    HW212846   2.190   2.885   3.756
 3983SOL     OW12847   2.670   1.305   3.042
 3983SOL    HW112848   2.725   1.224   3.062
 3983SOL    HW212849   2.575   1.289   3.068
 3984SOL     OW12850   1.158   6.309   2.742
 3984SOL    HW112851   1.226   6.379   2.717
 3984SOL    HW212852   1.194   6.254   2.817
 3985SOL     OW12853   1.442   2.494   0.914
 3985SOL    HW112854   1.385   2.417   0.943
 3985SOL    HW212855   1.523   2.460   0.866
 3986SOL     OW12856   0.565   1.190   3.092
 3986SOL    HW112857   0.650   1.239   3.110
 3986SOL    HW212858   0.584   1.111   3.034
 3987SOL     OW12859   1.692   4.315   5.522
 3987SOL    HW112860   1.741   4.239   5.565
 3987SOL    HW212861   1.757   4.376   5.478
 3988SOL     OW12862   5.378   5.656   2.402
 3988SOL    HW112863   5.398   5.559   2.411
 3988SOL    HW212864   5.281   5.669   2.382
 3989SOL     OW12865   4.690   0.716   6.374
 3989SOL    HW112866   4.714   0.734   6.469
 3989SOL    HW212867   4.765   0.668   6.328
 3990SOL     OW12868   6.046   6.547   4.007
 3990SOL    HW112869   6.143   6.542   4.032
 3990SOL    HW212870   5.993   6.579   4.086
 3991SOL     OW12871   0.245   2.105   4.009
 3991SOL    HW112872   0.262   2.133   3.915
 3991SOL    HW212873   0.166   2.044   4.012
 3992SOL     OW12874   6.112   3.752   5.748
 3992SOL    HW112875   6.117   3.661   5.790
 3992SOL    HW212876   6.024   3.762   5.702
 3993SOL     OW12877   2.177   0.712   4.542
 3993SOL    HW112878   2.198   0.629   4.490
 3993SOL    HW212879   2.080   0.732   4.535
 3994SOL     OW12880   3.229   2.008   3.662
 3994SOL    HW112881   3.223   1.914   3.695
 3994SOL    HW212882   3.320   2.023   3.624
 3995SOL     OW12883   1.839   3.837   2.194
 3995SOL    HW112884   1.833   3.930   2.156
 3995SOL    HW212885   1.931   3.801   2.180
 3996SOL     OW12886   0.221   5.692   5.435
 3996SOL    HW112887   0.248   5.788   5.431
 3996SOL    HW212888   0.248   5.647   5.350
 3997SOL     OW12889   6.063   2.839   4.964
 3997SOL    HW112890   6.097   2.912   5.023
 3997SOL    HW212891   6.065   2.752   5.014
 3998SOL     OW12892   4.364   2.378   2.923
 3998SOL    HW112893   4.458   2.350   2.903
 3998SOL    HW212894   4.360   2.477   2.930
 3999SOL     OW12895   4.444   3.323   0.979
 3999SOL    HW112896   4.389   3.395   1.021
 3999SOL    HW212897   4.500   3.362   0.906
 4000SOL     OW12898   2.555   4.587   2.347
 4000SOL    HW112899   2.498   4.669   2.354
 4000SOL    HW212900   2.620   4.597   2.272
 4001SOL     OW12901   0.700   5.675   3.852
 4001SOL    HW112902   0.765   5.731   3.801
 4001SOL    HW212903   0.743   5.588   3.875
 4002SOL     OW12904   4.000   3.899   4.935
 4002SOL    HW112905   3.932   3.965   4.904
 4002SOL    HW212906   4.018   3.914   5.033
 4003SOL     OW12907   2.938   1.677   4.305
 4003SOL    HW112908   3.005   1.715   4.241
 4003SOL    HW212909   2.957   1.713   4.397
 4004SOL     OW12910   1.875   3.816   5.019
 4004SOL    HW112911   1.974   3.798   5.018
 4004SOL    HW212912   1.831   3.762   4.947
 4005SOL     OW12913   5.747   2.074   1.070
 4005SOL    HW112914   5.743   2.065   0.970
 4005SOL    HW212915   5.793   1.994   1.109
 4006SOL     OW12916   0.122   5.960   2.483
 4006SOL    HW112917   0.203   6.014   2.505
 4006SOL    HW212918   0.148   5.882   2.427
 4007SOL     OW12919   0.778   1.416   1.352
 4007SOL    HW112920   0.865   1.464   1.335
 4007SOL    HW212921   0.748   1.434   1.446
 4008SOL     OW12922   4.232   0.482   1.478
 4008SOL    HW112923   4.273   0.505   1.390
 4008SOL    HW212924   4.201   0.387   1.477
 4009SOL     OW12925   3.620   2.600   1.181
 4009SOL    HW112926   3.653   2.674   1.240
 4009SOL    HW212927   3.589   2.638   1.094
 4010SOL     OW12928   1.113   5.066   1.044
 4010SOL    HW112929   1.131   4.980   0.996
 4010SOL    HW212930   1.173   5.072   1.124
 4011SOL     OW12931   5.786   6.742   7.014
 4011SOL    HW112932   5.867   6.769   6.961
 4011SOL    HW212933   5.814   6.714   0.083
 4012SOL     OW12934   5.765   4.378   1.730
 4012SOL    HW112935   5.706   4.392   1.650
 4012SOL    HW212936   5.851   4.336   1.702
 4013SOL     OW12937   6.840   1.742   6.829
 4013SOL    HW112938   6.824   1.643   6.821
 4013SOL    HW212939   6.928   1.758   6.874
 4014SOL     OW12940   3.814   6.129   3.045
 4014SOL    HW112941   3.871   6.072   2.984
 4014SOL    HW212942   3.844   6.117   3.139
 4015SOL     OW12943   3.303   6.414   4.793
 4015SOL    HW112944   3.383   6.463   4.826
 4015SOL    HW212945   3.322   6.375   4.703
 4016SOL     OW12946   4.466   5.073   3.921
 4016SOL    HW112947   4.423   5.107   4.005
 4016SOL    HW212948   4.525   4.996   3.944
 4017SOL     OW12949   2.037   5.929   5.981
 4017SOL    HW112950   1.970   5.884   5.922
 4017SOL    HW212951   2.126   5.930   5.934
 4018SOL     OW12952   5.237   5.351   0.127
 4018SOL    HW112953   5.193   5.407   0.056
 4018SOL    HW212954   5.261   5.262   0.088
 4019SOL     OW12955   0.656   2.283   2.965
 4019SOL    HW112956   0.671   2.197   3.015
 4019SOL    HW212957   0.743   2.327   2.948
 4020SOL     OW12958   6.718   6.067   4.651
 4020SOL    HW112959   6.718   6.127   4.572
 4020SOL    HW212960   6.759   6.114   4.729
 4021SOL     OW12961   4.618   5.635   5.731
 4021SOL    HW112962   4.578   5.691   5.658
 4021SOL    HW212963   4.546   5.604   5.793
 4022SOL     OW12964   3.829   0.194   1.427
 4022SOL    HW112965   3.835   0.286   1.464
 4022SOL    HW212966   3.751   0.188   1.365
 4023SOL     OW12967   0.669   2.000   3.770
 4023SOL    HW112968   0.750   2.056   3.784
 4023SOL    HW212969   0.694   1.903   3.770
 4024SOL     OW12970   0.737   6.504   6.519
 4024SOL    HW112971   0.806   6.555   6.467
 4024SOL    HW212972   0.659   6.483   6.460
 4025SOL     OW12973   1.024   4.420   4.666
 4025SOL    HW112974   0.933   4.439   4.702
 4025SOL    HW212975   1.079   4.504   4.666
 4026SOL     OW12976   0.790   6.513   4.336
 4026SOL    HW112977   0.743   6.468   4.412
 4026SOL    HW212978   0.874   6.556   4.369
 4027SOL     OW12979   3.162   5.830   4.913
 4027SOL    HW112980   3.214   5.784   4.986
 4027SOL    HW212981   3.224   5.887   4.859
 4028SOL     OW12982   4.633   1.795   4.636
 4028SOL    HW112983   4.709   1.764   4.580
 4028SOL    HW212984   4.548   1.754   4.602
 4029SOL     OW12985   2.184   6.725   1.020
 4029SOL    HW112986   2.243   6.791   0.973
 4029SOL    HW212987   2.122   6.774   1.080
 4030SOL     OW12988   0.918   1.080   2.050
 4030SOL    HW112989   0.887   1.095   1.956
 4030SOL    HW212990   1.016   1.100   2.056
 4031SOL     OW12991   6.402   6.058   0.731
 4031SOL    HW112992   6.329   6.074   0.665
 4031SOL    HW212993   6.488   6.095   0.695
 4032SOL     OW12994   5.079   1.811   2.308
 4032SOL    HW112995   5.009   1.767   2.364
 4032SOL    HW212996   5.036   1.849   2.226
 4033SOL     OW12997   1.147   3.863   3.133
 4033SOL    HW112998   1.136   3.764   3.136
 4033SOL    HW212999   1.239   3.888   3.161
 4034SOL     OW13000   2.361   2.072   4.277
 4034SOL    HW113001   2.277   2.125   4.261
 4034SOL    HW213002   2.439   2.119   4.235
 4035SOL     OW13003   3.331   2.548   1.690
 4035SOL    HW113004   3.418   2.513   1.656
 4035SOL    HW213005   3.263   2.476   1.689
 4036SOL     OW13006   4.423   0.065   3.494
 4036SOL    HW113007   4.499   0.010   3.530
 4036SOL    HW213008   4.399   0.031   3.403
 4037SOL     OW13009   1.806   0.780   5.619
 4037SOL    HW113010   1.793   0.774   5.718
 4037SOL    HW213011   1.830   0.874   5.595
 4038SOL     OW13012   4.133   4.956   5.556
 4038SOL    HW113013   4.161   4.950   5.460
 4038SOL    HW213014   4.074   4.878   5.579
 4039SOL     OW13015   5.910   4.523   2.034
 4039SOL    HW113016   5.916   4.587   2.111
 4039SOL    HW213017   5.984   4.541   1.969
 4040SOL     OW13018   2.657   6.543   5.285
 4040SOL    HW113019   2.632   6.634   5.253
 4040SOL    HW213020   2.584   6.479   5.263
 4041SOL     OW13021   1.568   5.973   1.387
 4041SOL    HW113022   1.580   5.878   1.412
 4041SOL    HW213023   1.608   6.032   1.457
 4042SOL     OW13024   1.266   1.781   4.229
 4042SOL    HW113025   1.216   1.712   4.281
 4042SOL    HW213026   1.212   1.866   4.226
 4043SOL     OW13027   3.718   2.792   5.980
 4043SOL    HW113028   3.741   2.814   5.885
 4043SOL    HW213029   3.776   2.845   6.042
 4044SOL     OW13030   4.746   4.106   3.037
 4044SOL    HW113031   4.677   4.176   3.052
 4044SOL    HW213032   4.759   4.053   3.121
 4045SOL     OW13033   4.348   1.506   4.862
 4045SOL    HW113034   4.273   1.530   4.800
 4045SOL    HW213035   4.318   1.516   4.957
 4046SOL     OW13036   5.036   1.176   4.218
 4046SOL    HW113037   4.968   1.103   4.227
 4046SOL    HW213038   4.992   1.265   4.231
 4047SOL     OW13039   2.862   2.471   6.452
 4047SOL    HW113040   2.842   2.457   6.549
 4047SOL    HW213041   2.785   2.438   6.397
 4048SOL     OW13042   4.824   2.459   3.505
 4048SOL    HW113043   4.796   2.378   3.454
 4048SOL    HW213044   4.823   2.440   3.603
 4049SOL     OW13045   3.927   3.890   2.597
 4049SOL    HW113046   3.975   3.914   2.681
 4049SOL    HW213047   3.874   3.807   2.611
 4050SOL     OW13048   0.021   4.965   3.162
 4050SOL    HW113049   6.974   5.015   3.110
 4050SOL    HW213050   0.013   4.868   3.143
 4051SOL     OW13051   5.612   0.798   3.950
 4051SOL    HW113052   5.604   0.700   3.965
 4051SOL    HW213053   5.680   0.816   3.879
 4052SOL     OW13054   4.534   1.053   4.649
 4052SOL    HW113055   4.564   1.059   4.744
 4052SOL    HW213056   4.485   0.967   4.635
 4053SOL     OW13057   0.808   4.292   3.028
 4053SOL    HW113058   0.779   4.345   3.108
 4053SOL    HW213059   0.750   4.314   2.950
 4054SOL     OW13060   5.436   3.675   1.735
 4054SOL    HW113061   5.457   3.590   1.782
 4054SOL    HW213062   5.367   3.658   1.664
 4055SOL     OW13063   6.910   4.480   6.969
 4055SOL    HW113064   6.872   4.460   0.037
 4055SOL    HW213065   6.997   4.430   6.958
 4056SOL     OW13066   4.653   3.894   0.160
 4056SOL    HW113067   4.584   3.899   0.232
 4056SOL    HW213068   4.742   3.920   0.198
 4057SOL     OW13069   6.834   4.717   6.079
 4057SOL    HW113070   6.876   4.724   6.169
 4057SOL    HW213071   6.891   4.763   6.011
 4058SOL     OW13072   3.038   0.906   4.099
 4058SOL    HW113073   3.054   0.808   4.110
 4058SOL    HW213074   3.108   0.957   4.150
 4059SOL     OW13075   1.441   1.519   3.641
 4059SOL    HW113076   1.409   1.543   3.550
 4059SOL    HW213077   1.394   1.574   3.709
 4060SOL     OW13078   0.218   6.714   4.107
 4060SOL    HW113079   0.210   6.688   4.010
 4060SOL    HW213080   0.146   6.669   4.159
 4061SOL     OW13081   1.538   4.143   2.616
 4061SOL    HW113082   1.490   4.219   2.661
 4061SOL    HW213083   1.555   4.071   2.683
 4062SOL     OW13084   2.683   4.118   0.281
 4062SOL    HW113085   2.706   4.048   0.348
 4062SOL    HW213086   2.716   4.207   0.313
 4063SOL     OW13087   3.857   1.043   1.013
 4063SOL    HW113088   3.937   0.991   1.042
 4063SOL    HW213089   3.775   1.004   1.055
 4064SOL     OW13090   2.451   6.681   4.826
 4064SOL    HW113091   2.449   6.581   4.838
 4064SOL    HW213092   2.377   6.708   4.765
 4065SOL     OW13093   2.159   1.389   1.367
 4065SOL    HW113094   2.080   1.418   1.421
 4065SOL    HW213095   2.236   1.449   1.387
 4066SOL     OW13096   0.532   3.958   4.974
 4066SOL    HW113097   0.553   3.966   5.071
 4066SOL    HW213098   0.433   3.943   4.962
 4067SOL     OW13099   6.161   4.576   1.879
 4067SOL    HW113100   6.241   4.606   1.931
 4067SOL    HW213101   6.188   4.503   1.816
 4068SOL     OW13102   2.102   2.867   6.005
 4068SOL    HW113103   2.043   2.789   6.027
 4068SOL    HW213104   2.172   2.839   5.940
 4069SOL     OW13105   4.026   0.279   6.029
 4069SOL    HW113106   3.991   0.323   6.111
 4069SOL    HW213107   3.995   0.184   6.026
 4070SOL     OW13108   1.733   3.993   4.017
 4070SOL    HW113109   1.644   3.996   3.972
 4070SOL    HW213110   1.745   4.074   4.073
 4071SOL     OW13111   1.237   0.237   5.439
 4071SOL    HW113112   1.317   0.268   5.387
 4071SOL    HW213113   1.160   0.298   5.421
 4072SOL     OW13114   2.873   6.552   2.607
 4072SOL    HW113115   2.902   6.637   2.650
 4072SOL    HW213116   2.784   6.565   2.563
 4073SOL     OW13117   4.729   5.244   6.882
 4073SOL    HW113118   4.692   5.151   6.881
 4073SOL    HW213119   4.763   5.267   6.791
 4074SOL     OW13120   1.628   5.354   2.037
 4074SOL    HW113121   1.698   5.420   2.063
 4074SOL    HW213122   1.544   5.402   2.013
 4075SOL     OW13123   5.485   0.543   6.845
 4075SOL    HW113124   5.560   0.551   6.779
 4075SOL    HW213125   5.478   0.628   6.897
 4076SOL     OW13126   2.358   5.713   3.610
 4076SOL    HW113127   2.455   5.737   3.615
 4076SOL    HW213128   2.329   5.710   3.514
 4077SOL     OW13129   2.340   2.154   1.549
 4077SOL    HW113130   2.368   2.059   1.536
 4077SOL    HW213131   2.415   2.206   1.591
 4078SOL     OW13132   4.502   4.972   1.869
 4078SOL    HW113133   4.557   4.933   1.795
 4078SOL    HW213134   4.556   5.039   1.919
 4079SOL     OW13135   0.688   2.237   4.101
 4079SOL    HW113136   0.758   2.238   4.030
 4079SOL    HW213137   0.721   2.182   4.178
 4080SOL     OW13138   5.882   2.364   4.544
 4080SOL    HW113139   5.828   2.338   4.624
 4080SOL    HW213140   5.820   2.388   4.469
 4081SOL     OW13141   6.437   3.592   2.489
 4081SOL    HW113142   6.521   3.620   2.535
 4081SOL    HW213143   6.446   3.497   2.459
 4082SOL     OW13144   0.316   3.885   0.781
 4082SOL    HW113145   0.291   3.882   0.684
 4082SOL    HW213146   0.238   3.856   0.836
 4083SOL     OW13147   6.809   3.308   5.501
 4083SOL    HW113148   6.833   3.215   5.529
 4083SOL    HW213149   6.778   3.360   5.580
 4084SOL     OW13150   4.891   0.738   4.263
 4084SOL    HW113151   4.984   0.717   4.233
 4084SOL    HW213152   4.881   0.837   4.275
 4085SOL     OW13153   3.126   5.275   0.166
 4085SOL    HW113154   3.206   5.236   0.121
 4085SOL    HW213155   3.085   5.343   0.105
 4086SOL     OW13156   0.207   2.255   1.506
 4086SOL    HW113157   0.237   2.349   1.519
 4086SOL    HW213158   0.118   2.242   1.550
 4087SOL     OW13159   1.365   1.208   3.190
 4087SOL    HW113160   1.316   1.186   3.106
 4087SOL    HW213161   1.304   1.257   3.252
 4088SOL     OW13162   6.973   2.668   6.167
 4088SOL    HW113163   7.003   2.749   6.218
 4088SOL    HW213164   0.004   2.588   6.195
 4089SOL     OW13165   0.544   1.708   5.635
 4089SOL    HW113166   0.572   1.655   5.715
 4089SOL    HW213167   0.521   1.645   5.560
 4090SOL     OW13168   3.359   5.267   6.763
 4090SOL    HW113169   3.265   5.272   6.728
 4090SOL    HW213170   3.400   5.179   6.738
 4091SOL     OW13171   4.533   6.639   1.226
 4091SOL    HW113172   4.453   6.661   1.171
 4091SOL    HW213173   4.616   6.648   1.170
 4092SOL     OW13174   1.052   1.326   3.827
 4092SOL    HW113175   1.115   1.250   3.811
 4092SOL    HW213176   0.967   1.311   3.776
 4093SOL     OW13177   4.641   6.792   3.987
 4093SOL    HW113178   4.636   6.892   3.992
 4093SOL    HW213179   4.729   6.765   3.948
 4094SOL     OW13180   3.119   3.292   6.275
 4094SOL    HW113181   3.090   3.296   6.179
 4094SOL    HW213182   3.199   3.349   6.288
 4095SOL     OW13183   1.728   3.668   5.828
 4095SOL    HW113184   1.715   3.746   5.890
 4095SOL    HW213185   1.765   3.591   5.880
 4096SOL     OW13186   4.585   4.640   1.650
 4096SOL    HW113187   4.657   4.675   1.711
 4096SOL    HW213188   4.585   4.540   1.652
 4097SOL     OW13189   3.555   3.821   3.174
 4097SOL    HW113190   3.619   3.757   3.132
 4097SOL    HW213191   3.596   3.912   3.177
 4098SOL     OW13192   1.581   3.254   2.578
 4098SOL    HW113193   1.634   3.175   2.610
 4098SOL    HW213194   1.538   3.232   2.491
 4099SOL     OW13195   2.187   6.404   1.615
 4099SOL    HW113196   2.161   6.309   1.607
 4099SOL    HW213197   2.186   6.431   1.712
 4100SOL     OW13198   3.635   0.035   2.854
 4100SOL    HW113199   3.643   6.976   2.910
 4100SOL    HW213200   3.625   0.116   2.913
 4101SOL     OW13201   4.533   2.064   6.908
 4101SOL    HW113202   4.496   2.014   6.829
 4101SOL    HW213203   4.459   2.083   6.972
 4102SOL     OW13204   4.488   1.584   5.800
 4102SOL    HW113205   4.480   1.534   5.714
 4102SOL    HW213206   4.517   1.678   5.782
 4103SOL     OW13207   6.887   6.975   1.920
 4103SOL    HW113208   6.957   0.016   1.954
 4103SOL    HW213209   6.824   0.002   1.859
 4104SOL     OW13210   2.101   4.233   2.217
 4104SOL    HW113211   2.085   4.154   2.276
 4104SOL    HW213212   2.183   4.282   2.246
 4105SOL     OW13213   6.078   5.070   0.623
 4105SOL    HW113214   6.030   5.122   0.552
 4105SOL    HW213215   6.064   5.113   0.712
 4106SOL     OW13216   0.412   3.628   4.494
 4106SOL    HW113217   0.483   3.651   4.428
 4106SOL    HW213218   0.442   3.656   4.586
 4107SOL     OW13219   0.034   0.558   0.949
 4107SOL    HW113220   0.059   0.572   0.853
 4107SOL    HW213221   7.001   0.636   0.981
 4108SOL     OW13222   6.444   2.307   5.055
 4108SOL    HW113223   6.525   2.365   5.066
 4108SOL    HW213224   6.463   2.234   4.990
 4109SOL     OW13225   2.176   6.404   3.658
 4109SOL    HW113226   2.273   6.381   3.648
 4109SOL    HW213227   2.165   6.474   3.728
 4110SOL     OW13228   4.809   3.373   5.248
 4110SOL    HW113229   4.862   3.311   5.190
 4110SOL    HW213230   4.773   3.448   5.193
 4111SOL     OW13231   3.747   3.502   6.333
 4111SOL    HW113232   3.678   3.498   6.261
 4111SOL    HW213233   3.835   3.527   6.293
 4112SOL     OW13234   3.928   0.771   5.864
 4112SOL    HW113235   3.976   0.759   5.777
 4112SOL    HW213236   3.879   0.687   5.886
 4113SOL     OW13237   3.720   5.475   4.345
 4113SOL    HW113238   3.786   5.403   4.364
 4113SOL    HW213239   3.763   5.564   4.359
 4114SOL     OW13240   3.483   1.792   3.546
 4114SOL    HW113241   3.488   1.718   3.479
 4114SOL    HW213242   3.433   1.869   3.508
 4115SOL     OW13243   5.071   3.767   3.118
 4115SOL    HW113244   5.003   3.759   3.190
 4115SOL    HW213245   5.150   3.711   3.141
 4116SOL     OW13246   2.815   1.362   1.739
 4116SOL    HW113247   2.813   1.444   1.795
 4116SOL    HW213248   2.819   1.387   1.642
 4117SOL     OW13249   1.177   6.122   2.066
 4117SOL    HW113250   1.147   6.099   1.974
 4117SOL    HW213251   1.198   6.038   2.116
 4118SOL     OW13252   1.561   0.660   6.225
 4118SOL    HW113253   1.512   0.654   6.313
 4118SOL    HW213254   1.627   0.735   6.228
 4119SOL     OW13255   5.081   1.486   3.352
 4119SOL    HW113256   5.177   1.462   3.337
 4119SOL    HW213257   5.024   1.441   3.283
 4120SOL     OW13258   5.487   1.110   2.333
 4120SOL    HW113259   5.558   1.095   2.264
 4120SOL    HW213260   5.410   1.048   2.316
 4121SOL     OW13261   5.753   2.254   3.840
 4121SOL    HW113262   5.681   2.321   3.819
 4121SOL    HW213263   5.711   2.166   3.861
 4122SOL     OW13264   2.399   5.082   0.229
 4122SOL    HW113265   2.320   5.129   0.190
 4122SOL    HW213266   2.479   5.099   0.171
 4123SOL     OW13267   3.974   3.676   5.374
 4123SOL    HW113268   3.979   3.594   5.432
 4123SOL    HW213269   3.880   3.710   5.372
 4124SOL     OW13270   4.665   6.165   2.931
 4124SOL    HW113271   4.566   6.160   2.944
 4124SOL    HW213272   4.692   6.261   2.922
 4125SOL     OW13273   4.750   1.542   1.682
 4125SOL    HW113274   4.653   1.533   1.656
 4125SOL    HW213275   4.756   1.555   1.781
 4126SOL     OW13276   2.222   4.115   4.794
 4126SOL    HW113277   2.286   4.062   4.851
 4126SOL    HW213278   2.187   4.057   4.720
 4127SOL     OW13279   5.198   4.745   3.950
 4127SOL    HW113280   5.169   4.650   3.941
 4127SOL    HW213281   5.214   4.766   4.046
 4128SOL     OW13282   0.144   1.758   1.915
 4128SOL    HW113283   0.224   1.727   1.967
 4128SOL    HW213284   0.164   1.754   1.818
 4129SOL     OW13285   0.290   2.693   0.155
 4129SOL    HW113286   0.284   2.628   0.080
 4129SOL    HW213287   0.198   2.719   0.185
 4130SOL     OW13288   6.497   1.782   1.223
 4130SOL    HW113289   6.460   1.842   1.294
 4130SOL    HW213290   6.434   1.780   1.145
 4131SOL     OW13291   6.719   3.486   3.287
 4131SOL    HW113292   6.636   3.434   3.305
 4131SOL    HW213293   6.796   3.444   3.335
 4132SOL     OW13294   4.430   1.620   4.529
 4132SOL    HW113295   4.476   1.557   4.591
 4132SOL    HW213296   4.453   1.597   4.434
 4133SOL     OW13297   2.613   2.607   0.886
 4133SOL    HW113298   2.561   2.522   0.880
 4133SOL    HW213299   2.710   2.589   0.870
 4134SOL     OW13300   2.484   1.119   6.991
 4134SOL    HW113301   2.448   1.069   0.047
 4134SOL    HW213302   2.579   1.090   6.974
 4135SOL     OW13303   1.811   0.552   0.814
 4135SOL    HW113304   1.905   0.576   0.789
 4135SOL    HW213305   1.812   0.502   0.901
 4136SOL     OW13306   1.144   2.031   3.446
 4136SOL    HW113307   1.179   2.121   3.472
 4136SOL    HW213308   1.219   1.972   3.418
 4137SOL     OW13309   3.823   3.214   5.145
 4137SOL    HW113310   3.828   3.114   5.145
 4137SOL    HW213311   3.915   3.252   5.131
 4138SOL     OW13312   4.954   5.303   1.343
 4138SOL    HW113313   4.885   5.231   1.340
 4138SOL    HW213314   5.013   5.288   1.423
 4139SOL     OW13315   3.070   1.508   6.815
 4139SOL    HW113316   3.003   1.485   6.885
 4139SOL    HW213317   3.099   1.603   6.826
 4140SOL     OW13318   4.913   2.526   4.780
 4140SOL    HW113319   4.893   2.608   4.726
 4140SOL    HW213320   4.935   2.450   4.718
 4141SOL     OW13321   5.070   6.263   1.167
 4141SOL    HW113322   5.042   6.349   1.209
 4141SOL    HW213323   5.166   6.269   1.139
 4142SOL     OW13324   6.125   3.173   1.607
 4142SOL    HW113325   6.147   3.178   1.705
 4142SOL    HW213326   6.026   3.158   1.596
 4143SOL     OW13327   1.763   2.666   1.726
 4143SOL    HW113328   1.699   2.738   1.698
 4143SOL    HW213329   1.830   2.651   1.654
 4144SOL     OW13330   3.992   1.013   2.411
 4144SOL    HW113331   4.007   0.925   2.364
 4144SOL    HW213332   4.057   1.080   2.376
 4145SOL     OW13333   2.735   6.979   3.513
 4145SOL    HW113334   2.808   6.926   3.470
 4145SOL    HW213335   2.760   0.054   3.513
 4146SOL     OW13336   5.149   4.738   0.321
 4146SOL    HW113337   5.240   4.764   0.352
 4146SOL    HW213338   5.114   4.662   0.376
 4147SOL     OW13339   2.748   2.035   5.672
 4147SOL    HW113340   2.826   2.082   5.630
 4147SOL    HW213341   2.709   2.092   5.743
 4148SOL     OW13342   6.941   6.434   2.235
 4148SOL    HW113343   0.004   6.481   2.214
 4148SOL    HW213344   6.886   6.490   2.298
 4149SOL     OW13345   4.724   4.285   2.191
 4149SOL    HW113346   4.646   4.286   2.129
 4149SOL    HW213347   4.692   4.275   2.285
 4150SOL     OW13348   3.276   0.464   4.844
 4150SOL    HW113349   3.214   0.533   4.883
 4150SOL    HW213350   3.292   0.392   4.911
 4151SOL     OW13351   0.671   5.807   0.171
 4151SOL    HW113352   0.636   5.746   0.100
 4151SOL    HW213353   0.762   5.840   0.144
 4152SOL     OW13354   3.506   4.055   0.928
 4152SOL    HW113355   3.586   4.008   0.964
 4152SOL    HW213356   3.431   3.990   0.918
 4153SOL     OW13357   5.932   6.003   6.155
 4153SOL    HW113358   5.921   5.905   6.171
 4153SOL    HW213359   5.972   6.047   6.236
 4154SOL     OW13360   4.499   2.379   4.650
 4154SOL    HW113361   4.426   2.363   4.717
 4154SOL    HW213362   4.582   2.408   4.698
 4155SOL     OW13363   1.843   2.856   0.438
 4155SOL    HW113364   1.874   2.857   0.342
 4155SOL    HW213365   1.922   2.844   0.498
 4156SOL     OW13366   6.270   1.168   5.517
 4156SOL    HW113367   6.270   1.155   5.418
 4156SOL    HW213368   6.207   1.242   5.541
 4157SOL     OW13369   3.572   0.980   3.636
 4157SOL    HW113370   3.639   0.955   3.706
 4157SOL    HW213371   3.574   0.913   3.563
 4158SOL     OW13372   0.571   0.402   3.386
 4158SOL    HW113373   0.668   0.417   3.366
 4158SOL    HW213374   0.524   0.490   3.391
 4159SOL     OW13375   0.341   4.815   5.819
 4159SOL    HW113376   0.348   4.716   5.811
 4159SOL    HW213377   0.427   4.857   5.791
 4160SOL     OW13378   6.565   0.678   1.272
 4160SOL    HW113379   6.631   0.723   1.332
 4160SOL    HW213380   6.477   0.669   1.318
 4161SOL     OW13381   6.315   1.268   1.574
 4161SOL    HW113382   6.380   1.302   1.506
 4161SOL    HW213383   6.225   1.308   1.557
 4162SOL     OW13384   0.935   0.001   4.940
 4162SOL    HW113385   0.979   6.934   4.926
 4162SOL    HW213386   0.991   0.055   5.003
 4163SOL     OW13387   0.052   1.634   5.288
 4163SOL    HW113388   0.145   1.616   5.255
 4163SOL    HW213389   0.024   1.725   5.259
 4164SOL     OW13390   2.598   6.558   5.906
 4164SOL    HW113391   2.662   6.582   5.832
 4164SOL    HW213392   2.511   6.529   5.867
 4165SOL     OW13393   1.678   6.158   1.549
 4165SOL    HW113394   1.721   6.134   1.636
 4165SOL    HW213395   1.630   6.245   1.559
 4166SOL     OW13396   6.103   2.071   2.571
 4166SOL    HW113397   6.159   1.991   2.550
 4166SOL    HW213398   6.061   2.060   2.661
 4167SOL     OW13399   1.630   2.775   1.503
 4167SOL    HW113400   1.693   2.727   1.442
 4167SOL    HW213401   1.536   2.749   1.482
 4168SOL     OW13402   2.524   5.999   0.941
 4168SOL    HW113403   2.474   5.912   0.934
 4168SOL    HW213404   2.463   6.075   0.920
 4169SOL     OW13405   6.363   3.646   6.350
 4169SOL    HW113406   6.275   3.681   6.320
 4169SOL    HW213407   6.412   3.717   6.401
 4170SOL     OW13408   3.218   0.935   5.704
 4170SOL    HW113409   3.174   0.996   5.770
 4170SOL    HW213410   3.298   0.893   5.747
 4171SOL     OW13411   6.343   2.989   1.707
 4171SOL    HW113412   6.409   2.915   1.705
 4171SOL    HW213413   6.374   3.060   1.772
 4172SOL     OW13414   3.281   0.628   1.283
 4172SOL    HW113415   3.228   0.552   1.321
 4172SOL    HW213416   3.284   0.703   1.349
 4173SOL     OW13417   4.255   3.922   5.696
 4173SOL    HW113418   4.326   3.973   5.745
 4173SOL    HW213419   4.195   3.987   5.649
 4174SOL     OW13420   4.685   1.014   3.588
 4174SOL    HW113421   4.706   0.917   3.605
 4174SOL    HW213422   4.606   1.041   3.644
 4175SOL     OW13423   2.329   1.508   2.392
 4175SOL    HW113424   2.377   1.441   2.449
 4175SOL    HW213425   2.268   1.562   2.449
 4176SOL     OW13426   5.746   4.491   3.025
 4176SOL    HW113427   5.720   4.468   2.931
 4176SOL    HW213428   5.756   4.590   3.034
 4177SOL     OW13429   0.023   5.754   2.923
 4177SOL    HW113430   0.004   5.777   2.827
 4177SOL    HW213431   7.016   5.661   2.942
 4178SOL     OW13432   4.269   2.736   5.334
 4178SOL    HW113433   4.331   2.802   5.292
 4178SOL    HW213434   4.261   2.656   5.276
 4179SOL     OW13435   7.007   1.599   7.002
 4179SOL    HW113436   0.060   1.537   0.001
 4179SOL    HW213437   6.948   1.609   0.060
 4180SOL     OW13438   5.678   4.027   1.581
 4180SOL    HW113439   5.764   4.052   1.536
 4180SOL    HW213440   5.604   4.086   1.547
 4181SOL     OW13441   6.170   1.328   0.211
 4181SOL    HW113442   6.125   1.410   0.175
 4181SOL    HW213443   6.141   1.314   0.306
 4182SOL     OW13444   5.829   0.717   3.751
 4182SOL    HW113445   5.927   0.700   3.743
 4182SOL    HW213446   5.810   0.812   3.726
 4183SOL     OW13447   1.053   0.385   2.001
 4183SOL    HW113448   1.138   0.407   1.953
 4183SOL    HW213449   1.022   0.293   1.975
 4184SOL     OW13450   4.307   4.631   6.160
 4184SOL    HW113451   4.299   4.567   6.237
 4184SOL    HW213452   4.396   4.619   6.117
 4185SOL     OW13453   0.007   0.728   4.489
 4185SOL    HW113454   0.006   0.730   4.589
 4185SOL    HW213455   6.987   0.643   4.456
 4186SOL     OW13456   3.457   4.102   1.485
 4186SOL    HW113457   3.377   4.110   1.426
 4186SOL    HW213458   3.537   4.140   1.438
 4187SOL     OW13459   4.533   5.099   5.413
 4187SOL    HW113460   4.489   5.025   5.362
 4187SOL    HW213461   4.488   5.185   5.391
 4188SOL     OW13462   5.723   5.749   2.593
 4188SOL    HW113463   5.696   5.653   2.582
 4188SOL    HW213464   5.700   5.780   2.685
 4189SOL     OW13465   1.207   3.019   3.235
 4189SOL    HW113466   1.146   3.048   3.162
 4189SOL    HW213467   1.251   2.933   3.210
 4190SOL     OW13468   2.360   6.662   1.720
 4190SOL    HW113469   2.293   6.708   1.661
 4190SOL    HW213470   2.445   6.650   1.669
 4191SOL     OW13471   0.105   2.226   3.744
 4191SOL    HW113472   0.035   2.262   3.805
 4191SOL    HW213473   0.064   2.205   3.655
 4192SOL     OW13474   5.705   6.375   4.123
 4192SOL    HW113475   5.748   6.295   4.080
 4192SOL    HW213476   5.657   6.428   4.053
 4193SOL     OW13477   1.244   6.974   3.941
 4193SOL    HW113478   1.279   6.898   3.996
 4193SOL    HW213479   1.318   7.013   3.887
 4194SOL     OW13480   4.974   0.003   3.184
 4194SOL    HW113481   5.050   6.961   3.195
 4194SOL    HW213482   5.006   0.084   3.136
 4195SOL     OW13483   4.612   0.335   3.380
 4195SOL    HW113484   4.666   0.380   3.451
 4195SOL    HW213485   4.653   0.247   3.357
 4196SOL     OW13486   4.954   2.549   2.928
 4196SOL    HW113487   4.860   2.569   2.900
 4196SOL    HW213488   5.016   2.568   2.852
 4197SOL     OW13489   5.378   4.289   4.489
 4197SOL    HW113490   5.477   4.281   4.503
 4197SOL    HW213491   5.339   4.199   4.473
 4198SOL     OW13492   6.259   3.636   5.991
 4198SOL    HW113493   6.328   3.574   6.030
 4198SOL    HW213494   6.245   3.713   6.053
 4199SOL     OW13495   3.064   4.132   5.980
 4199SOL    HW113496   2.997   4.206   5.967
 4199SOL    HW213497   3.122   4.153   6.058
 4200SOL     OW13498   2.992   0.570   5.845
 4200SOL    HW113499   3.017   0.661   5.880
 4200SOL    HW213500   2.993   0.505   5.921
 4201SOL     OW13501   6.268   0.378   5.058
 4201SOL    HW113502   6.275   0.377   5.158
 4201SOL    HW213503   6.186   0.328   5.030
 4202SOL     OW13504   5.807   2.962   5.134
 4202SOL    HW113505   5.880   3.028   5.114
 4202SOL    HW213506   5.734   3.007   5.185
 4203SOL     OW13507   3.897   5.646   4.854
 4203SOL    HW113508   3.888   5.593   4.939
 4203SOL    HW213509   3.808   5.648   4.807
 4204SOL     OW13510   1.349   4.334   0.461
 4204SOL    HW113511   1.351   4.286   0.373
 4204SOL    HW213512   1.374   4.430   0.447
 4205SOL     OW13513   2.201   6.484   3.347
 4205SOL    HW113514   2.158   6.468   3.436
 4205SOL    HW213515   2.166   6.570   3.308
 4206SOL     OW13516   4.684   6.661   3.684
 4206SOL    HW113517   4.756   6.691   3.746
 4206SOL    HW213518   4.725   6.611   3.607
 4207SOL     OW13519   1.595   6.364   6.920
 4207SOL    HW113520   1.544   6.367   6.833
 4207SOL    HW213521   1.664   6.291   6.915
 4208SOL     OW13522   0.783   1.847   1.718
 4208SOL    HW113523   0.809   1.757   1.683
 4208SOL    HW213524   0.735   1.899   1.646
 4209SOL     OW13525   2.755   0.189   5.773
 4209SOL    HW113526   2.710   0.101   5.763
 4209SOL    HW213527   2.688   0.258   5.801
 4210SOL     OW13528   3.529   3.521   0.474
 4210SOL    HW113529   3.465   3.568   0.535
 4210SOL    HW213530   3.617   3.511   0.520
 4211SOL     OW13531   6.248   3.204   4.010
 4211SOL    HW113532   6.242   3.145   4.090
 4211SOL    HW213533   6.317   3.169   3.947
 4212SOL     OW13534   6.215   6.977   2.154
 4212SOL    HW113535   6.280   6.902   2.172
 4212SOL    HW213536   6.265   0.036   2.126
 4213SOL     OW13537   0.815   6.999   0.902
 4213SOL    HW113538   0.866   6.986   0.818
 4213SOL    HW213539   0.725   6.957   0.894
 4214SOL     OW13540   2.983   5.529   3.453
 4214SOL    HW113541   2.927   5.557   3.531
 4214SOL    HW213542   2.991   5.605   3.388
 4215SOL     OW13543   1.585   6.006   6.720
 4215SOL    HW113544   1.505   5.964   6.764
 4215SOL    HW213545   1.668   5.970   6.763
 4216SOL     OW13546   2.521   2.717   5.208
 4216SOL    HW113547   2.526   2.817   5.203
 4216SOL    HW213548   2.613   2.679   5.219
 4217SOL     OW13549   6.275   0.664   4.947
 4217SOL    HW113550   6.303   0.568   4.948
 4217SOL    HW213551   6.237   0.688   5.037
 4218SOL     OW13552   3.139   5.078   2.671
 4218SOL    HW113553   3.088   5.128   2.741
 4218SOL    HW213554   3.106   5.105   2.581
 4219SOL     OW13555   4.925   0.434   2.850
 4219SOL    HW113556   4.926   0.458   2.753
 4219SOL    HW213557   5.018   0.412   2.880
 4220SOL     OW13558   0.395   4.496   3.126
 4220SOL    HW113559   0.299   4.475   3.110
 4220SOL    HW213560   0.451   4.417   3.099
 4221SOL     OW13561   5.330   6.359   5.891
 4221SOL    HW113562   5.393   6.429   5.858
 4221SOL    HW213563   5.254   6.403   5.940
 4222SOL     OW13564   2.381   2.994   0.055
 4222SOL    HW113565   2.446   3.053   0.008
 4222SOL    HW213566   2.378   3.019   0.152
 4223SOL     OW13567   3.753   3.897   2.863
 4223SOL    HW113568   3.731   3.943   2.949
 4223SOL    HW213569   3.851   3.901   2.846
 4224SOL     OW13570   3.411   2.167   5.319
 4224SOL    HW113571   3.483   2.236   5.314
 4224SOL    HW213572   3.323   2.213   5.330
 4225SOL     OW13573   4.854   6.729   4.539
 4225SOL    HW113574   4.894   6.668   4.607
 4225SOL    HW213575   4.812   6.676   4.466
 4226SOL     OW13576   2.334   1.898   1.900
 4226SOL    HW113577   2.377   1.931   1.984
 4226SOL    HW213578   2.401   1.845   1.847
 4227SOL     OW13579   5.558   3.979   0.610
 4227SOL    HW113580   5.541   4.020   0.520
 4227SOL    HW213581   5.592   3.886   0.598
 4228SOL     OW13582   4.340   5.270   3.279
 4228SOL    HW113583   4.420   5.329   3.292
 4228SOL    HW213584   4.371   5.175   3.269
 4229SOL     OW13585   4.279   5.077   4.853
 4229SOL    HW113586   4.208   5.059   4.785
 4229SOL    HW213587   4.306   4.992   4.897
 4230SOL     OW13588   1.760   1.395   5.268
 4230SOL    HW113589   1.840   1.426   5.217
 4230SOL    HW213590   1.757   1.295   5.268
 4231SOL     OW13591   3.767   6.600   6.563
 4231SOL    HW113592   3.707   6.540   6.616
 4231SOL    HW213593   3.857   6.558   6.554
 4232SOL     OW13594   1.462   4.029   1.489
 4232SOL    HW113595   1.542   3.977   1.460
 4232SOL    HW213596   1.380   3.991   1.447
 4233SOL     OW13597   5.013   5.353   1.057
 4233SOL    HW113598   4.976   5.308   1.139
 4233SOL    HW213599   4.951   5.339   0.980
 4234SOL     OW13600   3.848   3.472   6.005
 4234SOL    HW113601   3.910   3.481   6.083
 4234SOL    HW213602   3.880   3.398   5.946
 4235SOL     OW13603   0.599   4.141   4.722
 4235SOL    HW113604   0.573   4.102   4.810
 4235SOL    HW213605   0.678   4.091   4.686
 4236SOL     OW13606   1.060   3.645   4.470
 4236SOL    HW113607   1.066   3.555   4.427
 4236SOL    HW213608   0.967   3.658   4.505
 4237SOL     OW13609   5.015   3.518   5.395
 4237SOL    HW113610   5.041   3.563   5.309
 4237SOL    HW213611   4.992   3.422   5.376
 4238SOL     OW13612   4.780   4.677   5.068
 4238SOL    HW113613   4.833   4.637   5.143
 4238SOL    HW213614   4.781   4.776   5.074
 4239SOL     OW13615   5.205   5.036   5.221
 4239SOL    HW113616   5.300   5.008   5.233
 4239SOL    HW213617   5.181   5.104   5.291
 4240SOL     OW13618   2.389   4.466   6.236
 4240SOL    HW113619   2.322   4.472   6.162
 4240SOL    HW213620   2.480   4.487   6.201
 4241SOL     OW13621   3.138   2.252   0.617
 4241SOL    HW113622   3.119   2.195   0.698
 4241SOL    HW213623   3.224   2.301   0.631
 4242SOL     OW13624   2.663   0.401   2.006
 4242SOL    HW113625   2.704   0.415   1.916
 4242SOL    HW213626   2.674   0.485   2.060
 4243SOL     OW13627   1.779   1.907   2.029
 4243SOL    HW113628   1.828   1.843   2.089
 4243SOL    HW213629   1.730   1.974   2.084
 4244SOL     OW13630   2.561   0.148   0.885
 4244SOL    HW113631   2.469   0.185   0.878
 4244SOL    HW213632   2.579   0.119   0.979
 4245SOL     OW13633   0.527   1.403   1.225
 4245SOL    HW113634   0.623   1.395   1.253
 4245SOL    HW213635   0.469   1.404   1.306
 4246SOL     OW13636   3.474   2.073   3.588
 4246SOL    HW113637   3.527   2.062   3.504
 4246SOL    HW213638   3.537   2.089   3.665
 4247SOL     OW13639   2.862   5.245   6.836
 4247SOL    HW113640   2.816   5.332   6.854
 4247SOL    HW213641   2.798   5.181   6.793
 4248SOL     OW13642   2.688   6.970   2.041
 4248SOL    HW113643   2.638   6.885   2.027
 4248SOL    HW213644   2.692   6.991   2.138
 4249SOL     OW13645   6.290   1.144   5.242
 4249SOL    HW113646   6.358   1.088   5.197
 4249SOL    HW213647   6.264   1.220   5.182
 4250SOL     OW13648   0.767   5.365   4.547
 4250SOL    HW113649   0.718   5.406   4.623
 4250SOL    HW213650   0.703   5.319   4.485
 4251SOL     OW13651   4.681   2.187   5.298
 4251SOL    HW113652   4.689   2.120   5.224
 4251SOL    HW213653   4.674   2.279   5.259
 4252SOL     OW13654   0.825   0.009   6.434
 4252SOL    HW113655   0.802   7.019   6.338
 4252SOL    HW213656   0.810   6.945   6.483
 4253SOL     OW13657   3.734   6.958   2.624
 4253SOL    HW113658   3.704   7.004   2.707
 4253SOL    HW213659   3.815   7.004   2.588
 4254SOL     OW13660   0.841   0.879   4.927
 4254SOL    HW113661   0.910   0.810   4.907
 4254SOL    HW213662   0.853   0.957   4.864
 4255SOL     OW13663   1.563   3.056   4.505
 4255SOL    HW113664   1.559   3.103   4.417
 4255SOL    HW213665   1.479   3.004   4.518
 4256SOL     OW13666   6.000   5.901   1.246
 4256SOL    HW113667   6.076   5.851   1.288
 4256SOL    HW213668   6.030   5.943   1.161
 4257SOL     OW13669   0.076   1.250   2.561
 4257SOL    HW113670   0.007   1.321   2.573
 4257SOL    HW213671   0.078   1.191   2.642
 4258SOL     OW13672   2.556   6.412   0.926
 4258SOL    HW113673   2.550   6.478   0.851
 4258SOL    HW213674   2.490   6.338   0.911
 4259SOL     OW13675   1.124   0.362   0.055
 4259SOL    HW113676   1.214   0.404   0.045
 4259SOL    HW213677   1.102   0.310   6.995
 4260SOL     OW13678   0.083   0.424   5.501
 4260SOL    HW113679   0.111   0.334   5.466
 4260SOL    HW213680   0.089   0.424   5.600
 4261SOL     OW13681   2.127   6.738   3.233
 4261SOL    HW113682   2.175   6.817   3.196
 4261SOL    HW213683   2.036   6.732   3.192
 4262SOL     OW13684   1.611   4.234   4.642
 4262SOL    HW113685   1.587   4.206   4.549
 4262SOL    HW213686   1.539   4.293   4.679
 4263SOL     OW13687   3.130   0.989   2.525
 4263SOL    HW113688   3.158   1.085   2.532
 4263SOL    HW213689   3.072   0.977   2.445
 4264SOL     OW13690   3.972   2.270   6.251
 4264SOL    HW113691   3.888   2.320   6.271
 4264SOL    HW213692   3.958   2.173   6.269
 4265SOL     OW13693   3.259   6.215   6.675
 4265SOL    HW113694   3.226   6.307   6.699
 4265SOL    HW213695   3.216   6.187   6.589
 4266SOL     OW13696   1.244   3.915   2.838
 4266SOL    HW113697   1.340   3.906   2.867
 4266SOL    HW213698   1.188   3.942   2.916
 4267SOL     OW13699   1.474   3.834   3.586
 4267SOL    HW113700   1.546   3.766   3.567
 4267SOL    HW213701   1.385   3.793   3.569
 4268SOL     OW13702   1.357   4.383   5.311
 4268SOL    HW113703   1.447   4.395   5.268
 4268SOL    HW213704   1.369   4.374   5.410
 4269SOL     OW13705   1.791   1.938   4.286
 4269SOL    HW113706   1.745   1.922   4.199
 4269SOL    HW213707   1.787   2.036   4.309
 4270SOL     OW13708   4.077   4.198   1.088
 4270SOL    HW113709   4.135   4.211   1.168
 4270SOL    HW213710   3.987   4.165   1.117
 4271SOL     OW13711   6.252   0.203   0.093
 4271SOL    HW113712   6.170   0.158   0.057
 4271SOL    HW213713   6.249   0.203   0.193
 4272SOL     OW13714   6.489   2.168   5.812
 4272SOL    HW113715   6.399   2.190   5.774
 4272SOL    HW213716   6.554   2.155   5.737
 4273SOL     OW13717   3.327   6.391   3.789
 4273SOL    HW113718   3.328   6.348   3.699
 4273SOL    HW213719   3.301   6.324   3.858
 4274SOL     OW13720   6.656   0.532   1.902
 4274SOL    HW113721   6.708   0.537   1.988
 4274SOL    HW213722   6.558   0.539   1.922
 4275SOL     OW13723   5.817   1.665   4.353
 4275SOL    HW113724   5.721   1.644   4.338
 4275SOL    HW213725   5.846   1.736   4.289
 4276SOL     OW13726   2.114   1.073   2.987
 4276SOL    HW113727   2.032   1.123   3.017
 4276SOL    HW213728   2.159   1.032   3.066
 4277SOL     OW13729   6.481   4.774   3.094
 4277SOL    HW113730   6.437   4.687   3.115
 4277SOL    HW213731   6.443   4.845   3.153
 4278SOL     OW13732   0.592   6.736   1.578
 4278SOL    HW113733   0.533   6.817   1.574
 4278SOL    HW213734   0.535   6.653   1.583
 4279SOL     OW13735   1.395   3.600   2.990
 4279SOL    HW113736   1.372   3.678   2.932
 4279SOL    HW213737   1.467   3.546   2.947
 4280SOL     OW13738   2.743   6.708   6.238
 4280SOL    HW113739   2.794   6.637   6.189
 4280SOL    HW213740   2.652   6.674   6.260
 4281SOL     OW13741   6.670   6.629   2.661
 4281SOL    HW113742   6.758   6.644   2.707
 4281SOL    HW213743   6.638   6.536   2.680
 4282SOL     OW13744   4.933   4.739   2.274
 4282SOL    HW113745   4.991   4.800   2.220
 4282SOL    HW213746   4.879   4.681   2.213
 4283SOL     OW13747   6.795   1.559   5.239
 4283SOL    HW113748   6.759   1.635   5.184
 4283SOL    HW213749   6.894   1.557   5.233
 4284SOL     OW13750   4.853   6.207   0.067
 4284SOL    HW113751   4.947   6.238   0.059
 4284SOL    HW213752   4.842   6.154   0.151
 4285SOL     OW13753   3.034   1.762   6.023
 4285SOL    HW113754   3.055   1.714   5.938
 4285SOL    HW213755   2.936   1.782   6.028
 4286SOL     OW13756   5.503   6.500   6.533
 4286SOL    HW113757   5.421   6.543   6.496
 4286SOL    HW213758   5.561   6.468   6.458
 4287SOL     OW13759   4.384   0.001   0.687
 4287SOL    HW113760   4.291   6.998   0.713
 4287SOL    HW213761   4.393   0.100   0.688
 4288SOL     OW13762   6.750   6.680   2.383
 4288SOL    HW113763   6.654   6.667   2.409
 4288SOL    HW213764   6.754   6.738   2.301
 4289SOL     OW13765   0.147   4.544   6.018
 4289SOL    HW113766   0.207   4.556   6.097
 4289SOL    HW213767   0.054   4.524   6.050
 4290SOL     OW13768   6.962   0.891   2.869
 4290SOL    HW113769   0.002   0.846   2.933
 4290SOL    HW213770   6.868   0.880   2.900
 4291SOL     OW13771   4.630   4.828   5.633
 4291SOL    HW113772   4.680   4.805   5.717
 4291SOL    HW213773   4.642   4.755   5.566
 4292SOL     OW13774   6.239   0.243   0.403
 4292SOL    HW113775   6.298   0.163   0.416
 4292SOL    HW213776   6.144   0.217   0.418
 4293SOL     OW13777   4.132   2.196   5.942
 4293SOL    HW113778   4.070   2.142   5.999
 4293SOL    HW213779   4.211   2.223   5.996
 4294SOL     OW13780   3.116   1.912   0.128
 4294SOL    HW113781   3.176   1.862   0.065
 4294SOL    HW213782   3.025   1.871   0.126
 4295SOL     OW13783   3.982   6.724   2.676
 4295SOL    HW113784   3.894   6.719   2.629
 4295SOL    HW213785   3.967   6.728   2.775
 4296SOL     OW13786   2.010   5.345   1.847
 4296SOL    HW113787   2.066   5.396   1.781
 4296SOL    HW213788   2.069   5.292   1.908
 4297SOL     OW13789   5.064   4.326   0.347
 4297SOL    HW113790   5.089   4.326   0.250
 4297SOL    HW213791   4.975   4.282   0.358
 4298SOL     OW13792   1.942   6.443   0.524
 4298SOL    HW113793   1.911   6.352   0.497
 4298SOL    HW213794   1.873   6.484   0.585
 4299SOL     OW13795   6.976   3.424   6.913
 4299SOL    HW113796   6.921   3.504   6.890
 4299SOL    HW213797   6.926   3.366   6.977
 4300SOL     OW13798   3.757   0.690   2.250
 4300SOL    HW113799   3.851   0.708   2.222
 4300SOL    HW213800   3.743   0.727   2.342
 4301SOL     OW13801   1.792   6.077   4.597
 4301SOL    HW113802   1.769   6.079   4.695
 4301SOL    HW213803   1.809   5.983   4.569
 4302SOL     OW13804   3.733   4.924   0.046
 4302SOL    HW113805   3.680   4.842   0.065
 4302SOL    HW213806   3.784   4.913   6.983
 4303SOL     OW13807   4.686   4.979   3.459
 4303SOL    HW113808   4.780   4.946   3.448
 4303SOL    HW213809   4.624   4.901   3.464
 4304SOL     OW13810   3.254   4.182   1.333
 4304SOL    HW113811   3.287   4.219   1.246
 4304SOL    HW213812   3.218   4.257   1.390
 4305SOL     OW13813   1.009   6.815   5.991
 4305SOL    HW113814   0.961   6.871   6.059
 4305SOL    HW213815   0.948   6.798   5.913
 4306SOL     OW13816   6.248   3.951   4.915
 4306SOL    HW113817   6.276   4.047   4.902
 4306SOL    HW213818   6.210   3.916   4.829
 4307SOL     OW13819   6.627   1.815   4.093
 4307SOL    HW113820   6.629   1.871   4.177
 4307SOL    HW213821   6.686   1.735   4.106
 4308SOL     OW13822   4.689   5.395   5.506
 4308SOL    HW113823   4.604   5.366   5.549
 4308SOL    HW213824   4.767   5.369   5.563
 4309SOL     OW13825   2.449   2.032   0.587
 4309SOL    HW113826   2.469   1.958   0.523
 4309SOL    HW213827   2.351   2.031   0.610
 4310SOL     OW13828   6.352   1.121   4.735
 4310SOL    HW113829   6.379   1.122   4.638
 4310SOL    HW213830   6.254   1.140   4.741
 4311SOL     OW13831   0.931   6.546   1.179
 4311SOL    HW113832   0.862   6.521   1.112
 4311SOL    HW213833   0.888   6.558   1.268
 4312SOL     OW13834   0.646   3.237   2.545
 4312SOL    HW113835   0.663   3.290   2.628
 4312SOL    HW213836   0.548   3.229   2.529
 4313SOL     OW13837   0.336   3.440   0.809
 4313SOL    HW113838   0.278   3.366   0.773
 4313SOL    HW213839   0.381   3.487   0.734
 4314SOL     OW13840   2.403   2.373   5.562
 4314SOL    HW113841   2.362   2.383   5.472
 4314SOL    HW213842   2.498   2.404   5.560
 4315SOL     OW13843   2.765   2.591   5.280
 4315SOL    HW113844   2.736   2.506   5.235
 4315SOL    HW213845   2.863   2.587   5.298
 4316SOL     OW13846   4.491   4.050   1.427
 4316SOL    HW113847   4.543   3.984   1.372
 4316SOL    HW213848   4.554   4.115   1.469
 4317SOL     OW13849   4.725   0.646   3.865
 4317SOL    HW113850   4.681   0.682   3.946
 4317SOL    HW213851   4.823   0.636   3.881
 4318SOL     OW13852   2.291   5.567   4.115
 4318SOL    HW113853   2.277   5.541   4.019
 4318SOL    HW213854   2.290   5.667   4.122
 4319SOL     OW13855   2.118   4.843   1.352
 4319SOL    HW113856   2.105   4.899   1.434
 4319SOL    HW213857   2.188   4.885   1.294
 4320SOL     OW13858   4.418   1.164   1.795
 4320SOL    HW113859   4.319   1.174   1.795
 4320SOL    HW213860   4.454   1.180   1.703
 4321SOL     OW13861   6.800   6.096   3.459
 4321SOL    HW113862   6.723   6.032   3.459
 4321SOL    HW213863   6.803   6.146   3.545
 4322SOL     OW13864   2.612   2.165   4.192
 4322SOL    HW113865   2.545   2.146   4.120
 4322SOL    HW213866   2.704   2.165   4.151
 4323SOL     OW13867   5.811   3.773   2.028
 4323SOL    HW113868   5.774   3.706   2.093
 4323SOL    HW213869   5.742   3.843   2.010
 4324SOL     OW13870   6.393   4.004   5.306
 4324SOL    HW113871   6.389   3.908   5.334
 4324SOL    HW213872   6.479   4.022   5.259
 4325SOL     OW13873   1.549   0.716   0.854
 4325SOL    HW113874   1.637   0.673   0.833
 4325SOL    HW213875   1.561   0.816   0.860
 4326SOL     OW13876   5.365   2.845   1.976
 4326SOL    HW113877   5.388   2.941   1.990
 4326SOL    HW213878   5.428   2.788   2.028
 4327SOL     OW13879   3.104   6.439   4.055
 4327SOL    HW113880   3.138   6.484   3.973
 4327SOL    HW213881   3.155   6.354   4.070
 4328SOL     OW13882   5.848   0.218   2.062
 4328SOL    HW113883   5.770   0.276   2.040
 4328SOL    HW213884   5.851   0.140   1.999
 4329SOL     OW13885   6.169   3.950   0.330
 4329SOL    HW113886   6.177   4.050   0.341
 4329SOL    HW213887   6.202   3.905   0.413
 4330SOL     OW13888   2.737   5.984   5.212
 4330SOL    HW113889   2.741   5.958   5.115
 4330SOL    HW213890   2.786   6.070   5.225
 4331SOL     OW13891   6.025   1.379   2.763
 4331SOL    HW113892   6.089   1.305   2.745
 4331SOL    HW213893   6.014   1.435   2.680
 4332SOL     OW13894   6.757   5.942   1.275
 4332SOL    HW113895   6.815   5.974   1.200
 4332SOL    HW213896   6.713   6.020   1.319
 4333SOL     OW13897   3.651   3.164   5.797
 4333SOL    HW113898   3.639   3.072   5.833
 4333SOL    HW213899   3.592   3.177   5.717
 4334SOL     OW13900   0.682   1.558   3.619
 4334SOL    HW113901   0.602   1.612   3.645
 4334SOL    HW213902   0.699   1.568   3.521
 4335SOL     OW13903   2.468   2.525   1.517
 4335SOL    HW113904   2.527   2.598   1.483
 4335SOL    HW213905   2.392   2.565   1.568
 4336SOL     OW13906   2.532   5.736   5.030
 4336SOL    HW113907   2.439   5.771   5.049
 4336SOL    HW213908   2.527   5.667   4.958
 4337SOL     OW13909   0.049   4.617   4.435
 4337SOL    HW113910   0.012   4.542   4.489
 4337SOL    HW213911   0.028   4.704   4.480
 4338SOL     OW13912   3.481   3.172   5.566
 4338SOL    HW113913   3.390   3.138   5.592
 4338SOL    HW213914   3.507   3.133   5.478
 4339SOL     OW13915   3.682   3.715   5.320
 4339SOL    HW113916   3.627   3.734   5.401
 4339SOL    HW213917   3.688   3.616   5.306
 4340SOL     OW13918   7.013   4.550   0.322
 4340SOL    HW113919   6.959   4.469   0.299
 4340SOL    HW213920   7.004   4.569   0.420
 4341SOL     OW13921   6.127   6.462   1.605
 4341SOL    HW113922   6.130   6.504   1.514
 4341SOL    HW213923   6.191   6.386   1.608
 4342SOL     OW13924   4.929   3.552   2.222
 4342SOL    HW113925   4.973   3.616   2.285
 4342SOL    HW213926   4.858   3.502   2.270
 4343SOL     OW13927   5.019   6.989   6.200
 4343SOL    HW113928   4.948   6.931   6.240
 4343SOL    HW213929   5.065   0.018   6.272
 4344SOL     OW13930   1.377   4.214   2.366
 4344SOL    HW113931   1.359   4.313   2.366
 4344SOL    HW213932   1.442   4.192   2.439
 4345SOL     OW13933   4.165   3.403   2.270
 4345SOL    HW113934   4.166   3.305   2.291
 4345SOL    HW213935   4.210   3.453   2.343
 4346SOL     OW13936   1.343   3.188   2.091
 4346SOL    HW113937   1.403   3.256   2.048
 4346SOL    HW213938   1.305   3.128   2.021
 4347SOL     OW13939   5.864   6.225   1.154
 4347SOL    HW113940   5.818   6.173   1.226
 4347SOL    HW213941   5.922   6.164   1.100
 4348SOL     OW13942   6.252   4.074   6.045
 4348SOL    HW113943   6.324   4.071   6.114
 4348SOL    HW213944   6.283   4.130   5.968
 4349SOL     OW13945   0.698   3.758   3.812
 4349SOL    HW113946   0.773   3.704   3.852
 4349SOL    HW213947   0.732   3.848   3.787
 4350SOL     OW13948   5.042   6.946   4.462
 4350SOL    HW113949   5.058   7.006   4.540
 4350SOL    HW213950   4.991   6.866   4.491
 4351SOL     OW13951   0.266   6.367   0.941
 4351SOL    HW113952   0.311   6.278   0.937
 4351SOL    HW213953   0.194   6.372   0.872
 4352SOL     OW13954   3.975   4.499   1.357
 4352SOL    HW113955   3.990   4.597   1.342
 4352SOL    HW213956   4.049   4.463   1.413
 4353SOL     OW13957   1.970   3.748   0.448
 4353SOL    HW113958   2.069   3.753   0.459
 4353SOL    HW213959   1.926   3.791   0.527
 4354SOL     OW13960   6.127   4.719   2.996
 4354SOL    HW113961   6.073   4.635   2.988
 4354SOL    HW213962   6.074   4.795   2.959
 4355SOL     OW13963   2.124   4.948   3.961
 4355SOL    HW113964   2.058   4.896   4.015
 4355SOL    HW213965   2.076   5.011   3.900
 4356SOL     OW13966   5.995   1.542   5.772
 4356SOL    HW113967   6.054   1.553   5.851
 4356SOL    HW213968   6.039   1.482   5.705
 4357SOL     OW13969   5.400   5.913   2.932
 4357SOL    HW113970   5.382   5.825   2.887
 4357SOL    HW213971   5.326   5.976   2.912
 4358SOL     OW13972   3.468   0.468   1.162
 4358SOL    HW113973   3.542   0.535   1.151
 4358SOL    HW213974   3.401   0.503   1.228
 4359SOL     OW13975   3.117   3.546   1.760
 4359SOL    HW113976   3.168   3.515   1.840
 4359SOL    HW213977   3.103   3.469   1.698
 4360SOL     OW13978   2.523   6.649   3.622
 4360SOL    HW113979   2.545   6.668   3.527
 4360SOL    HW213980   2.547   6.554   3.643
 4361SOL     OW13981   1.852   0.701   6.392
 4361SOL    HW113982   1.897   0.757   6.323
 4361SOL    HW213983   1.919   0.641   6.435
 4362SOL     OW13984   6.107   5.203   2.369
 4362SOL    HW113985   6.174   5.275   2.349
 4362SOL    HW213986   6.130   5.122   2.316
 4363SOL     OW13987   4.294   0.081   2.472
 4363SOL    HW113988   4.273   0.166   2.423
 4363SOL    HW213989   4.313   0.102   2.568
 4364SOL     OW13990   3.253   3.542   2.849
 4364SOL    HW113991   3.283   3.634   2.877
 4364SOL    HW213992   3.218   3.493   2.928
 4365SOL     OW13993   2.151   1.427   0.674
 4365SOL    HW113994   2.081   1.372   0.629
 4365SOL    HW213995   2.124   1.443   0.770
 4366SOL     OW13996   4.901   5.532   4.779
 4366SOL    HW113997   4.929   5.621   4.814
 4366SOL    HW213998   4.805   5.515   4.803
 4367SOL     OW13999   1.750   6.998   1.729
 4367SOL    HW114000   1.683   0.042   1.696
 4367SOL    HW214001   1.725   6.967   1.821
 4368SOL     OW14002   5.066   5.573   4.364
 4368SOL    HW114003   4.967   5.566   4.377
 4368SOL    HW214004   5.089   5.546   4.271
 4369SOL     OW14005   6.754   3.866   4.495
 4369SOL    HW114006   6.771   3.851   4.593
 4369SOL    HW214007   6.658   3.849   4.475
 4370SOL     OW14008   5.555   4.557   1.148
 4370SOL    HW114009   5.577   4.595   1.238
 4370SOL    HW214010   5.457   4.566   1.132
 4371SOL     OW14011   3.385   0.369   3.518
 4371SOL    HW114012   3.401   0.378   3.616
 4371SOL    HW214013   3.325   0.291   3.501
 4372SOL     OW14014   2.250   4.101   5.736
 4372SOL    HW114015   2.205   4.116   5.648
 4372SOL    HW214016   2.317   4.174   5.751
 4373SOL     OW14017   4.489   0.349   0.442
 4373SOL    HW114018   4.450   0.306   0.523
 4373SOL    HW214019   4.448   0.311   0.360
 4374SOL     OW14020   1.924   6.336   0.154
 4374SOL    HW114021   2.021   6.326   0.176
 4374SOL    HW214022   1.913   6.398   0.077
 4375SOL     OW14023   4.521   0.393   5.414
 4375SOL    HW114024   4.589   0.338   5.462
 4375SOL    HW214025   4.447   0.418   5.478
 4376SOL     OW14026   2.707   4.837   0.342
 4376SOL    HW114027   2.733   4.742   0.356
 4376SOL    HW214028   2.615   4.841   0.304
 4377SOL     OW14029   5.334   6.327   0.492
 4377SOL    HW114030   5.319   6.233   0.522
 4377SOL    HW214031   5.421   6.334   0.445
 4378SOL     OW14032   3.138   5.064   1.563
 4378SOL    HW114033   3.065   4.997   1.579
 4378SOL    HW214034   3.165   5.061   1.467
 4379SOL     OW14035   6.024   6.291   0.631
 4379SOL    HW114036   6.103   6.247   0.589
 4379SOL    HW214037   6.037   6.390   0.630
 4380SOL     OW14038   1.694   6.205   5.075
 4380SOL    HW114039   1.633   6.275   5.038
 4380SOL    HW214040   1.713   6.224   5.171
 4381SOL     OW14041   3.331   6.325   4.525
 4381SOL    HW114042   3.317   6.386   4.447
 4381SOL    HW214043   3.306   6.231   4.499
 4382SOL     OW14044   5.888   3.700   3.715
 4382SOL    HW114045   5.828   3.729   3.640
 4382SOL    HW214046   5.861   3.746   3.799
 4383SOL     OW14047   1.700   0.279   6.659
 4383SOL    HW114048   1.739   0.205   6.604
 4383SOL    HW214049   1.603   0.261   6.675
 4384SOL     OW14050   3.686   6.573   1.931
 4384SOL    HW114051   3.644   6.492   1.972
 4384SOL    HW214052   3.645   6.590   1.842
 4385SOL     OW14053   5.721   2.253   4.117
 4385SOL    HW114054   5.771   2.233   4.033
 4385SOL    HW214055   5.768   2.328   4.165
 4386SOL     OW14056   1.717   5.410   0.141
 4386SOL    HW114057   1.792   5.469   0.111
 4386SOL    HW214058   1.701   5.338   0.074
 4387SOL     OW14059   6.119   2.594   0.599
 4387SOL    HW114060   6.174   2.609   0.681
 4387SOL    HW214061   6.132   2.501   0.566
 4388SOL     OW14062   4.460   0.655   5.649
 4388SOL    HW114063   4.389   0.584   5.650
 4388SOL    HW214064   4.501   0.658   5.558
 4389SOL     OW14065   1.096   3.115   2.701
 4389SOL    HW114066   1.155   3.196   2.701
 4389SOL    HW214067   1.023   3.127   2.635
 4390SOL     OW14068   5.033   4.085   1.102
 4390SOL    HW114069   5.117   4.051   1.060
 4390SOL    HW214070   4.956   4.064   1.042
 4391SOL     OW14071   0.449   5.819   1.299
 4391SOL    HW114072   0.501   5.766   1.232
 4391SOL    HW214073   0.407   5.756   1.365
 4392SOL     OW14074   5.186   5.156   4.534
 4392SOL    HW114075   5.228   5.212   4.463
 4392SOL    HW214076   5.098   5.195   4.560
 4393SOL     OW14077   4.631   6.854   2.460
 4393SOL    HW114078   4.610   6.764   2.421
 4393SOL    HW214079   4.731   6.864   2.469
 4394SOL     OW14080   4.651   1.062   2.724
 4394SOL    HW114081   4.676   1.068   2.627
 4394SOL    HW214082   4.723   1.014   2.773
 4395SOL     OW14083   5.113   2.685   0.738
 4395SOL    HW114084   5.108   2.677   0.837
 4395SOL    HW214085   5.061   2.611   0.696
 4396SOL     OW14086   1.544   0.863   2.123
 4396SOL    HW114087   1.490   0.925   2.180
 4396SOL    HW214088   1.540   0.771   2.160
 4397SOL     OW14089   3.667   2.161   6.841
 4397SOL    HW114090   3.750   2.130   6.793
 4397SOL    HW214091   3.637   2.248   6.802
 4398SOL     OW14092   0.707   4.757   4.740
 4398SOL    HW114093   0.620   4.714   4.719
 4398SOL    HW214094   0.694   4.828   4.809
 4399SOL     OW14095   2.964   0.653   1.933
 4399SOL    HW114096   2.894   0.630   1.999
 4399SOL    HW214097   3.044   0.689   1.980
 4400SOL     OW14098   3.368   4.938   3.019
 4400SOL    HW114099   3.280   4.911   3.059
 4400SOL    HW214100   3.373   4.905   2.925
 4401SOL     OW14101   4.557   6.489   4.467
 4401SOL    HW114102   4.614   6.556   4.418
 4401SOL    HW214103   4.469   6.481   4.421
 4402SOL     OW14104   6.582   6.588   1.420
 4402SOL    HW114105   6.509   6.652   1.395
 4402SOL    HW214106   6.669   6.637   1.425
 4403SOL     OW14107   6.330   1.538   3.355
 4403SOL    HW114108   6.277   1.459   3.324
 4403SOL    HW214109   6.395   1.565   3.284
 4404SOL     OW14110   1.391   3.607   2.633
 4404SOL    HW114111   1.446   3.534   2.592
 4404SOL    HW214112   1.318   3.633   2.570
 4405SOL     OW14113   3.227   4.281   6.434
 4405SOL    HW114114   3.288   4.206   6.407
 4405SOL    HW214115   3.139   4.269   6.389
 4406SOL     OW14116   6.108   2.602   2.705
 4406SOL    HW114117   6.027   2.658   2.686
 4406SOL    HW214118   6.174   2.655   2.758
 4407SOL     OW14119   1.089   0.709   0.502
 4407SOL    HW114120   1.147   0.686   0.580
 4407SOL    HW214121   1.005   0.656   0.506
 4408SOL     OW14122   4.758   6.155   1.344
 4408SOL    HW114123   4.776   6.244   1.304
 4408SOL    HW214124   4.761   6.085   1.273
 4409SOL     OW14125   3.561   1.737   2.941
 4409SOL    HW114126   3.584   1.807   2.873
 4409SOL    HW214127   3.594   1.648   2.910
 4410SOL     OW14128   2.237   6.020   0.723
 4410SOL    HW114129   2.151   6.054   0.763
 4410SOL    HW214130   2.235   6.035   0.624
 4411SOL     OW14131   3.618   3.147   2.403
 4411SOL    HW114132   3.587   3.052   2.415
 4411SOL    HW214133   3.685   3.150   2.329
 4412SOL     OW14134   3.798   1.145   6.352
 4412SOL    HW114135   3.797   1.059   6.403
 4412SOL    HW214136   3.844   1.132   6.265
 4413SOL     OW14137   3.574   5.823   4.141
 4413SOL    HW114138   3.622   5.903   4.104
 4413SOL    HW214139   3.591   5.744   4.082
 4414SOL     OW14140   3.347   4.842   1.714
 4414SOL    HW114141   3.436   4.809   1.746
 4414SOL    HW214142   3.277   4.773   1.734
 4415SOL     OW14143   4.952   0.834   1.699
 4415SOL    HW114144   4.923   0.784   1.780
 4415SOL    HW214145   4.882   0.901   1.674
 4416SOL     OW14146   2.902   2.305   4.685
 4416SOL    HW114147   2.864   2.355   4.606
 4416SOL    HW214148   2.827   2.277   4.745
 4417SOL     OW14149   5.382   0.437   1.609
 4417SOL    HW114150   5.450   0.394   1.550
 4417SOL    HW214151   5.298   0.454   1.558
 4418SOL     OW14152   4.265   0.188   3.060
 4418SOL    HW114153   4.296   0.270   3.012
 4418SOL    HW214154   4.312   0.108   3.023
 4419SOL     OW14155   6.613   5.778   6.499
 4419SOL    HW114156   6.675   5.851   6.471
 4419SOL    HW214157   6.527   5.787   6.448
 4420SOL     OW14158   5.492   1.124   0.690
 4420SOL    HW114159   5.540   1.127   0.602
 4420SOL    HW214160   5.529   1.195   0.750
 4421SOL     OW14161   0.484   2.058   3.173
 4421SOL    HW114162   0.516   2.045   3.267
 4421SOL    HW214163   0.527   1.991   3.113
 4422SOL     OW14164   1.521   4.019   5.686
 4422SOL    HW114165   1.483   3.929   5.665
 4422SOL    HW214166   1.510   4.079   5.607
 4423SOL     OW14167   6.932   1.727   5.904
 4423SOL    HW114168   6.975   1.703   5.991
 4423SOL    HW214169   6.937   1.649   5.842
 4424SOL     OW14170   2.140   5.458   3.357
 4424SOL    HW114171   2.113   5.517   3.433
 4424SOL    HW214172   2.165   5.367   3.392
 4425SOL     OW14173   5.198   4.161   2.406
 4425SOL    HW114174   5.274   4.202   2.456
 4425SOL    HW214175   5.212   4.062   2.400
 4426SOL     OW14176   0.539   6.415   6.789
 4426SOL    HW114177   0.523   6.334   6.733
 4426SOL    HW214178   0.630   6.452   6.771
 4427SOL     OW14179   0.426   5.200   4.004
 4427SOL    HW114180   0.497   5.150   4.053
 4427SOL    HW214181   0.376   5.137   3.943
 4428SOL     OW14182   1.817   0.067   2.736
 4428SOL    HW114183   1.813   0.123   2.818
 4428SOL    HW214184   1.747   7.018   2.740
 4429SOL     OW14185   2.927   0.196   1.823
 4429SOL    HW114186   2.949   0.285   1.783
 4429SOL    HW214187   2.838   0.165   1.790
 4430SOL     OW14188   1.879   0.348   1.946
 4430SOL    HW114189   1.783   0.374   1.953
 4430SOL    HW214190   1.932   0.425   1.909
 4431SOL     OW14191   1.841   1.891   2.606
 4431SOL    HW114192   1.926   1.901   2.554
 4431SOL    HW214193   1.793   1.979   2.608
 4432SOL     OW14194   3.776   4.138   4.421
 4432SOL    HW114195   3.866   4.101   4.441
 4432SOL    HW214196   3.715   4.064   4.393
 4433SOL     OW14197   6.746   0.307   1.478
 4433SOL    HW114198   6.823   0.261   1.433
 4433SOL    HW214199   6.764   0.315   1.576
 4434SOL     OW14200   5.694   1.943   5.711
 4434SOL    HW114201   5.606   1.946   5.758
 4434SOL    HW214202   5.714   1.849   5.684
 4435SOL     OW14203   3.588   3.006   2.017
 4435SOL    HW114204   3.545   2.931   1.968
 4435SOL    HW214205   3.640   2.971   2.095
 4436SOL     OW14206   5.699   6.878   0.332
 4436SOL    HW114207   5.639   6.823   0.274
 4436SOL    HW214208   5.751   6.942   0.274
 4437SOL     OW14209   2.910   6.839   5.799
 4437SOL    HW114210   2.936   6.933   5.821
 4437SOL    HW214211   2.811   6.829   5.803
 4438SOL     OW14212   3.899   2.926   6.910
 4438SOL    HW114213   3.922   2.881   6.824
 4438SOL    HW214214   3.976   2.983   6.939
 4439SOL     OW14215   1.315   4.977   3.092
 4439SOL    HW114216   1.335   5.007   2.999
 4439SOL    HW214217   1.376   4.900   3.115
 4440SOL     OW14218   6.299   0.977   0.220
 4440SOL    HW114219   6.326   1.065   0.180
 4440SOL    HW214220   6.227   0.993   0.288
 4441SOL     OW14221   6.296   1.074   3.932
 4441SOL    HW114222   6.371   1.106   3.990
 4441SOL    HW214223   6.259   1.152   3.881
 4442SOL     OW14224   2.146   5.792   2.504
 4442SOL    HW114225   2.064   5.824   2.457
 4442SOL    HW214226   2.178   5.708   2.461
 4443SOL     OW14227   1.826   0.969   1.432
 4443SOL    HW114228   1.851   0.890   1.376
 4443SOL    HW214229   1.878   1.049   1.402
 4444SOL     OW14230   4.896   1.957   3.020
 4444SOL    HW114231   4.866   1.898   2.945
 4444SOL    HW214232   4.965   2.021   2.987
 4445SOL     OW14233   1.170   2.209   6.067
 4445SOL    HW114234   1.108   2.142   6.026
 4445SOL    HW214235   1.248   2.224   6.005
 4446SOL     OW14236   6.746   5.114   4.487
 4446SOL    HW114237   6.651   5.121   4.459
 4446SOL    HW214238   6.755   5.145   4.582
 4447SOL     OW14239   4.830   3.861   5.196
 4447SOL    HW114240   4.841   3.764   5.173
 4447SOL    HW214241   4.788   3.909   5.119
 4448SOL     OW14242   2.838   3.593   6.725
 4448SOL    HW114243   2.907   3.664   6.711
 4448SOL    HW214244   2.769   3.599   6.653
 4449SOL     OW14245   6.960   1.534   5.687
 4449SOL    HW114246   6.909   1.448   5.693
 4449SOL    HW214247   0.026   1.518   5.643
 4450SOL     OW14248   3.857   3.170   3.135
 4450SOL    HW114249   3.941   3.205   3.177
 4450SOL    HW214250   3.877   3.136   3.043
 4451SOL     OW14251   0.945   5.282   1.311
 4451SOL    HW114252   0.869   5.249   1.367
 4451SOL    HW214253   0.927   5.262   1.215
 4452SOL     OW14254   1.146   3.909   6.681
 4452SOL    HW114255   1.151   3.860   6.594
 4452SOL    HW214256   1.110   3.847   6.751
 4453SOL     OW14257   5.413   0.640   0.913
 4453SOL    HW114258   5.398   0.739   0.916
 4453SOL    HW214259   5.499   0.621   0.866
 4454SOL     OW14260   6.183   3.227   1.969
 4454SOL    HW114261   6.096   3.266   2.000
 4454SOL    HW214262   6.248   3.301   1.953
 4455SOL     OW14263   4.972   2.873   2.431
 4455SOL    HW114264   4.911   2.812   2.380
 4455SOL    HW214265   4.991   2.834   2.521
 4456SOL     OW14266   6.998   5.853   2.674
 4456SOL    HW114267   6.904   5.849   2.642
 4456SOL    HW214268   0.032   5.904   2.608
 4457SOL     OW14269   4.986   2.409   6.326
 4457SOL    HW114270   5.045   2.465   6.268
 4457SOL    HW214271   5.039   2.335   6.366
 4458SOL     OW14272   4.442   1.835   1.389
 4458SOL    HW114273   4.382   1.869   1.317
 4458SOL    HW214274   4.390   1.826   1.475
 4459SOL     OW14275   6.175   5.313   5.796
 4459SOL    HW114276   6.119   5.396   5.800
 4459SOL    HW214277   6.121   5.238   5.758
 4460SOL     OW14278   1.919   0.551   0.274
 4460SOL    HW114279   1.927   0.542   0.373
 4460SOL    HW214280   2.000   0.511   0.231
 4461SOL     OW14281   2.059   0.727   3.197
 4461SOL    HW114282   1.978   0.668   3.189
 4461SOL    HW214283   2.133   0.689   3.141
 4462SOL     OW14284   0.292   3.273   1.298
 4462SOL    HW114285   0.200   3.289   1.263
 4462SOL    HW214286   0.310   3.334   1.376
 4463SOL     OW14287   1.006   4.269   6.800
 4463SOL    HW114288   1.055   4.182   6.790
 4463SOL    HW214289   0.971   4.298   6.711
 4464SOL     OW14290   6.701   2.884   0.534
 4464SOL    HW114291   6.651   2.842   0.458
 4464SOL    HW214292   6.798   2.891   0.510
 4465SOL     OW14293   5.897   5.098   1.470
 4465SOL    HW114294   5.968   5.056   1.527
 4465SOL    HW214295   5.933   5.181   1.429
 4466SOL     OW14296   6.850   3.316   3.999
 4466SOL    HW114297   6.780   3.283   4.062
 4466SOL    HW214298   6.940   3.289   4.033
 4467SOL     OW14299   1.228   0.617   4.395
 4467SOL    HW114300   1.174   0.618   4.311
 4467SOL    HW214301   1.185   0.556   4.461
 4468SOL     OW14302   1.088   1.020   0.511
 4468SOL    HW114303   1.026   1.013   0.433
 4468SOL    HW214304   1.120   0.928   0.536
 4469SOL     OW14305   4.647   6.635   0.148
 4469SOL    HW114306   4.710   6.577   0.200
 4469SOL    HW214307   4.655   6.614   0.050
 4470SOL     OW14308   4.764   4.376   1.246
 4470SOL    HW114309   4.802   4.451   1.300
 4470SOL    HW214310   4.664   4.381   1.248
 4471SOL     OW14311   6.064   2.248   1.869
 4471SOL    HW114312   5.993   2.261   1.800
 4471SOL    HW214313   6.025   2.262   1.960
 4472SOL     OW14314   2.349   5.544   1.333
 4472SOL    HW114315   2.259   5.581   1.308
 4472SOL    HW214316   2.418   5.580   1.270
 4473SOL     OW14317   5.798   0.849   0.688
 4473SOL    HW114318   5.816   0.909   0.610
 4473SOL    HW214319   5.875   0.853   0.752
 4474SOL     OW14320   6.666   1.449   5.457
 4474SOL    HW114321   6.638   1.502   5.537
 4474SOL    HW214322   6.732   1.502   5.404
 4475SOL     OW14323   1.460   3.145   0.524
 4475SOL    HW114324   1.518   3.072   0.560
 4475SOL    HW214325   1.395   3.174   0.595
 4476SOL     OW14326   3.713   6.678   2.658
 4476SOL    HW114327   3.692   6.651   2.752
 4476SOL    HW214328   3.699   6.776   2.647
 4477SOL     OW14329   1.754   2.181   0.988
 4477SOL    HW114330   1.804   2.106   1.031
 4477SOL    HW214331   1.715   2.240   1.059
 4478SOL     OW14332   1.041   4.594   1.163
 4478SOL    HW114333   0.967   4.527   1.171
 4478SOL    HW214334   1.129   4.547   1.163
 4479SOL     OW14335   1.281   5.658   6.113
 4479SOL    HW114336   1.188   5.690   6.099
 4479SOL    HW214337   1.342   5.700   6.046
 4480SOL     OW14338   7.015   3.461   3.125
 4480SOL    HW114339   0.051   3.386   3.156
 4480SOL    HW214340   6.929   3.424   3.089
 4481SOL     OW14341   0.993   0.580   4.176
 4481SOL    HW114342   0.922   0.526   4.221
 4481SOL    HW214343   0.951   0.653   4.123
 4482SOL     OW14344   0.479   4.132   3.432
 4482SOL    HW114345   0.502   4.102   3.524
 4482SOL    HW214346   0.483   4.054   3.370
 4483SOL     OW14347   6.207   4.190   1.149
 4483SOL    HW114348   6.189   4.092   1.152
 4483SOL    HW214349   6.252   4.218   1.233
 4484SOL     OW14350   3.073   4.082   6.304
 4484SOL    HW114351   3.103   4.018   6.375
 4484SOL    HW214352   3.046   4.032   6.222
 4485SOL     OW14353   4.432   7.009   5.807
 4485SOL    HW114354   4.395   0.076   5.829
 4485SOL    HW214355   4.465   6.964   5.890
 4486SOL     OW14356   5.986   3.450   4.435
 4486SOL    HW114357   5.939   3.387   4.373
 4486SOL    HW214358   6.080   3.462   4.405
 4487SOL     OW14359   3.395   2.913   6.330
 4487SOL    HW114360   3.296   2.901   6.329
 4487SOL    HW214361   3.417   3.010   6.342
 4488SOL     OW14362   6.851   2.229   6.963
 4488SOL    HW114363   6.831   2.134   6.988
 4488SOL    HW214364   6.813   2.248   6.873
 4489SOL     OW14365   0.240   1.292   3.315
 4489SOL    HW114366   0.147   1.288   3.280
 4489SOL    HW214367   0.282   1.202   3.311
 4490SOL     OW14368   6.866   2.310   3.711
 4490SOL    HW114369   6.882   2.320   3.613
 4490SOL    HW214370   6.778   2.352   3.735
 4491SOL     OW14371   1.970   4.764   2.308
 4491SOL    HW114372   2.011   4.674   2.325
 4491SOL    HW214373   2.007   4.801   2.222
 4492SOL     OW14374   5.628   3.636   5.607
 4492SOL    HW114375   5.543   3.585   5.618
 4492SOL    HW214376   5.668   3.617   5.517
 4493SOL     OW14377   5.870   4.828   3.314
 4493SOL    HW114378   5.952   4.774   3.337
 4493SOL    HW214379   5.814   4.839   3.396
 4494SOL     OW14380   5.267   2.895   1.561
 4494SOL    HW114381   5.216   2.960   1.616
 4494SOL    HW214382   5.358   2.882   1.599
 4495SOL     OW14383   5.544   4.600   2.311
 4495SOL    HW114384   5.537   4.562   2.219
 4495SOL    HW214385   5.482   4.678   2.320
 4496SOL     OW14386   5.797   3.246   6.078
 4496SOL    HW114387   5.858   3.169   6.062
 4496SOL    HW214388   5.826   3.296   6.160
 4497SOL     OW14389   6.686   6.708   0.927
 4497SOL    HW114390   6.734   6.660   0.853
 4497SOL    HW214391   6.617   6.648   0.966
 4498SOL     OW14392   1.333   4.510   5.824
 4498SOL    HW114393   1.423   4.488   5.863
 4498SOL    HW214394   1.333   4.490   5.726
 4499SOL     OW14395   5.885   3.947   0.464
 4499SOL    HW114396   5.932   3.941   0.552
 4499SOL    HW214397   5.795   3.903   0.471
 4500SOL     OW14398   3.388   4.206   1.739
 4500SOL    HW114399   3.408   4.163   1.651
 4500SOL    HW214400   3.361   4.136   1.805
 4501SOL     OW14401   1.672   5.613   4.874
 4501SOL    HW114402   1.699   5.588   4.967
 4501SOL    HW214403   1.616   5.696   4.877
 4502SOL     OW14404   5.464   2.682   0.368
 4502SOL    HW114405   5.375   2.647   0.396
 4502SOL    HW214406   5.452   2.774   0.330
 4503SOL     OW14407   1.019   3.521   2.808
 4503SOL    HW114408   1.050   3.474   2.890
 4503SOL    HW214409   0.926   3.555   2.823
 4504SOL     OW14410   4.113   1.923   4.262
 4504SOL    HW114411   4.073   1.911   4.171
 4504SOL    HW214412   4.213   1.918   4.255
 4505SOL     OW14413   2.313   5.306   0.096
 4505SOL    HW114414   2.328   5.373   0.169
 4505SOL    HW214415   2.342   5.344   0.009
 4506SOL     OW14416   3.415   6.272   5.960
 4506SOL    HW114417   3.479   6.322   6.018
 4506SOL    HW214418   3.453   6.183   5.937
 4507SOL     OW14419   6.421   3.731   2.827
 4507SOL    HW114420   6.475   3.655   2.861
 4507SOL    HW214421   6.410   3.723   2.728
 4508SOL     OW14422   1.902   4.213   1.351
 4508SOL    HW114423   1.832   4.285   1.355
 4508SOL    HW214424   1.902   4.162   1.437
 4509SOL     OW14425   0.894   2.985   3.761
 4509SOL    HW114426   0.907   3.055   3.832
 4509SOL    HW214427   0.805   2.998   3.717
 4510SOL     OW14428   2.843   0.184   6.318
 4510SOL    HW114429   2.868   0.218   6.227
 4510SOL    HW214430   2.841   0.260   6.383
 4511SOL     OW14431   0.492   2.772   6.738
 4511SOL    HW114432   0.480   2.822   6.824
 4511SOL    HW214433   0.539   2.686   6.756
 4512SOL     OW14434   2.264   3.671   0.546
 4512SOL    HW114435   2.338   3.618   0.589
 4512SOL    HW214436   2.304   3.738   0.483
 4513SOL     OW14437   6.117   1.516   2.525
 4513SOL    HW114438   6.129   1.589   2.458
 4513SOL    HW214439   6.152   1.430   2.488
 4514SOL     OW14440   2.099   0.155   4.611
 4514SOL    HW114441   2.153   0.173   4.529
 4514SOL    HW214442   2.049   0.237   4.638
 4515SOL     OW14443   0.065   4.854   0.508
 4515SOL    HW114444   0.163   4.872   0.496
 4515SOL    HW214445   0.016   4.884   0.426
 4516SOL     OW14446   0.583   6.681   3.768
 4516SOL    HW114447   0.523   6.708   3.692
 4516SOL    HW214448   0.538   6.612   3.823
 4517SOL     OW14449   2.914   0.603   0.303
 4517SOL    HW114450   2.820   0.584   0.275
 4517SOL    HW214451   2.917   0.692   0.349
 4518SOL     OW14452   0.961   0.888   3.466
 4518SOL    HW114453   0.930   0.982   3.478
 4518SOL    HW214454   1.006   0.856   3.550
 4519SOL     OW14455   6.802   2.177   4.144
 4519SOL    HW114456   6.829   2.265   4.105
 4519SOL    HW214457   6.828   2.104   4.082
 4520SOL     OW14458   0.019   3.865   2.816
 4520SOL    HW114459   6.979   3.942   2.825
 4520SOL    HW214460   0.015   3.808   2.898
 4521SOL     OW14461   5.286   1.680   6.352
 4521SOL    HW114462   5.245   1.690   6.261
 4521SOL    HW214463   5.218   1.645   6.416
 4522SOL     OW14464   5.471   6.840   3.633
 4522SOL    HW114465   5.446   6.899   3.709
 4522SOL    HW214466   5.389   6.811   3.584
 4523SOL     OW14467   4.884   2.180   5.471
 4523SOL    HW114468   4.797   2.195   5.425
 4523SOL    HW214469   4.879   2.097   5.526
 4524SOL     OW14470   5.640   1.566   5.503
 4524SOL    HW114471   5.553   1.615   5.503
 4524SOL    HW214472   5.634   1.487   5.441
 4525SOL     OW14473   0.158   1.218   4.017
 4525SOL    HW114474   0.114   1.149   4.076
 4525SOL    HW214475   0.226   1.268   4.069
 4526SOL     OW14476   2.698   1.842   1.000
 4526SOL    HW114477   2.662   1.750   0.986
 4526SOL    HW214478   2.664   1.903   0.928
 4527SOL     OW14479   4.710   6.796   3.334
 4527SOL    HW114480   4.643   6.828   3.401
 4527SOL    HW214481   4.795   6.846   3.345
 4528SOL     OW14482   4.450   0.459   6.390
 4528SOL    HW114483   4.525   0.525   6.399
 4528SOL    HW214484   4.419   0.458   6.294
 4529SOL     OW14485   3.017   0.205   4.290
 4529SOL    HW114486   2.955   0.245   4.358
 4529SOL    HW214487   3.072   0.133   4.333
 4530SOL     OW14488   6.527   2.369   3.985
 4530SOL    HW114489   6.561   2.276   3.967
 4530SOL    HW214490   6.431   2.364   4.014
 4531SOL     OW14491   0.228   4.002   3.922
 4531SOL    HW114492   0.155   4.021   3.856
 4531SOL    HW214493   0.304   3.956   3.876
 4532SOL     OW14494   0.367   2.329   0.461
 4532SOL    HW114495   0.424   2.263   0.412
 4532SOL    HW214496   0.369   2.417   0.412
 4533SOL     OW14497   3.525   6.207   2.259
 4533SOL    HW114498   3.588   6.250   2.194
 4533SOL    HW214499   3.576   6.181   2.341
 4534SOL     OW14500   6.584   4.243   6.373
 4534SOL    HW114501   6.578   4.220   6.470
 4534SOL    HW214502   6.595   4.342   6.362
 4535SOL     OW14503   4.624   2.077   2.650
 4535SOL    HW114504   4.621   2.111   2.556
 4535SOL    HW214505   4.715   2.040   2.669
 4536SOL     OW14506   6.709   0.092   3.674
 4536SOL    HW114507   6.761   0.010   3.650
 4536SOL    HW214508   6.766   0.153   3.728
 4537SOL     OW14509   5.346   3.074   5.436
 4537SOL    HW114510   5.283   3.029   5.372
 4537SOL    HW214511   5.295   3.105   5.516
 4538SOL     OW14512   3.632   2.157   1.350
 4538SOL    HW114513   3.675   2.173   1.439
 4538SOL    HW214514   3.669   2.221   1.283
 4539SOL     OW14515   2.584   3.749   1.130
 4539SOL    HW114516   2.663   3.699   1.168
 4539SOL    HW214517   2.602   3.771   1.034
 4540SOL     OW14518   3.901   3.036   4.360
 4540SOL    HW114519   3.970   3.104   4.386
 4540SOL    HW214520   3.839   3.021   4.436
 4541SOL     OW14521   6.197   0.950   1.476
 4541SOL    HW114522   6.224   0.893   1.554
 4541SOL    HW214523   6.178   1.043   1.508
 4542SOL     OW14524   5.475   6.566   3.466
 4542SOL    HW114525   5.506   6.560   3.561
 4542SOL    HW214526   5.498   6.482   3.417
 4543SOL     OW14527   5.106   2.511   2.518
 4543SOL    HW114528   5.157   2.427   2.535
 4543SOL    HW214529   5.112   2.535   2.421
 4544SOL     OW14530   5.460   4.641   6.916
 4544SOL    HW114531   5.500   4.549   6.906
 4544SOL    HW214532   5.531   4.706   6.942
 4545SOL     OW14533   4.582   3.472   0.798
 4545SOL    HW114534   4.572   3.424   0.711
 4545SOL    HW214535   4.596   3.569   0.781
 4546SOL     OW14536   0.935   5.982   0.326
 4546SOL    HW114537   0.889   5.964   0.413
 4546SOL    HW214538   1.012   5.919   0.315
 4547SOL     OW14539   4.437   1.311   2.498
 4547SOL    HW114540   4.397   1.242   2.557
 4547SOL    HW214541   4.365   1.367   2.457
 4548SOL     OW14542   0.859   3.222   4.590
 4548SOL    HW114543   0.777   3.277   4.577
 4548SOL    HW214544   0.914   3.260   4.664
 4549SOL     OW14545   5.930   1.231   2.373
 4549SOL    HW114546   5.891   1.139   2.372
 4549SOL    HW214547   5.881   1.288   2.439
 4550SOL     OW14548   2.089   5.352   5.348
 4550SOL    HW114549   2.134   5.426   5.297
 4550SOL    HW214550   2.037   5.295   5.285
 4551SOL     OW14551   6.235   3.480   0.788
 4551SOL    HW114552   6.209   3.529   0.871
 4551SOL    HW214553   6.237   3.382   0.806
 4552SOL     OW14554   0.021   3.673   5.021
 4552SOL    HW114555   6.965   3.671   4.959
 4552SOL    HW214556   0.028   3.763   5.063
 4553SOL     OW14557   5.402   5.374   6.858
 4553SOL    HW114558   5.427   5.471   6.857
 4553SOL    HW214559   5.362   5.349   6.770
 4554SOL     OW14560   6.746   6.229   4.424
 4554SOL    HW114561   6.807   6.175   4.366
 4554SOL    HW214562   6.673   6.267   4.368
 4555SOL     OW14563   3.757   2.907   0.183
 4555SOL    HW114564   3.833   2.944   0.234
 4555SOL    HW214565   3.699   2.982   0.149
 4556SOL     OW14566   4.043   0.404   5.040
 4556SOL    HW114567   4.114   0.354   5.090
 4556SOL    HW214568   3.985   0.339   4.991
 4557SOL     OW14569   5.265   1.054   4.075
 4557SOL    HW114570   5.230   1.122   4.139
 4557SOL    HW214571   5.365   1.060   4.071
 4558SOL     OW14572   0.352   3.575   6.766
 4558SOL    HW114573   0.269   3.611   6.810
 4558SOL    HW214574   0.427   3.574   6.832
 4559SOL     OW14575   1.781   6.574   1.552
 4559SOL    HW114576   1.683   6.556   1.566
 4559SOL    HW214577   1.835   6.512   1.609
 4560SOL     OW14578   5.839   2.507   3.446
 4560SOL    HW114579   5.803   2.438   3.384
 4560SOL    HW214580   5.771   2.526   3.517
 4561SOL     OW14581   2.443   6.098   6.870
 4561SOL    HW114582   2.430   6.168   6.940
 4561SOL    HW214583   2.472   6.141   6.785
 4562SOL     OW14584   3.238   4.101   5.765
 4562SOL    HW114585   3.191   4.069   5.683
 4562SOL    HW214586   3.173   4.110   5.840
 4563SOL     OW14587   5.585   3.078   6.503
 4563SOL    HW114588   5.488   3.080   6.477
 4563SOL    HW214589   5.605   2.993   6.552
 4564SOL     OW14590   6.607   5.163   6.994
 4564SOL    HW114591   6.594   5.163   0.071
 4564SOL    HW214592   6.663   5.084   6.968
 4565SOL     OW14593   3.639   0.781   4.275
 4565SOL    HW114594   3.658   0.875   4.303
 4565SOL    HW214595   3.614   0.727   4.355
 4566SOL     OW14596   1.833   0.527   1.080
 4566SOL    HW114597   1.870   0.434   1.083
 4566SOL    HW214598   1.797   0.551   1.170
 4567SOL     OW14599   5.604   2.562   0.675
 4567SOL    HW114600   5.524   2.612   0.642
 4567SOL    HW214601   5.624   2.589   0.769
 4568SOL     OW14602   4.484   4.550   4.049
 4568SOL    HW114603   4.415   4.604   4.098
 4568SOL    HW214604   4.558   4.525   4.111
 4569SOL     OW14605   2.058   1.830   3.807
 4569SOL    HW114606   2.152   1.861   3.822
 4569SOL    HW214607   1.996   1.909   3.812
 4570SOL     OW14608   5.440   5.769   4.992
 4570SOL    HW114609   5.406   5.847   5.045
 4570SOL    HW214610   5.401   5.773   4.899
 4571SOL     OW14611   3.700   2.964   3.998
 4571SOL    HW114612   3.791   3.006   3.998
 4571SOL    HW214613   3.648   2.998   4.076
 4572SOL     OW14614   2.846   5.585   1.018
 4572SOL    HW114615   2.827   5.548   1.109
 4572SOL    HW214616   2.799   5.672   1.007
 4573SOL     OW14617   4.938   6.950   1.620
 4573SOL    HW114618   4.988   6.893   1.554
 4573SOL    HW214619   4.851   6.979   1.580
 4574SOL     OW14620   7.006   4.923   2.130
 4574SOL    HW114621   0.075   4.959   2.113
 4574SOL    HW214622   6.995   4.904   2.227
 4575SOL     OW14623   6.577   5.708   1.640
 4575SOL    HW114624   6.485   5.671   1.652
 4575SOL    HW214625   6.635   5.681   1.717
 4576SOL     OW14626   3.415   6.320   4.196
 4576SOL    HW114627   3.493   6.358   4.146
 4576SOL    HW214628   3.357   6.395   4.228
 4577SOL     OW14629   2.473   4.436   3.602
 4577SOL    HW114630   2.414   4.380   3.544
 4577SOL    HW214631   2.431   4.447   3.692
 4578SOL     OW14632   5.907   6.359   3.563
 4578SOL    HW114633   5.937   6.381   3.656
 4578SOL    HW214634   5.920   6.439   3.504
 4579SOL     OW14635   4.318   1.850   3.217
 4579SOL    HW114636   4.295   1.920   3.285
 4579SOL    HW214637   4.287   1.880   3.127
 4580SOL     OW14638   0.560   4.961   0.148
 4580SOL    HW114639   0.614   5.001   0.222
 4580SOL    HW214640   0.582   4.863   0.140
 4581SOL     OW14641   3.423   5.694   4.743
 4581SOL    HW114642   3.392   5.775   4.792
 4581SOL    HW214643   3.389   5.612   4.790
 4582SOL     OW14644   4.964   6.427   3.206
 4582SOL    HW114645   5.032   6.422   3.133
 4582SOL    HW214646   4.891   6.490   3.181
 4583SOL     OW14647   3.608   6.690   5.319
 4583SOL    HW114648   3.650   6.630   5.250
 4583SOL    HW214649   3.542   6.637   5.372
 4584SOL     OW14650   6.701   5.224   5.729
 4584SOL    HW114651   6.613   5.243   5.685
 4584SOL    HW214652   6.702   5.129   5.761
 4585SOL     OW14653   2.973   6.571   2.222
 4585SOL    HW114654   2.973   6.664   2.260
 4585SOL    HW214655   3.003   6.507   2.293
 4586SOL     OW14656   2.070   6.155   1.560
 4586SOL    HW114657   2.002   6.112   1.620
 4586SOL    HW214658   2.024   6.198   1.483
 4587SOL     OW14659   3.311   5.023   1.033
 4587SOL    HW114660   3.373   4.980   1.099
 4587SOL    HW214661   3.315   4.973   0.946
 4588SOL     OW14662   3.310   4.154   4.763
 4588SOL    HW114663   3.374   4.160   4.686
 4588SOL    HW214664   3.274   4.245   4.783
 4589SOL     OW14665   2.038   2.170   3.257
 4589SOL    HW114666   1.972   2.206   3.323
 4589SOL    HW214667   2.102   2.243   3.232
 4590SOL     OW14668   4.378   6.219   2.772
 4590SOL    HW114669   4.380   6.122   2.799
 4590SOL    HW214670   4.394   6.276   2.852
 4591SOL     OW14671   4.567   5.995   4.723
 4591SOL    HW114672   4.513   6.060   4.776
 4591SOL    HW214673   4.529   5.903   4.732
 4592SOL     OW14674   3.293   2.287   5.629
 4592SOL    HW114675   3.386   2.271   5.595
 4592SOL    HW214676   3.228   2.278   5.553
 4593SOL     OW14677   4.761   5.444   1.705
 4593SOL    HW114678   4.741   5.532   1.748
 4593SOL    HW214679   4.789   5.378   1.775
 4594SOL     OW14680   4.037   2.165   2.292
 4594SOL    HW114681   3.947   2.131   2.266
 4594SOL    HW214682   4.096   2.169   2.211
 4595SOL     OW14683   4.351   3.075   5.630
 4595SOL    HW114684   4.289   3.121   5.694
 4595SOL    HW214685   4.355   3.127   5.544
 4596SOL     OW14686   4.495   0.807   2.458
 4596SOL    HW114687   4.404   0.848   2.449
 4596SOL    HW214688   4.530   0.783   2.367
 4597SOL     OW14689   6.864   3.642   6.479
 4597SOL    HW114690   6.875   3.720   6.418
 4597SOL    HW214691   6.828   3.564   6.428
 4598SOL     OW14692   2.691   3.958   6.598
 4598SOL    HW114693   2.623   3.887   6.617
 4598SOL    HW214694   2.648   4.033   6.547
 4599SOL     OW14695   3.268   4.657   0.682
 4599SOL    HW114696   3.199   4.690   0.617
 4599SOL    HW214697   3.317   4.580   0.643
 4600SOL     OW14698   2.435   3.680   0.818
 4600SOL    HW114699   2.370   3.628   0.873
 4600SOL    HW214700   2.476   3.752   0.874
 4601SOL     OW14701   2.134   5.266   3.095
 4601SOL    HW114702   2.197   5.340   3.119
 4601SOL    HW214703   2.139   5.194   3.165
 4602SOL     OW14704   1.478   0.173   1.762
 4602SOL    HW114705   1.393   0.189   1.712
 4602SOL    HW214706   1.511   0.259   1.801
 4603SOL     OW14707   2.946   1.754   1.424
 4603SOL    HW114708   2.861   1.704   1.409
 4603SOL    HW214709   3.022   1.688   1.428
 4604SOL     OW14710   1.239   6.905   3.225
 4604SOL    HW114711   1.216   6.982   3.166
 4604SOL    HW214712   1.290   6.939   3.305
 4605SOL     OW14713   5.309   6.729   5.733
 4605SOL    HW114714   5.325   6.828   5.741
 4605SOL    HW214715   5.223   6.713   5.685
 4606SOL     OW14716   5.967   6.282   4.543
 4606SOL    HW114717   6.008   6.245   4.460
 4606SOL    HW214718   5.870   6.300   4.527
 4607SOL     OW14719   3.248   3.173   0.811
 4607SOL    HW114720   3.156   3.135   0.811
 4607SOL    HW214721   3.307   3.116   0.869
 4608SOL     OW14722   1.670   3.204   5.905
 4608SOL    HW114723   1.677   3.149   5.988
 4608SOL    HW214724   1.752   3.191   5.849
 4609SOL     OW14725   3.314   0.086   0.446
 4609SOL    HW114726   3.266   0.079   0.359
 4609SOL    HW214727   3.412   0.100   0.429
 4610SOL     OW14728   6.321   3.791   0.483
 4610SOL    HW114729   6.405   3.825   0.441
 4610SOL    HW214730   6.332   3.694   0.505
 4611SOL     OW14731   1.744   4.881   6.463
 4611SOL    HW114732   1.764   4.979   6.458
 4611SOL    HW214733   1.830   4.830   6.459
 4612SOL     OW14734   1.480   0.653   6.482
 4612SOL    HW114735   1.571   0.660   6.523
 4612SOL    HW214736   1.422   0.595   6.540
 4613SOL     OW14737   3.948   5.082   1.432
 4613SOL    HW114738   3.947   5.048   1.526
 4613SOL    HW214739   4.039   5.069   1.393
 4614SOL     OW14740   1.990   4.388   0.630
 4614SOL    HW114741   1.998   4.417   0.725
 4614SOL    HW214742   2.060   4.319   0.610
 4615SOL     OW14743   6.121   3.014   6.583
 4615SOL    HW114744   6.183   3.021   6.661
 4615SOL    HW214745   6.034   2.974   6.612
 4616SOL     OW14746   5.576   0.864   6.484
 4616SOL    HW114747   5.663   0.859   6.436
 4616SOL    HW214748   5.501   0.868   6.417
 4617SOL     OW14749   0.460   4.300   1.780
 4617SOL    HW114750   0.498   4.229   1.838
 4617SOL    HW214751   0.380   4.340   1.824
 4618SOL     OW14752   1.292   3.038   6.233
 4618SOL    HW114753   1.323   3.132   6.220
 4618SOL    HW214754   1.302   2.988   6.147
 4619SOL     OW14755   3.729   0.911   3.858
 4619SOL    HW114756   3.696   0.834   3.913
 4619SOL    HW214757   3.824   0.895   3.833
 4620SOL     OW14758   1.868   6.049   0.109
 4620SOL    HW114759   1.923   6.126   0.143
 4620SOL    HW214760   1.929   5.977   0.076
 4621SOL     OW14761   6.651   0.866   6.775
 4621SOL    HW114762   6.574   0.917   6.814
 4621SOL    HW214763   6.625   0.770   6.767
 4622SOL     OW14764   1.693   4.616   0.428
 4622SOL    HW114765   1.717   4.624   0.332
 4622SOL    HW214766   1.769   4.650   0.484
 4623SOL     OW14767   5.949   3.270   4.007
 4623SOL    HW114768   5.898   3.355   4.024
 4623SOL    HW214769   6.044   3.293   3.985
 4624SOL     OW14770   4.567   6.646   5.565
 4624SOL    HW114771   4.661   6.678   5.559
 4624SOL    HW214772   4.543   6.632   5.661
 4625SOL     OW14773   1.152   4.133   6.211
 4625SOL    HW114774   1.225   4.106   6.148
 4625SOL    HW214775   1.068   4.084   6.187
 4626SOL     OW14776   6.622   4.401   2.189
 4626SOL    HW114777   6.557   4.358   2.252
 4626SOL    HW214778   6.641   4.494   2.220
 4627SOL     OW14779   2.090   6.842   4.299
 4627SOL    HW114780   2.150   6.786   4.242
 4627SOL    HW214781   2.019   6.884   4.242
 4628SOL     OW14782   6.580   2.266   1.851
 4628SOL    HW114783   6.603   2.289   1.945
 4628SOL    HW214784   6.665   2.255   1.798
 4629SOL     OW14785   4.518   5.236   3.724
 4629SOL    HW114786   4.427   5.275   3.713
 4629SOL    HW214787   4.521   5.182   3.808
 4630SOL     OW14788   2.769   6.087   2.774
 4630SOL    HW114789   2.833   6.058   2.845
 4630SOL    HW214790   2.774   6.186   2.762
 4631SOL     OW14791   1.722   0.753   2.484
 4631SOL    HW114792   1.767   0.764   2.395
 4631SOL    HW214793   1.791   0.735   2.554
 4632SOL     OW14794   5.661   6.373   4.437
 4632SOL    HW114795   5.637   6.295   4.494
 4632SOL    HW214796   5.672   6.344   4.342
 4633SOL     OW14797   4.989   3.064   6.242
 4633SOL    HW114798   4.898   3.046   6.278
 4633SOL    HW214799   5.002   3.163   6.231
 4634SOL     OW14800   2.864   3.573   0.292
 4634SOL    HW114801   2.887   3.491   0.344
 4634SOL    HW214802   2.774   3.607   0.320
 4635SOL     OW14803   4.863   3.244   1.626
 4635SOL    HW114804   4.807   3.171   1.587
 4635SOL    HW214805   4.904   3.298   1.552
 4636SOL     OW14806   0.884   5.037   2.079
 4636SOL    HW114807   0.921   5.048   1.987
 4636SOL    HW214808   0.952   5.065   2.146
 4637SOL     OW14809   0.710   0.890   5.344
 4637SOL    HW114810   0.804   0.870   5.372
 4637SOL    HW214811   0.660   0.805   5.330
 4638SOL     OW14812   4.354   4.972   5.725
 4638SOL    HW114813   4.319   4.946   5.815
 4638SOL    HW214814   4.279   4.970   5.659
 4639SOL     OW14815   6.613   2.276   5.333
 4639SOL    HW114816   6.588   2.210   5.262
 4639SOL    HW214817   6.555   2.357   5.324
 4640SOL     OW14818   6.962   5.519   3.004
 4640SOL    HW114819   6.901   5.549   3.077
 4640SOL    HW214820   0.002   5.449   3.040
 4641SOL     OW14821   2.411   3.725   5.312
 4641SOL    HW114822   2.379   3.762   5.399
 4641SOL    HW214823   2.444   3.799   5.254
 4642SOL     OW14824   5.780   5.404   4.864
 4642SOL    HW114825   5.779   5.465   4.785
 4642SOL    HW214826   5.691   5.359   4.872
 4643SOL     OW14827   4.601   3.898   1.248
 4643SOL    HW114828   4.662   3.830   1.208
 4643SOL    HW214829   4.536   3.930   1.179
 4644SOL     OW14830   3.435   4.871   5.570
 4644SOL    HW114831   3.452   4.866   5.472
 4644SOL    HW214832   3.337   4.880   5.587
 4645SOL     OW14833   1.760   6.372   4.737
 4645SOL    HW114834   1.813   6.360   4.821
 4645SOL    HW214835   1.812   6.336   4.659
 4646SOL     OW14836   3.577   1.428   1.173
 4646SOL    HW114837   3.650   1.494   1.189
 4646SOL    HW214838   3.515   1.464   1.103
 4647SOL     OW14839   6.371   0.659   5.394
 4647SOL    HW114840   6.471   0.659   5.388
 4647SOL    HW214841   6.342   0.712   5.473
 4648SOL     OW14842   2.423   6.425   3.204
 4648SOL    HW114843   2.434   6.502   3.140
 4648SOL    HW214844   2.341   6.440   3.259
 4649SOL     OW14845   5.892   5.245   5.644
 4649SOL    HW114846   5.874   5.341   5.625
 4649SOL    HW214847   5.950   5.207   5.572
 4650SOL     OW14848   6.393   4.882   1.661
 4650SOL    HW114849   6.339   4.876   1.744
 4650SOL    HW214850   6.355   4.953   1.601
 4651SOL     OW14851   6.056   1.660   1.519
 4651SOL    HW114852   6.128   1.727   1.502
 4651SOL    HW214853   6.030   1.662   1.616
 4652SOL     OW14854   0.306   6.459   5.822
 4652SOL    HW114855   0.274   6.547   5.786
 4652SOL    HW214856   0.241   6.387   5.796
 4653SOL     OW14857   1.706   4.683   0.147
 4653SOL    HW114858   1.728   4.613   0.079
 4653SOL    HW214859   1.618   4.725   0.124
 4654SOL     OW14860   1.757   1.789   0.800
 4654SOL    HW114861   1.724   1.878   0.770
 4654SOL    HW214862   1.800   1.798   0.890
 4655SOL     OW14863   0.522   5.223   4.430
 4655SOL    HW114864   0.435   5.189   4.466
 4655SOL    HW214865   0.505   5.271   4.343
 4656SOL     OW14866   2.812   0.473   2.859
 4656SOL    HW114867   2.764   0.457   2.946
 4656SOL    HW214868   2.798   0.568   2.830
 4657SOL     OW14869   6.699   0.983   5.575
 4657SOL    HW114870   6.620   0.987   5.636
 4657SOL    HW214871   6.668   0.970   5.481
 4658SOL     OW14872   5.204   0.106   3.995
 4658SOL    HW114873   5.177   0.134   4.087
 4658SOL    HW214874   5.122   0.086   3.941
 4659SOL     OW14875   2.124   3.382   4.009
 4659SOL    HW114876   2.041   3.437   4.013
 4659SOL    HW214877   2.111   3.297   4.060
 4660SOL     OW14878   6.553   1.195   4.922
 4660SOL    HW114879   6.639   1.213   4.874
 4660SOL    HW214880   6.480   1.182   4.856
 4661SOL     OW14881   3.196   3.255   3.892
 4661SOL    HW114882   3.183   3.197   3.972
 4661SOL    HW214883   3.246   3.205   3.821
 4662SOL     OW14884   6.213   6.507   4.819
 4662SOL    HW114885   6.258   6.585   4.775
 4662SOL    HW214886   6.235   6.507   4.916
 4663SOL     OW14887   0.823   1.828   2.455
 4663SOL    HW114888   0.802   1.838   2.553
 4663SOL    HW214889   0.900   1.888   2.432
 4664SOL     OW14890   3.283   4.934   0.152
 4664SOL    HW114891   3.203   4.900   0.202
 4664SOL    HW214892   3.354   4.864   0.151
 4665SOL     OW14893   6.015   0.690   6.198
 4665SOL    HW114894   5.947   0.661   6.130
 4665SOL    HW214895   6.001   0.640   6.283
 4666SOL     OW14896   1.761   1.101   0.710
 4666SOL    HW114897   1.835   1.153   0.667
 4666SOL    HW214898   1.767   1.006   0.682
 4667SOL     OW14899   0.286   6.073   4.075
 4667SOL    HW114900   0.386   6.065   4.085
 4667SOL    HW214901   0.258   6.030   3.989
 4668SOL     OW14902   5.602   1.216   5.132
 4668SOL    HW114903   5.663   1.247   5.059
 4668SOL    HW214904   5.640   1.134   5.175
 4669SOL     OW14905   2.053   2.122   2.269
 4669SOL    HW114906   2.126   2.185   2.298
 4669SOL    HW214907   2.059   2.107   2.171
 4670SOL     OW14908   2.572   1.867   4.313
 4670SOL    HW114909   2.553   1.964   4.298
 4670SOL    HW214910   2.639   1.836   4.246
 4671SOL     OW14911   5.970   2.173   2.350
 4671SOL    HW114912   6.040   2.119   2.397
 4671SOL    HW214913   5.907   2.212   2.417
 4672SOL     OW14914   2.968   2.146   5.091
 4672SOL    HW114915   2.911   2.173   5.013
 4672SOL    HW214916   3.055   2.195   5.087
 4673SOL     OW14917   5.348   0.515   2.341
 4673SOL    HW114918   5.340   0.426   2.296
 4673SOL    HW214919   5.393   0.580   2.279
 4674SOL     OW14920   4.405   6.717   5.373
 4674SOL    HW114921   4.491   6.693   5.417
 4674SOL    HW214922   4.350   6.773   5.435
 4675SOL     OW14923   0.712   4.299   5.788
 4675SOL    HW114924   0.617   4.297   5.820
 4675SOL    HW214925   0.767   4.354   5.851
 4676SOL     OW14926   1.378   4.506   3.734
 4676SOL    HW114927   1.425   4.595   3.726
 4676SOL    HW214928   1.384   4.458   3.647
 4677SOL     OW14929   1.205   3.381   0.664
 4677SOL    HW114930   1.202   3.411   0.759
 4677SOL    HW214931   1.269   3.438   0.613
 4678SOL     OW14932   1.298   2.308   1.095
 4678SOL    HW114933   1.211   2.258   1.090
 4678SOL    HW214934   1.302   2.358   1.182
 4679SOL     OW14935   4.312   0.376   2.103
 4679SOL    HW114936   4.275   0.367   2.196
 4679SOL    HW214937   4.377   0.302   2.087
 4680SOL     OW14938   3.089   1.128   6.954
 4680SOL    HW114939   3.158   1.110   0.002
 4680SOL    HW214940   3.120   1.090   6.867
 4681SOL     OW14941   5.273   5.440   2.077
 4681SOL    HW114942   5.288   5.342   2.091
 4681SOL    HW214943   5.215   5.454   1.997
 4682SOL     OW14944   3.537   3.150   6.318
 4682SOL    HW114945   3.571   3.159   6.225
 4682SOL    HW214946   3.495   3.236   6.346
 4683SOL     OW14947   6.792   4.057   4.107
 4683SOL    HW114948   6.843   3.980   4.146
 4683SOL    HW214949   6.848   4.140   4.110
 4684SOL     OW14950   5.216   0.553   5.541
 4684SOL    HW114951   5.257   0.527   5.454
 4684SOL    HW214952   5.199   0.470   5.595
 4685SOL     OW14953   3.075   3.864   4.272
 4685SOL    HW114954   3.023   3.834   4.352
 4685SOL    HW214955   3.027   3.836   4.189
 4686SOL     OW14956   1.499   6.899   6.328
 4686SOL    HW114957   1.498   6.908   6.428
 4686SOL    HW214958   1.465   6.983   6.287
 4687SOL     OW14959   1.120   0.167   2.273
 4687SOL    HW114960   1.041   0.160   2.213
 4687SOL    HW214961   1.092   0.157   2.368
 4688SOL     OW14962   5.112   2.741   4.701
 4688SOL    HW114963   5.078   2.693   4.620
 4688SOL    HW214964   5.173   2.815   4.673
 4689SOL     OW14965   6.963   0.968   1.077
 4689SOL    HW114966   0.035   0.999   1.090
 4689SOL    HW214967   6.963   0.885   1.022
 4690SOL     OW14968   3.578   2.442   1.540
 4690SOL    HW114969   3.655   2.490   1.583
 4690SOL    HW214970   3.562   2.356   1.589
 4691SOL     OW14971   6.375   3.031   2.076
 4691SOL    HW114972   6.282   3.068   2.084
 4691SOL    HW214973   6.441   3.105   2.080
 4692SOL     OW14974   6.065   2.784   3.020
 4692SOL    HW114975   6.139   2.826   2.967
 4692SOL    HW214976   5.978   2.801   2.976
 4693SOL     OW14977   6.816   0.394   4.028
 4693SOL    HW114978   6.882   0.319   4.037
 4693SOL    HW214979   6.735   0.375   4.084
 4694SOL     OW14980   2.108   6.772   5.649
 4694SOL    HW114981   2.093   6.691   5.705
 4694SOL    HW214982   2.206   6.787   5.635
 4695SOL     OW14983   2.134   4.821   2.095
 4695SOL    HW114984   2.137   4.908   2.047
 4695SOL    HW214985   2.206   4.761   2.060
 4696SOL     OW14986   2.174   6.107   6.177
 4696SOL    HW114987   2.111   6.034   6.147
 4696SOL    HW214988   2.167   6.184   6.113
 4697SOL     OW14989   4.563   5.766   1.644
 4697SOL    HW114990   4.612   5.852   1.626
 4697SOL    HW214991   4.465   5.784   1.642
 4698SOL     OW14992   5.540   1.720   4.586
 4698SOL    HW114993   5.446   1.724   4.620
 4698SOL    HW214994   5.540   1.694   4.489
 4699SOL     OW14995   0.708   1.469   2.851
 4699SOL    HW114996   0.804   1.461   2.824
 4699SOL    HW214997   0.650   1.449   2.772
 4700SOL     OW14998   6.669   2.011   3.652
 4700SOL    HW114999   6.760   2.046   3.625
 4700SOL    HW215000   6.598   2.067   3.609
 4701SOL     OW15001   2.750   2.655   1.676
 4701SOL    HW115002   2.812   2.637   1.599
 4701SOL    HW215003   2.730   2.753   1.679
 4702SOL     OW15004   6.233   4.905   1.399
 4702SOL    HW115005   6.196   4.873   1.487
 4702SOL    HW215006   6.189   4.991   1.374
 4703SOL     OW15007   6.859   4.929   4.331
 4703SOL    HW115008   6.873   4.849   4.390
 4703SOL    HW215009   6.819   5.003   4.385
 4704SOL     OW15010   1.465   5.067   4.494
 4704SOL    HW115011   1.451   5.113   4.407
 4704SOL    HW215012   1.541   5.002   4.487
 4705SOL     OW15013   2.958   2.299   1.275
 4705SOL    HW115014   2.996   2.311   1.183
 4705SOL    HW215015   2.964   2.203   1.301
 4706SOL     OW15016   1.936   1.758   1.219
 4706SOL    HW115017   1.950   1.668   1.178
 4706SOL    HW215018   1.850   1.758   1.270
 4707SOL     OW15019   1.822   5.548   2.064
 4707SOL    HW115020   1.777   5.591   2.142
 4707SOL    HW215021   1.783   5.583   1.979
 4708SOL     OW15022   2.140   2.867   6.769
 4708SOL    HW115023   2.136   2.813   6.853
 4708SOL    HW215024   2.071   2.940   6.774
 4709SOL     OW15025   6.189   3.356   5.006
 4709SOL    HW115026   6.217   3.335   4.912
 4709SOL    HW215027   6.123   3.431   5.005
 4710SOL     OW15028   6.210   4.936   5.498
 4710SOL    HW115029   6.266   4.884   5.563
 4710SOL    HW215030   6.178   4.874   5.425
 4711SOL     OW15031   4.677   4.244   2.735
 4711SOL    HW115032   4.750   4.298   2.776
 4711SOL    HW215033   4.696   4.147   2.750
 4712SOL     OW15034   4.324   4.874   5.984
 4712SOL    HW115035   4.331   4.776   6.000
 4712SOL    HW215036   4.388   4.922   6.043
 4713SOL     OW15037   5.615   4.708   1.577
 4713SOL    HW115038   5.598   4.722   1.479
 4713SOL    HW215039   5.655   4.790   1.616
 4714SOL     OW15040   4.382   2.213   5.608
 4714SOL    HW115041   4.347   2.306   5.618
 4714SOL    HW215042   4.329   2.151   5.665
 4715SOL     OW15043   0.115   1.223   1.673
 4715SOL    HW115044   0.017   1.211   1.689
 4715SOL    HW215045   0.136   1.201   1.578
 4716SOL     OW15046   3.824   4.352   5.308
 4716SOL    HW115047   3.859   4.355   5.401
 4716SOL    HW215048   3.808   4.256   5.282
 4717SOL     OW15049   1.783   4.722   6.189
 4717SOL    HW115050   1.838   4.754   6.267
 4717SOL    HW215051   1.694   4.769   6.190
 4718SOL     OW15052   4.895   3.455   2.663
 4718SOL    HW115053   4.900   3.552   2.640
 4718SOL    HW215054   4.929   3.401   2.586
 4719SOL     OW15055   5.773   3.867   3.928
 4719SOL    HW115056   5.693   3.878   3.988
 4719SOL    HW215057   5.776   3.943   3.863
 4720SOL     OW15058   0.959   1.727   6.137
 4720SOL    HW115059   1.006   1.799   6.085
 4720SOL    HW215060   0.862   1.749   6.145
 4721SOL     OW15061   0.363   2.842   2.994
 4721SOL    HW115062   0.293   2.911   2.980
 4721SOL    HW215063   0.359   2.774   2.920
 4722SOL     OW15064   1.676   5.078   5.811
 4722SOL    HW115065   1.644   5.113   5.723
 4722SOL    HW215066   1.769   5.111   5.828
 4723SOL     OW15067   3.188   4.463   6.077
 4723SOL    HW115068   3.220   4.527   6.007
 4723SOL    HW215069   3.247   4.382   6.077
 4724SOL     OW15070   0.416   0.381   4.352
 4724SOL    HW115071   0.325   0.346   4.328
 4724SOL    HW215072   0.473   0.306   4.384
 4725SOL     OW15073   5.603   5.444   1.480
 4725SOL    HW115074   5.611   5.355   1.526
 4725SOL    HW215075   5.570   5.512   1.546
 4726SOL     OW15076   1.920   3.202   5.796
 4726SOL    HW115077   1.919   3.106   5.767
 4726SOL    HW215078   1.964   3.257   5.725
 4727SOL     OW15079   6.152   5.220   1.980
 4727SOL    HW115080   6.122   5.206   2.074
 4727SOL    HW215081   6.251   5.204   1.974
 4728SOL     OW15082   4.189   0.917   3.437
 4728SOL    HW115083   4.111   0.953   3.385
 4728SOL    HW215084   4.205   0.975   3.517
 4729SOL     OW15085   0.408   1.424   3.085
 4729SOL    HW115086   0.483   1.357   3.082
 4729SOL    HW215087   0.337   1.392   3.147
 4730SOL     OW15088   2.999   0.927   3.458
 4730SOL    HW115089   2.966   0.906   3.366
 4730SOL    HW215090   3.035   0.843   3.500
 4731SOL     OW15091   3.768   6.815   2.330
 4731SOL    HW115092   3.706   6.888   2.359
 4731SOL    HW215093   3.782   6.821   2.231
 4732SOL     OW15094   0.261   4.951   4.299
 4732SOL    HW115095   0.175   4.963   4.249
 4732SOL    HW215096   0.329   4.910   4.239
 4733SOL     OW15097   2.163   3.871   3.336
 4733SOL    HW115098   2.179   3.794   3.274
 4733SOL    HW215099   2.156   3.838   3.430
 4734SOL     OW15100   4.509   4.446   6.488
 4734SOL    HW115101   4.553   4.359   6.511
 4734SOL    HW215102   4.428   4.428   6.432
 4735SOL     OW15103   0.400   0.928   5.447
 4735SOL    HW115104   0.476   0.991   5.462
 4735SOL    HW215105   0.419   0.870   5.367
 4736SOL     OW15106   6.159   0.132   4.657
 4736SOL    HW115107   6.087   0.201   4.666
 4736SOL    HW215108   6.242   0.175   4.622
 4737SOL     OW15109   1.985   5.255   0.128
 4737SOL    HW115110   1.996   5.346   0.088
 4737SOL    HW215111   2.000   5.260   0.227
 4738SOL     OW15112   0.048   6.132   3.515
 4738SOL    HW115113   6.986   6.119   3.463
 4738SOL    HW215114   0.063   6.053   3.574
 4739SOL     OW15115   5.810   3.579   3.103
 4739SOL    HW115116   5.757   3.496   3.087
 4739SOL    HW215117   5.750   3.652   3.135
 4740SOL     OW15118   1.767   6.525   0.708
 4740SOL    HW115119   1.691   6.460   0.702
 4740SOL    HW215120   1.734   6.612   0.744
 4741SOL     OW15121   5.941   4.731   2.221
 4741SOL    HW115122   6.032   4.767   2.201
 4741SOL    HW215123   5.919   4.746   2.318
 4742SOL     OW15124   2.053   5.756   2.009
 4742SOL    HW115125   1.982   5.695   2.042
 4742SOL    HW215126   2.025   5.851   2.022
 4743SOL     OW15127   2.901   3.329   0.446
 4743SOL    HW115128   2.902   3.279   0.360
 4743SOL    HW215129   2.920   3.266   0.522
 4744SOL     OW15130   3.092   1.552   5.816
 4744SOL    HW115131   3.046   1.494   5.749
 4744SOL    HW215132   3.147   1.621   5.768
 4745SOL     OW15133   4.348   5.937   4.334
 4745SOL    HW115134   4.324   5.840   4.326
 4745SOL    HW215135   4.301   5.988   4.261
 4746SOL     OW15136   5.604   1.317   0.845
 4746SOL    HW115137   5.691   1.359   0.817
 4746SOL    HW215138   5.544   1.386   0.884
 4747SOL     OW15139   1.146   2.914   2.220
 4747SOL    HW115140   1.187   2.951   2.303
 4747SOL    HW215141   1.142   2.814   2.226
 4748SOL     OW15142   2.212   6.250   0.311
 4748SOL    HW115143   2.262   6.333   0.289
 4748SOL    HW215144   2.176   6.256   0.405
 4749SOL     OW15145   3.693   1.353   0.216
 4749SOL    HW115146   3.605   1.379   0.256
 4749SOL    HW215147   3.679   1.316   0.124
 4750SOL     OW15148   0.830   1.867   4.937
 4750SOL    HW115149   0.783   1.940   4.886
 4750SOL    HW215150   0.912   1.904   4.980
 4751SOL     OW15151   1.486   3.758   6.584
 4751SOL    HW115152   1.517   3.794   6.496
 4751SOL    HW215153   1.552   3.785   6.655
 4752SOL     OW15154   1.573   6.083   1.106
 4752SOL    HW115155   1.547   6.050   1.197
 4752SOL    HW215156   1.543   6.017   1.037
 4753SOL     OW15157   0.168   0.983   6.336
 4753SOL    HW115158   0.118   1.066   6.364
 4753SOL    HW215159   0.266   1.000   6.344
 4754SOL     OW15160   1.628   0.863   6.813
 4754SOL    HW115161   1.691   0.865   6.891
 4754SOL    HW215162   1.534   0.864   6.847
 4755SOL     OW15163   2.893   6.774   3.109
 4755SOL    HW115164   2.972   6.716   3.088
 4755SOL    HW215165   2.912   6.828   3.191
 4756SOL     OW15166   5.682   2.336   1.133
 4756SOL    HW115167   5.701   2.246   1.095
 4756SOL    HW215168   5.744   2.403   1.093
 4757SOL     OW15169   2.499   2.997   0.615
 4757SOL    HW115170   2.564   3.067   0.643
 4757SOL    HW215171   2.408   3.021   0.648
 4758SOL     OW15172   6.333   4.161   6.291
 4758SOL    HW115173   6.273   4.240   6.307
 4758SOL    HW215174   6.425   4.181   6.324
 4759SOL     OW15175   0.065   3.954   6.925
 4759SOL    HW115176   0.061   3.952   0.002
 4759SOL    HW215177   0.118   4.033   6.895
 4760SOL     OW15178   0.702   2.791   0.068
 4760SOL    HW115179   0.607   2.797   0.040
 4760SOL    HW215180   0.755   2.863   0.023
 4761SOL     OW15181   2.853   6.112   6.566
 4761SOL    HW115182   2.809   6.178   6.506
 4761SOL    HW215183   2.814   6.120   6.658
 4762SOL     OW15184   3.579   0.433   2.866
 4762SOL    HW115185   3.501   0.377   2.841
 4762SOL    HW215186   3.554   0.530   2.863
 4763SOL     OW15187   4.941   4.799   4.847
 4763SOL    HW115188   4.880   4.864   4.802
 4763SOL    HW215189   5.005   4.849   4.906
 4764SOL     OW15190   3.301   3.772   3.811
 4764SOL    HW115191   3.301   3.858   3.863
 4764SOL    HW215192   3.311   3.695   3.874
 4765SOL     OW15193   6.073   5.631   6.207
 4765SOL    HW115194   6.023   5.632   6.294
 4765SOL    HW215195   6.132   5.551   6.204
 4766SOL     OW15196   2.899   1.607   3.435
 4766SOL    HW115197   2.849   1.538   3.383
 4766SOL    HW215198   2.848   1.692   3.436
 4767SOL     OW15199   4.560   0.775   6.698
 4767SOL    HW115200   4.476   0.731   6.667
 4767SOL    HW215201   4.581   0.852   6.638
 4768SOL     OW15202   2.013   0.535   5.789
 4768SOL    HW115203   1.968   0.613   5.832
 4768SOL    HW215204   2.033   0.466   5.859
 4769SOL     OW15205   4.543   0.579   1.875
 4769SOL    HW115206   4.478   0.511   1.842
 4769SOL    HW215207   4.543   0.657   1.812
 4770SOL     OW15208   2.725   1.367   3.717
 4770SOL    HW115209   2.733   1.289   3.779
 4770SOL    HW215210   2.813   1.382   3.672
 4771SOL     OW15211   4.124   4.819   6.211
 4771SOL    HW115212   4.188   4.744   6.194
 4771SOL    HW215213   4.162   4.879   6.281
 4772SOL     OW15214   3.620   2.857   6.955
 4772SOL    HW115215   3.713   2.893   6.958
 4772SOL    HW215216   3.623   2.760   6.931
 4773SOL     OW15217   0.047   4.865   4.554
 4773SOL    HW115218   0.037   4.941   4.489
 4773SOL    HW215219   0.038   4.900   4.648
 4774SOL     OW15220   2.238   4.223   0.095
 4774SOL    HW115221   2.185   4.204   0.177
 4774SOL    HW215222   2.330   4.251   0.120
 4775SOL     OW15223   1.947   3.144   2.608
 4775SOL    HW115224   1.936   3.206   2.530
 4775SOL    HW215225   2.010   3.071   2.584
 4776SOL     OW15226   4.223   5.176   1.570
 4776SOL    HW115227   4.131   5.206   1.594
 4776SOL    HW215228   4.289   5.246   1.598
 4777SOL     OW15229   1.654   3.960   1.199
 4777SOL    HW115230   1.683   3.869   1.168
 4777SOL    HW215231   1.695   3.980   1.288
 4778SOL     OW15232   5.459   3.079   2.945
 4778SOL    HW115233   5.503   3.167   2.926
 4778SOL    HW215234   5.516   3.005   2.908
 4779SOL     OW15235   5.763   1.356   2.552
 4779SOL    HW115236   5.773   1.450   2.584
 4779SOL    HW215237   5.666   1.335   2.542
 4780SOL     OW15238   1.633   1.574   5.578
 4780SOL    HW115239   1.547   1.600   5.623
 4780SOL    HW215240   1.613   1.513   5.501
 4781SOL     OW15241   2.697   5.586   2.816
 4781SOL    HW115242   2.615   5.634   2.849
 4781SOL    HW215243   2.758   5.569   2.894
 4782SOL     OW15244   5.934   6.000   6.728
 4782SOL    HW115245   5.957   5.999   6.825
 4782SOL    HW215246   6.016   5.981   6.674
 4783SOL     OW15247   5.461   4.397   3.076
 4783SOL    HW115248   5.419   4.477   3.033
 4783SOL    HW215249   5.555   4.387   3.044
 4784SOL     OW15250   5.081   4.295   4.473
 4784SOL    HW115251   5.139   4.219   4.444
 4784SOL    HW215252   4.991   4.260   4.499
 4785SOL     OW15253   5.619   5.928   0.555
 4785SOL    HW115254   5.579   5.913   0.465
 4785SOL    HW215255   5.557   5.893   0.626
 4786SOL     OW15256   1.722   4.457   3.146
 4786SOL    HW115257   1.698   4.542   3.099
 4786SOL    HW215258   1.817   4.461   3.177
 4787SOL     OW15259   3.972   2.179   2.843
 4787SOL    HW115260   4.034   2.124   2.786
 4787SOL    HW215261   4.022   2.215   2.921
 4788SOL     OW15262   2.630   0.521   4.794
 4788SOL    HW115263   2.598   0.542   4.701
 4788SOL    HW215264   2.634   0.606   4.847
 4789SOL     OW15265   4.989   5.880   0.078
 4789SOL    HW115266   4.972   5.787   0.046
 4789SOL    HW215267   4.913   5.910   0.136
 4790SOL     OW15268   5.602   6.963   6.930
 4790SOL    HW115269   5.669   7.012   6.875
 4790SOL    HW215270   5.648   6.897   6.989
 4791SOL     OW15271   4.414   2.478   3.303
 4791SOL    HW115272   4.457   2.507   3.217
 4791SOL    HW215273   4.444   2.539   3.377
 4792SOL     OW15274   3.366   3.255   0.472
 4792SOL    HW115275   3.333   3.239   0.379
 4792SOL    HW215276   3.438   3.325   0.470
 4793SOL     OW15277   0.514   0.679   0.215
 4793SOL    HW115278   0.550   0.719   0.131
 4793SOL    HW215279   0.588   0.634   0.266
 4794SOL     OW15280   5.603   0.948   1.894
 4794SOL    HW115281   5.522   0.895   1.920
 4794SOL    HW215282   5.575   1.026   1.839
 4795SOL     OW15283   5.833   2.464   4.244
 4795SOL    HW115284   5.925   2.479   4.208
 4795SOL    HW215285   5.777   2.546   4.227
 4796SOL     OW15286   4.832   3.818   0.541
 4796SOL    HW115287   4.846   3.758   0.620
 4796SOL    HW215288   4.745   3.796   0.498
 4797SOL     OW15289   1.486   5.835   4.971
 4797SOL    HW115290   1.519   5.900   5.039
 4797SOL    HW215291   1.476   5.745   5.013
 4798SOL     OW15292   0.175   5.769   6.108
 4798SOL    HW115293   0.224   5.691   6.068
 4798SOL    HW215294   0.240   5.832   6.150
 4799SOL     OW15295   5.230   1.379   4.094
 4799SOL    HW115296   5.217   1.478   4.101
 4799SOL    HW215297   5.143   1.336   4.068
 4800SOL     OW15298   1.232   3.107   4.077
 4800SOL    HW115299   1.147   3.058   4.061
 4800SOL    HW215300   1.226   3.157   4.163
 4801SOL     OW15301   0.080   1.850   0.763
 4801SOL    HW115302   0.041   1.937   0.793
 4801SOL    HW215303   0.170   1.838   0.806
 4802SOL     OW15304   1.947   0.173   1.740
 4802SOL    HW115305   1.888   0.093   1.751
 4802SOL    HW215306   1.912   0.248   1.796
 4803SOL     OW15307   0.948   6.835   1.068
 4803SOL    HW115308   0.887   6.886   1.007
 4803SOL    HW215309   0.930   6.738   1.060
 4804SOL     OW15310   4.210   5.189   0.295
 4804SOL    HW115311   4.294   5.239   0.278
 4804SOL    HW215312   4.171   5.160   0.207
 4805SOL     OW15313   0.077   6.859   2.178
 4805SOL    HW115314   0.021   6.941   2.191
 4805SOL    HW215315   0.100   6.851   2.081
 4806SOL     OW15316   6.969   2.043   3.558
 4806SOL    HW115317   7.015   1.958   3.584
 4806SOL    HW215318   7.012   2.081   3.476
 4807SOL     OW15319   0.740   0.038   3.004
 4807SOL    HW115320   0.782   0.126   3.028
 4807SOL    HW215321   0.791   6.986   3.047
 4808SOL     OW15322   6.949   1.669   0.637
 4808SOL    HW115323   6.879   1.725   0.593
 4808SOL    HW215324   7.013   1.727   0.687
 4809SOL     OW15325   4.781   6.868   0.510
 4809SOL    HW115326   4.855   6.930   0.536
 4809SOL    HW215327   4.755   6.884   0.415
 4810SOL     OW15328   2.490   6.401   6.174
 4810SOL    HW115329   2.455   6.486   6.213
 4810SOL    HW215330   2.458   6.392   6.080
 4811SOL     OW15331   5.137   4.224   4.181
 4811SOL    HW115332   5.160   4.166   4.102
 4811SOL    HW215333   5.221   4.262   4.220
 4812SOL     OW15334   6.472   5.104   3.581
 4812SOL    HW115335   6.537   5.092   3.506
 4812SOL    HW215336   6.386   5.058   3.558
 4813SOL     OW15337   5.777   3.323   2.491
 4813SOL    HW115338   5.860   3.307   2.437
 4813SOL    HW215339   5.697   3.300   2.436
 4814SOL     OW15340   0.539   2.862   1.828
 4814SOL    HW115341   0.572   2.944   1.781
 4814SOL    HW215342   0.535   2.786   1.762
 4815SOL     OW15343   4.723   0.758   3.628
 4815SOL    HW115344   4.633   0.731   3.596
 4815SOL    HW215345   4.736   0.728   3.723
 4816SOL     OW15346   5.932   4.586   4.364
 4816SOL    HW115347   6.014   4.541   4.329
 4816SOL    HW215348   5.941   4.685   4.352
 4817SOL     OW15349   6.151   1.778   6.671
 4817SOL    HW115350   6.124   1.683   6.654
 4817SOL    HW215351   6.201   1.813   6.592
 4818SOL     OW15352   0.042   6.361   3.644
 4818SOL    HW115353   0.031   6.267   3.611
 4818SOL    HW215354   6.981   6.413   3.625
 4819SOL     OW15355   1.252   3.149   1.129
 4819SOL    HW115356   1.292   3.107   1.047
 4819SOL    HW215357   1.323   3.164   1.197
 4820SOL     OW15358   6.355   3.419   1.920
 4820SOL    HW115359   6.323   3.514   1.921
 4820SOL    HW215360   6.405   3.400   2.005
 4821SOL     OW15361   0.439   5.626   3.771
 4821SOL    HW115362   0.428   5.527   3.769
 4821SOL    HW215363   0.537   5.649   3.776
 4822SOL     OW15364   2.766   5.001   4.375
 4822SOL    HW115365   2.737   4.905   4.381
 4822SOL    HW215366   2.851   5.006   4.323
 4823SOL     OW15367   1.330   2.108   0.351
 4823SOL    HW115368   1.405   2.121   0.417
 4823SOL    HW215369   1.259   2.052   0.392
 4824SOL     OW15370   6.559   2.373   0.103
 4824SOL    HW115371   6.497   2.444   0.072
 4824SOL    HW215372   6.545   2.290   0.048
 4825SOL     OW15373   1.309   5.963   3.684
 4825SOL    HW115374   1.221   5.929   3.649
 4825SOL    HW215375   1.310   5.955   3.784
 4826SOL     OW15376   4.462   6.740   0.309
 4826SOL    HW115377   4.515   6.689   0.240
 4826SOL    HW215378   4.486   6.837   0.305
 4827SOL     OW15379   5.885   1.247   1.951
 4827SOL    HW115380   5.816   1.251   1.878
 4827SOL    HW215381   5.961   1.189   1.922
 4828SOL     OW15382   5.047   1.188   6.039
 4828SOL    HW115383   5.118   1.259   6.045
 4828SOL    HW215384   5.003   1.179   6.127
 4829SOL     OW15385   4.699   5.685   5.012
 4829SOL    HW115386   4.617   5.734   5.042
 4829SOL    HW215387   4.677   5.588   5.000
 4830SOL     OW15388   1.868   6.302   3.378
 4830SOL    HW115389   1.932   6.266   3.446
 4830SOL    HW215390   1.849   6.398   3.398
 4831SOL     OW15391   2.706   4.617   5.886
 4831SOL    HW115392   2.738   4.537   5.835
 4831SOL    HW215393   2.690   4.693   5.823
 4832SOL     OW15394   3.632   3.225   3.709
 4832SOL    HW115395   3.610   3.130   3.688
 4832SOL    HW215396   3.668   3.230   3.803
 4833SOL     OW15397   5.993   2.169   5.194
 4833SOL    HW115398   5.997   2.102   5.120
 4833SOL    HW215399   6.011   2.260   5.157
 4834SOL     OW15400   0.727   4.958   0.957
 4834SOL    HW115401   0.750   4.879   1.013
 4834SOL    HW215402   0.632   4.950   0.926
 4835SOL     OW15403   0.247   3.291   6.192
 4835SOL    HW115404   0.238   3.382   6.232
 4835SOL    HW215405   0.183   3.228   6.236
 4836SOL     OW15406   4.329   1.053   5.639
 4836SOL    HW115407   4.337   0.963   5.682
 4836SOL    HW215408   4.336   1.043   5.540
 4837SOL     OW15409   1.419   3.724   4.953
 4837SOL    HW115410   1.438   3.822   4.946
 4837SOL    HW215411   1.444   3.692   5.045
 4838SOL     OW15412   1.858   4.452   6.212
 4838SOL    HW115413   1.936   4.454   6.274
 4838SOL    HW215414   1.829   4.546   6.193
 4839SOL     OW15415   2.427   0.954   1.824
 4839SOL    HW115416   2.511   0.922   1.868
 4839SOL    HW215417   2.448   0.987   1.732
 4840SOL     OW15418   4.992   2.185   3.239
 4840SOL    HW115419   5.078   2.142   3.270
 4840SOL    HW215420   4.938   2.118   3.188
 4841SOL     OW15421   2.740   5.264   2.905
 4841SOL    HW115422   2.691   5.336   2.953
 4841SOL    HW215423   2.717   5.175   2.945
 4842SOL     OW15424   4.320   4.967   3.217
 4842SOL    HW115425   4.229   4.926   3.224
 4842SOL    HW215426   4.346   4.973   3.121
 4843SOL     OW15427   5.932   2.693   0.095
 4843SOL    HW115428   6.002   2.629   0.127
 4843SOL    HW215429   5.931   2.773   0.155
 4844SOL     OW15430   0.842   4.761   6.659
 4844SOL    HW115431   0.780   4.713   6.597
 4844SOL    HW215432   0.928   4.711   6.667
 4845SOL     OW15433   5.720   4.358   4.674
 4845SOL    HW115434   5.666   4.369   4.757
 4845SOL    HW215435   5.786   4.433   4.666
 4846SOL     OW15436   6.501   3.580   4.494
 4846SOL    HW115437   6.598   3.572   4.470
 4846SOL    HW215438   6.492   3.617   4.586
 4847SOL     OW15439   2.714   6.938   6.656
 4847SOL    HW115440   2.778   6.967   6.585
 4847SOL    HW215441   2.689   6.842   6.641
 4848SOL     OW15442   4.565   1.738   3.308
 4848SOL    HW115443   4.482   1.785   3.277
 4848SOL    HW215444   4.581   1.757   3.404
 4849SOL     OW15445   1.399   5.635   1.849
 4849SOL    HW115446   1.367   5.611   1.758
 4849SOL    HW215447   1.399   5.554   1.908
 4850SOL     OW15448   3.425   0.354   2.124
 4850SOL    HW115449   3.369   0.275   2.149
 4850SOL    HW215450   3.508   0.355   2.179
 4851SOL     OW15451   4.608   4.849   6.661
 4851SOL    HW115452   4.694   4.801   6.676
 4851SOL    HW215453   4.535   4.803   6.713
 4852SOL     OW15454   4.484   4.108   5.743
 4852SOL    HW115455   4.506   4.205   5.738
 4852SOL    HW215456   4.569   4.055   5.743
 4853SOL     OW15457   4.200   0.723   2.983
 4853SOL    HW115458   4.254   0.665   3.045
 4853SOL    HW215459   4.243   0.813   2.976
 4854SOL     OW15460   3.843   6.567   2.228
 4854SOL    HW115461   3.921   6.557   2.165
 4854SOL    HW215462   3.811   6.661   2.228
 4855SOL     OW15463   4.465   4.860   5.315
 4855SOL    HW115464   4.497   4.820   5.229
 4855SOL    HW215465   4.476   4.794   5.389
 4856SOL     OW15466   1.015   2.309   2.303
 4856SOL    HW115467   0.951   2.384   2.286
 4856SOL    HW215468   1.108   2.339   2.282
 4857SOL     OW15469   2.788   1.766   5.720
 4857SOL    HW115470   2.776   1.860   5.751
 4857SOL    HW215471   2.860   1.762   5.651
 4858SOL     OW15472   2.376   5.318   5.080
 4858SOL    HW115473   2.401   5.273   5.165
 4858SOL    HW215474   2.348   5.249   5.013
 4859SOL     OW15475   6.677   5.429   3.331
 4859SOL    HW115476   6.608   5.433   3.258
 4859SOL    HW215477   6.727   5.515   3.334
 4860SOL     OW15478   3.882   5.199   1.095
 4860SOL    HW115479   3.875   5.103   1.067
 4860SOL    HW215480   3.945   5.247   1.034
 4861SOL     OW15481   5.356   4.683   4.490
 4861SOL    HW115482   5.369   4.697   4.392
 4861SOL    HW215483   5.352   4.771   4.536
 4862SOL     OW15484   1.759   5.277   4.090
 4862SOL    HW115485   1.707   5.196   4.062
 4862SOL    HW215486   1.840   5.248   4.141
 4863SOL     OW15487   5.813   1.560   1.626
 4863SOL    HW115488   5.872   1.602   1.696
 4863SOL    HW215489   5.870   1.527   1.551
 4864SOL     OW15490   2.707   3.126   1.724
 4864SOL    HW115491   2.723   3.203   1.785
 4864SOL    HW215492   2.627   3.075   1.754
 4865SOL     OW15493   3.931   0.102   4.961
 4865SOL    HW115494   3.919   0.003   4.964
 4865SOL    HW215495   4.028   0.123   4.952
 4866SOL     OW15496   1.023   4.712   2.034
 4866SOL    HW115497   1.045   4.773   1.958
 4866SOL    HW215498   0.926   4.689   2.033
 4867SOL     OW15499   5.788   4.621   5.865
 4867SOL    HW115500   5.800   4.642   5.962
 4867SOL    HW215501   5.755   4.527   5.855
 4868SOL     OW15502   2.104   5.850   1.445
 4868SOL    HW115503   2.204   5.856   1.455
 4868SOL    HW215504   2.067   5.792   1.517
 4869SOL     OW15505   0.446   1.798   1.786
 4869SOL    HW115506   0.458   1.874   1.850
 4869SOL    HW215507   0.361   1.810   1.735
 4870SOL     OW15508   5.909   1.246   1.367
 4870SOL    HW115509   5.823   1.297   1.371
 4870SOL    HW215510   5.893   1.151   1.395
 4871SOL     OW15511   1.613   2.400   5.202
 4871SOL    HW115512   1.614   2.415   5.300
 4871SOL    HW215513   1.533   2.345   5.177
 4872SOL     OW15514   2.349   2.736   2.394
 4872SOL    HW115515   2.363   2.704   2.300
 4872SOL    HW215516   2.406   2.683   2.456
 4873SOL     OW15517   1.365   6.199   5.804
 4873SOL    HW115518   1.357   6.277   5.867
 4873SOL    HW215519   1.296   6.208   5.732
 4874SOL     OW15520   5.869   2.002   4.404
 4874SOL    HW115521   5.843   2.096   4.427
 4874SOL    HW215522   5.846   1.942   4.481
 4875SOL     OW15523   6.958   3.108   0.777
 4875SOL    HW115524   0.004   3.181   0.773
 4875SOL    HW215525   6.999   3.023   0.747
 4876SOL     OW15526   6.645   1.203   6.806
 4876SOL    HW115527   6.627   1.177   6.711
 4876SOL    HW215528   6.701   1.285   6.808
 4877SOL     OW15529   4.316   2.065   1.935
 4877SOL    HW115530   4.253   2.001   1.892
 4877SOL    HW215531   4.353   2.024   2.019
 4878SOL     OW15532   1.260   3.014   2.453
 4878SOL    HW115533   1.179   3.026   2.510
 4878SOL    HW215534   1.310   3.101   2.446
 4879SOL     OW15535   3.608   6.304   3.543
 4879SOL    HW115536   3.630   6.396   3.511
 4879SOL    HW215537   3.646   6.237   3.479
 4880SOL     OW15538   0.040   2.151   6.118
 4880SOL    HW115539   7.006   2.096   6.058
 4880SOL    HW215540   0.065   2.098   6.199
 4881SOL     OW15541   3.143   6.270   6.019
 4881SOL    HW115542   3.115   6.355   6.062
 4881SOL    HW215543   3.242   6.272   6.003
 4882SOL     OW15544   5.606   6.348   6.344
 4882SOL    HW115545   5.673   6.276   6.362
 4882SOL    HW215546   5.556   6.325   6.260
 4883SOL     OW15547   6.197   5.872   0.331
 4883SOL    HW115548   6.097   5.877   0.330
 4883SOL    HW215549   6.228   5.846   0.422
 4884SOL     OW15550   4.583   6.063   2.042
 4884SOL    HW115551   4.507   6.004   2.016
 4884SOL    HW215552   4.586   6.143   1.983
 4885SOL     OW15553   1.434   0.426   2.055
 4885SOL    HW115554   1.381   0.405   2.137
 4885SOL    HW215555   1.375   0.417   1.974
 4886SOL     OW15556   6.364   1.159   6.292
 4886SOL    HW115557   6.464   1.165   6.289
 4886SOL    HW215558   6.328   1.164   6.199
 4887SOL     OW15559   7.013   2.507   5.628
 4887SOL    HW115560   6.943   2.503   5.556
 4887SOL    HW215561   0.056   2.433   5.615
 4888SOL     OW15562   4.288   5.842   1.319
 4888SOL    HW115563   4.339   5.770   1.270
 4888SOL    HW215564   4.236   5.896   1.253
 4889SOL     OW15565   1.053   3.181   6.337
 4889SOL    HW115566   0.992   3.213   6.265
 4889SOL    HW215567   1.119   3.116   6.298
 4890SOL     OW15568   6.781   0.518   4.560
 4890SOL    HW115569   6.782   0.525   4.660
 4890SOL    HW215570   6.728   0.594   4.522
 4891SOL     OW15571   0.884   5.029   0.747
 4891SOL    HW115572   0.948   4.959   0.715
 4891SOL    HW215573   0.841   4.998   0.832
 4892SOL     OW15574   1.968   5.670   1.710
 4892SOL    HW115575   1.901   5.597   1.712
 4892SOL    HW215576   2.059   5.633   1.732
 4893SOL     OW15577   6.704   4.512   6.404
 4893SOL    HW115578   6.750   4.502   6.492
 4893SOL    HW215579   6.683   4.609   6.388
 4894SOL     OW15580   0.209   6.894   3.703
 4894SOL    HW115581   0.300   6.894   3.664
 4894SOL    HW215582   0.141   6.902   3.630
 4895SOL     OW15583   6.583   4.212   6.669
 4895SOL    HW115584   6.681   4.231   6.676
 4895SOL    HW215585   6.549   4.180   6.757
 4896SOL     OW15586   4.485   0.849   5.035
 4896SOL    HW115587   4.519   0.766   4.990
 4896SOL    HW215588   4.404   0.882   4.986
 4897SOL     OW15589   2.656   5.396   0.183
 4897SOL    HW115590   2.730   5.458   0.210
 4897SOL    HW215591   2.574   5.419   0.235
 4898SOL     OW15592   5.052   2.663   4.430
 4898SOL    HW115593   5.093   2.749   4.398
 4898SOL    HW215594   5.086   2.587   4.374
 4899SOL     OW15595   0.176   3.369   4.632
 4899SOL    HW115596   0.191   3.455   4.681
 4899SOL    HW215597   0.257   3.311   4.640
 4900SOL     OW15598   0.520   6.786   6.240
 4900SOL    HW115599   0.616   6.765   6.223
 4900SOL    HW215600   0.482   6.835   6.162
 4901SOL     OW15601   6.282   6.501   3.106
 4901SOL    HW115602   6.216   6.451   3.050
 4901SOL    HW215603   6.375   6.470   3.085
 4902SOL     OW15604   3.119   5.613   0.360
 4902SOL    HW115605   3.055   5.583   0.431
 4902SOL    HW215606   3.199   5.552   0.359
 4903SOL     OW15607   5.792   4.576   6.610
 4903SOL    HW115608   5.863   4.606   6.547
 4903SOL    HW215609   5.702   4.584   6.566
 4904SOL     OW15610   2.890   0.637   3.786
 4904SOL    HW115611   2.846   0.580   3.855
 4904SOL    HW215612   2.890   0.732   3.816
 4905SOL     OW15613   5.958   3.926   3.330
 4905SOL    HW115614   5.997   3.893   3.415
 4905SOL    HW215615   5.931   4.022   3.340
 4906SOL     OW15616   4.870   0.128   1.946
 4906SOL    HW115617   4.820   0.215   1.950
 4906SOL    HW215618   4.883   0.093   2.039
 4907SOL     OW15619   2.992   2.670   1.095
 4907SOL    HW115620   2.983   2.572   1.113
 4907SOL    HW215621   2.953   2.691   1.005
 4908SOL     OW15622   5.395   4.421   6.060
 4908SOL    HW115623   5.375   4.326   6.039
 4908SOL    HW215624   5.413   4.471   5.974
 4909SOL     OW15625   6.231   6.914   5.316
 4909SOL    HW115626   6.278   6.827   5.304
 4909SOL    HW215627   6.282   6.986   5.268
 4910SOL     OW15628   5.646   0.021   5.425
 4910SOL    HW115629   5.665   6.950   5.393
 4910SOL    HW215630   5.694   0.086   5.367
 4911SOL     OW15631   6.817   4.235   6.789
 4911SOL    HW115632   6.871   4.267   6.711
 4911SOL    HW215633   6.874   4.181   6.850
 4912SOL     OW15634   2.156   3.156   2.039
 4912SOL    HW115635   2.137   3.220   2.114
 4912SOL    HW215636   2.168   3.207   1.954
 4913SOL     OW15637   2.780   3.308   1.888
 4913SOL    HW115638   2.729   3.286   1.972
 4913SOL    HW215639   2.827   3.396   1.900
 4914SOL     OW15640   1.094   0.036   2.693
 4914SOL    HW115641   1.181   7.014   2.716
 4914SOL    HW215642   1.019   7.010   2.739
 4915SOL     OW15643   3.802   6.291   3.843
 4915SOL    HW115644   3.792   6.203   3.795
 4915SOL    HW215645   3.718   6.343   3.834
 4916SOL     OW15646   1.538   1.752   1.924
 4916SOL    HW115647   1.500   1.738   2.016
 4916SOL    HW215648   1.608   1.823   1.927
 4917SOL     OW15649   0.898   5.564   6.297
 4917SOL    HW115650   0.814   5.510   6.292
 4917SOL    HW215651   0.944   5.546   6.384
 4918SOL     OW15652   2.197   6.573   3.888
 4918SOL    HW115653   2.272   6.631   3.920
 4918SOL    HW215654   2.111   6.605   3.929
 4919SOL     OW15655   2.303   3.213   1.244
 4919SOL    HW115656   2.225   3.206   1.181
 4919SOL    HW215657   2.350   3.300   1.229
 4920SOL     OW15658   3.470   1.829   6.297
 4920SOL    HW115659   3.386   1.825   6.244
 4920SOL    HW215660   3.497   1.925   6.310
 4921SOL     OW15661   6.657   4.672   2.211
 4921SOL    HW115662   6.727   4.668   2.139
 4921SOL    HW215663   6.571   4.706   2.172
 4922SOL     OW15664   1.066   3.570   5.895
 4922SOL    HW115665   1.112   3.657   5.914
 4922SOL    HW215666   1.112   3.497   5.945
 4923SOL     OW15667   3.559   2.497   7.005
 4923SOL    HW115668   3.478   2.552   6.981
 4923SOL    HW215669   3.589   2.446   6.924
 4924SOL     OW15670   0.407   3.076   4.424
 4924SOL    HW115671   0.503   3.065   4.396
 4924SOL    HW215672   0.386   3.174   4.430
 4925SOL     OW15673   4.651   5.260   4.783
 4925SOL    HW115674   4.690   5.183   4.833
 4925SOL    HW215675   4.571   5.229   4.732
 4926SOL     OW15676   4.239   3.474   0.379
 4926SOL    HW115677   4.259   3.433   0.468
 4926SOL    HW215678   4.305   3.546   0.360
 4927SOL     OW15679   2.929   3.605   2.200
 4927SOL    HW115680   2.884   3.694   2.197
 4927SOL    HW215681   2.889   3.550   2.274
 4928SOL     OW15682   6.974   1.736   6.218
 4928SOL    HW115683   6.876   1.747   6.234
 4928SOL    HW215684   7.018   1.707   6.303
 4929SOL     OW15685   1.355   4.653   4.583
 4929SOL    HW115686   1.290   4.652   4.506
 4929SOL    HW215687   1.448   4.638   4.548
 4930SOL     OW15688   0.541   3.689   0.266
 4930SOL    HW115689   0.507   3.598   0.289
 4930SOL    HW215690   0.565   3.738   0.349
 4931SOL     OW15691   5.411   6.585   1.159
 4931SOL    HW115692   5.468   6.524   1.103
 4931SOL    HW215693   5.466   6.623   1.234
 4932SOL     OW15694   3.403   1.600   1.052
 4932SOL    HW115695   3.417   1.567   0.958
 4932SOL    HW215696   3.435   1.694   1.059
 4933SOL     OW15697   2.277   6.946   5.023
 4933SOL    HW115698   2.376   6.948   5.011
 4933SOL    HW215699   2.254   6.966   5.118
 4934SOL     OW15700   2.114   6.293   5.613
 4934SOL    HW115701   2.178   6.228   5.572
 4934SOL    HW215702   2.057   6.246   5.680
 4935SOL     OW15703   1.493   3.204   0.840
 4935SOL    HW115704   1.412   3.259   0.824
 4935SOL    HW215705   1.467   3.107   0.847
 4936SOL     OW15706   6.646   4.310   1.531
 4936SOL    HW115707   6.571   4.280   1.472
 4936SOL    HW215708   6.618   4.392   1.581
 4937SOL     OW15709   0.424   4.014   5.589
 4937SOL    HW115710   0.497   3.954   5.554
 4937SOL    HW215711   0.441   4.108   5.558
 4938SOL     OW15712   3.122   4.065   0.884
 4938SOL    HW115713   3.030   4.062   0.922
 4938SOL    HW215714   3.126   4.013   0.799
 4939SOL     OW15715   0.887   1.628   1.576
 4939SOL    HW115716   0.938   1.635   1.662
 4939SOL    HW215717   0.949   1.639   1.499
 4940SOL     OW15718   1.953   1.561   5.135
 4940SOL    HW115719   2.043   1.541   5.097
 4940SOL    HW215720   1.943   1.659   5.147
 4941SOL     OW15721   3.444   2.126   6.213
 4941SOL    HW115722   3.449   2.225   6.231
 4941SOL    HW215723   3.348   2.098   6.210
 4942SOL     OW15724   0.187   0.927   2.500
 4942SOL    HW115725   0.278   0.893   2.522
 4942SOL    HW215726   0.190   0.979   2.414
 4943SOL     OW15727   4.648   2.550   6.673
 4943SOL    HW115728   4.616   2.534   6.766
 4943SOL    HW215729   4.746   2.534   6.668
 4944SOL     OW15730   0.613   4.765   0.618
 4944SOL    HW115731   0.675   4.710   0.674
 4944SOL    HW215732   0.521   4.761   0.658
 4945SOL     OW15733   2.487   0.462   6.455
 4945SOL    HW115734   2.402   0.507   6.482
 4945SOL    HW215735   2.523   0.409   6.531
 4946SOL     OW15736   2.073   5.920   6.957
 4946SOL    HW115737   2.132   5.866   7.016
 4946SOL    HW215738   2.113   5.927   6.866
 4947SOL     OW15739   1.281   0.611   1.436
 4947SOL    HW115740   1.280   0.702   1.478
 4947SOL    HW215741   1.352   0.555   1.479
 4948SOL     OW15742   1.593   3.397   2.248
 4948SOL    HW115743   1.603   3.494   2.272
 4948SOL    HW215744   1.576   3.389   2.150
 4949SOL     OW15745   6.153   5.104   6.853
 4949SOL    HW115746   6.191   5.172   6.915
 4949SOL    HW215747   6.053   5.112   6.854
 4950SOL     OW15748   3.890   3.665   5.775
 4950SOL    HW115749   3.882   3.620   5.864
 4950SOL    HW215750   3.977   3.640   5.733
 4951SOL     OW15751   4.683   5.308   3.502
 4951SOL    HW115752   4.621   5.278   3.575
 4951SOL    HW215753   4.665   5.256   3.419
 4952SOL     OW15754   0.712   0.865   6.668
 4952SOL    HW115755   0.743   0.844   6.575
 4952SOL    HW215756   0.646   0.796   6.697
 4953SOL     OW15757   1.045   1.229   6.198
 4953SOL    HW115758   1.061   1.146   6.144
 4953SOL    HW215759   0.953   1.226   6.237
 4954SOL     OW15760   3.593   3.749   5.843
 4954SOL    HW115761   3.664   3.738   5.913
 4954SOL    HW215762   3.630   3.801   5.766
 4955SOL     OW15763   3.803   6.019   0.146
 4955SOL    HW115764   3.790   5.932   0.193
 4955SOL    HW215765   3.732   6.030   0.076
 4956SOL     OW15766   2.405   0.282   3.708
 4956SOL    HW115767   2.322   0.229   3.690
 4956SOL    HW215768   2.409   0.306   3.805
 4957SOL     OW15769   5.827   5.317   0.041
 4957SOL    HW115770   5.759   5.250   0.012
 4957SOL    HW215771   5.855   5.372   6.985
 4958SOL     OW15772   3.258   5.115   0.562
 4958SOL    HW115773   3.177   5.108   0.504
 4958SOL    HW215774   3.244   5.186   0.631
 4959SOL     OW15775   1.948   1.393   2.868
 4959SOL    HW115776   1.867   1.384   2.810
 4959SOL    HW215777   1.990   1.482   2.853
 4960SOL     OW15778   5.411   3.758   4.798
 4960SOL    HW115779   5.332   3.817   4.780
 4960SOL    HW215780   5.403   3.719   4.890
 4961SOL     OW15781   3.970   3.098   2.398
 4961SOL    HW115782   4.054   3.130   2.441
 4961SOL    HW215783   3.903   3.173   2.396
 4962SOL     OW15784   1.981   2.615   0.739
 4962SOL    HW115785   1.975   2.586   0.644
 4962SOL    HW215786   2.000   2.713   0.743
 4963SOL     OW15787   0.563   3.944   6.835
 4963SOL    HW115788   0.574   3.847   6.859
 4963SOL    HW215789   0.547   3.951   6.736
 4964SOL     OW15790   1.388   5.323   3.818
 4964SOL    HW115791   1.368   5.326   3.720
 4964SOL    HW215792   1.306   5.347   3.870
 4965SOL     OW15793   2.688   0.383   3.103
 4965SOL    HW115794   2.731   0.296   3.078
 4965SOL    HW215795   2.609   0.364   3.162
 4966SOL     OW15796   3.932   0.060   5.490
 4966SOL    HW115797   3.965   0.141   5.440
 4966SOL    HW215798   3.840   0.038   5.460
 4967SOL     OW15799   4.848   4.448   3.211
 4967SOL    HW115800   4.821   4.542   3.234
 4967SOL    HW215801   4.784   4.410   3.144
 4968SOL     OW15802   6.542   2.781   3.339
 4968SOL    HW115803   6.500   2.868   3.366
 4968SOL    HW215804   6.516   2.710   3.404
 4969SOL     OW15805   1.254   5.637   4.361
 4969SOL    HW115806   1.188   5.618   4.434
 4969SOL    HW215807   1.256   5.561   4.297
 4970SOL     OW15808   2.212   0.983   1.373
 4970SOL    HW115809   2.145   0.908   1.370
 4970SOL    HW215810   2.172   1.064   1.329
 4971SOL     OW15811   6.964   6.040   2.028
 4971SOL    HW115812   7.014   5.959   1.998
 4971SOL    HW215813   0.001   6.096   2.085
 4972SOL     OW15814   0.391   3.547   1.035
 4972SOL    HW115815   0.467   3.483   1.051
 4972SOL    HW215816   0.349   3.527   0.947
 4973SOL     OW15817   5.274   2.350   0.110
 4973SOL    HW115818   5.195   2.345   0.170
 4973SOL    HW215819   5.358   2.353   0.164
 4974SOL     OW15820   3.203   0.745   5.221
 4974SOL    HW115821   3.173   0.713   5.311
 4974SOL    HW215822   3.124   0.778   5.170
 4975SOL     OW15823   5.859   4.069   0.937
 4975SOL    HW115824   5.886   4.130   1.012
 4975SOL    HW215825   5.823   4.122   0.861
 4976SOL     OW15826   1.020   0.226   3.872
 4976SOL    HW115827   1.062   0.209   3.962
 4976SOL    HW215828   0.973   0.314   3.874
 4977SOL     OW15829   0.877   3.520   5.015
 4977SOL    HW115830   0.796   3.518   4.957
 4977SOL    HW215831   0.928   3.604   5.000
 4978SOL     OW15832   6.133   5.475   4.651
 4978SOL    HW115833   6.069   5.482   4.574
 4978SOL    HW215834   6.224   5.502   4.621
 4979SOL     OW15835   3.571   6.436   6.123
 4979SOL    HW115836   3.658   6.438   6.172
 4979SOL    HW215837   3.559   6.522   6.073
 4980SOL     OW15838   5.468   3.076   3.988
 4980SOL    HW115839   5.464   3.112   3.894
 4980SOL    HW215840   5.385   3.101   4.037
 4981SOL     OW15841   3.063   6.514   2.861
 4981SOL    HW115842   3.016   6.435   2.822
 4981SOL    HW215843   3.015   6.597   2.835
 4982SOL     OW15844   3.761   1.749   4.663
 4982SOL    HW115845   3.721   1.840   4.662
 4982SOL    HW215846   3.860   1.756   4.652
 4983SOL     OW15847   5.224   3.637   2.831
 4983SOL    HW115848   5.195   3.719   2.781
 4983SOL    HW215849   5.265   3.664   2.918
 4984SOL     OW15850   5.081   3.611   5.144
 4984SOL    HW115851   5.136   3.684   5.102
 4984SOL    HW215852   4.989   3.612   5.105
 4985SOL     OW15853   4.875   6.767   2.523
 4985SOL    HW115854   4.907   6.814   2.604
 4985SOL    HW215855   4.934   6.789   2.445
 4986SOL     OW15856   1.467   5.654   1.134
 4986SOL    HW115857   1.497   5.559   1.144
 4986SOL    HW215858   1.425   5.685   1.220
 4987SOL     OW15859   2.247   3.938   1.835
 4987SOL    HW115860   2.231   3.847   1.798
 4987SOL    HW215861   2.310   3.988   1.774
 4988SOL     OW15862   6.467   5.236   4.000
 4988SOL    HW115863   6.539   5.167   4.010
 4988SOL    HW215864   6.453   5.255   3.902
 4989SOL     OW15865   0.050   0.209   4.009
 4989SOL    HW115866   0.139   0.170   4.032
 4989SOL    HW215867   0.007   0.154   3.938
 4990SOL     OW15868   4.901   1.883   6.109
 4990SOL    HW115869   4.923   1.971   6.067
 4990SOL    HW215870   4.834   1.897   6.182
 4991SOL     OW15871   2.224   5.558   5.188
 4991SOL    HW115872   2.246   5.649   5.221
 4991SOL    HW215873   2.309   5.510   5.163
 4992SOL     OW15874   2.696   2.743   5.601
 4992SOL    HW115875   2.778   2.737   5.658
 4992SOL    HW215876   2.671   2.651   5.570
 4993SOL     OW15877   2.130   5.221   3.534
 4993SOL    HW115878   2.076   5.294   3.576
 4993SOL    HW215879   2.193   5.183   3.601
 4994SOL     OW15880   2.917   5.020   5.706
 4994SOL    HW115881   2.963   4.961   5.639
 4994SOL    HW215882   2.985   5.053   5.772
 4995SOL     OW15883   0.441   2.131   5.774
 4995SOL    HW115884   0.444   2.069   5.852
 4995SOL    HW215885   0.393   2.215   5.799
 4996SOL     OW15886   0.045   0.742   4.790
 4996SOL    HW115887   0.053   0.837   4.760
 4996SOL    HW215888   0.019   0.740   4.887
 4997SOL     OW15889   3.819   1.760   0.794
 4997SOL    HW115890   3.843   1.709   0.877
 4997SOL    HW215891   3.896   1.758   0.730
 4998SOL     OW15892   0.971   3.793   3.340
 4998SOL    HW115893   1.023   3.801   3.255
 4998SOL    HW215894   0.888   3.848   3.334
 4999SOL     OW15895   6.957   2.724   3.452
 4999SOL    HW115896   0.023   2.682   3.435
 4999SOL    HW215897   6.888   2.681   3.394
 5000SOL     OW15898   2.938   6.736   2.813
 5000SOL    HW115899   2.932   6.818   2.757
 5000SOL    HW215900   2.868   6.740   2.885
 5001SOL     OW15901   0.186   6.105   3.289
 5001SOL    HW115902   0.118   6.134   3.223
 5001SOL    HW215903   0.150   6.118   3.382
 5002SOL     OW15904   1.126   5.361   3.937
 5002SOL    HW115905   1.176   5.422   3.999
 5002SOL    HW215906   1.035   5.398   3.921
 5003SOL     OW15907   3.897   1.598   1.007
 5003SOL    HW115908   3.880   1.501   1.025
 5003SOL    HW215909   3.916   1.646   1.092
 5004SOL     OW15910   4.140   6.462   0.407
 5004SOL    HW115911   4.074   6.432   0.476
 5004SOL    HW215912   4.230   6.422   0.426
 5005SOL     OW15913   4.215   3.190   0.877
 5005SOL    HW115914   4.293   3.236   0.919
 5005SOL    HW215915   4.131   3.216   0.924
 5006SOL     OW15916   4.663   0.749   2.657
 5006SOL    HW115917   4.604   0.771   2.579
 5006SOL    HW215918   4.608   0.748   2.741
 5007SOL     OW15919   6.756   5.339   2.886
 5007SOL    HW115920   6.742   5.438   2.895
 5007SOL    HW215921   6.732   5.310   2.794
 5008SOL     OW15922   4.432   0.019   3.935
 5008SOL    HW115923   4.391   6.978   4.001
 5008SOL    HW215924   4.379   0.019   3.850
 5009SOL     OW15925   0.907   1.603   6.628
 5009SOL    HW115926   0.927   1.658   6.709
 5009SOL    HW215927   0.978   1.619   6.559
 5010SOL     OW15928   5.290   4.566   1.084
 5010SOL    HW115929   5.228   4.527   1.152
 5010SOL    HW215930   5.246   4.644   1.040
 5011SOL     OW15931   1.547   1.992   5.542
 5011SOL    HW115932   1.460   2.041   5.541
 5011SOL    HW215933   1.568   1.961   5.449
 5012SOL     OW15934   5.885   2.886   5.378
 5012SOL    HW115935   5.979   2.852   5.380
 5012SOL    HW215936   5.854   2.892   5.284
 5013SOL     OW15937   5.587   5.958   5.231
 5013SOL    HW115938   5.491   5.969   5.203
 5013SOL    HW215939   5.590   5.929   5.327
 5014SOL     OW15940   5.955   3.167   0.594
 5014SOL    HW115941   6.033   3.184   0.533
 5014SOL    HW215942   5.923   3.074   0.582
 5015SOL     OW15943   6.150   5.226   4.081
 5015SOL    HW115944   6.243   5.248   4.052
 5015SOL    HW215945   6.093   5.208   4.001
 5016SOL     OW15946   0.966   1.974   6.458
 5016SOL    HW115947   0.985   1.885   6.417
 5016SOL    HW215948   0.897   2.022   6.404
 5017SOL     OW15949   1.181   2.975   1.960
 5017SOL    HW115950   1.146   2.957   2.051
 5017SOL    HW215951   1.168   2.895   1.902
 5018SOL     OW15952   0.728   0.580   0.359
 5018SOL    HW115953   0.678   0.582   0.445
 5018SOL    HW215954   0.820   0.543   0.375
 5019SOL     OW15955   1.882   4.335   3.752
 5019SOL    HW115956   1.923   4.254   3.712
 5019SOL    HW215957   1.783   4.323   3.756
 5020SOL     OW15958   1.525   6.902   3.084
 5020SOL    HW115959   1.594   6.863   3.022
 5020SOL    HW215960   1.448   6.839   3.090
 5021SOL     OW15961   2.532   0.534   1.657
 5021SOL    HW115962   2.555   0.580   1.743
 5021SOL    HW215963   2.488   0.599   1.595
 5022SOL     OW15964   0.302   3.185   1.717
 5022SOL    HW115965   0.362   3.247   1.767
 5022SOL    HW215966   0.252   3.236   1.647
 5023SOL     OW15967   0.933   2.378   2.869
 5023SOL    HW115968   1.026   2.408   2.889
 5023SOL    HW215969   0.936   2.287   2.828
 5024SOL     OW15970   4.366   4.105   0.037
 5024SOL    HW115971   4.270   4.106   0.009
 5024SOL    HW215972   4.372   4.087   0.135
 5025SOL     OW15973   5.215   2.248   4.738
 5025SOL    HW115974   5.259   2.337   4.747
 5025SOL    HW215975   5.146   2.237   4.810
 5026SOL     OW15976   5.060   5.738   4.889
 5026SOL    HW115977   5.002   5.818   4.873
 5026SOL    HW215978   5.055   5.713   4.986
 5027SOL     OW15979   5.337   6.288   1.111
 5027SOL    HW115980   5.418   6.330   1.071
 5027SOL    HW215981   5.360   6.247   1.199
 5028SOL     OW15982   6.949   1.881   2.196
 5028SOL    HW115983   0.025   1.873   2.180
 5028SOL    HW215984   6.920   1.810   2.260
 5029SOL     OW15985   5.783   2.692   3.010
 5029SOL    HW115986   5.736   2.708   3.096
 5029SOL    HW215987   5.833   2.605   3.015
 5030SOL     OW15988   0.715   3.050   1.139
 5030SOL    HW115989   0.706   2.951   1.148
 5030SOL    HW215990   0.687   3.094   1.224
 5031SOL     OW15991   6.516   0.280   6.381
 5031SOL    HW115992   6.493   0.190   6.418
 5031SOL    HW215993   6.504   0.280   6.282
 5032SOL     OW15994   2.477   4.758   6.282
 5032SOL    HW115995   2.511   4.827   6.345
 5032SOL    HW215996   2.530   4.674   6.292
 5033SOL     OW15997   2.027   6.785   3.984
 5033SOL    HW115998   1.935   6.762   3.951
 5033SOL    HW215999   2.026   6.876   4.025
 5034SOL     OW16000   4.472   5.949   3.848
 5034SOL    HW116001   4.469   5.857   3.810
 5034SOL    HW216002   4.437   6.014   3.780
 5035SOL     OW16003   1.540   3.687   4.023
 5035SOL    HW116004   1.498   3.709   3.935
 5035SOL    HW216005   1.501   3.745   4.094
 5036SOL     OW16006   1.181   3.127   4.766
 5036SOL    HW116007   1.157   3.079   4.850
 5036SOL    HW216008   1.133   3.215   4.762
 5037SOL     OW16009   5.864   4.536   1.217
 5037SOL    HW116010   5.791   4.593   1.255
 5037SOL    HW216011   5.948   4.551   1.269
 5038SOL     OW16012   2.967   3.756   4.507
 5038SOL    HW116013   3.049   3.803   4.540
 5038SOL    HW216014   2.890   3.775   4.568
 5039SOL     OW16015   0.390   3.315   6.712
 5039SOL    HW116016   0.489   3.329   6.715
 5039SOL    HW216017   0.344   3.402   6.694
 5040SOL     OW16018   0.544   1.747   4.773
 5040SOL    HW116019   0.546   1.674   4.705
 5040SOL    HW216020   0.499   1.714   4.856
 5041SOL     OW16021   6.709   2.373   1.289
 5041SOL    HW116022   6.645   2.424   1.347
 5041SOL    HW216023   6.797   2.366   1.335
 5042SOL     OW16024   1.131   1.512   5.622
 5042SOL    HW116025   1.124   1.456   5.704
 5042SOL    HW216026   1.042   1.554   5.603
 5043SOL     OW16027   3.401   0.104   1.690
 5043SOL    HW116028   3.314   0.075   1.730
 5043SOL    HW216029   3.444   0.172   1.750
 5044SOL     OW16030   0.376   6.126   1.041
 5044SOL    HW116031   0.302   6.059   1.038
 5044SOL    HW216032   0.462   6.081   1.064
 5045SOL     OW16033   6.143   2.949   1.871
 5045SOL    HW116034   6.168   3.027   1.928
 5045SOL    HW216035   6.205   2.945   1.792
 5046SOL     OW16036   4.052   3.087   1.942
 5046SOL    HW116037   4.096   3.176   1.932
 5046SOL    HW216038   4.099   3.034   2.012
 5047SOL     OW16039   2.130   4.173   3.712
 5047SOL    HW116040   2.203   4.202   3.649
 5047SOL    HW216041   2.168   4.164   3.804
 5048SOL     OW16042   2.130   0.080   5.922
 5048SOL    HW116043   2.137   0.047   6.016
 5048SOL    HW216044   2.215   0.060   5.873
 5049SOL     OW16045   3.826   1.898   6.761
 5049SOL    HW116046   3.896   1.886   6.691
 5049SOL    HW216047   3.739   1.862   6.727
 5050SOL     OW16048   1.297   0.405   1.158
 5050SOL    HW116049   1.331   0.489   1.116
 5050SOL    HW216050   1.210   0.423   1.203
 5051SOL     OW16051   4.284   4.163   0.916
 5051SOL    HW116052   4.204   4.180   0.974
 5051SOL    HW216053   4.365   4.151   0.973
 5052SOL     OW16054   1.858   3.536   4.217
 5052SOL    HW116055   1.951   3.534   4.253
 5052SOL    HW216056   1.795   3.500   4.287
 5053SOL     OW16057   6.607   0.862   0.897
 5053SOL    HW116058   6.643   0.770   0.914
 5053SOL    HW216059   6.666   0.930   0.941
 5054SOL     OW16060   4.095   5.292   3.039
 5054SOL    HW116061   4.152   5.321   3.116
 5054SOL    HW216062   4.023   5.360   3.023
 5055SOL     OW16063   6.651   4.458   5.356
 5055SOL    HW116064   6.630   4.546   5.398
 5055SOL    HW216065   6.567   4.405   5.346
 5056SOL     OW16066   6.393   4.879   3.830
 5056SOL    HW116067   6.391   4.975   3.806
 5056SOL    HW216068   6.465   4.833   3.778
 5057SOL     OW16069   6.694   6.083   2.272
 5057SOL    HW116070   6.693   6.034   2.185
 5057SOL    HW216071   6.788   6.096   2.303
 5058SOL     OW16072   3.095   5.476   5.704
 5058SOL    HW116073   3.014   5.501   5.650
 5058SOL    HW216074   3.091   5.523   5.792
 5059SOL     OW16075   6.730   6.877   2.133
 5059SOL    HW116076   6.765   6.935   2.207
 5059SOL    HW216077   6.805   6.852   2.072
 5060SOL     OW16078   0.125   2.989   6.898
 5060SOL    HW116079   0.196   3.017   6.964
 5060SOL    HW216080   0.097   3.069   6.845
 5061SOL     OW16081   5.607   3.354   0.899
 5061SOL    HW116082   5.569   3.442   0.870
 5061SOL    HW216083   5.652   3.365   0.988
 5062SOL     OW16084   6.520   0.282   0.164
 5062SOL    HW116085   6.453   0.352   0.187
 5062SOL    HW216086   6.494   0.237   0.078
 5063SOL     OW16087   0.920   6.459   2.646
 5063SOL    HW116088   0.872   6.396   2.585
 5063SOL    HW216089   0.982   6.407   2.705
 5064SOL     OW16090   5.453   4.211   0.121
 5064SOL    HW116091   5.375   4.229   0.061
 5064SOL    HW216092   5.536   4.201   0.065
 5065SOL     OW16093   2.800   6.955   6.125
 5065SOL    HW116094   2.759   6.885   6.185
 5065SOL    HW216095   2.729   7.020   6.098
 5066SOL     OW16096   4.748   4.553   0.427
 5066SOL    HW116097   4.698   4.639   0.426
 5066SOL    HW216098   4.843   4.569   0.399
 5067SOL     OW16099   5.305   0.981   6.357
 5067SOL    HW116100   5.317   1.073   6.321
 5067SOL    HW216101   5.339   0.914   6.292
 5068SOL     OW16102   2.967   5.213   1.058
 5068SOL    HW116103   3.006   5.305   1.061
 5068SOL    HW216104   2.976   5.170   1.148
 5069SOL     OW16105   0.041   5.379   3.395
 5069SOL    HW116106   7.009   5.463   3.388
 5069SOL    HW216107   0.112   5.391   3.464
 5070SOL     OW16108   5.473   2.516   3.344
 5070SOL    HW116109   5.477   2.418   3.364
 5070SOL    HW216110   5.389   2.555   3.381
 5071SOL     OW16111   4.985   0.699   1.297
 5071SOL    HW116112   5.027   0.790   1.302
 5071SOL    HW216113   5.021   0.651   1.217
 5072SOL     OW16114   0.569   4.154   2.165
 5072SOL    HW116115   0.480   4.148   2.211
 5072SOL    HW216116   0.557   4.141   2.067
 5073SOL     OW16117   3.960   2.192   3.360
 5073SOL    HW116118   3.913   2.280   3.361
 5073SOL    HW216119   3.956   2.153   3.268
 5074SOL     OW16120   4.009   3.945   5.211
 5074SOL    HW116121   4.014   3.856   5.254
 5074SOL    HW216122   4.095   3.995   5.226
 5075SOL     OW16123   6.633   0.149   4.426
 5075SOL    HW116124   6.683   0.211   4.487
 5075SOL    HW216125   6.593   0.075   4.480
 5076SOL     OW16126   5.192   0.516   0.811
 5076SOL    HW116127   5.170   0.565   0.727
 5076SOL    HW216128   5.274   0.556   0.853
 5077SOL     OW16129   0.046   1.719   2.496
 5077SOL    HW116130   0.091   1.715   2.585
 5077SOL    HW216131   0.107   1.764   2.431
 5078SOL     OW16132   0.096   1.898   4.283
 5078SOL    HW116133   0.030   1.839   4.328
 5078SOL    HW216134   0.083   1.893   4.184
 5079SOL     OW16135   4.869   5.021   4.440
 5079SOL    HW116136   4.933   4.984   4.507
 5079SOL    HW216137   4.836   5.110   4.471
 5080SOL     OW16138   5.255   0.601   5.836
 5080SOL    HW116139   5.173   0.545   5.850
 5080SOL    HW216140   5.264   0.623   5.739
 5081SOL     OW16141   3.334   3.294   3.528
 5081SOL    HW116142   3.405   3.237   3.487
 5081SOL    HW216143   3.246   3.247   3.522
 5082SOL     OW16144   0.815   2.188   5.081
 5082SOL    HW116145   0.749   2.114   5.070
 5082SOL    HW216146   0.907   2.152   5.077
 5083SOL     OW16147   1.165   3.777   2.403
 5083SOL    HW116148   1.179   3.783   2.502
 5083SOL    HW216149   1.069   3.754   2.385
 5084SOL     OW16150   1.672   5.686   2.236
 5084SOL    HW116151   1.584   5.733   2.227
 5084SOL    HW216152   1.707   5.697   2.329
 5085SOL     OW16153   6.190   3.887   0.696
 5085SOL    HW116154   6.117   3.828   0.731
 5085SOL    HW216155   6.224   3.848   0.610
 5086SOL     OW16156   6.455   5.516   4.695
 5086SOL    HW116157   6.498   5.569   4.768
 5086SOL    HW216158   6.484   5.552   4.606
 5087SOL     OW16159   5.036   5.064   5.778
 5087SOL    HW116160   5.074   4.974   5.797
 5087SOL    HW216161   4.936   5.061   5.784
 5088SOL     OW16162   5.807   1.107   6.547
 5088SOL    HW116163   5.866   1.182   6.517
 5088SOL    HW216164   5.789   1.046   6.470
 5089SOL     OW16165   5.496   2.842   4.133
 5089SOL    HW116166   5.429   2.814   4.202
 5089SOL    HW216167   5.488   2.940   4.117
 5090SOL     OW16168   0.866   4.669   0.270
 5090SOL    HW116169   0.926   4.735   0.224
 5090SOL    HW216170   0.907   4.642   0.358
 5091SOL     OW16171   0.923   6.064   3.729
 5091SOL    HW116172   0.837   6.109   3.754
 5091SOL    HW216173   0.960   6.106   3.646
 5092SOL     OW16174   3.376   2.910   0.843
 5092SOL    HW116175   3.397   2.895   0.746
 5092SOL    HW216176   3.281   2.883   0.860
 5093SOL     OW16177   0.789   1.091   2.633
 5093SOL    HW116178   0.871   1.104   2.689
 5093SOL    HW216179   0.714   1.146   2.671
 5094SOL     OW16180   1.277   0.067   6.411
 5094SOL    HW116181   1.269   0.054   6.312
 5094SOL    HW216182   1.353   0.129   6.430
 5095SOL     OW16183   3.218   6.579   5.293
 5095SOL    HW116184   3.145   6.563   5.359
 5095SOL    HW216185   3.209   6.515   5.217
 5096SOL     OW16186   3.096   6.158   2.083
 5096SOL    HW116187   3.020   6.106   2.122
 5096SOL    HW216188   3.060   6.229   2.023
 5097SOL     OW16189   0.846   2.457   6.874
 5097SOL    HW116190   0.907   2.512   6.930
 5097SOL    HW216191   0.826   2.370   6.920
 5098SOL     OW16192   1.232   2.417   2.924
 5098SOL    HW116193   1.305   2.480   2.898
 5098SOL    HW216194   1.256   2.324   2.894
 5099SOL     OW16195   0.558   1.413   3.977
 5099SOL    HW116196   0.598   1.321   3.972
 5099SOL    HW216197   0.503   1.430   3.895
 5100SOL     OW16198   4.932   4.859   5.584
 5100SOL    HW116199   4.865   4.930   5.563
 5100SOL    HW216200   4.949   4.803   5.502
 5101SOL     OW16201   5.268   6.070   0.566
 5101SOL    HW116202   5.193   6.031   0.620
 5101SOL    HW216203   5.332   5.997   0.542
 5102SOL     OW16204   3.747   6.205   4.160
 5102SOL    HW116205   3.714   6.287   4.115
 5102SOL    HW216206   3.826   6.228   4.217
 5103SOL     OW16207   1.277   2.293   3.421
 5103SOL    HW116208   1.298   2.279   3.517
 5103SOL    HW216209   1.362   2.304   3.369
 5104SOL     OW16210   0.997   0.445   0.787
 5104SOL    HW116211   1.000   0.348   0.762
 5104SOL    HW216212   0.901   0.473   0.798
 5105SOL     OW16213   1.681   2.984   0.149
 5105SOL    HW116214   1.650   2.985   0.054
 5105SOL    HW216215   1.773   2.945   0.154
 5106SOL     OW16216   2.020   6.803   2.188
 5106SOL    HW116217   1.974   6.891   2.191
 5106SOL    HW216218   2.102   6.810   2.131
 5107SOL     OW16219   1.546   6.869   5.880
 5107SOL    HW116220   1.480   6.879   5.954
 5107SOL    HW216221   1.632   6.911   5.906
 5108SOL     OW16222   3.550   3.689   4.662
 5108SOL    HW116223   3.599   3.771   4.689
 5108SOL    HW216224   3.609   3.631   4.607
 5109SOL     OW16225   0.369   2.193   2.220
 5109SOL    HW116226   0.417   2.247   2.151
 5109SOL    HW216227   0.435   2.158   2.286
 5110SOL     OW16228   1.631   5.428   5.729
 5110SOL    HW116229   1.600   5.343   5.685
 5110SOL    HW216230   1.701   5.471   5.671
 5111SOL     OW16231   1.201   0.692   6.391
 5111SOL    HW116232   1.289   0.667   6.430
 5111SOL    HW216233   1.191   0.648   6.301
 5112SOL     OW16234   0.298   6.971   3.394
 5112SOL    HW116235   0.366   6.900   3.414
 5112SOL    HW216236   0.342   0.023   3.343
 5113SOL     OW16237   0.393   1.154   6.446
 5113SOL    HW116238   0.335   1.234   6.436
 5113SOL    HW216239   0.432   1.128   6.358
 5114SOL     OW16240   4.890   5.484   6.300
 5114SOL    HW116241   4.841   5.523   6.222
 5114SOL    HW216242   4.909   5.387   6.282
 5115SOL     OW16243   2.680   3.917   5.310
 5115SOL    HW116244   2.706   3.820   5.308
 5115SOL    HW216245   2.601   3.931   5.251
 5116SOL     OW16246   6.643   3.482   1.566
 5116SOL    HW116247   6.596   3.394   1.552
 5116SOL    HW216248   6.578   3.549   1.602
 5117SOL     OW16249   2.384   5.312   2.792
 5117SOL    HW116250   2.300   5.347   2.751
 5117SOL    HW216251   2.461   5.329   2.730
 5118SOL     OW16252   4.085   0.129   1.168
 5118SOL    HW116253   4.116   0.149   1.261
 5118SOL    HW216254   4.016   0.057   1.171
 5119SOL     OW16255   6.147   0.366   2.483
 5119SOL    HW116256   6.086   0.325   2.415
 5119SOL    HW216257   6.117   0.460   2.501
 5120SOL     OW16258   3.846   1.384   0.731
 5120SOL    HW116259   3.939   1.351   0.722
 5120SOL    HW216260   3.812   1.364   0.823
 5121SOL     OW16261   0.680   4.024   4.266
 5121SOL    HW116262   0.704   4.119   4.246
 5121SOL    HW216263   0.595   4.000   4.219
 5122SOL     OW16264   2.779   5.555   2.549
 5122SOL    HW116265   2.858   5.495   2.542
 5122SOL    HW216266   2.780   5.602   2.637
 5123SOL     OW16267   6.396   3.192   2.521
 5123SOL    HW116268   6.330   3.176   2.448
 5123SOL    HW216269   6.468   3.253   2.489
 5124SOL     OW16270   3.488   6.650   0.022
 5124SOL    HW116271   3.557   6.578   0.017
 5124SOL    HW216272   3.474   6.675   0.118
 5125SOL     OW16273   0.652   2.037   6.589
 5125SOL    HW116274   0.604   2.124   6.577
 5125SOL    HW216275   0.747   2.046   6.561
 5126SOL     OW16276   4.413   1.669   0.441
 5126SOL    HW116277   4.396   1.644   0.346
 5126SOL    HW216278   4.366   1.605   0.501
 5127SOL     OW16279   4.922   3.771   6.024
 5127SOL    HW116280   5.014   3.751   5.991
 5127SOL    HW216281   4.854   3.729   5.964
 5128SOL     OW16282   7.010   0.413   0.140
 5128SOL    HW116283   0.041   0.368   0.069
 5128SOL    HW216284   0.025   0.390   0.230
 5129SOL     OW16285   4.482   2.518   4.025
 5129SOL    HW116286   4.414   2.481   4.088
 5129SOL    HW216287   4.572   2.513   4.067
 5130SOL     OW16288   2.053   6.795   4.888
 5130SOL    HW116289   2.087   6.703   4.866
 5130SOL    HW216290   2.130   6.857   4.898
 5131SOL     OW16291   3.105   4.837   2.876
 5131SOL    HW116292   3.170   4.880   2.813
 5131SOL    HW216293   3.029   4.799   2.824
 5132SOL     OW16294   3.212   1.881   6.192
 5132SOL    HW116295   3.138   1.937   6.229
 5132SOL    HW216296   3.178   1.828   6.115
 5133SOL     OW16297   4.073   4.179   6.483
 5133SOL    HW116298   3.975   4.158   6.486
 5133SOL    HW216299   4.107   4.167   6.390
 5134SOL     OW16300   6.117   5.970   1.000
 5134SOL    HW116301   6.060   6.030   0.944
 5134SOL    HW216302   6.118   5.878   0.960
 5135SOL     OW16303   0.809   2.918   2.302
 5135SOL    HW116304   0.858   2.934   2.217
 5135SOL    HW216305   0.716   2.955   2.296
 5136SOL     OW16306   6.791   0.111   4.676
 5136SOL    HW116307   6.820   0.181   4.741
 5136SOL    HW216308   6.828   0.022   4.703
 5137SOL     OW16309   5.122   0.892   3.880
 5137SOL    HW116310   5.168   0.933   3.802
 5137SOL    HW216311   5.139   0.948   3.962
 5138SOL     OW16312   3.546   3.487   2.769
 5138SOL    HW116313   3.470   3.548   2.788
 5138SOL    HW216314   3.512   3.395   2.749
 5139SOL     OW16315   5.358   1.011   4.607
 5139SOL    HW116316   5.292   1.082   4.634
 5139SOL    HW216317   5.329   0.923   4.645
 5140SOL     OW16318   2.719   3.694   5.883
 5140SOL    HW116319   2.787   3.625   5.907
 5140SOL    HW216320   2.676   3.669   5.796
 5141SOL     OW16321   0.788   2.885   1.655
 5141SOL    HW116322   0.879   2.909   1.621
 5141SOL    HW216323   0.738   2.968   1.680
 5142SOL     OW16324   6.863   6.522   2.869
 5142SOL    HW116325   6.886   6.430   2.836
 5142SOL    HW216326   6.877   6.526   2.968
 5143SOL     OW16327   6.365   6.239   2.675
 5143SOL    HW116328   6.330   6.329   2.701
 5143SOL    HW216329   6.393   6.189   2.756
 5144SOL     OW16330   1.316   2.951   5.112
 5144SOL    HW116331   1.352   2.950   5.018
 5144SOL    HW216332   1.391   2.944   5.177
 5145SOL     OW16333   1.519   4.718   6.418
 5145SOL    HW116334   1.430   4.762   6.431
 5145SOL    HW216335   1.590   4.788   6.412
 5146SOL     OW16336   5.178   5.861   6.881
 5146SOL    HW116337   5.195   5.931   6.811
 5146SOL    HW216338   5.113   5.895   6.949
 5147SOL     OW16339   4.233   1.404   2.937
 5147SOL    HW116340   4.150   1.373   2.982
 5147SOL    HW216341   4.265   1.334   2.873
 5148SOL     OW16342   6.028   1.290   0.752
 5148SOL    HW116343   6.020   1.194   0.778
 5148SOL    HW216344   6.087   1.338   0.817
 5149SOL     OW16345   2.713   6.807   3.766
 5149SOL    HW116346   2.636   6.761   3.721
 5149SOL    HW216347   2.756   6.870   3.701
 5150SOL     OW16348   6.849   0.966   4.093
 5150SOL    HW116349   6.804   0.883   4.058
 5150SOL    HW216350   6.892   1.014   4.017
 5151SOL     OW16351   5.230   4.625   1.899
 5151SOL    HW116352   5.250   4.534   1.861
 5151SOL    HW216353   5.248   4.624   1.997
 5152SOL     OW16354   2.360   1.265   0.342
 5152SOL    HW116355   2.363   1.260   0.442
 5152SOL    HW216356   2.265   1.274   0.312
 5153SOL     OW16357   2.082   2.182   0.018
 5153SOL    HW116358   2.058   2.274   0.047
 5153SOL    HW216359   1.999   2.132   7.014
 5154SOL     OW16360   0.841   2.994   6.993
 5154SOL    HW116361   0.936   2.965   6.983
 5154SOL    HW216362   0.819   3.060   6.920
 5155SOL     OW16363   1.402   0.545   0.249
 5155SOL    HW116364   1.405   0.567   0.151
 5155SOL    HW216365   1.484   0.494   0.274
 5156SOL     OW16366   5.306   3.965   5.710
 5156SOL    HW116367   5.295   3.903   5.787
 5156SOL    HW216368   5.345   4.052   5.741
 5157SOL     OW16369   3.723   1.158   1.837
 5157SOL    HW116370   3.680   1.186   1.923
 5157SOL    HW216371   3.663   1.182   1.760
 5158SOL     OW16372   1.683   3.499   2.561
 5158SOL    HW116373   1.669   3.402   2.580
 5158SOL    HW216374   1.739   3.510   2.479
 5159SOL     OW16375   6.334   2.843   5.920
 5159SOL    HW116376   6.418   2.832   5.866
 5159SOL    HW216377   6.358   2.847   6.017
 5160SOL     OW16378   6.535   0.635   2.999
 5160SOL    HW116379   6.486   0.558   2.958
 5160SOL    HW216380   6.612   0.601   3.053
 5161SOL     OW16381   1.346   1.915   6.559
 5161SOL    HW116382   1.330   1.860   6.476
 5161SOL    HW216383   1.290   1.998   6.555
 5162SOL     OW16384   0.073   0.312   5.882
 5162SOL    HW116385   0.098   0.407   5.898
 5162SOL    HW216386   0.113   0.255   5.954
 5163SOL     OW16387   3.388   0.875   1.378
 5163SOL    HW116388   3.382   0.886   1.478
 5163SOL    HW216389   3.317   0.929   1.334
 5164SOL     OW16390   2.683   2.744   0.171
 5164SOL    HW116391   2.703   2.746   0.269
 5164SOL    HW216392   2.591   2.707   0.157
 5165SOL     OW16393   0.975   5.136   5.448
 5165SOL    HW116394   1.017   5.144   5.539
 5165SOL    HW216395   1.047   5.118   5.381
 5166SOL     OW16396   6.213   6.077   5.324
 5166SOL    HW116397   6.140   6.014   5.350
 5166SOL    HW216398   6.290   6.067   5.387
 5167SOL     OW16399   6.416   3.331   5.926
 5167SOL    HW116400   6.421   3.257   5.860
 5167SOL    HW216401   6.465   3.305   6.010
 5168SOL     OW16402   5.091   1.180   3.536
 5168SOL    HW116403   5.109   1.175   3.438
 5168SOL    HW216404   5.000   1.219   3.551
 5169SOL     OW16405   5.207   6.008   4.687
 5169SOL    HW116406   5.191   6.003   4.589
 5169SOL    HW216407   5.233   5.917   4.721
 5170SOL     OW16408   2.475   3.042   6.503
 5170SOL    HW116409   2.437   3.088   6.423
 5170SOL    HW216410   2.565   3.004   6.481
 5171SOL     OW16411   2.073   6.538   5.786
 5171SOL    HW116412   2.004   6.527   5.858
 5171SOL    HW216413   2.060   6.467   5.716
 5172SOL     OW16414   4.793   5.090   5.548
 5172SOL    HW116415   4.858   5.137   5.608
 5172SOL    HW216416   4.762   5.152   5.476
 5173SOL     OW16417   4.419   6.284   3.979
 5173SOL    HW116418   4.363   6.344   3.922
 5173SOL    HW216419   4.502   6.258   3.930
 5174SOL     OW16420   0.499   5.838   3.337
 5174SOL    HW116421   0.421   5.836   3.400
 5174SOL    HW216422   0.582   5.811   3.386
 5175SOL     OW16423   2.946   2.256   5.954
 5175SOL    HW116424   2.911   2.335   6.004
 5175SOL    HW216425   2.870   2.201   5.920
 5176SOL     OW16426   5.661   6.645   6.251
 5176SOL    HW116427   5.695   6.559   6.290
 5176SOL    HW216428   5.572   6.629   6.209
 5177SOL     OW16429   5.390   5.342   1.225
 5177SOL    HW116430   5.390   5.266   1.291
 5177SOL    HW216431   5.449   5.318   1.148
 5178SOL     OW16432   0.880   3.985   0.809
 5178SOL    HW116433   0.969   3.955   0.776
 5178SOL    HW216434   0.850   4.064   0.755
 5179SOL     OW16435   4.270   5.286   2.506
 5179SOL    HW116436   4.174   5.279   2.479
 5179SOL    HW216437   4.296   5.202   2.554
 5180SOL     OW16438   2.702   5.420   1.862
 5180SOL    HW116439   2.742   5.329   1.856
 5180SOL    HW216440   2.705   5.453   1.956
 5181SOL     OW16441   6.596   1.614   5.670
 5181SOL    HW116442   6.598   1.638   5.768
 5181SOL    HW216443   6.502   1.618   5.637
 5182SOL     OW16444   2.345   5.960   2.469
 5182SOL    HW116445   2.269   5.897   2.484
 5182SOL    HW216446   2.411   5.919   2.407
 5183SOL     OW16447   5.520   1.777   3.486
 5183SOL    HW116448   5.434   1.737   3.454
 5183SOL    HW216449   5.558   1.719   3.558
 5184SOL     OW16450   2.936   1.628   1.969
 5184SOL    HW116451   2.866   1.606   2.037
 5184SOL    HW216452   2.972   1.719   1.986
 5185SOL     OW16453   6.255   0.640   1.399
 5185SOL    HW116454   6.265   0.695   1.482
 5185SOL    HW216455   6.272   0.544   1.420
 5186SOL     OW16456   5.839   2.290   6.499
 5186SOL    HW116457   5.938   2.291   6.505
 5186SOL    HW216458   5.808   2.198   6.474
 5187SOL     OW16459   1.373   4.790   5.124
 5187SOL    HW116460   1.350   4.749   5.035
 5187SOL    HW216461   1.299   4.772   5.189
 5188SOL     OW16462   0.240   0.458   1.844
 5188SOL    HW116463   0.167   0.507   1.890
 5188SOL    HW216464   0.325   0.468   1.896
 5189SOL     OW16465   5.243   6.198   6.366
 5189SOL    HW116466   5.257   6.099   6.373
 5189SOL    HW216467   5.154   6.216   6.324
 5190SOL     OW16468   1.402   5.414   0.825
 5190SOL    HW116469   1.343   5.374   0.895
 5190SOL    HW216470   1.412   5.349   0.749
 5191SOL     OW16471   3.290   3.945   1.180
 5191SOL    HW116472   3.319   4.027   1.131
 5191SOL    HW216473   3.195   3.954   1.207
 5192SOL     OW16474   0.540   4.368   2.865
 5192SOL    HW116475   0.448   4.393   2.833
 5192SOL    HW216476   0.588   4.318   2.793
 5193SOL     OW16477   3.767   0.231   4.422
 5193SOL    HW116478   3.718   0.318   4.411
 5193SOL    HW216479   3.837   0.241   4.492
 5194SOL     OW16480   4.322   1.382   5.377
 5194SOL    HW116481   4.248   1.394   5.444
 5194SOL    HW216482   4.298   1.308   5.315
 5195SOL     OW16483   2.251   1.151   4.798
 5195SOL    HW116484   2.284   1.243   4.820
 5195SOL    HW216485   2.322   1.084   4.820
 5196SOL     OW16486   5.958   6.204   2.729
 5196SOL    HW116487   5.982   6.128   2.669
 5196SOL    HW216488   6.025   6.277   2.720
 5197SOL     OW16489   2.102   4.154   5.956
 5197SOL    HW116490   2.170   4.115   5.894
 5197SOL    HW216491   2.017   4.173   5.906
 5198SOL     OW16492   6.487   5.834   3.881
 5198SOL    HW116493   6.502   5.765   3.810
 5198SOL    HW216494   6.414   5.803   3.942
 5199SOL     OW16495   1.048   5.564   1.322
 5199SOL    HW116496   0.997   5.479   1.332
 5199SOL    HW216497   1.057   5.587   1.225
 5200SOL     OW16498   7.003   3.939   5.465
 5200SOL    HW116499   6.989   3.850   5.508
 5200SOL    HW216500   0.044   3.993   5.521
 5201SOL     OW16501   1.148   5.566   4.598
 5201SOL    HW116502   1.091   5.641   4.632
 5201SOL    HW216503   1.215   5.541   4.669
 5202SOL     OW16504   0.177   4.937   1.617
 5202SOL    HW116505   0.148   5.033   1.624
 5202SOL    HW216506   0.106   4.884   1.572
 5203SOL     OW16507   6.636   3.400   6.749
 5203SOL    HW116508   6.591   3.353   6.674
 5203SOL    HW216509   6.705   3.339   6.789
 5204SOL     OW16510   5.398   5.400   6.344
 5204SOL    HW116511   5.385   5.302   6.358
 5204SOL    HW216512   5.443   5.415   6.256
 5205SOL     OW16513   2.377   5.921   0.402
 5205SOL    HW116514   2.381   5.849   0.471
 5205SOL    HW216515   2.465   5.968   0.398
 5206SOL     OW16516   0.227   4.438   4.790
 5206SOL    HW116517   0.161   4.484   4.850
 5206SOL    HW216518   0.313   4.424   4.839
 5207SOL     OW16519   1.328   6.496   2.648
 5207SOL    HW116520   1.285   6.506   2.559
 5207SOL    HW216521   1.399   6.425   2.644
 5208SOL     OW16522   4.682   2.266   0.240
 5208SOL    HW116523   4.739   2.273   0.158
 5208SOL    HW216524   4.586   2.275   0.214
 5209SOL     OW16525   6.371   5.591   3.321
 5209SOL    HW116526   6.396   5.542   3.238
 5209SOL    HW216527   6.430   5.562   3.396
 5210SOL     OW16528   4.983   3.396   3.505
 5210SOL    HW116529   4.988   3.455   3.425
 5210SOL    HW216530   5.076   3.375   3.537
 5211SOL     OW16531   3.107   4.041   1.691
 5211SOL    HW116532   3.150   4.027   1.780
 5211SOL    HW216533   3.055   4.126   1.691
 5212SOL     OW16534   1.049   0.056   6.606
 5212SOL    HW116535   0.973   0.034   6.545
 5212SOL    HW216536   1.136   0.043   6.558
 5213SOL     OW16537   4.778   1.641   6.534
 5213SOL    HW116538   4.826   1.729   6.536
 5213SOL    HW216539   4.697   1.647   6.592
 5214SOL     OW16540   4.897   2.287   0.055
 5214SOL    HW116541   4.938   2.274   0.146
 5214SOL    HW216542   4.899   2.384   0.031
 5215SOL     OW16543   5.946   5.463   4.455
 5215SOL    HW116544   5.971   5.488   4.362
 5215SOL    HW216545   5.928   5.364   4.459
 5216SOL     OW16546   3.587   6.095   1.360
 5216SOL    HW116547   3.565   6.003   1.392
 5216SOL    HW216548   3.686   6.107   1.358
 5217SOL     OW16549   2.974   5.452   3.729
 5217SOL    HW116550   2.878   5.463   3.755
 5217SOL    HW216551   3.022   5.400   3.799
 5218SOL     OW16552   0.839   0.432   3.446
 5218SOL    HW116553   0.897   0.498   3.400
 5218SOL    HW216554   0.793   0.476   3.524
 5219SOL     OW16555   3.068   6.942   1.085
 5219SOL    HW116556   3.157   6.937   1.130
 5219SOL    HW216557   3.079   6.984   0.994
 5220SOL     OW16558   0.616   6.364   2.323
 5220SOL    HW116559   0.624   6.462   2.341
 5220SOL    HW216560   0.669   6.340   2.242
 5221SOL     OW16561   4.661   0.545   0.391
 5221SOL    HW116562   4.698   0.579   0.478
 5221SOL    HW216563   4.587   0.480   0.409
 5222SOL     OW16564   6.766   5.597   2.302
 5222SOL    HW116565   6.698   5.647   2.246
 5222SOL    HW216566   6.742   5.606   2.398
 5223SOL     OW16567   4.340   6.704   1.466
 5223SOL    HW116568   4.401   6.663   1.398
 5223SOL    HW216569   4.324   6.800   1.443
 5224SOL     OW16570   5.402   0.701   3.779
 5224SOL    HW116571   5.466   0.768   3.817
 5224SOL    HW216572   5.329   0.749   3.730
 5225SOL     OW16573   0.193   6.698   5.725
 5225SOL    HW116574   0.163   6.753   5.804
 5225SOL    HW216575   0.151   6.734   5.642
 5226SOL     OW16576   2.361   0.808   3.801
 5226SOL    HW116577   2.432   0.863   3.845
 5226SOL    HW216578   2.271   0.840   3.829
 5227SOL     OW16579   5.775   3.683   4.527
 5227SOL    HW116580   5.724   3.683   4.613
 5227SOL    HW216581   5.806   3.589   4.507
 5228SOL     OW16582   4.969   6.766   2.082
 5228SOL    HW116583   4.911   6.693   2.119
 5228SOL    HW216584   5.022   6.807   2.157
 5229SOL     OW16585   0.650   4.115   3.896
 5229SOL    HW116586   0.738   4.067   3.892
 5229SOL    HW216587   0.663   4.205   3.937
 5230SOL     OW16588   0.577   1.297   6.628
 5230SOL    HW116589   0.576   1.312   6.727
 5230SOL    HW216590   0.499   1.240   6.602
 5231SOL     OW16591   3.064   3.835   3.201
 5231SOL    HW116592   3.161   3.814   3.215
 5231SOL    HW216593   3.053   3.882   3.113
 5232SOL     OW16594   5.312   2.921   4.660
 5232SOL    HW116595   5.266   2.976   4.590
 5232SOL    HW216596   5.394   2.970   4.691
 5233SOL     OW16597   0.651   6.849   2.720
 5233SOL    HW116598   0.744   6.880   2.744
 5233SOL    HW216599   0.589   6.871   2.795
 5234SOL     OW16600   3.622   4.246   1.329
 5234SOL    HW116601   3.600   4.293   1.243
 5234SOL    HW216602   3.630   4.314   1.402
 5235SOL     OW16603   0.818   1.636   1.961
 5235SOL    HW116604   0.818   1.715   1.900
 5235SOL    HW216605   0.874   1.563   1.921
 5236SOL     OW16606   6.218   3.136   0.469
 5236SOL    HW116607   6.316   3.154   0.483
 5236SOL    HW216608   6.192   3.055   0.521
 5237SOL     OW16609   1.629   2.089   2.521
 5237SOL    HW116610   1.679   2.122   2.441
 5237SOL    HW216611   1.532   2.111   2.511
 5238SOL     OW16612   1.928   3.489   1.471
 5238SOL    HW116613   1.916   3.420   1.400
 5238SOL    HW216614   2.021   3.485   1.507
 5239SOL     OW16615   2.971   3.129   5.308
 5239SOL    HW116616   2.896   3.062   5.308
 5239SOL    HW216617   2.959   3.192   5.231
 5240SOL     OW16618   3.725   1.705   3.970
 5240SOL    HW116619   3.682   1.752   4.046
 5240SOL    HW216620   3.691   1.743   3.884
 5241SOL     OW16621   4.758   5.764   5.424
 5241SOL    HW116622   4.777   5.805   5.335
 5241SOL    HW216623   4.797   5.672   5.426
 5242SOL     OW16624   3.327   0.653   6.055
 5242SOL    HW116625   3.425   0.668   6.044
 5242SOL    HW216626   3.280   0.741   6.058
 5243SOL     OW16627   1.583   4.015   0.460
 5243SOL    HW116628   1.589   3.976   0.552
 5243SOL    HW216629   1.648   4.091   0.452
 5244SOL     OW16630   6.275   3.192   6.826
 5244SOL    HW116631   6.196   3.186   6.887
 5244SOL    HW216632   6.268   3.274   6.771
 5245SOL     OW16633   4.737   4.362   6.018
 5245SOL    HW116634   4.803   4.386   6.089
 5245SOL    HW216635   4.750   4.267   5.991
 5246SOL     OW16636   1.228   3.732   3.579
 5246SOL    HW116637   1.218   3.695   3.487
 5246SOL    HW216638   1.142   3.774   3.608
 5247SOL     OW16639   0.567   4.346   0.002
 5247SOL    HW116640   0.527   4.431   0.035
 5247SOL    HW216641   0.494   4.278   7.012
 5248SOL     OW16642   5.015   1.338   0.415
 5248SOL    HW116643   4.986   1.247   0.384
 5248SOL    HW216644   4.934   1.397   0.423
 5249SOL     OW16645   0.670   5.278   0.334
 5249SOL    HW116646   0.703   5.232   0.417
 5249SOL    HW216647   0.717   5.241   0.254
 5250SOL     OW16648   1.384   1.651   5.676
 5250SOL    HW116649   1.416   1.735   5.719
 5250SOL    HW216650   1.286   1.642   5.690
 5251SOL     OW16651   0.710   2.327   1.644
 5251SOL    HW116652   0.737   2.422   1.655
 5251SOL    HW216653   0.627   2.322   1.588
 5252SOL     OW16654   5.268   5.593   1.413
 5252SOL    HW116655   5.314   5.530   1.350
 5252SOL    HW216656   5.296   5.687   1.393
 5253SOL     OW16657   5.977   3.005   4.093
 5253SOL    HW116658   5.977   3.092   4.042
 5253SOL    HW216659   5.941   2.932   4.034
 5254SOL     OW16660   5.356   0.564   4.537
 5254SOL    HW116661   5.413   0.545   4.457
 5254SOL    HW216662   5.273   0.611   4.507
 5255SOL     OW16663   2.309   6.058   2.845
 5255SOL    HW116664   2.368   6.016   2.776
 5255SOL    HW216665   2.303   5.997   2.925
 5256SOL     OW16666   4.851   5.899   2.444
 5256SOL    HW116667   4.888   5.806   2.440
 5256SOL    HW216668   4.921   5.961   2.476
 5257SOL     OW16669   2.547   1.608   2.774
 5257SOL    HW116670   2.606   1.674   2.726
 5257SOL    HW216671   2.451   1.636   2.764
 5258SOL     OW16672   5.463   1.889   1.482
 5258SOL    HW116673   5.535   1.951   1.451
 5258SOL    HW216674   5.427   1.838   1.403
 5259SOL     OW16675   6.056   5.282   1.729
 5259SOL    HW116676   6.076   5.257   1.824
 5259SOL    HW216677   5.957   5.295   1.719
 5260SOL     OW16678   5.083   2.954   1.828
 5260SOL    HW116679   5.155   2.953   1.898
 5260SOL    HW216680   5.016   3.024   1.851
 5261SOL     OW16681   2.216   2.874   4.945
 5261SOL    HW116682   2.292   2.902   5.003
 5261SOL    HW216683   2.230   2.780   4.915
 5262SOL     OW16684   1.074   0.386   1.546
 5262SOL    HW116685   1.025   0.442   1.613
 5262SOL    HW216686   1.103   0.444   1.469
 5263SOL     OW16687   1.470   6.922   6.602
 5263SOL    HW116688   1.549   6.951   6.656
 5263SOL    HW216689   1.419   6.852   6.651
 5264SOL     OW16690   1.242   0.602   0.761
 5264SOL    HW116691   1.153   0.561   0.744
 5264SOL    HW216692   1.300   0.538   0.812
 5265SOL     OW16693   5.493   5.062   3.760
 5265SOL    HW116694   5.540   5.055   3.848
 5265SOL    HW216695   5.451   4.973   3.739
 5266SOL     OW16696   1.409   6.469   1.326
 5266SOL    HW116697   1.452   6.434   1.243
 5266SOL    HW216698   1.328   6.521   1.301
 5267SOL     OW16699   3.828   3.642   4.824
 5267SOL    HW116700   3.911   3.598   4.860
 5267SOL    HW216701   3.748   3.605   4.870
 5268SOL     OW16702   5.611   5.174   6.014
 5268SOL    HW116703   5.513   5.181   6.035
 5268SOL    HW216704   5.624   5.112   5.937
 5269SOL     OW16705   2.865   5.465   5.285
 5269SOL    HW116706   2.840   5.555   5.251
 5269SOL    HW216707   2.795   5.432   5.348
 5270SOL     OW16708   6.862   1.643   2.775
 5270SOL    HW116709   6.914   1.728   2.767
 5270SOL    HW216710   6.771   1.662   2.812
 5271SOL     OW16711   5.465   3.585   5.027
 5271SOL    HW116712   5.540   3.520   5.011
 5271SOL    HW216713   5.441   3.585   5.124
 5272SOL     OW16714   2.372   2.398   3.843
 5272SOL    HW116715   2.370   2.383   3.744
 5272SOL    HW216716   2.280   2.384   3.880
 5273SOL     OW16717   0.154   1.038   5.506
 5273SOL    HW116718   0.130   1.099   5.431
 5273SOL    HW216719   0.245   0.999   5.490
 5274SOL     OW16720   0.709   5.002   4.863
 5274SOL    HW116721   0.616   5.025   4.832
 5274SOL    HW216722   0.765   5.085   4.863
 5275SOL     OW16723   2.246   6.498   0.231
 5275SOL    HW116724   2.311   6.570   0.256
 5275SOL    HW216725   2.224   6.506   0.133
 5276SOL     OW16726   0.115   0.788   0.481
 5276SOL    HW116727   0.138   0.884   0.467
 5276SOL    HW216728   0.167   0.731   0.417
 5277SOL     OW16729   0.726   0.987   1.520
 5277SOL    HW116730   0.748   0.897   1.484
 5277SOL    HW216731   0.727   1.054   1.446
 5278SOL     OW16732   6.649   4.779   6.388
 5278SOL    HW116733   6.624   4.831   6.470
 5278SOL    HW216734   6.720   4.828   6.338
 5279SOL     OW16735   2.470   6.152   0.228
 5279SOL    HW116736   2.380   6.184   0.256
 5279SOL    HW216737   2.524   6.129   0.310
 5280SOL     OW16738   4.834   6.252   5.844
 5280SOL    HW116739   4.813   6.326   5.908
 5280SOL    HW216740   4.819   6.284   5.750
 5281SOL     OW16741   2.094   6.514   4.849
 5281SOL    HW116742   2.032   6.466   4.911
 5281SOL    HW216743   2.186   6.516   4.888
 5282SOL     OW16744   6.795   5.933   0.819
 5282SOL    HW116745   6.879   5.878   0.811
 5282SOL    HW216746   6.792   6.000   0.745
 5283SOL     OW16747   1.617   0.369   4.145
 5283SOL    HW116748   1.600   0.436   4.217
 5283SOL    HW216749   1.577   0.402   4.059
 5284SOL     OW16750   4.945   3.113   2.284
 5284SOL    HW116751   4.950   3.035   2.346
 5284SOL    HW216752   4.854   3.116   2.242
 5285SOL     OW16753   2.125   1.464   3.947
 5285SOL    HW116754   2.092   1.520   3.871
 5285SOL    HW216755   2.050   1.409   3.983
 5286SOL     OW16756   0.605   3.093   1.702
 5286SOL    HW116757   0.513   3.125   1.680
 5286SOL    HW216758   0.671   3.166   1.686
 5287SOL     OW16759   0.467   5.468   2.433
 5287SOL    HW116760   0.466   5.553   2.485
 5287SOL    HW216761   0.526   5.478   2.353
 5288SOL     OW16762   4.364   0.713   1.568
 5288SOL    HW116763   4.336   0.752   1.656
 5288SOL    HW216764   4.321   0.623   1.556
 5289SOL     OW16765   1.849   5.177   6.471
 5289SOL    HW116766   1.936   5.139   6.505
 5289SOL    HW216767   1.799   5.218   6.548
 5290SOL     OW16768   1.541   2.880   5.333
 5290SOL    HW116769   1.629   2.875   5.286
 5290SOL    HW216770   1.550   2.843   5.425
 5291SOL     OW16771   3.063   5.940   4.607
 5291SOL    HW116772   3.057   5.857   4.662
 5291SOL    HW216773   3.159   5.964   4.593
 5292SOL     OW16774   0.713   4.355   4.597
 5292SOL    HW116775   0.719   4.408   4.681
 5292SOL    HW216776   0.664   4.270   4.615
 5293SOL     OW16777   2.353   0.444   3.494
 5293SOL    HW116778   2.380   0.394   3.577
 5293SOL    HW216779   2.329   0.538   3.518
 5294SOL     OW16780   5.168   0.177   4.599
 5294SOL    HW116781   5.095   0.240   4.573
 5294SOL    HW216782   5.144   0.133   4.686
 5295SOL     OW16783   2.078   0.367   1.189
 5295SOL    HW116784   2.085   0.268   1.201
 5295SOL    HW216785   2.161   0.401   1.144
 5296SOL     OW16786   4.398   5.128   2.177
 5296SOL    HW116787   4.452   5.130   2.093
 5296SOL    HW216788   4.410   5.214   2.227
 5297SOL     OW16789   3.729   5.119   5.706
 5297SOL    HW116790   3.815   5.168   5.722
 5297SOL    HW216791   3.736   5.027   5.743
 5298SOL     OW16792   3.437   1.109   0.125
 5298SOL    HW116793   3.364   1.051   0.161
 5298SOL    HW216794   3.408   1.205   0.127
 5299SOL     OW16795   1.497   0.243   1.085
 5299SOL    HW116796   1.421   0.282   1.136
 5299SOL    HW216797   1.492   0.274   0.990
 5300SOL     OW16798   2.947   4.814   0.013
 5300SOL    HW116799   2.932   4.828   6.937
 5300SOL    HW216800   2.907   4.891   0.064
 5301SOL     OW16801   6.479   0.079   6.124
 5301SOL    HW116802   6.385   0.055   6.145
 5301SOL    HW216803   6.483   0.121   6.033
 5302SOL     OW16804   5.074   5.165   3.544
 5302SOL    HW116805   5.100   5.141   3.638
 5302SOL    HW216806   5.048   5.082   3.495
 5303SOL     OW16807   1.438   6.513   5.242
 5303SOL    HW116808   1.376   6.463   5.303
 5303SOL    HW216809   1.497   6.573   5.297
 5304SOL     OW16810   0.332   0.293   3.529
 5304SOL    HW116811   0.341   0.220   3.596
 5304SOL    HW216812   0.378   0.375   3.564
 5305SOL     OW16813   6.407   5.279   4.779
 5305SOL    HW116814   6.409   5.376   4.753
 5305SOL    HW216815   6.369   5.226   4.704
 5306SOL     OW16816   1.009   1.759   6.823
 5306SOL    HW116817   1.104   1.776   6.795
 5306SOL    HW216818   0.998   1.777   6.920
 5307SOL     OW16819   0.867   1.052   1.733
 5307SOL    HW116820   0.960   1.071   1.703
 5307SOL    HW216821   0.808   1.040   1.653
 5308SOL     OW16822   2.125   4.346   2.698
 5308SOL    HW116823   2.139   4.335   2.797
 5308SOL    HW216824   2.055   4.416   2.682
 5309SOL     OW16825   5.505   6.342   3.314
 5309SOL    HW116826   5.414   6.327   3.275
 5309SOL    HW216827   5.519   6.280   3.391
 5310SOL     OW16828   6.223   1.642   3.023
 5310SOL    HW116829   6.227   1.653   2.924
 5310SOL    HW216830   6.224   1.733   3.066
 5311SOL     OW16831   5.850   0.009   0.162
 5311SOL    HW116832   5.825   0.039   0.070
 5311SOL    HW216833   5.926   6.966   0.156
 5312SOL     OW16834   5.861   6.699   1.147
 5312SOL    HW116835   5.838   6.602   1.146
 5312SOL    HW216836   5.790   6.750   1.195
 5313SOL     OW16837   1.536   6.455   5.733
 5313SOL    HW116838   1.595   6.413   5.802
 5313SOL    HW216839   1.444   6.467   5.771
 5314SOL     OW16840   5.639   1.716   2.136
 5314SOL    HW116841   5.602   1.629   2.103
 5314SOL    HW216842   5.563   1.781   2.149
 5315SOL     OW16843   4.117   2.170   3.606
 5315SOL    HW116844   4.196   2.223   3.574
 5315SOL    HW216845   4.047   2.167   3.534
 5316SOL     OW16846   0.312   2.825   5.008
 5316SOL    HW116847   0.256   2.899   5.047
 5316SOL    HW216848   0.255   2.745   4.991
 5317SOL     OW16849   5.515   3.173   1.365
 5317SOL    HW116850   5.442   3.235   1.337
 5317SOL    HW216851   5.507   3.155   1.463
 5318SOL     OW16852   6.806   4.502   5.875
 5318SOL    HW116853   6.736   4.502   5.804
 5318SOL    HW216854   6.809   4.592   5.919
 5319SOL     OW16855   4.236   5.904   2.537
 5319SOL    HW116856   4.180   5.862   2.608
 5319SOL    HW216857   4.237   5.846   2.456
 5320SOL     OW16858   4.541   5.831   0.441
 5320SOL    HW116859   4.541   5.773   0.360
 5320SOL    HW216860   4.502   5.781   0.518
 5321SOL     OW16861   1.381   4.337   5.594
 5321SOL    HW116862   1.462   4.296   5.552
 5321SOL    HW216863   1.327   4.266   5.639
 5322SOL     OW16864   4.264   6.021   1.824
 5322SOL    HW116865   4.328   6.000   1.898
 5322SOL    HW216866   4.275   5.955   1.751
 5323SOL     OW16867   3.853   0.393   6.214
 5323SOL    HW116868   3.836   0.491   6.228
 5323SOL    HW216869   3.791   0.358   6.144
 5324SOL     OW16870   1.339   1.369   1.862
 5324SOL    HW116871   1.413   1.312   1.896
 5324SOL    HW216872   1.258   1.356   1.919
 5325SOL     OW16873   2.243   2.933   4.232
 5325SOL    HW116874   2.211   2.925   4.327
 5325SOL    HW216875   2.326   2.988   4.230
 5326SOL     OW16876   6.286   6.956   1.334
 5326SOL    HW116877   6.370   6.990   1.376
 5326SOL    HW216878   6.272   7.002   1.246
 5327SOL     OW16879   0.365   2.397   5.827
 5327SOL    HW116880   0.385   2.490   5.796
 5327SOL    HW216881   0.266   2.384   5.831
 5328SOL     OW16882   3.645   5.403   0.781
 5328SOL    HW116883   3.655   5.440   0.873
 5328SOL    HW216884   3.732   5.367   0.749
 5329SOL     OW16885   2.949   5.860   6.513
 5329SOL    HW116886   2.916   5.954   6.522
 5329SOL    HW216887   2.963   5.821   6.604
 5330SOL     OW16888   2.584   5.621   1.205
 5330SOL    HW116889   2.652   5.636   1.277
 5330SOL    HW216890   2.597   5.689   1.132
 5331SOL     OW16891   6.392   1.598   6.262
 5331SOL    HW116892   6.325   1.672   6.262
 5331SOL    HW216893   6.411   1.571   6.357
 5332SOL     OW16894   0.972   4.704   2.520
 5332SOL    HW116895   1.041   4.762   2.478
 5332SOL    HW216896   0.945   4.632   2.456
 5333SOL     OW16897   1.054   6.519   4.709
 5333SOL    HW116898   1.126   6.451   4.719
 5333SOL    HW216899   1.071   6.574   4.627
 5334SOL     OW16900   3.180   6.860   5.309
 5334SOL    HW116901   3.081   6.867   5.302
 5334SOL    HW216902   3.208   6.765   5.297
 5335SOL     OW16903   6.436   6.409   0.629
 5335SOL    HW116904   6.414   6.502   0.597
 5335SOL    HW216905   6.394   6.395   0.719
 5336SOL     OW16906   0.998   4.148   1.259
 5336SOL    HW116907   0.976   4.234   1.305
 5336SOL    HW216908   0.915   4.092   1.252
 5337SOL     OW16909   5.357   4.875   1.625
 5337SOL    HW116910   5.320   4.872   1.717
 5337SOL    HW216911   5.437   4.814   1.619
 5338SOL     OW16912   5.420   2.768   0.949
 5338SOL    HW116913   5.427   2.862   0.982
 5338SOL    HW216914   5.334   2.728   0.981
 5339SOL     OW16915   6.677   0.257   2.159
 5339SOL    HW116916   6.633   0.171   2.133
 5339SOL    HW216917   6.749   0.278   2.093
 5340SOL     OW16918   4.908   2.594   0.008
 5340SOL    HW116919   4.867   2.669   6.978
 5340SOL    HW216920   5.006   2.588   7.009
 5341SOL     OW16921   4.845   0.206   0.946
 5341SOL    HW116922   4.844   0.301   0.914
 5341SOL    HW216923   4.754   0.166   0.935
 5342SOL     OW16924   2.584   0.383   5.876
 5342SOL    HW116925   2.508   0.419   5.931
 5342SOL    HW216926   2.594   0.438   5.794
 5343SOL     OW16927   3.278   4.224   1.058
 5343SOL    HW116928   3.307   4.318   1.037
 5343SOL    HW216929   3.230   4.186   0.979
 5344SOL     OW16930   2.052   2.442   2.680
 5344SOL    HW116931   2.044   2.528   2.628
 5344SOL    HW216932   2.083   2.462   2.773
 5345SOL     OW16933   4.776   0.119   3.323
 5345SOL    HW116934   4.798   0.069   3.240
 5345SOL    HW216935   4.854   0.176   3.350
 5346SOL     OW16936   3.095   0.288   3.866
 5346SOL    HW116937   3.085   0.361   3.934
 5346SOL    HW216938   3.020   0.295   3.799
 5347SOL     OW16939   6.738   0.980   1.977
 5347SOL    HW116940   6.656   0.928   1.955
 5347SOL    HW216941   6.749   0.985   2.076
 5348SOL     OW16942   6.569   1.608   6.856
 5348SOL    HW116943   6.565   1.611   6.955
 5348SOL    HW216944   6.646   1.552   6.826
 5349SOL     OW16945   5.684   0.505   1.016
 5349SOL    HW116946   5.757   0.484   0.952
 5349SOL    HW216947   5.653   0.421   1.061
 5350SOL     OW16948   2.814   0.738   6.838
 5350SOL    HW116949   2.901   0.689   6.840
 5350SOL    HW216950   2.816   0.806   6.764
 5351SOL     OW16951   4.927   1.234   2.483
 5351SOL    HW116952   4.839   1.188   2.470
 5351SOL    HW216953   4.993   1.201   2.415
 5352SOL     OW16954   3.489   0.736   3.488
 5352SOL    HW116955   3.451   0.658   3.439
 5352SOL    HW216956   3.430   0.816   3.473
 5353SOL     OW16957   6.250   0.307   6.040
 5353SOL    HW116958   6.340   0.333   6.077
 5353SOL    HW216959   6.233   0.210   6.058
 5354SOL     OW16960   0.932   3.394   1.094
 5354SOL    HW116961   0.950   3.455   1.016
 5354SOL    HW216962   0.905   3.304   1.059
 5355SOL     OW16963   4.471   1.303   5.633
 5355SOL    HW116964   4.431   1.337   5.548
 5355SOL    HW216965   4.438   1.210   5.650
 5356SOL     OW16966   6.515   3.250   1.541
 5356SOL    HW116967   6.545   3.162   1.507
 5356SOL    HW216968   6.421   3.267   1.511
 5357SOL     OW16969   4.071   5.956   0.254
 5357SOL    HW116970   4.059   5.988   0.160
 5357SOL    HW216971   4.138   5.882   0.255
 5358SOL     OW16972   5.472   4.174   1.505
 5358SOL    HW116973   5.372   4.182   1.507
 5358SOL    HW216974   5.512   4.266   1.500
 5359SOL     OW16975   3.120   0.694   5.494
 5359SOL    HW116976   3.158   0.761   5.559
 5359SOL    HW216977   3.111   0.606   5.540
 5360SOL     OW16978   4.390   2.221   0.225
 5360SOL    HW116979   4.391   2.188   0.320
 5360SOL    HW216980   4.344   2.154   0.167
 5361SOL     OW16981   0.961   1.028   6.460
 5361SOL    HW116982   0.943   1.034   6.558
 5361SOL    HW216983   1.059   1.038   6.444
 5362SOL     OW16984   4.127   5.852   3.793
 5362SOL    HW116985   4.181   5.924   3.749
 5362SOL    HW216986   4.080   5.890   3.873
 5363SOL     OW16987   0.933   5.776   4.842
 5363SOL    HW116988   0.859   5.710   4.857
 5363SOL    HW216989   1.012   5.750   4.897
 5364SOL     OW16990   1.168   5.760   6.368
 5364SOL    HW116991   1.225   5.684   6.335
 5364SOL    HW216992   1.200   5.845   6.327
 5365SOL     OW16993   4.002   2.426   5.967
 5365SOL    HW116994   4.030   2.332   5.951
 5365SOL    HW216995   4.047   2.486   5.900
 5366SOL     OW16996   3.751   3.725   6.064
 5366SOL    HW116997   3.793   3.635   6.052
 5366SOL    HW216998   3.675   3.719   6.128
 5367SOL     OW16999   0.372   4.712   0.741
 5367SOL    HW117000   0.321   4.702   0.827
 5367SOL    HW217001   0.327   4.659   0.670
 5368SOL     OW17002   0.883   0.058   3.637
 5368SOL    HW117003   0.928   0.131   3.688
 5368SOL    HW217004   0.795   0.091   3.603
 5369SOL     OW17005   1.932   3.464   2.665
 5369SOL    HW117006   1.834   3.484   2.660
 5369SOL    HW217007   1.947   3.387   2.727
 5370SOL     OW17008   3.512   2.948   1.632
 5370SOL    HW117009   3.598   2.966   1.586
 5370SOL    HW217010   3.438   2.947   1.564
 5371SOL     OW17011   2.124   4.188   5.096
 5371SOL    HW117012   2.168   4.276   5.113
 5371SOL    HW217013   2.186   4.129   5.044
 5372SOL     OW17014   3.461   6.097   2.573
 5372SOL    HW117015   3.391   6.026   2.566
 5372SOL    HW217016   3.551   6.059   2.551
 5373SOL     OW17017   2.517   4.982   3.434
 5373SOL    HW117018   2.485   5.058   3.490
 5373SOL    HW217019   2.580   5.016   3.364
 5374SOL     OW17020   2.996   2.539   0.553
 5374SOL    HW117021   2.942   2.614   0.515
 5374SOL    HW217022   2.965   2.453   0.513
 5375SOL     OW17023   1.441   4.010   4.927
 5375SOL    HW117024   1.531   4.033   4.963
 5375SOL    HW217025   1.424   4.063   4.844
 5376SOL     OW17026   2.942   4.807   6.236
 5376SOL    HW117027   3.026   4.856   6.213
 5376SOL    HW217028   2.889   4.791   6.153
 5377SOL     OW17029   0.676   2.015   1.534
 5377SOL    HW117030   0.651   2.103   1.575
 5377SOL    HW217031   0.611   1.992   1.462
 5378SOL     OW17032   5.031   0.434   6.586
 5378SOL    HW117033   4.989   0.463   6.672
 5378SOL    HW217034   5.100   0.502   6.559
 5379SOL     OW17035   0.181   0.094   0.294
 5379SOL    HW117036   0.091   0.086   0.336
 5379SOL    HW217037   0.245   0.034   0.341
 5380SOL     OW17038   2.251   1.716   5.042
 5380SOL    HW117039   2.267   1.749   4.949
 5380SOL    HW217040   2.247   1.616   5.041
 5381SOL     OW17041   6.015   3.879   1.891
 5381SOL    HW117042   5.952   3.831   1.953
 5381SOL    HW217043   6.046   3.816   1.820
 5382SOL     OW17044   1.757   6.484   1.315
 5382SOL    HW117045   1.773   6.537   1.398
 5382SOL    HW217046   1.672   6.432   1.325
 5383SOL     OW17047   2.071   2.375   4.854
 5383SOL    HW117048   2.026   2.337   4.936
 5383SOL    HW217049   2.004   2.426   4.800
 5384SOL     OW17050   5.382   6.387   4.655
 5384SOL    HW117051   5.453   6.437   4.705
 5384SOL    HW217052   5.326   6.451   4.603
 5385SOL     OW17053   3.452   4.092   2.305
 5385SOL    HW117054   3.357   4.088   2.336
 5385SOL    HW217055   3.512   4.069   2.381
 5386SOL     OW17056   5.767   6.554   5.754
 5386SOL    HW117057   5.810   6.634   5.796
 5386SOL    HW217058   5.833   6.506   5.696
 5387SOL     OW17059   4.082   4.818   0.822
 5387SOL    HW117060   4.088   4.881   0.898
 5387SOL    HW217061   4.011   4.849   0.758
 5388SOL     OW17062   5.904   6.122   3.465
 5388SOL    HW117063   5.934   6.139   3.371
 5388SOL    HW217064   5.921   6.203   3.521
 5389SOL     OW17065   5.816   3.444   1.423
 5389SOL    HW117066   5.785   3.504   1.349
 5389SOL    HW217067   5.867   3.367   1.384
 5390SOL     OW17068   6.381   5.112   6.520
 5390SOL    HW117069   6.326   5.196   6.514
 5390SOL    HW217070   6.476   5.136   6.543
 5391SOL     OW17071   3.535   4.773   0.141
 5391SOL    HW117072   3.531   4.694   0.079
 5391SOL    HW217073   3.519   4.742   0.235
 5392SOL     OW17074   0.709   2.748   3.430
 5392SOL    HW117075   0.687   2.819   3.364
 5392SOL    HW217076   0.641   2.674   3.423
 5393SOL     OW17077   6.514   6.706   6.540
 5393SOL    HW117078   6.483   6.651   6.463
 5393SOL    HW217079   6.509   6.803   6.516
 5394SOL     OW17080   2.119   3.671   6.282
 5394SOL    HW117081   2.179   3.743   6.248
 5394SOL    HW217082   2.091   3.612   6.207
 5395SOL     OW17083   4.722   0.312   1.307
 5395SOL    HW117084   4.749   0.389   1.365
 5395SOL    HW217085   4.690   0.347   1.219
 5396SOL     OW17086   4.861   2.228   1.359
 5396SOL    HW117087   4.859   2.328   1.358
 5396SOL    HW217088   4.775   2.193   1.323
 5397SOL     OW17089   1.031   2.535   1.692
 5397SOL    HW117090   0.993   2.462   1.747
 5397SOL    HW217091   1.098   2.498   1.628
 5398SOL     OW17092   2.987   3.872   2.384
 5398SOL    HW117093   3.035   3.788   2.359
 5398SOL    HW217094   2.948   3.862   2.476
 5399SOL     OW17095   0.412   5.342   0.355
 5399SOL    HW117096   0.502   5.317   0.318
 5399SOL    HW217097   0.341   5.320   0.288
 5400SOL     OW17098   2.627   3.619   6.568
 5400SOL    HW117099   2.643   3.556   6.492
 5400SOL    HW217100   2.535   3.605   6.604
 5401SOL     OW17101   6.387   1.688   0.743
 5401SOL    HW117102   6.380   1.787   0.757
 5401SOL    HW217103   6.483   1.660   0.750
 5402SOL     OW17104   0.920   6.003   2.155
 5402SOL    HW117105   0.958   6.037   2.069
 5402SOL    HW217106   0.844   5.942   2.136
 5403SOL     OW17107   6.470   2.584   6.318
 5403SOL    HW117108   6.565   2.606   6.339
 5403SOL    HW217109   6.461   2.567   6.220
 5404SOL     OW17110   0.799   2.586   2.764
 5404SOL    HW117111   0.847   2.498   2.765
 5404SOL    HW217112   0.765   2.607   2.856
 5405SOL     OW17113   6.377   4.381   5.303
 5405SOL    HW117114   6.325   4.307   5.261
 5405SOL    HW217115   6.334   4.408   5.389
 5406SOL     OW17116   1.526   0.117   2.954
 5406SOL    HW117117   1.516   0.114   2.855
 5406SOL    HW217118   1.518   0.025   2.992
 5407SOL     OW17119   4.008   3.609   6.248
 5407SOL    HW117120   4.086   3.642   6.195
 5407SOL    HW217121   4.039   3.550   6.322
 5408SOL     OW17122   4.242   0.782   6.614
 5408SOL    HW117123   4.191   0.717   6.559
 5408SOL    HW217124   4.228   0.762   6.711
 5409SOL     OW17125   4.781   0.531   1.451
 5409SOL    HW117126   4.727   0.593   1.508
 5409SOL    HW217127   4.858   0.581   1.412
 5410SOL     OW17128   1.404   2.633   2.848
 5410SOL    HW117129   1.421   2.715   2.793
 5410SOL    HW217130   1.482   2.571   2.842
 5411SOL     OW17131   2.578   4.712   4.927
 5411SOL    HW117132   2.590   4.801   4.883
 5411SOL    HW217133   2.668   4.671   4.944
 5412SOL     OW17134   6.305   1.879   2.529
 5412SOL    HW117135   6.278   1.810   2.461
 5412SOL    HW217136   6.333   1.833   2.613
 5413SOL     OW17137   1.442   6.671   2.360
 5413SOL    HW117138   1.362   6.681   2.301
 5413SOL    HW217139   1.525   6.666   2.304
 5414SOL     OW17140   4.338   0.526   6.132
 5414SOL    HW117141   4.346   0.442   6.078
 5414SOL    HW217142   4.257   0.577   6.103
 5415SOL     OW17143   6.404   3.320   3.020
 5415SOL    HW117144   6.433   3.379   2.945
 5415SOL    HW217145   6.307   3.297   3.010
 5416SOL     OW17146   4.013   4.820   4.302
 5416SOL    HW117147   3.940   4.797   4.238
 5416SOL    HW217148   3.989   4.905   4.350
 5417SOL     OW17149   2.978   6.527   5.806
 5417SOL    HW117150   2.970   6.626   5.795
 5417SOL    HW217151   2.947   6.501   5.898
 5418SOL     OW17152   3.627   1.286   3.464
 5418SOL    HW117153   3.721   1.252   3.473
 5418SOL    HW217154   3.584   1.289   3.554
 5419SOL     OW17155   3.292   4.524   0.127
 5419SOL    HW117156   3.221   4.541   0.195
 5419SOL    HW217157   3.357   4.458   0.163
 5420SOL     OW17158   1.308   2.501   2.517
 5420SOL    HW117159   1.379   2.571   2.519
 5420SOL    HW217160   1.225   2.539   2.477
 5421SOL     OW17161   2.622   2.750   0.637
 5421SOL    HW117162   2.571   2.834   0.620
 5421SOL    HW217163   2.611   2.724   0.733
 5422SOL     OW17164   0.537   3.103   0.339
 5422SOL    HW117165   0.491   3.015   0.328
 5422SOL    HW217166   0.635   3.087   0.351
 5423SOL     OW17167   3.870   3.187   6.240
 5423SOL    HW117168   3.784   3.181   6.190
 5423SOL    HW217169   3.852   3.220   6.333
 5424SOL     OW17170   5.719   3.187   5.508
 5424SOL    HW117171   5.717   3.238   5.594
 5424SOL    HW217172   5.686   3.094   5.525
 5425SOL     OW17173   5.300   1.680   4.704
 5425SOL    HW117174   5.249   1.677   4.790
 5425SOL    HW217175   5.265   1.610   4.642
 5426SOL     OW17176   0.605   6.892   4.736
 5426SOL    HW117177   0.509   6.872   4.752
 5426SOL    HW217178   0.628   6.981   4.776
 5427SOL     OW17179   3.693   6.821   0.412
 5427SOL    HW117180   3.747   6.737   0.410
 5427SOL    HW217181   3.696   6.859   0.505
 5428SOL     OW17182   2.263   0.542   0.360
 5428SOL    HW117183   2.268   0.636   0.391
 5428SOL    HW217184   2.297   0.481   0.432
 5429SOL     OW17185   0.983   2.404   6.053
 5429SOL    HW117186   0.992   2.476   6.122
 5429SOL    HW217187   1.049   2.332   6.071
 5430SOL     OW17188   2.244   2.779   5.325
 5430SOL    HW117189   2.226   2.870   5.287
 5430SOL    HW217190   2.323   2.739   5.280
 5431SOL     OW17191   3.342   5.882   4.265
 5431SOL    HW117192   3.435   5.852   4.242
 5431SOL    HW217193   3.286   5.883   4.182
 5432SOL     OW17194   6.072   4.644   1.366
 5432SOL    HW117195   6.045   4.740   1.374
 5432SOL    HW217196   6.167   4.634   1.396
 5433SOL     OW17197   1.506   1.932   3.608
 5433SOL    HW117198   1.473   1.924   3.514
 5433SOL    HW217199   1.444   1.885   3.670
 5434SOL     OW17200   2.241   6.102   5.472
 5434SOL    HW117201   2.164   6.048   5.437
 5434SOL    HW217202   2.326   6.054   5.456
 5435SOL     OW17203   4.428   1.072   2.209
 5435SOL    HW117204   4.507   1.107   2.159
 5435SOL    HW217205   4.359   1.144   2.217
 5436SOL     OW17206   5.279   4.123   2.810
 5436SOL    HW117207   5.255   4.139   2.906
 5436SOL    HW217208   5.196   4.126   2.754
 5437SOL     OW17209   3.921   4.714   6.065
 5437SOL    HW117210   4.005   4.744   6.111
 5437SOL    HW217211   3.880   4.792   6.017
 5438SOL     OW17212   6.485   0.949   0.662
 5438SOL    HW117213   6.508   0.897   0.745
 5438SOL    HW217214   6.443   0.888   0.595
 5439SOL     OW17215   1.641   2.517   0.608
 5439SOL    HW117216   1.547   2.497   0.636
 5439SOL    HW217217   1.640   2.583   0.533
 5440SOL     OW17218   2.301   0.498   1.090
 5440SOL    HW117219   2.281   0.588   1.051
 5440SOL    HW217220   2.399   0.487   1.101
 5441SOL     OW17221   3.777   1.884   5.074
 5441SOL    HW117222   3.859   1.858   5.023
 5441SOL    HW217223   3.774   1.832   5.160
 5442SOL     OW17224   3.614   1.255   1.608
 5442SOL    HW117225   3.628   1.260   1.509
 5442SOL    HW217226   3.607   1.348   1.645
 5443SOL     OW17227   1.277   6.610   5.758
 5443SOL    HW117228   1.196   6.564   5.794
 5443SOL    HW217229   1.254   6.656   5.672
 5444SOL     OW17230   0.422   0.570   3.663
 5444SOL    HW117231   0.337   0.619   3.644
 5444SOL    HW217232   0.405   0.501   3.734
 5445SOL     OW17233   6.083   3.580   2.084
 5445SOL    HW117234   6.039   3.493   2.063
 5445SOL    HW217235   6.172   3.563   2.126
 5446SOL     OW17236   6.308   6.474   5.990
 5446SOL    HW117237   6.275   6.567   5.972
 5446SOL    HW217238   6.332   6.430   5.903
 5447SOL     OW17239   3.343   2.795   1.239
 5447SOL    HW117240   3.310   2.865   1.303
 5447SOL    HW217241   3.364   2.711   1.290
 5448SOL     OW17242   5.105   1.739   6.584
 5448SOL    HW117243   5.077   1.648   6.613
 5448SOL    HW217244   5.158   1.783   6.657
 5449SOL     OW17245   0.224   2.539   6.924
 5449SOL    HW117246   0.309   2.499   6.890
 5449SOL    HW217247   0.178   2.588   6.849
 5450SOL     OW17248   2.356   6.237   0.879
 5450SOL    HW117249   2.286   6.299   0.913
 5450SOL    HW217250   2.313   6.160   0.833
 5451SOL     OW17251   2.921   0.291   2.400
 5451SOL    HW117252   2.978   0.372   2.416
 5451SOL    HW217253   2.832   0.320   2.365
 5452SOL     OW17254   2.870   4.101   5.720
 5452SOL    HW117255   2.784   4.080   5.673
 5452SOL    HW217256   2.946   4.058   5.671
 5453SOL     OW17257   0.412   5.305   5.558
 5453SOL    HW117258   0.497   5.356   5.550
 5453SOL    HW217259   0.426   5.224   5.614
 5454SOL     OW17260   0.710   4.006   5.798
 5454SOL    HW117261   0.803   3.977   5.821
 5454SOL    HW217262   0.707   4.105   5.787
 5455SOL     OW17263   6.339   1.777   1.025
 5455SOL    HW117264   6.398   1.755   0.947
 5455SOL    HW217265   6.271   1.845   0.998
 5456SOL     OW17266   3.685   0.099   1.201
 5456SOL    HW117267   3.770   0.048   1.199
 5456SOL    HW217268   3.611   0.043   1.162
 5457SOL     OW17269   6.336   3.538   1.266
 5457SOL    HW117270   6.336   3.472   1.342
 5457SOL    HW217271   6.251   3.528   1.213
 5458SOL     OW17272   1.561   4.174   6.176
 5458SOL    HW117273   1.533   4.260   6.134
 5458SOL    HW217274   1.518   4.098   6.127
 5459SOL     OW17275   2.099   4.098   6.224
 5459SOL    HW117276   2.137   4.007   6.212
 5459SOL    HW217277   2.072   4.136   6.136
 5460SOL     OW17278   4.048   0.351   4.432
 5460SOL    HW117279   4.035   0.428   4.370
 5460SOL    HW217280   4.097   0.278   4.385
 5461SOL     OW17281   3.951   6.807   4.883
 5461SOL    HW117282   3.895   6.759   4.816
 5461SOL    HW217283   4.034   6.841   4.838
 5462SOL     OW17284   0.031   0.813   1.693
 5462SOL    HW117285   0.077   0.901   1.700
 5462SOL    HW217286   0.020   0.787   1.597
 5463SOL     OW17287   6.841   3.146   1.010
 5463SOL    HW117288   6.882   3.115   0.925
 5463SOL    HW217289   6.744   3.121   1.011
 5464SOL     OW17290   1.520   6.321   4.842
 5464SOL    HW117291   1.601   6.363   4.801
 5464SOL    HW217292   1.531   6.221   4.841
 5465SOL     OW17293   2.665   5.729   6.937
 5465SOL    HW117294   2.724   5.757   6.861
 5465SOL    HW217295   2.580   5.781   6.934
 5466SOL     OW17296   5.041   6.604   4.167
 5466SOL    HW117297   5.065   6.555   4.251
 5466SOL    HW217298   5.063   6.701   4.177
 5467SOL     OW17299   6.355   1.705   1.684
 5467SOL    HW117300   6.335   1.647   1.764
 5467SOL    HW217301   6.447   1.685   1.651
 5468SOL     OW17302   4.437   1.434   6.609
 5468SOL    HW117303   4.415   1.339   6.631
 5468SOL    HW217304   4.467   1.440   6.514
 5469SOL     OW17305   4.727   4.705   1.382
 5469SOL    HW117306   4.676   4.684   1.466
 5469SOL    HW217307   4.670   4.760   1.321
 5470SOL     OW17308   0.577   4.746   3.602
 5470SOL    HW117309   0.636   4.812   3.650
 5470SOL    HW217310   0.615   4.654   3.613
 5471SOL     OW17311   6.756   4.038   2.120
 5471SOL    HW117312   6.853   4.063   2.113
 5471SOL    HW217313   6.715   4.083   2.199
 5472SOL     OW17314   3.638   5.389   5.681
 5472SOL    HW117315   3.651   5.314   5.747
 5472SOL    HW217316   3.544   5.387   5.647
 5473SOL     OW17317   2.112   4.427   3.887
 5473SOL    HW117318   2.037   4.374   3.848
 5473SOL    HW217319   2.108   4.423   3.987
 5474SOL     OW17320   0.967   6.040   3.014
 5474SOL    HW117321   1.015   6.030   3.101
 5474SOL    HW217322   0.988   6.130   2.974
 5475SOL     OW17323   3.327   2.127   1.384
 5475SOL    HW117324   3.411   2.179   1.398
 5475SOL    HW217325   3.326   2.089   1.292
 5476SOL     OW17326   2.428   3.221   6.711
 5476SOL    HW117327   2.329   3.224   6.724
 5476SOL    HW217328   2.449   3.166   6.630
 5477SOL     OW17329   2.062   2.525   2.124
 5477SOL    HW117330   2.036   2.609   2.173
 5477SOL    HW217331   2.135   2.479   2.174
 5478SOL     OW17332   0.310   5.577   5.203
 5478SOL    HW117333   0.276   5.483   5.203
 5478SOL    HW217334   0.314   5.611   5.108
 5479SOL     OW17335   4.268   6.473   5.740
 5479SOL    HW117336   4.355   6.512   5.771
 5479SOL    HW217337   4.256   6.491   5.642
 5480SOL     OW17338   0.098   2.340   5.893
 5480SOL    HW117339   0.085   2.279   5.815
 5480SOL    HW217340   0.080   2.289   5.977
 5481SOL     OW17341   4.577   6.703   2.969
 5481SOL    HW117342   4.593   6.686   2.872
 5481SOL    HW217343   4.480   6.690   2.990
 5482SOL     OW17344   1.480   6.101   2.129
 5482SOL    HW117345   1.555   6.092   2.194
 5482SOL    HW217346   1.488   6.188   2.080
 5483SOL     OW17347   0.849   2.341   6.618
 5483SOL    HW117348   0.827   2.392   6.701
 5483SOL    HW217349   0.867   2.406   6.543
 5484SOL     OW17350   5.010   0.156   5.080
 5484SOL    HW117351   4.973   0.216   5.151
 5484SOL    HW217352   5.097   0.192   5.047
 5485SOL     OW17353   3.331   0.696   4.706
 5485SOL    HW117354   3.257   0.763   4.708
 5485SOL    HW217355   3.318   0.629   4.779
 5486SOL     OW17356   2.459   5.521   4.330
 5486SOL    HW117357   2.411   5.600   4.367
 5486SOL    HW217358   2.416   5.492   4.245
 5487SOL     OW17359   3.816   6.126   5.217
 5487SOL    HW117360   3.862   6.200   5.168
 5487SOL    HW217361   3.881   6.054   5.239
 5488SOL     OW17362   4.769   1.997   6.419
 5488SOL    HW117363   4.672   2.019   6.414
 5488SOL    HW217364   4.790   1.955   6.507
 5489SOL     OW17365   6.663   2.516   3.785
 5489SOL    HW117366   6.585   2.540   3.728
 5489SOL    HW217367   6.632   2.501   3.879
 5490SOL     OW17368   0.735   4.815   2.011
 5490SOL    HW117369   0.790   4.897   2.025
 5490SOL    HW217370   0.681   4.797   2.093
 5491SOL     OW17371   6.879   4.046   0.466
 5491SOL    HW117372   6.830   3.999   0.393
 5491SOL    HW217373   6.826   4.126   0.495
 5492SOL     OW17374   1.032   1.803   0.102
 5492SOL    HW117375   1.056   1.880   0.162
 5492SOL    HW217376   1.111   1.742   0.094
 5493SOL     OW17377   4.213   3.641   6.051
 5493SOL    HW117378   4.277   3.569   6.025
 5493SOL    HW217379   4.256   3.730   6.036
 5494SOL     OW17380   5.725   2.005   4.859
 5494SOL    HW117381   5.670   1.969   4.935
 5494SOL    HW217382   5.822   2.002   4.884
 5495SOL     OW17383   5.857   1.012   0.488
 5495SOL    HW117384   5.912   1.026   0.405
 5495SOL    HW217385   5.833   1.100   0.528
 5496SOL     OW17386   4.194   6.433   6.171
 5496SOL    HW117387   4.096   6.418   6.174
 5496SOL    HW217388   4.238   6.384   6.246
 5497SOL     OW17389   0.981   0.151   6.195
 5497SOL    HW117390   1.029   0.132   6.281
 5497SOL    HW217391   1.025   0.228   6.149
 5498SOL     OW17392   0.121   5.887   1.865
 5498SOL    HW117393   0.155   5.793   1.867
 5498SOL    HW217394   0.199   5.950   1.864
 5499SOL     OW17395   2.141   0.164   3.455
 5499SOL    HW117396   2.107   0.157   3.548
 5499SOL    HW217397   2.108   0.248   3.413
 5500SOL     OW17398   0.956   6.208   1.665
 5500SOL    HW117399   1.042   6.246   1.630
 5500SOL    HW217400   0.919   6.270   1.734
 5501SOL     OW17401   5.237   3.374   0.835
 5501SOL    HW117402   5.241   3.288   0.887
 5501SOL    HW217403   5.167   3.434   0.874
 5502SOL     OW17404   4.625   3.698   0.408
 5502SOL    HW117405   4.644   3.619   0.351
 5502SOL    HW217406   4.526   3.712   0.415
 5503SOL     OW17407   6.443   3.111   1.236
 5503SOL    HW117408   6.499   3.174   1.290
 5503SOL    HW217409   6.360   3.088   1.287
 5504SOL     OW17410   3.188   2.314   6.863
 5504SOL    HW117411   3.172   2.381   6.790
 5504SOL    HW217412   3.162   2.354   6.951
 5505SOL     OW17413   2.573   5.303   2.384
 5505SOL    HW117414   2.544   5.357   2.305
 5505SOL    HW217415   2.602   5.365   2.457
 5506SOL     OW17416   6.825   2.800   6.699
 5506SOL    HW117417   6.805   2.702   6.701
 5506SOL    HW217418   6.920   2.815   6.672
 5507SOL     OW17419   4.107   5.952   7.001
 5507SOL    HW117420   4.033   5.888   7.022
 5507SOL    HW217421   4.090   5.994   6.911
 5508SOL     OW17422   6.734   2.618   6.350
 5508SOL    HW117423   6.821   2.576   6.376
 5508SOL    HW217424   6.743   2.717   6.354
 5509SOL     OW17425   6.041   4.141   0.130
 5509SOL    HW117426   6.066   4.212   0.196
 5509SOL    HW217427   5.992   4.067   0.176
 5510SOL     OW17428   5.460   6.277   6.693
 5510SOL    HW117429   5.559   6.270   6.694
 5510SOL    HW217430   5.433   6.357   6.639
 5511SOL     OW17431   0.868   2.790   6.326
 5511SOL    HW117432   0.815   2.793   6.241
 5511SOL    HW217433   0.864   2.880   6.370
 5512SOL     OW17434   3.341   6.962   2.031
 5512SOL    HW117435   3.436   6.976   2.006
 5512SOL    HW217436   3.333   6.880   2.088
 5513SOL     OW17437   4.064   4.487   6.496
 5513SOL    HW117438   4.009   4.471   6.414
 5513SOL    HW217439   4.024   4.438   6.573
 5514SOL     OW17440   3.955   1.844   6.994
 5514SOL    HW117441   3.916   1.764   0.017
 5514SOL    HW217442   3.900   1.866   6.913
 5515SOL     OW17443   3.367   4.909   2.730
 5515SOL    HW117444   3.362   4.815   2.698
 5515SOL    HW217445   3.302   4.965   2.678
 5516SOL     OW17446   0.675   3.217   6.285
 5516SOL    HW117447   0.639   3.124   6.287
 5516SOL    HW217448   0.604   3.279   6.250
 5517SOL     OW17449   0.942   1.979   4.510
 5517SOL    HW117450   0.922   1.892   4.555
 5517SOL    HW217451   1.030   2.014   4.544
 5518SOL     OW17452   4.072   4.144   5.640
 5518SOL    HW117453   4.000   4.103   5.696
 5518SOL    HW217454   4.090   4.237   5.672
 5519SOL     OW17455   5.367   2.663   5.640
 5519SOL    HW117456   5.293   2.728   5.655
 5519SOL    HW217457   5.351   2.580   5.694
 5520SOL     OW17458   4.996   5.570   1.619
 5520SOL    HW117459   4.915   5.513   1.631
 5520SOL    HW217460   5.031   5.559   1.526
 5521SOL     OW17461   4.710   6.873   2.033
 5521SOL    HW117462   4.761   6.925   2.102
 5521SOL    HW217463   4.740   6.778   2.034
 5522SOL     OW17464   4.955   6.183   6.639
 5522SOL    HW117465   4.872   6.127   6.646
 5522SOL    HW217466   4.988   6.205   6.731
 5523SOL     OW17467   5.372   1.668   0.506
 5523SOL    HW117468   5.462   1.624   0.505
 5523SOL    HW217469   5.380   1.761   0.470
 5524SOL     OW17470   2.075   1.937   2.476
 5524SOL    HW117471   2.035   1.986   2.399
 5524SOL    HW217472   2.152   1.989   2.513
 5525SOL     OW17473   6.400   1.084   0.975
 5525SOL    HW117474   6.428   0.988   0.979
 5525SOL    HW217475   6.377   1.116   1.068
 5526SOL     OW17476   5.183   4.142   3.931
 5526SOL    HW117477   5.280   4.128   3.908
 5526SOL    HW217478   5.129   4.145   3.847
 5527SOL     OW17479   6.577   0.050   2.800
 5527SOL    HW117480   6.499   0.100   2.839
 5527SOL    HW217481   6.608   7.003   2.864
 5528SOL     OW17482   2.051   1.310   0.293
 5528SOL    HW117483   2.125   1.359   0.245
 5528SOL    HW217484   1.963   1.341   0.257
 5529SOL     OW17485   3.489   0.635   2.128
 5529SOL    HW117486   3.472   0.536   2.131
 5529SOL    HW217487   3.574   0.656   2.175
 5530SOL     OW17488   0.977   1.502   1.015
 5530SOL    HW117489   0.900   1.552   1.053
 5530SOL    HW217490   0.946   1.415   0.978
 5531SOL     OW17491   1.024   4.560   0.012
 5531SOL    HW117492   1.063   4.547   0.104
 5531SOL    HW217493   0.927   4.580   0.020
 5532SOL     OW17494   0.305   4.735   6.200
 5532SOL    HW117495   0.234   4.804   6.187
 5532SOL    HW217496   0.268   4.659   6.253
 5533SOL     OW17497   3.488   1.223   3.712
 5533SOL    HW117498   3.496   1.133   3.671
 5533SOL    HW217499   3.554   1.232   3.786
 5534SOL     OW17500   1.495   0.545   4.333
 5534SOL    HW117501   1.564   0.549   4.406
 5534SOL    HW217502   1.408   0.580   4.368
 5535SOL     OW17503   0.879   1.574   2.328
 5535SOL    HW117504   0.853   1.637   2.401
 5535SOL    HW217505   0.799   1.555   2.271
 5536SOL     OW17506   4.384   0.568   4.734
 5536SOL    HW117507   4.320   0.492   4.718
 5536SOL    HW217508   4.338   0.640   4.785
 5537SOL     OW17509   2.644   2.352   2.685
 5537SOL    HW117510   2.675   2.358   2.780
 5537SOL    HW217511   2.720   2.321   2.627
 5538SOL     OW17512   3.601   5.644   3.920
 5538SOL    HW117513   3.530   5.590   3.873
 5538SOL    HW217514   3.667   5.582   3.962
 5539SOL     OW17515   2.674   3.847   0.147
 5539SOL    HW117516   2.651   3.939   0.179
 5539SOL    HW217517   2.590   3.794   0.138
 5540SOL     OW17518   3.780   5.844   1.269
 5540SOL    HW117519   3.736   5.872   1.183
 5540SOL    HW217520   3.813   5.926   1.317
 5541SOL     OW17521   4.617   0.491   6.796
 5541SOL    HW117522   4.644   0.586   6.776
 5541SOL    HW217523   4.699   0.434   6.804
 5542SOL     OW17524   5.790   3.761   6.770
 5542SOL    HW117525   5.862   3.765   6.701
 5542SOL    HW217526   5.706   3.726   6.729
 5543SOL     OW17527   0.720   2.643   5.143
 5543SOL    HW117528   0.725   2.579   5.220
 5543SOL    HW217529   0.759   2.731   5.170
 5544SOL     OW17530   5.490   6.725   0.018
 5544SOL    HW117531   5.442   6.770   6.965
 5544SOL    HW217532   5.585   6.709   7.016
 5545SOL     OW17533   2.574   2.474   2.033
 5545SOL    HW117534   2.670   2.447   2.026
 5545SOL    HW217535   2.516   2.396   2.012
 5546SOL     OW17536   3.192   5.734   4.438
 5546SOL    HW117537   3.121   5.803   4.452
 5546SOL    HW217538   3.259   5.769   4.373
 5547SOL     OW17539   2.818   5.031   3.647
 5547SOL    HW117540   2.918   5.037   3.638
 5547SOL    HW217541   2.786   4.945   3.607
 5548SOL     OW17542   6.560   1.592   4.367
 5548SOL    HW117543   6.576   1.528   4.442
 5548SOL    HW217544   6.610   1.563   4.286
 5549SOL     OW17545   3.671   4.797   5.680
 5549SOL    HW117546   3.658   4.738   5.760
 5549SOL    HW217547   3.586   4.847   5.662
 5550SOL     OW17548   3.080   6.155   2.488
 5550SOL    HW117549   3.007   6.122   2.428
 5550SOL    HW217550   3.158   6.184   2.432
 5551SOL     OW17551   0.602   1.489   2.584
 5551SOL    HW117552   0.589   1.426   2.508
 5551SOL    HW217553   0.542   1.569   2.571
 5552SOL     OW17554   2.206   2.409   1.705
 5552SOL    HW117555   2.224   2.326   1.758
 5552SOL    HW217556   2.247   2.401   1.614
 5553SOL     OW17557   4.719   6.723   5.959
 5553SOL    HW117558   4.644   6.788   5.969
 5553SOL    HW217559   4.793   6.765   5.907
 5554SOL     OW17560   3.365   0.078   5.894
 5554SOL    HW117561   3.363   0.170   5.855
 5554SOL    HW217562   3.419   0.078   5.979
 5555SOL     OW17563   1.288   5.603   1.612
 5555SOL    HW117564   1.232   5.521   1.606
 5555SOL    HW217565   1.229   5.684   1.618
 5556SOL     OW17566   6.982   1.256   4.998
 5556SOL    HW117567   6.951   1.162   5.015
 5556SOL    HW217568   6.922   1.299   4.931
 5557SOL     OW17569   3.396   0.860   2.570
 5557SOL    HW117570   3.436   0.931   2.512
 5557SOL    HW217571   3.314   0.896   2.615
 5558SOL     OW17572   5.358   2.784   6.752
 5558SOL    HW117573   5.380   2.757   6.846
 5558SOL    HW217574   5.366   2.704   6.692
 5559SOL     OW17575   3.768   1.289   0.974
 5559SOL    HW117576   3.689   1.268   1.030
 5559SOL    HW217577   3.839   1.220   0.988
 5560SOL     OW17578   0.098   2.316   4.570
 5560SOL    HW117579   0.077   2.401   4.522
 5560SOL    HW217580   0.079   2.238   4.511
 5561SOL     OW17581   2.037   4.485   2.346
 5561SOL    HW117582   2.100   4.432   2.288
 5561SOL    HW217583   1.954   4.431   2.362
 5562SOL     OW17584   4.570   2.741   0.171
 5562SOL    HW117585   4.584   2.793   0.256
 5562SOL    HW217586   4.529   2.652   0.193
 5563SOL     OW17587   3.905   4.426   1.113
 5563SOL    HW117588   3.970   4.356   1.083
 5563SOL    HW217589   3.915   4.441   1.211
 5564SOL     OW17590   6.547   0.873   2.242
 5564SOL    HW117591   6.546   0.808   2.318
 5564SOL    HW217592   6.632   0.926   2.245
 5565SOL     OW17593   1.753   2.894   5.944
 5565SOL    HW117594   1.788   2.816   5.996
 5565SOL    HW217595   1.810   2.908   5.863
 5566SOL     OW17596   2.197   4.209   0.674
 5566SOL    HW117597   2.255   4.290   0.687
 5566SOL    HW217598   2.171   4.173   0.764
 5567SOL     OW17599   1.200   5.498   3.305
 5567SOL    HW117600   1.121   5.478   3.247
 5567SOL    HW217601   1.252   5.574   3.265
 5568SOL     OW17602   4.259   2.945   6.748
 5568SOL    HW117603   4.351   2.984   6.753
 5568SOL    HW217604   4.208   2.970   6.830
 5569SOL     OW17605   4.363   1.246   5.947
 5569SOL    HW117606   4.287   1.187   5.920
 5569SOL    HW217607   4.360   1.331   5.894
 5570SOL     OW17608   1.785   1.969   5.684
 5570SOL    HW117609   1.875   1.957   5.641
 5570SOL    HW217610   1.715   1.975   5.613
 5571SOL     OW17611   0.413   4.664   6.534
 5571SOL    HW117612   0.442   4.696   6.444
 5571SOL    HW217613   0.490   4.620   6.581
 5572SOL     OW17614   0.922   3.832   5.452
 5572SOL    HW117615   0.947   3.737   5.472
 5572SOL    HW217616   1.005   3.887   5.442
 5573SOL     OW17617   0.134   3.675   6.870
 5573SOL    HW117618   0.079   3.619   6.932
 5573SOL    HW217619   0.126   3.771   6.897
 5574SOL     OW17620   2.208   6.250   4.593
 5574SOL    HW117621   2.113   6.249   4.562
 5574SOL    HW217622   2.211   6.232   4.691
 5575SOL     OW17623   0.995   1.375   2.797
 5575SOL    HW117624   1.014   1.283   2.831
 5575SOL    HW217625   1.081   1.419   2.771
 5576SOL     OW17626   5.349   6.769   6.352
 5576SOL    HW117627   5.335   6.835   6.278
 5576SOL    HW217628   5.432   6.793   6.402
 5577SOL     OW17629   1.457   5.035   5.077
 5577SOL    HW117630   1.552   5.018   5.051
 5577SOL    HW217631   1.411   4.947   5.092
 5578SOL     OW17632   4.191   1.848   6.104
 5578SOL    HW117633   4.263   1.889   6.160
 5578SOL    HW217634   4.105   1.847   6.156
 5579SOL     OW17635   4.902   4.883   1.972
 5579SOL    HW117636   4.859   4.814   1.914
 5579SOL    HW217637   4.984   4.918   1.926
 5580SOL     OW17638   6.483   1.306   2.080
 5580SOL    HW117639   6.410   1.239   2.094
 5580SOL    HW217640   6.503   1.314   1.983
 5581SOL     OW17641   3.572   3.179   0.704
 5581SOL    HW117642   3.544   3.105   0.644
 5581SOL    HW217643   3.499   3.197   0.771
 5582SOL     OW17644   2.959   3.616   5.073
 5582SOL    HW117645   2.959   3.668   4.989
 5582SOL    HW217646   2.946   3.519   5.052
 5583SOL     OW17647   4.243   1.296   6.189
 5583SOL    HW117648   4.285   1.242   6.115
 5583SOL    HW217649   4.286   1.386   6.193
 5584SOL     OW17650   4.975   3.595   4.501
 5584SOL    HW117651   4.943   3.617   4.593
 5584SOL    HW217652   5.054   3.534   4.507
 5585SOL     OW17653   6.890   0.803   3.665
 5585SOL    HW117654   6.889   0.763   3.756
 5585SOL    HW217655   6.852   0.895   3.668
 5586SOL     OW17656   1.751   0.974   0.268
 5586SOL    HW117657   1.706   0.916   0.336
 5586SOL    HW217658   1.697   1.057   0.253
 5587SOL     OW17659   3.901   6.908   3.556
 5587SOL    HW117660   3.980   6.952   3.598
 5587SOL    HW217661   3.858   6.973   3.492
 5588SOL     OW17662   4.401   5.488   0.328
 5588SOL    HW117663   4.403   5.415   0.260
 5588SOL    HW217664   4.449   5.568   0.292
 5589SOL     OW17665   1.292   2.629   6.343
 5589SOL    HW117666   1.338   2.700   6.290
 5589SOL    HW217667   1.322   2.539   6.311
 5590SOL     OW17668   5.768   0.464   3.671
 5590SOL    HW117669   5.840   0.460   3.602
 5590SOL    HW217670   5.767   0.554   3.715
 5591SOL     OW17671   5.261   1.403   6.081
 5591SOL    HW117672   5.225   1.495   6.096
 5591SOL    HW217673   5.350   1.410   6.035
 5592SOL     OW17674   1.205   3.347   2.664
 5592SOL    HW117675   1.195   3.370   2.567
 5592SOL    HW217676   1.171   3.422   2.720
 5593SOL     OW17677   2.364   3.488   5.466
 5593SOL    HW117678   2.348   3.390   5.457
 5593SOL    HW217679   2.324   3.536   5.388
 5594SOL     OW17680   2.756   1.083   6.021
 5594SOL    HW117681   2.819   1.158   6.043
 5594SOL    HW217682   2.751   1.072   5.922
 5595SOL     OW17683   6.787   3.760   0.810
 5595SOL    HW117684   6.752   3.766   0.904
 5595SOL    HW217685   6.743   3.683   0.763
 5596SOL     OW17686   5.191   3.889   4.091
 5596SOL    HW117687   5.161   3.955   4.023
 5596SOL    HW217688   5.291   3.883   4.090
 5597SOL     OW17689   0.523   2.150   6.844
 5597SOL    HW117690   0.508   2.066   6.896
 5597SOL    HW217691   0.598   2.202   6.886
 5598SOL     OW17692   6.686   0.053   3.252
 5598SOL    HW117693   6.600   0.013   3.220
 5598SOL    HW217694   6.725   0.110   3.179
 5599SOL     OW17695   4.827   2.946   2.763
 5599SOL    HW117696   4.842   2.938   2.862
 5599SOL    HW217697   4.846   3.040   2.734
 5600SOL     OW17698   2.050   3.347   2.201
 5600SOL    HW117699   2.111   3.325   2.277
 5600SOL    HW217700   2.098   3.407   2.136
 5601SOL     OW17701   5.184   2.495   6.713
 5601SOL    HW117702   5.282   2.499   6.692
 5601SOL    HW217703   5.170   2.521   6.808
 5602SOL     OW17704   5.642   0.834   2.789
 5602SOL    HW117705   5.592   0.894   2.727
 5602SOL    HW217706   5.588   0.819   2.872
 5603SOL     OW17707   3.814   1.319   6.581
 5603SOL    HW117708   3.838   1.416   6.583
 5603SOL    HW217709   3.817   1.286   6.487
 5604SOL     OW17710   1.844   3.958   3.733
 5604SOL    HW117711   1.812   3.864   3.746
 5604SOL    HW217712   1.811   4.015   3.809
 5605SOL     OW17713   3.028   6.698   4.371
 5605SOL    HW117714   3.118   6.738   4.383
 5605SOL    HW217715   2.958   6.769   4.379
 5606SOL     OW17716   4.301   4.501   1.050
 5606SOL    HW117717   4.204   4.512   1.031
 5606SOL    HW217718   4.347   4.462   0.970
 5607SOL     OW17719   1.482   1.929   1.678
 5607SOL    HW117720   1.389   1.917   1.713
 5607SOL    HW217721   1.528   2.001   1.730
 5608SOL     OW17722   6.717   6.566   3.847
 5608SOL    HW117723   6.680   6.473   3.839
 5608SOL    HW217724   6.657   6.630   3.800
 5609SOL     OW17725   0.370   1.008   0.530
 5609SOL    HW117726   0.365   1.108   0.541
 5609SOL    HW217727   0.434   0.986   0.457
 5610SOL     OW17728   5.204   6.404   6.528
 5610SOL    HW117729   5.253   6.329   6.484
 5610SOL    HW217730   5.115   6.371   6.561
 5611SOL     OW17731   0.258   4.220   2.037
 5611SOL    HW117732   0.232   4.257   1.947
 5611SOL    HW217733   0.245   4.121   2.037
 5612SOL     OW17734   5.427   1.996   1.084
 5612SOL    HW117735   5.451   1.928   1.153
 5612SOL    HW217736   5.468   1.971   0.997
 5613SOL     OW17737   6.940   5.430   5.322
 5613SOL    HW117738   6.973   5.420   5.228
 5613SOL    HW217739   6.844   5.460   5.321
 5614SOL     OW17740   5.601   2.377   4.513
 5614SOL    HW117741   5.560   2.382   4.604
 5614SOL    HW217742   5.613   2.282   4.486
 5615SOL     OW17743   0.716   3.403   2.733
 5615SOL    HW117744   0.729   3.501   2.743
 5615SOL    HW217745   0.791   3.355   2.777
 5616SOL     OW17746   1.878   3.027   1.958
 5616SOL    HW117747   1.967   3.069   1.974
 5616SOL    HW217748   1.889   2.930   1.936
 5617SOL     OW17749   0.367   5.110   5.027
 5617SOL    HW117750   0.373   5.116   4.927
 5617SOL    HW217751   0.317   5.027   5.053
 5618SOL     OW17752   5.140   1.196   3.264
 5618SOL    HW117753   5.184   1.174   3.177
 5618SOL    HW217754   5.084   1.278   3.253
 5619SOL     OW17755   3.654   4.071   3.831
 5619SOL    HW117756   3.666   4.013   3.912
 5619SOL    HW217757   3.740   4.075   3.779
 5620SOL     OW17758   4.896   4.560   5.488
 5620SOL    HW117759   4.979   4.506   5.475
 5620SOL    HW217760   4.875   4.566   5.586
 5621SOL     OW17761   0.475   3.427   0.333
 5621SOL    HW117762   0.392   3.433   0.277
 5621SOL    HW217763   0.523   3.342   0.312
 5622SOL     OW17764   5.372   5.708   3.949
 5622SOL    HW117765   5.287   5.693   3.899
 5622SOL    HW217766   5.352   5.722   4.046
 5623SOL     OW17767   4.668   4.296   3.432
 5623SOL    HW117768   4.687   4.308   3.530
 5623SOL    HW217769   4.623   4.379   3.397
 5624SOL     OW17770   4.831   3.912   4.091
 5624SOL    HW117771   4.829   3.829   4.147
 5624SOL    HW217772   4.849   3.991   4.149
 5625SOL     OW17773   3.922   0.149   6.373
 5625SOL    HW117774   3.863   0.081   6.330
 5625SOL    HW217775   3.892   0.240   6.346
 5626SOL     OW17776   1.787   4.337   5.961
 5626SOL    HW117777   1.796   4.241   5.935
 5626SOL    HW217778   1.832   4.352   6.049
 5627SOL     OW17779   0.624   5.581   0.650
 5627SOL    HW117780   0.679   5.551   0.728
 5627SOL    HW217781   0.673   5.563   0.565
 5628SOL     OW17782   1.054   2.642   6.727
 5628SOL    HW117783   0.969   2.628   6.677
 5628SOL    HW217784   1.042   2.613   6.822
 5629SOL     OW17785   0.813   3.504   5.284
 5629SOL    HW117786   0.835   3.520   5.188
 5629SOL    HW217787   0.897   3.494   5.336
 5630SOL     OW17788   1.072   4.593   6.665
 5630SOL    HW117789   1.133   4.576   6.743
 5630SOL    HW217790   1.056   4.508   6.616
 5631SOL     OW17791   2.683   0.902   3.684
 5631SOL    HW117792   2.778   0.879   3.703
 5631SOL    HW217793   2.630   0.901   3.769
 5632SOL     OW17794   2.790   6.308   6.383
 5632SOL    HW117795   2.713   6.359   6.422
 5632SOL    HW217796   2.767   6.279   6.290
 5633SOL     OW17797   1.747   5.397   5.085
 5633SOL    HW117798   1.843   5.418   5.069
 5633SOL    HW217799   1.701   5.385   4.996
 5634SOL     OW17800   2.226   0.376   1.426
 5634SOL    HW117801   2.171   0.355   1.346
 5634SOL    HW217802   2.287   0.453   1.405
 5635SOL     OW17803   4.291   0.977   3.028
 5635SOL    HW117804   4.214   0.999   3.088
 5635SOL    HW217805   4.342   1.061   3.006
 5636SOL     OW17806   5.024   0.483   4.521
 5636SOL    HW117807   4.926   0.490   4.499
 5636SOL    HW217808   5.071   0.565   4.490
 5637SOL     OW17809   6.157   0.209   5.664
 5637SOL    HW117810   6.081   0.213   5.728
 5637SOL    HW217811   6.155   0.291   5.606
 5638SOL     OW17812   1.408   6.591   7.010
 5638SOL    HW117813   1.475   6.528   6.971
 5638SOL    HW217814   1.421   6.596   0.087
 5639SOL     OW17815   3.871   6.976   1.533
 5639SOL    HW117816   3.875   0.050   1.508
 5639SOL    HW217817   3.798   6.931   1.483
 5640SOL     OW17818   4.619   6.438   4.100
 5640SOL    HW117819   4.657   6.478   4.016
 5640SOL    HW217820   4.524   6.409   4.082
 5641SOL     OW17821   6.549   4.528   3.857
 5641SOL    HW117822   6.573   4.584   3.936
 5641SOL    HW217823   6.624   4.464   3.838
 5642SOL     OW17824   2.259   2.072   6.433
 5642SOL    HW117825   2.281   2.018   6.351
 5642SOL    HW217826   2.180   2.030   6.479
 5643SOL     OW17827   5.070   2.477   3.331
 5643SOL    HW117828   5.017   2.461   3.415
 5643SOL    HW217829   5.079   2.391   3.280
 5644SOL     OW17830   2.748   1.049   5.753
 5644SOL    HW117831   2.651   1.043   5.729
 5644SOL    HW217832   2.803   1.034   5.671
 5645SOL     OW17833   6.264   6.092   4.419
 5645SOL    HW117834   6.337   6.115   4.483
 5645SOL    HW217835   6.295   6.111   4.326
 5646SOL     OW17836   6.716   0.994   2.542
 5646SOL    HW117837   6.706   0.979   2.443
 5646SOL    HW217838   6.813   0.995   2.566
 5647SOL     OW17839   6.005   3.462   6.510
 5647SOL    HW117840   5.995   3.559   6.532
 5647SOL    HW217841   6.046   3.414   6.587
 5648SOL     OW17842   1.695   1.852   4.034
 5648SOL    HW117843   1.705   1.789   3.957
 5648SOL    HW217844   1.599   1.880   4.041
 5649SOL     OW17845   6.763   0.589   4.832
 5649SOL    HW117846   6.669   0.580   4.866
 5649SOL    HW217847   6.792   0.684   4.840
 5650SOL     OW17848   6.048   4.701   5.706
 5650SOL    HW117849   5.984   4.718   5.632
 5650SOL    HW217850   6.006   4.641   5.774
 5651SOL     OW17851   5.786   0.559   3.153
 5651SOL    HW117852   5.826   0.473   3.120
 5651SOL    HW217853   5.839   0.636   3.119
 5652SOL     OW17854   4.305   4.214   6.668
 5652SOL    HW117855   4.231   4.233   6.603
 5652SOL    HW217856   4.391   4.207   6.618
 5653SOL     OW17857   2.337   6.552   5.846
 5653SOL    HW117858   2.359   6.628   5.907
 5653SOL    HW217859   2.237   6.538   5.844
 5654SOL     OW17860   2.729   6.564   0.228
 5654SOL    HW117861   2.750   6.595   0.321
 5654SOL    HW217862   2.640   6.599   0.200
 5655SOL     OW17863   6.010   5.442   2.191
 5655SOL    HW117864   6.095   5.494   2.199
 5655SOL    HW217865   5.933   5.500   2.218
 5656SOL     OW17866   2.734   4.649   6.405
 5656SOL    HW117867   2.773   4.634   6.314
 5656SOL    HW217868   2.803   4.689   6.465
 5657SOL     OW17869   5.394   5.687   2.054
 5657SOL    HW117870   5.485   5.657   2.028
 5657SOL    HW217871   5.340   5.609   2.085
 5658SOL     OW17872   4.515   6.872   6.045
 5658SOL    HW117873   4.502   6.910   6.137
 5658SOL    HW217874   4.463   6.787   6.036
 5659SOL     OW17875   2.852   3.460   2.421
 5659SOL    HW117876   2.905   3.375   2.420
 5659SOL    HW217877   2.902   3.529   2.474
 5660SOL     OW17878   0.611   4.810   1.768
 5660SOL    HW117879   0.662   4.833   1.852
 5660SOL    HW217880   0.604   4.711   1.760
 5661SOL     OW17881   5.950   5.759   4.883
 5661SOL    HW117882   5.938   5.785   4.787
 5661SOL    HW217883   5.860   5.756   4.927
 5662SOL     OW17884   1.777   4.352   4.839
 5662SOL    HW117885   1.744   4.321   4.749
 5662SOL    HW217886   1.805   4.273   4.893
 5663SOL     OW17887   2.652   3.684   0.418
 5663SOL    HW117888   2.685   3.757   0.477
 5663SOL    HW217889   2.566   3.712   0.374
 5664SOL     OW17890   6.564   6.794   1.199
 5664SOL    HW117891   6.475   6.766   1.235
 5664SOL    HW217892   6.587   6.737   1.121
 5665SOL     OW17893   1.411   0.701   5.806
 5665SOL    HW117894   1.351   0.626   5.778
 5665SOL    HW217895   1.380   0.785   5.761
 5666SOL     OW17896   5.043   5.955   6.289
 5666SOL    HW117897   4.994   5.917   6.210
 5666SOL    HW217898   5.045   5.887   6.362
 5667SOL     OW17899   5.138   4.627   3.550
 5667SOL    HW117900   5.234   4.611   3.575
 5667SOL    HW217901   5.078   4.585   3.618
 5668SOL     OW17902   6.355   2.567   6.561
 5668SOL    HW117903   6.260   2.578   6.533
 5668SOL    HW217904   6.415   2.576   6.482
 5669SOL     OW17905   0.812   2.187   5.518
 5669SOL    HW117906   0.911   2.176   5.526
 5669SOL    HW217907   0.767   2.127   5.584
 5670SOL     OW17908   1.541   2.955   2.167
 5670SOL    HW117909   1.482   3.034   2.149
 5670SOL    HW217910   1.620   2.984   2.220
 5671SOL     OW17911   0.430   0.476   5.969
 5671SOL    HW117912   0.441   0.536   5.890
 5671SOL    HW217913   0.519   0.440   5.997
 5672SOL     OW17914   4.357   4.564   5.485
 5672SOL    HW117915   4.319   4.598   5.399
 5672SOL    HW217916   4.450   4.597   5.496
 5673SOL     OW17917   1.895   6.403   0.965
 5673SOL    HW117918   1.846   6.367   1.044
 5673SOL    HW217919   1.832   6.410   0.887
 5674SOL     OW17920   0.678   2.885   0.484
 5674SOL    HW117921   0.610   2.830   0.533
 5674SOL    HW217922   0.742   2.824   0.437
 5675SOL     OW17923   4.131   1.388   5.586
 5675SOL    HW117924   4.065   1.463   5.600
 5675SOL    HW217925   4.116   1.317   5.655
 5676SOL     OW17926   2.204   6.389   2.025
 5676SOL    HW117927   2.169   6.295   2.020
 5676SOL    HW217928   2.255   6.401   2.110
 5677SOL     OW17929   5.715   0.277   3.088
 5677SOL    HW117930   5.717   0.179   3.067
 5677SOL    HW217931   5.687   0.290   3.183
 5678SOL     OW17932   1.542   5.542   2.682
 5678SOL    HW117933   1.518   5.495   2.767
 5678SOL    HW217934   1.459   5.581   2.641
 5679SOL     OW17935   3.965   5.705   5.528
 5679SOL    HW117936   3.986   5.801   5.548
 5679SOL    HW217937   3.920   5.664   5.607
 5680SOL     OW17938   1.495   0.230   6.380
 5680SOL    HW117939   1.581   0.281   6.369
 5680SOL    HW217940   1.418   0.289   6.356
 5681SOL     OW17941   3.333   3.538   0.254
 5681SOL    HW117942   3.393   3.497   0.323
 5681SOL    HW217943   3.317   3.634   0.277
 5682SOL     OW17944   2.088   3.964   4.598
 5682SOL    HW117945   2.124   3.962   4.504
 5682SOL    HW217946   2.009   3.904   4.604
 5683SOL     OW17947   3.199   3.505   4.925
 5683SOL    HW117948   3.216   3.601   4.902
 5683SOL    HW217949   3.200   3.451   4.841
 5684SOL     OW17950   3.300   4.072   2.582
 5684SOL    HW117951   3.232   4.055   2.510
 5684SOL    HW217952   3.286   4.164   2.619
 5685SOL     OW17953   0.146   6.832   1.909
 5685SOL    HW117954   0.106   6.793   1.826
 5685SOL    HW217955   0.238   6.796   1.921
 5686SOL     OW17956   3.657   4.630   6.398
 5686SOL    HW117957   3.667   4.531   6.396
 5686SOL    HW217958   3.700   4.669   6.317
 5687SOL     OW17959   4.776   6.435   6.029
 5687SOL    HW117960   4.764   6.530   6.002
 5687SOL    HW217961   4.699   6.406   6.086
 5688SOL     OW17962   5.506   1.377   2.423
 5688SOL    HW117963   5.470   1.286   2.401
 5688SOL    HW217964   5.430   1.442   2.424
 5689SOL     OW17965   3.841   2.743   5.253
 5689SOL    HW117966   3.883   2.819   5.303
 5689SOL    HW217967   3.802   2.777   5.167
 5690SOL     OW17968   3.517   0.512   3.324
 5690SOL    HW117969   3.468   0.542   3.242
 5690SOL    HW217970   3.464   0.442   3.371
 5691SOL     OW17971   3.182   0.560   4.491
 5691SOL    HW117972   3.170   0.618   4.410
 5691SOL    HW217973   3.234   0.610   4.560
 5692SOL     OW17974   5.783   2.964   0.590
 5692SOL    HW117975   5.686   2.941   0.598
 5692SOL    HW217976   5.834   2.883   0.561
 5693SOL     OW17977   5.661   3.236   1.904
 5693SOL    HW117978   5.622   3.327   1.888
 5693SOL    HW217979   5.690   3.196   1.818
 5694SOL     OW17980   1.778   2.689   5.183
 5694SOL    HW117981   1.821   2.635   5.256
 5694SOL    HW217982   1.784   2.640   5.096
 5695SOL     OW17983   1.789   3.235   3.585
 5695SOL    HW117984   1.716   3.179   3.545
 5695SOL    HW217985   1.868   3.237   3.523
 5696SOL     OW17986   3.276   1.307   6.705
 5696SOL    HW117987   3.267   1.391   6.760
 5696SOL    HW217988   3.352   1.317   6.641
 5697SOL     OW17989   6.990   3.952   0.692
 5697SOL    HW117990   6.968   3.970   0.596
 5697SOL    HW217991   6.913   3.904   0.735
 5698SOL     OW17992   1.804   4.491   4.319
 5698SOL    HW117993   1.825   4.524   4.411
 5698SOL    HW217994   1.755   4.563   4.269
 5699SOL     OW17995   0.785   2.382   5.296
 5699SOL    HW117996   0.785   2.329   5.381
 5699SOL    HW217997   0.794   2.321   5.218
 5700SOL     OW17998   1.435   5.213   4.242
 5700SOL    HW117999   1.489   5.286   4.284
 5700SOL    HW218000   1.491   5.166   4.173
 5701SOL     OW18001   4.895   2.183   2.475
 5701SOL    HW118002   4.876   2.274   2.512
 5701SOL    HW218003   4.904   2.117   2.550
 5702SOL     OW18004   4.130   0.447   6.816
 5702SOL    HW118005   4.217   0.401   6.800
 5702SOL    HW218006   4.147   0.542   6.844
 5703SOL     OW18007   5.078   3.872   2.319
 5703SOL    HW118008   5.006   3.933   2.352
 5703SOL    HW218009   5.098   3.802   2.387
 5704SOL     OW18010   5.301   3.513   3.214
 5704SOL    HW118011   5.222   3.459   3.243
 5704SOL    HW218012   5.362   3.456   3.159
 5705SOL     OW18013   6.594   1.014   4.139
 5705SOL    HW118014   6.550   0.930   4.170
 5705SOL    HW218015   6.687   0.993   4.107
 5706SOL     OW18016   1.978   1.293   5.575
 5706SOL    HW118017   2.028   1.288   5.661
 5706SOL    HW218018   2.028   1.351   5.511
 5707SOL     OW18019   4.394   0.888   1.341
 5707SOL    HW118020   4.390   0.794   1.372
 5707SOL    HW218021   4.462   0.939   1.393
 5708SOL     OW18022   1.045   6.807   0.471
 5708SOL    HW118023   0.956   6.765   0.455
 5708SOL    HW218024   1.106   6.741   0.515
 5709SOL     OW18025   0.507   3.139   0.940
 5709SOL    HW118026   0.567   3.081   0.996
 5709SOL    HW218027   0.516   3.113   0.843
 5710SOL     OW18028   3.418   5.027   6.615
 5710SOL    HW118029   3.396   5.081   6.534
 5710SOL    HW218030   3.371   4.939   6.611
 5711SOL     OW18031   4.825   1.339   4.684
 5711SOL    HW118032   4.899   1.351   4.750
 5711SOL    HW218033   4.760   1.414   4.691
 5712SOL     OW18034   5.307   6.904   6.132
 5712SOL    HW118035   5.271   6.997   6.122
 5712SOL    HW218036   5.240   6.839   6.096
 5713SOL     OW18037   0.182   3.684   2.506
 5713SOL    HW118038   0.109   3.655   2.444
 5713SOL    HW218039   0.177   3.631   2.591
 5714SOL     OW18040   2.571   0.704   1.249
 5714SOL    HW118041   2.505   0.678   1.319
 5714SOL    HW218042   2.586   0.627   1.187
 5715SOL     OW18043   0.592   6.082   4.059
 5715SOL    HW118044   0.606   5.985   4.081
 5715SOL    HW218045   0.663   6.136   4.104
 5716SOL     OW18046   1.336   2.699   4.861
 5716SOL    HW118047   1.364   2.791   4.888
 5716SOL    HW218048   1.379   2.632   4.921
 5717SOL     OW18049   0.487   4.461   5.813
 5717SOL    HW118050   0.406   4.408   5.787
 5717SOL    HW218051   0.543   4.477   5.732
 5718SOL     OW18052   3.213   5.760   5.804
 5718SOL    HW118053   3.206   5.688   5.874
 5718SOL    HW218054   3.297   5.747   5.752
 5719SOL     OW18055   2.068   0.954   6.843
 5719SOL    HW118056   2.030   1.043   6.819
 5719SOL    HW218057   2.039   0.928   6.934
 5720SOL     OW18058   1.999   5.829   4.202
 5720SOL    HW118059   1.934   5.799   4.133
 5720SOL    HW218060   2.088   5.844   4.159
 5721SOL     OW18061   6.343   5.488   6.711
 5721SOL    HW118062   6.403   5.411   6.730
 5721SOL    HW218063   6.396   5.572   6.704
 5722SOL     OW18064   5.510   0.929   4.377
 5722SOL    HW118065   5.434   0.938   4.441
 5722SOL    HW218066   5.495   0.848   4.319
 5723SOL     OW18067   6.617   5.041   1.146
 5723SOL    HW118068   6.654   5.028   1.238
 5723SOL    HW218069   6.563   5.126   1.143
 5724SOL     OW18070   4.512   2.842   6.082
 5724SOL    HW118071   4.528   2.914   6.150
 5724SOL    HW218072   4.599   2.815   6.041
 5725SOL     OW18073   6.115   6.962   5.555
 5725SOL    HW118074   6.102   0.036   5.579
 5725SOL    HW218075   6.153   6.955   5.463
 5726SOL     OW18076   4.186   5.492   5.409
 5726SOL    HW118077   4.162   5.454   5.319
 5726SOL    HW218078   4.105   5.530   5.452
 5727SOL     OW18079   5.253   3.055   3.567
 5727SOL    HW118080   5.339   3.087   3.607
 5727SOL    HW218081   5.203   2.999   3.634
 5728SOL     OW18082   3.767   1.096   5.289
 5728SOL    HW118083   3.842   1.093   5.355
 5728SOL    HW218084   3.729   1.189   5.285
 5729SOL     OW18085   2.459   2.127   3.991
 5729SOL    HW118086   2.508   2.073   3.923
 5729SOL    HW218087   2.445   2.220   3.958
 5730SOL     OW18088   3.871   4.626   0.244
 5730SOL    HW118089   3.917   4.713   0.225
 5730SOL    HW218090   3.839   4.586   0.158
 5731SOL     OW18091   4.479   1.271   5.005
 5731SOL    HW118092   4.563   1.255   4.953
 5731SOL    HW218093   4.435   1.355   4.973
 5732SOL     OW18094   6.769   3.485   4.448
 5732SOL    HW118095   6.854   3.493   4.397
 5732SOL    HW218096   6.787   3.496   4.546
 5733SOL     OW18097   2.189   6.451   0.961
 5733SOL    HW118098   2.198   6.551   0.964
 5733SOL    HW218099   2.101   6.427   0.920
 5734SOL     OW18100   1.434   0.251   5.772
 5734SOL    HW118101   1.488   0.231   5.854
 5734SOL    HW218102   1.494   0.253   5.692
 5735SOL     OW18103   5.221   1.465   0.956
 5735SOL    HW118104   5.321   1.459   0.952
 5735SOL    HW218105   5.183   1.441   0.867
 5736SOL     OW18106   4.337   3.585   6.341
 5736SOL    HW118107   4.253   3.532   6.348
 5736SOL    HW218108   4.405   3.549   6.405
 5737SOL     OW18109   5.548   5.519   2.652
 5737SOL    HW118110   5.603   5.445   2.690
 5737SOL    HW218111   5.573   5.532   2.556
 5738SOL     OW18112   3.383   1.961   0.831
 5738SOL    HW118113   3.407   2.003   0.744
 5738SOL    HW218114   3.458   1.903   0.863
 5739SOL     OW18115   2.060   1.251   5.818
 5739SOL    HW118116   2.001   1.263   5.898
 5739SOL    HW218117   2.149   1.293   5.835
 5740SOL     OW18118   5.265   2.913   2.324
 5740SOL    HW118119   5.205   2.864   2.261
 5740SOL    HW218120   5.219   2.997   2.354
 5741SOL     OW18121   1.317   3.495   4.321
 5741SOL    HW118122   1.395   3.540   4.366
 5741SOL    HW218123   1.287   3.417   4.377
 5742SOL     OW18124   6.410   4.350   2.356
 5742SOL    HW118125   6.383   4.429   2.301
 5742SOL    HW218126   6.330   4.292   2.371
 5743SOL     OW18127   3.516   6.458   6.452
 5743SOL    HW118128   3.467   6.373   6.431
 5743SOL    HW218129   3.497   6.485   6.547
 5744SOL     OW18130   5.506   5.526   3.795
 5744SOL    HW118131   5.457   5.589   3.855
 5744SOL    HW218132   5.444   5.452   3.768
 5745SOL     OW18133   1.842   3.832   2.485
 5745SOL    HW118134   1.915   3.801   2.546
 5745SOL    HW218135   1.866   3.811   2.391
 5746SOL     OW18136   5.195   0.798   3.593
 5746SOL    HW118137   5.243   0.867   3.540
 5746SOL    HW218138   5.117   0.763   3.541
 5747SOL     OW18139   1.318   6.468   1.759
 5747SOL    HW118140   1.262   6.435   1.835
 5747SOL    HW218141   1.325   6.567   1.764
 5748SOL     OW18142   6.567   0.005   0.549
 5748SOL    HW118143   6.589   6.935   0.519
 5748SOL    HW218144   6.602   0.019   0.642
 5749SOL     OW18145   1.876   6.153   6.192
 5749SOL    HW118146   1.905   6.118   6.281
 5749SOL    HW218147   1.854   6.250   6.200
 5750SOL     OW18148   6.063   2.505   4.107
 5750SOL    HW118149   6.144   2.448   4.097
 5750SOL    HW218150   6.085   2.586   4.161
 5751SOL     OW18151   0.012   3.857   4.000
 5751SOL    HW118152   6.988   3.848   4.088
 5751SOL    HW218153   0.111   3.861   4.015
 5752SOL     OW18154   5.754   1.660   6.629
 5752SOL    HW118155   5.832   1.617   6.674
 5752SOL    HW218156   5.775   1.673   6.532
 5753SOL     OW18157   3.746   3.277   3.965
 5753SOL    HW118158   3.771   3.199   4.022
 5753SOL    HW218159   3.678   3.333   4.012
 5754SOL     OW18160   6.004   0.284   0.916
 5754SOL    HW118161   6.059   0.242   0.842
 5754SOL    HW218162   5.973   0.374   0.886
 5755SOL     OW18163   0.471   3.859   6.312
 5755SOL    HW118164   0.557   3.857   6.261
 5755SOL    HW218165   0.461   3.775   6.364
 5756SOL     OW18166   5.773   6.699   1.853
 5756SOL    HW118167   5.730   6.652   1.930
 5756SOL    HW218168   5.873   6.698   1.865
 5757SOL     OW18169   1.242   2.041   4.545
 5757SOL    HW118170   1.276   1.949   4.526
 5757SOL    HW218171   1.318   2.101   4.568
 5758SOL     OW18172   6.238   6.758   3.037
 5758SOL    HW118173   6.292   6.774   2.954
 5758SOL    HW218174   6.246   6.662   3.064
 5759SOL     OW18175   2.737   6.347   2.689
 5759SOL    HW118176   2.719   6.361   2.786
 5759SOL    HW218177   2.796   6.420   2.655
 5760SOL     OW18178   0.592   2.375   0.180
 5760SOL    HW118179   0.655   2.333   0.246
 5760SOL    HW218180   0.544   2.451   0.225
 5761SOL     OW18181   6.416   6.706   5.196
 5761SOL    HW118182   6.491   6.681   5.257
 5761SOL    HW218183   6.438   6.791   5.148
 5762SOL     OW18184   0.813   6.396   5.825
 5762SOL    HW118185   0.714   6.388   5.840
 5762SOL    HW218186   0.861   6.338   5.890
 5763SOL     OW18187   4.644   0.292   0.111
 5763SOL    HW118188   4.666   0.253   0.022
 5763SOL    HW218189   4.551   0.266   0.137
 5764SOL     OW18190   3.996   6.419   4.278
 5764SOL    HW118191   4.069   6.350   4.279
 5764SOL    HW218192   4.003   6.476   4.360
 5765SOL     OW18193   6.548   6.858   2.624
 5765SOL    HW118194   6.589   6.767   2.626
 5765SOL    HW218195   6.587   6.913   2.698
 5766SOL     OW18196   0.989   0.894   4.582
 5766SOL    HW118197   1.076   0.877   4.536
 5766SOL    HW218198   1.001   0.967   4.650
 5767SOL     OW18199   6.175   6.851   0.426
 5767SOL    HW118200   6.133   6.892   0.507
 5767SOL    HW218201   6.262   6.810   0.451
 5768SOL     OW18202   1.664   0.454   4.547
 5768SOL    HW118203   1.744   0.463   4.487
 5768SOL    HW218204   1.694   0.429   4.639
 5769SOL     OW18205   1.341   1.754   6.035
 5769SOL    HW118206   1.273   1.710   5.976
 5769SOL    HW218207   1.389   1.825   5.983
 5770SOL     OW18208   1.141   3.733   2.668
 5770SOL    HW118209   1.098   3.661   2.722
 5770SOL    HW218210   1.190   3.796   2.728
 5771SOL     OW18211   2.679   6.418   2.940
 5771SOL    HW118212   2.594   6.377   2.969
 5771SOL    HW218213   2.668   6.518   2.934
 5772SOL     OW18214   2.552   0.782   3.462
 5772SOL    HW118215   2.596   0.796   3.551
 5772SOL    HW218216   2.455   0.762   3.477
 5773SOL     OW18217   6.210   0.524   4.575
 5773SOL    HW118218   6.140   0.453   4.587
 5773SOL    HW218219   6.215   0.549   4.478
 5774SOL     OW18220   1.093   5.957   3.452
 5774SOL    HW118221   1.107   6.049   3.489
 5774SOL    HW218222   1.009   5.955   3.397
 5775SOL     OW18223   5.228   4.637   2.642
 5775SOL    HW118224   5.268   4.556   2.685
 5775SOL    HW218225   5.137   4.614   2.608
 5776SOL     OW18226   3.908   0.517   4.135
 5776SOL    HW118227   3.909   0.424   4.100
 5776SOL    HW218228   3.833   0.568   4.092
 5777SOL     OW18229   0.713   0.460   1.621
 5777SOL    HW118230   0.640   0.490   1.683
 5777SOL    HW218231   0.794   0.517   1.636
 5778SOL     OW18232   0.417   1.090   0.106
 5778SOL    HW118233   0.360   1.018   0.066
 5778SOL    HW218234   0.412   1.172   0.049
 5779SOL     OW18235   5.835   1.533   0.302
 5779SOL    HW118236   5.860   1.603   0.236
 5779SOL    HW218237   5.819   1.446   0.255
 5780SOL     OW18238   5.280   4.922   4.652
 5780SOL    HW118239   5.256   5.003   4.598
 5780SOL    HW218240   5.314   4.950   4.741
 5781SOL     OW18241   1.434   5.744   5.874
 5781SOL    HW118242   1.371   5.777   5.803
 5781SOL    HW218243   1.514   5.805   5.878
 5782SOL     OW18244   5.469   0.798   1.289
 5782SOL    HW118245   5.554   0.801   1.237
 5782SOL    HW218246   5.419   0.714   1.267
 5783SOL     OW18247   2.286   2.442   6.647
 5783SOL    HW118248   2.341   2.522   6.624
 5783SOL    HW218249   2.331   2.389   6.718
 5784SOL     OW18250   6.952   6.265   0.289
 5784SOL    HW118251   6.860   6.278   0.251
 5784SOL    HW218252   6.977   6.169   0.284
 5785SOL     OW18253   1.651   1.229   2.249
 5785SOL    HW118254   1.730   1.290   2.240
 5785SOL    HW218255   1.660   1.175   2.332
 5786SOL     OW18256   5.708   5.045   2.404
 5786SOL    HW118257   5.611   5.033   2.384
 5786SOL    HW218258   5.742   5.126   2.357
 5787SOL     OW18259   1.819   2.834   6.449
 5787SOL    HW118260   1.907   2.797   6.477
 5787SOL    HW218261   1.821   2.934   6.453
 5788SOL     OW18262   3.318   0.798   3.749
 5788SOL    HW118263   3.285   0.871   3.809
 5788SOL    HW218264   3.417   0.805   3.738
 5789SOL     OW18265   3.445   4.675   6.124
 5789SOL    HW118266   3.444   4.754   6.184
 5789SOL    HW218267   3.392   4.601   6.164
 5790SOL     OW18268   1.570   3.424   4.056
 5790SOL    HW118269   1.480   3.399   4.021
 5790SOL    HW218270   1.579   3.523   4.057
 5791SOL     OW18271   0.928   1.287   3.320
 5791SOL    HW118272   0.864   1.346   3.271
 5791SOL    HW218273   0.879   1.240   3.394
 5792SOL     OW18274   0.608   1.957   3.415
 5792SOL    HW118275   0.603   2.018   3.494
 5792SOL    HW218276   0.704   1.944   3.390
 5793SOL     OW18277   6.195   1.575   5.388
 5793SOL    HW118278   6.276   1.552   5.334
 5793SOL    HW218279   6.154   1.659   5.352
 5794SOL     OW18280   0.237   4.138   6.781
 5794SOL    HW118281   0.297   4.123   6.859
 5794SOL    HW218282   0.246   4.062   6.717
 5795SOL     OW18283   6.634   4.608   0.055
 5795SOL    HW118284   6.619   4.546   7.000
 5795SOL    HW218285   6.677   4.558   0.130
 5796SOL     OW18286   2.869   2.156   0.532
 5796SOL    HW118287   2.870   2.159   0.432
 5796SOL    HW218288   2.961   2.174   0.567
 5797SOL     OW18289   3.283   3.469   5.601
 5797SOL    HW118290   3.254   3.464   5.506
 5797SOL    HW218291   3.379   3.443   5.608
 5798SOL     OW18292   6.547   4.713   4.053
 5798SOL    HW118293   6.480   4.766   4.001
 5798SOL    HW218294   6.530   4.725   4.151
 5799SOL     OW18295   5.567   0.495   4.355
 5799SOL    HW118296   5.619   0.441   4.421
 5799SOL    HW218297   5.627   0.563   4.312
 5800SOL     OW18298   5.699   6.629   6.650
 5800SOL    HW118299   5.629   6.576   6.602
 5800SOL    HW218300   5.692   6.612   6.748
 5801SOL     OW18301   1.531   1.237   1.979
 5801SOL    HW118302   1.548   1.243   2.078
 5801SOL    HW218303   1.613   1.266   1.930
 5802SOL     OW18304   0.140   2.807   4.653
 5802SOL    HW118305   0.235   2.837   4.652
 5802SOL    HW218306   0.081   2.883   4.624
 5803SOL     OW18307   1.341   5.087   1.202
 5803SOL    HW118308   1.324   5.011   1.265
 5803SOL    HW218309   1.436   5.083   1.169
 5804SOL     OW18310   0.254   3.095   6.606
 5804SOL    HW118311   0.160   3.108   6.640
 5804SOL    HW218312   0.309   3.174   6.630
 5805SOL     OW18313   4.757   3.091   6.884
 5805SOL    HW118314   4.673   3.144   6.882
 5805SOL    HW218315   4.806   3.109   6.970
 5806SOL     OW18316   5.889   6.448   6.228
 5806SOL    HW118317   5.979   6.413   6.199
 5806SOL    HW218318   5.823   6.433   6.155
 5807SOL     OW18319   2.716   4.200   1.724
 5807SOL    HW118320   2.737   4.162   1.634
 5807SOL    HW218321   2.787   4.265   1.751
 5808SOL     OW18322   6.621   1.562   3.642
 5808SOL    HW118323   6.561   1.632   3.602
 5808SOL    HW218324   6.571   1.512   3.713
 5809SOL     OW18325   0.895   3.635   3.967
 5809SOL    HW118326   0.970   3.585   3.922
 5809SOL    HW218327   0.933   3.696   4.036
 5810SOL     OW18328   3.312   1.858   2.331
 5810SOL    HW118329   3.346   1.775   2.287
 5810SOL    HW218330   3.213   1.862   2.321
 5811SOL     OW18331   2.699   0.093   1.635
 5811SOL    HW118332   2.702   0.146   1.550
 5811SOL    HW218333   2.651   0.007   1.618
 5812SOL     OW18334   4.195   1.041   4.448
 5812SOL    HW118335   4.277   0.984   4.455
 5812SOL    HW218336   4.117   0.984   4.425
 5813SOL     OW18337   1.741   2.151   5.023
 5813SOL    HW118338   1.669   2.184   4.962
 5813SOL    HW218339   1.789   2.075   4.979
 5814SOL     OW18340   0.697   5.180   1.401
 5814SOL    HW118341   0.637   5.253   1.368
 5814SOL    HW218342   0.648   5.125   1.469
 5815SOL     OW18343   4.099   6.381   4.757
 5815SOL    HW118344   4.145   6.469   4.755
 5815SOL    HW218345   4.149   6.316   4.699
 5816SOL     OW18346   5.137   6.159   0.151
 5816SOL    HW118347   5.220   6.140   0.099
 5816SOL    HW218348   5.095   6.073   0.180
 5817SOL     OW18349   5.860   2.589   6.279
 5817SOL    HW118350   5.903   2.571   6.368
 5817SOL    HW218351   5.872   2.510   6.220
 5818SOL     OW18352   5.874   6.635   5.174
 5818SOL    HW118353   5.861   6.706   5.244
 5818SOL    HW218354   5.785   6.596   5.150
 5819SOL     OW18355   6.615   0.400   1.251
 5819SOL    HW118356   6.599   0.498   1.267
 5819SOL    HW218357   6.657   0.359   1.332
 5820SOL     OW18358   5.135   4.885   1.797
 5820SOL    HW118359   5.166   4.792   1.815
 5820SOL    HW218360   5.100   4.891   1.704
 5821SOL     OW18361   2.933   6.986   2.686
 5821SOL    HW118362   3.005   6.946   2.629
 5821SOL    HW218363   2.926   0.062   2.668
 5822SOL     OW18364   0.427   0.831   2.561
 5822SOL    HW118365   0.399   0.772   2.636
 5822SOL    HW218366   0.453   0.775   2.482
 5823SOL     OW18367   1.505   2.818   3.914
 5823SOL    HW118368   1.468   2.911   3.910
 5823SOL    HW218369   1.551   2.805   4.002
 5824SOL     OW18370   4.582   0.404   3.790
 5824SOL    HW118371   4.512   0.439   3.727
 5824SOL    HW218372   4.632   0.480   3.831
 5825SOL     OW18373   3.341   1.369   1.347
 5825SOL    HW118374   3.421   1.359   1.288
 5825SOL    HW218375   3.349   1.452   1.401
 5826SOL     OW18376   0.514   6.565   3.209
 5826SOL    HW118377   0.575   6.528   3.139
 5826SOL    HW218378   0.450   6.494   3.240
 5827SOL     OW18379   1.931   4.854   5.710
 5827SOL    HW118380   1.866   4.898   5.649
 5827SOL    HW218381   1.894   4.853   5.803
 5828SOL     OW18382   6.040   1.707   1.179
 5828SOL    HW118383   6.064   1.772   1.107
 5828SOL    HW218384   6.121   1.655   1.206
 5829SOL     OW18385   1.977   0.844   1.693
 5829SOL    HW118386   1.923   0.814   1.772
 5829SOL    HW218387   1.989   0.943   1.697
 5830SOL     OW18388   1.327   0.950   5.673
 5830SOL    HW118389   1.250   0.989   5.724
 5830SOL    HW218390   1.407   1.009   5.684
 5831SOL     OW18391   5.776   5.671   2.970
 5831SOL    HW118392   5.857   5.680   2.913
 5831SOL    HW218393   5.745   5.576   2.969
 5832SOL     OW18394   3.814   3.503   4.255
 5832SOL    HW118395   3.763   3.582   4.220
 5832SOL    HW218396   3.799   3.495   4.353
 5833SOL     OW18397   3.178   3.336   4.681
 5833SOL    HW118398   3.241   3.260   4.696
 5833SOL    HW218399   3.092   3.302   4.644
 5834SOL     OW18400   5.550   1.277   6.439
 5834SOL    HW118401   5.631   1.224   6.463
 5834SOL    HW218402   5.502   1.232   6.364
 5835SOL     OW18403   5.398   2.798   3.831
 5835SOL    HW118404   5.421   2.834   3.740
 5835SOL    HW218405   5.415   2.867   3.900
 5836SOL     OW18406   3.477   6.735   3.846
 5836SOL    HW118407   3.488   6.638   3.822
 5836SOL    HW218408   3.567   6.777   3.854
 5837SOL     OW18409   4.300   3.854   6.401
 5837SOL    HW118410   4.254   3.876   6.487
 5837SOL    HW218411   4.285   3.757   6.379
 5838SOL     OW18412   0.336   1.230   5.999
 5838SOL    HW118413   0.396   1.288   5.944
 5838SOL    HW218414   0.325   1.141   5.953
 5839SOL     OW18415   6.656   2.343   2.087
 5839SOL    HW118416   6.715   2.287   2.146
 5839SOL    HW218417   6.705   2.427   2.061
 5840SOL     OW18418   2.993   6.070   0.706
 5840SOL    HW118419   3.013   6.159   0.747
 5840SOL    HW218420   3.057   6.002   0.740
 5841SOL     OW18421   6.454   1.795   3.653
 5841SOL    HW118422   6.357   1.791   3.678
 5841SOL    HW218423   6.499   1.866   3.707
 5842SOL     OW18424   3.496   2.240   1.032
 5842SOL    HW118425   3.544   2.210   0.949
 5842SOL    HW218426   3.563   2.279   1.096
 5843SOL     OW18427   0.254   2.493   1.585
 5843SOL    HW118428   0.333   2.554   1.588
 5843SOL    HW218429   0.231   2.463   1.678
 5844SOL     OW18430   1.661   6.155   6.012
 5844SOL    HW118431   1.745   6.170   6.064
 5844SOL    HW218432   1.582   6.181   6.069
 5845SOL     OW18433   1.938   3.311   4.649
 5845SOL    HW118434   1.987   3.312   4.736
 5845SOL    HW218435   1.864   3.243   4.654
 5846SOL     OW18436   0.657   3.756   0.016
 5846SOL    HW118437   0.727   3.821   7.009
 5846SOL    HW218438   0.661   3.744   0.115
 5847SOL     OW18439   1.269   2.482   4.479
 5847SOL    HW118440   1.364   2.494   4.448
 5847SOL    HW218441   1.227   2.406   4.430
 5848SOL     OW18442   0.855   4.418   3.941
 5848SOL    HW118443   0.896   4.377   3.860
 5848SOL    HW218444   0.882   4.514   3.947
 5849SOL     OW18445   2.560   0.101   6.059
 5849SOL    HW118446   2.588   0.191   6.094
 5849SOL    HW218447   2.501   0.056   6.126
 5850SOL     OW18448   0.735   4.436   3.245
 5850SOL    HW118449   0.792   4.429   3.327
 5850SOL    HW218450   0.639   4.448   3.271
 5851SOL     OW18451   6.543   2.804   1.716
 5851SOL    HW118452   6.564   2.763   1.805
 5851SOL    HW218453   6.628   2.831   1.671
 5852SOL     OW18454   4.191   6.211   3.110
 5852SOL    HW118455   4.124   6.213   3.185
 5852SOL    HW218456   4.198   6.117   3.075
 5853SOL     OW18457   5.082   3.889   5.307
 5853SOL    HW118458   4.992   3.875   5.265
 5853SOL    HW218459   5.072   3.893   5.407
 5854SOL     OW18460   1.649   1.420   6.747
 5854SOL    HW118461   1.657   1.448   6.651
 5854SOL    HW218462   1.567   1.461   6.787
 5855SOL     OW18463   1.607   1.879   4.689
 5855SOL    HW118464   1.689   1.907   4.639
 5855SOL    HW218465   1.632   1.810   4.758
 5856SOL     OW18466   1.181   6.294   3.294
 5856SOL    HW118467   1.225   6.384   3.287
 5856SOL    HW218468   1.082   6.306   3.295
 5857SOL     OW18469   0.623   1.993   5.100
 5857SOL    HW118470   0.606   1.983   5.002
 5857SOL    HW218471   0.571   1.924   5.150
 5858SOL     OW18472   3.138   7.018   3.843
 5858SOL    HW118473   3.133   0.095   3.857
 5858SOL    HW218474   3.119   6.971   3.929
 5859SOL     OW18475   5.827   4.970   2.151
 5859SOL    HW118476   5.811   5.048   2.212
 5859SOL    HW218477   5.863   4.893   2.205
 5860SOL     OW18478   6.701   4.841   0.733
 5860SOL    HW118479   6.696   4.925   0.787
 5860SOL    HW218480   6.796   4.814   0.721
 5861SOL     OW18481   5.998   2.016   4.146
 5861SOL    HW118482   5.942   2.024   4.229
 5861SOL    HW218483   6.095   2.022   4.171
 5862SOL     OW18484   5.734   5.479   4.166
 5862SOL    HW118485   5.754   5.454   4.071
 5862SOL    HW218486   5.746   5.399   4.224
 5863SOL     OW18487   2.569   1.593   0.600
 5863SOL    HW118488   2.637   1.578   0.672
 5863SOL    HW218489   2.615   1.600   0.511
 5864SOL     OW18490   4.695   4.971   0.696
 5864SOL    HW118491   4.659   4.884   0.661
 5864SOL    HW218492   4.657   4.988   0.787
 5865SOL     OW18493   4.406   0.554   3.659
 5865SOL    HW118494   4.455   0.612   3.593
 5865SOL    HW218495   4.308   0.560   3.642
 5866SOL     OW18496   3.614   1.762   6.650
 5866SOL    HW118497   3.534   1.817   6.624
 5866SOL    HW218498   3.602   1.669   6.617
 5867SOL     OW18499   6.789   2.853   1.604
 5867SOL    HW118500   6.858   2.884   1.669
 5867SOL    HW218501   6.834   2.821   1.520
 5868SOL     OW18502   0.497   6.104   5.584
 5868SOL    HW118503   0.416   6.059   5.544
 5868SOL    HW218504   0.564   6.034   5.610
 5869SOL     OW18505   2.333   4.968   4.701
 5869SOL    HW118506   2.312   4.907   4.625
 5869SOL    HW218507   2.430   4.961   4.724
 5870SOL     OW18508   5.180   6.068   4.107
 5870SOL    HW118509   5.090   6.096   4.074
 5870SOL    HW218510   5.241   6.056   4.028
 5871SOL     OW18511   3.496   4.513   0.843
 5871SOL    HW118512   3.576   4.453   0.854
 5871SOL    HW218513   3.526   4.608   0.844
 5872SOL     OW18514   4.039   5.619   3.617
 5872SOL    HW118515   3.998   5.559   3.686
 5872SOL    HW218516   4.112   5.673   3.659
 5873SOL     OW18517   2.227   3.028   0.666
 5873SOL    HW118518   2.192   3.122   0.673
 5873SOL    HW218519   2.200   2.977   0.748
 5874SOL     OW18520   0.629   4.370   6.456
 5874SOL    HW118521   0.640   4.350   6.359
 5874SOL    HW218522   0.535   4.351   6.483
 5875SOL     OW18523   3.986   2.430   1.237
 5875SOL    HW118524   3.990   2.497   1.162
 5875SOL    HW218525   4.008   2.476   1.323
 5876SOL     OW18526   4.270   4.057   5.960
 5876SOL    HW118527   4.198   3.991   5.941
 5876SOL    HW218528   4.360   4.013   5.952
 5877SOL     OW18529   5.455   6.714   3.060
 5877SOL    HW118530   5.398   6.796   3.068
 5877SOL    HW218531   5.524   6.715   3.133
 5878SOL     OW18532   5.040   3.107   2.999
 5878SOL    HW118533   4.974   3.034   3.017
 5878SOL    HW218534   5.021   3.149   2.911
 5879SOL     OW18535   3.097   4.881   5.282
 5879SOL    HW118536   3.050   4.795   5.299
 5879SOL    HW218537   3.038   4.942   5.229
 5880SOL     OW18538   6.230   2.060   0.387
 5880SOL    HW118539   6.172   1.979   0.390
 5880SOL    HW218540   6.324   2.034   0.407
 5881SOL     OW18541   0.832   5.533   3.052
 5881SOL    HW118542   0.758   5.592   3.085
 5881SOL    HW218543   0.903   5.589   3.010
 5882SOL     OW18544   1.326   5.562   5.581
 5882SOL    HW118545   1.311   5.640   5.641
 5882SOL    HW218546   1.417   5.568   5.540
 5883SOL     OW18547   0.210   5.912   0.062
 5883SOL    HW118548   0.269   5.900   7.005
 5883SOL    HW218549   0.209   5.829   0.117
 5884SOL     OW18550   0.812   0.784   1.833
 5884SOL    HW118551   0.817   0.883   1.818
 5884SOL    HW218552   0.755   0.765   1.912
 5885SOL     OW18553   0.152   5.624   1.666
 5885SOL    HW118554   0.210   5.549   1.635
 5885SOL    HW218555   0.157   5.631   1.766
 5886SOL     OW18556   1.412   4.351   3.479
 5886SOL    HW118557   1.320   4.313   3.481
 5886SOL    HW218558   1.476   4.283   3.444
 5887SOL     OW18559   2.115   3.693   1.065
 5887SOL    HW118560   2.152   3.700   0.972
 5887SOL    HW218561   2.026   3.739   1.069
 5888SOL     OW18562   3.050   6.288   1.816
 5888SOL    HW118563   3.074   6.351   1.890
 5888SOL    HW218564   3.020   6.340   1.736
 5889SOL     OW18565   5.071   1.178   1.978
 5889SOL    HW118566   5.133   1.103   1.954
 5889SOL    HW218567   4.981   1.160   1.937
 5890SOL     OW18568   2.427   4.455   2.736
 5890SOL    HW118569   2.389   4.539   2.775
 5890SOL    HW218570   2.442   4.389   2.809
 5891SOL     OW18571   2.562   3.146   6.962
 5891SOL    HW118572   2.535   3.176   6.870
 5891SOL    HW218573   2.652   3.103   6.958
 5892SOL     OW18574   0.492   2.671   1.616
 5892SOL    HW118575   0.518   2.702   1.525
 5892SOL    HW218576   0.574   2.646   1.667
 5893SOL     OW18577   0.283   6.492   1.294
 5893SOL    HW118578   0.255   6.415   1.351
 5893SOL    HW218579   0.231   6.491   1.208
 5894SOL     OW18580   2.925   5.119   0.060
 5894SOL    HW118581   2.911   5.158   6.991
 5894SOL    HW218582   2.983   5.180   0.114
 5895SOL     OW18583   5.774   2.794   4.219
 5895SOL    HW118584   5.818   2.777   4.307
 5895SOL    HW218585   5.681   2.827   4.235
 5896SOL     OW18586   5.205   2.417   0.960
 5896SOL    HW118587   5.283   2.370   1.001
 5896SOL    HW218588   5.126   2.356   0.959
 5897SOL     OW18589   3.701   3.936   6.992
 5897SOL    HW118590   3.602   3.927   6.979
 5897SOL    HW218591   3.730   3.876   0.044
 5898SOL     OW18592   3.899   0.576   6.639
 5898SOL    HW118593   3.935   0.530   6.720
 5898SOL    HW218594   3.823   0.635   6.665
 5899SOL     OW18595   0.670   0.282   0.334
 5899SOL    HW118596   0.756   0.279   0.282
 5899SOL    HW218597   0.659   0.373   0.375
 5900SOL     OW18598   5.645   6.417   2.900
 5900SOL    HW118599   5.716   6.350   2.923
 5900SOL    HW218600   5.659   6.451   2.807
 5901SOL     OW18601   1.796   0.445   4.792
 5901SOL    HW118602   1.717   0.478   4.843
 5901SOL    HW218603   1.843   0.375   4.845
 5902SOL     OW18604   4.434   3.666   5.791
 5902SOL    HW118605   4.397   3.750   5.831
 5902SOL    HW218606   4.466   3.685   5.698
 5903SOL     OW18607   5.661   0.849   5.839
 5903SOL    HW118608   5.633   0.754   5.855
 5903SOL    HW218609   5.760   0.854   5.834
 5904SOL     OW18610   0.263   5.230   1.841
 5904SOL    HW118611   0.232   5.137   1.863
 5904SOL    HW218612   0.205   5.267   1.768
 5905SOL     OW18613   6.281   1.822   4.750
 5905SOL    HW118614   6.265   1.863   4.840
 5905SOL    HW218615   6.278   1.722   4.758
 5906SOL     OW18616   4.041   0.085   4.588
 5906SOL    HW118617   3.983   0.165   4.595
 5906SOL    HW218618   4.113   0.090   4.657
 5907SOL     OW18619   0.520   3.353   6.085
 5907SOL    HW118620   0.530   3.443   6.044
 5907SOL    HW218621   0.424   3.327   6.085
 5908SOL     OW18622   4.629   3.001   6.524
 5908SOL    HW118623   4.592   2.934   6.588
 5908SOL    HW218624   4.670   2.954   6.446
 5909SOL     OW18625   0.033   5.089   3.412
 5909SOL    HW118626   0.024   5.027   3.334
 5909SOL    HW218627   0.009   5.182   3.383
 5910SOL     OW18628   2.256   4.197   1.994
 5910SOL    HW118629   2.308   4.112   1.992
 5910SOL    HW218630   2.180   4.189   2.058
 5911SOL     OW18631   6.816   1.225   5.597
 5911SOL    HW118632   6.788   1.129   5.598
 5911SOL    HW218633   6.738   1.283   5.574
 5912SOL     OW18634   0.287   3.858   6.119
 5912SOL    HW118635   0.349   3.861   6.197
 5912SOL    HW218636   0.327   3.909   6.043
 5913SOL     OW18637   1.678   2.882   4.882
 5913SOL    HW118638   1.739   2.959   4.903
 5913SOL    HW218639   1.722   2.823   4.814
 5914SOL     OW18640   1.114   5.559   0.159
 5914SOL    HW118641   1.061   5.492   0.211
 5914SOL    HW218642   1.160   5.512   0.083
 5915SOL     OW18643   5.673   4.211   4.456
 5915SOL    HW118644   5.695   4.261   4.540
 5915SOL    HW218645   5.666   4.114   4.477
 5916SOL     OW18646   3.433   0.841   6.782
 5916SOL    HW118647   3.412   0.937   6.795
 5916SOL    HW218648   3.371   0.802   6.714
 5917SOL     OW18649   3.752   3.777   2.020
 5917SOL    HW118650   3.698   3.694   2.006
 5917SOL    HW218651   3.733   3.842   1.946
 5918SOL     OW18652   3.122   1.782   4.150
 5918SOL    HW118653   3.192   1.757   4.083
 5918SOL    HW218654   3.084   1.872   4.126
 5919SOL     OW18655   1.610   1.982   6.126
 5919SOL    HW118656   1.592   2.044   6.050
 5919SOL    HW218657   1.543   1.998   6.198
 5920SOL     OW18658   2.425   3.888   6.953
 5920SOL    HW118659   2.326   3.892   6.943
 5920SOL    HW218660   2.463   3.981   6.951
 5921SOL     OW18661   3.854   6.216   4.669
 5921SOL    HW118662   3.847   6.152   4.745
 5921SOL    HW218663   3.939   6.268   4.676
 5922SOL     OW18664   6.613   5.230   2.176
 5922SOL    HW118665   6.634   5.327   2.186
 5922SOL    HW218666   6.696   5.180   2.150
 5923SOL     OW18667   0.766   0.311   3.065
 5923SOL    HW118668   0.789   0.263   3.150
 5923SOL    HW218669   0.735   0.404   3.086
 5924SOL     OW18670   5.775   1.876   4.625
 5924SOL    HW118671   5.716   1.795   4.616
 5924SOL    HW218672   5.754   1.923   4.711
 5925SOL     OW18673   6.689   6.353   0.531
 5925SOL    HW118674   6.669   6.337   0.435
 5925SOL    HW218675   6.604   6.365   0.582
 5926SOL     OW18676   3.139   6.452   2.030
 5926SOL    HW118677   3.227   6.462   2.077
 5926SOL    HW218678   3.069   6.500   2.082
 5927SOL     OW18679   2.078   5.299   1.169
 5927SOL    HW118680   1.986   5.313   1.132
 5927SOL    HW218681   2.139   5.267   1.096
 5928SOL     OW18682   6.891   6.343   0.944
 5928SOL    HW118683   6.804   6.298   0.965
 5928SOL    HW218684   6.945   6.283   0.885
 5929SOL     OW18685   0.238   6.962   5.863
 5929SOL    HW118686   0.142   6.976   5.890
 5929SOL    HW218687   0.295   6.958   5.944
 5930SOL     OW18688   6.482   1.536   4.861
 5930SOL    HW118689   6.412   1.582   4.915
 5930SOL    HW218690   6.548   1.492   4.921
 5931SOL     OW18691   6.005   4.539   0.287
 5931SOL    HW118692   5.981   4.443   0.270
 5931SOL    HW218693   5.983   4.563   0.382
 5932SOL     OW18694   2.407   0.346   0.551
 5932SOL    HW118695   2.492   0.362   0.500
 5932SOL    HW218696   2.352   0.277   0.503
 5933SOL     OW18697   5.600   2.128   3.177
 5933SOL    HW118698   5.563   2.137   3.085
 5933SOL    HW218699   5.630   2.034   3.192
 5934SOL     OW18700   4.293   3.396   1.692
 5934SOL    HW118701   4.283   3.386   1.791
 5934SOL    HW218702   4.368   3.338   1.661
 5935SOL     OW18703   3.829   3.321   2.511
 5935SOL    HW118704   3.739   3.279   2.527
 5935SOL    HW218705   3.817   3.413   2.473
 5936SOL     OW18706   6.366   5.891   6.908
 5936SOL    HW118707   6.283   5.858   6.863
 5936SOL    HW218708   6.368   5.991   6.904
 5937SOL     OW18709   0.727   4.135   0.585
 5937SOL    HW118710   0.700   4.197   0.511
 5937SOL    HW218711   0.655   4.131   0.654
 5938SOL     OW18712   2.698   5.209   0.969
 5938SOL    HW118713   2.797   5.212   0.988
 5938SOL    HW218714   2.648   5.241   1.050
 5939SOL     OW18715   0.795   0.019   2.335
 5939SOL    HW118716   0.820   0.085   2.264
 5939SOL    HW218717   0.863   6.969   2.339
 5940SOL     OW18718   4.250   4.672   3.143
 5940SOL    HW118719   4.225   4.718   3.228
 5940SOL    HW218720   4.172   4.670   3.081
 5941SOL     OW18721   6.326   2.771   3.967
 5941SOL    HW118722   6.263   2.728   3.903
 5941SOL    HW218723   6.276   2.802   4.048
 5942SOL     OW18724   6.838   1.543   4.630
 5942SOL    HW118725   6.937   1.553   4.629
 5942SOL    HW218726   6.796   1.625   4.590
 5943SOL     OW18727   1.829   6.016   1.009
 5943SOL    HW118728   1.895   6.008   1.084
 5943SOL    HW218729   1.749   6.066   1.041
 5944SOL     OW18730   5.253   2.675   3.047
 5944SOL    HW118731   5.188   2.652   2.975
 5944SOL    HW218732   5.301   2.591   3.075
 5945SOL     OW18733   6.493   6.219   5.835
 5945SOL    HW118734   6.407   6.175   5.808
 5945SOL    HW218735   6.570   6.161   5.808
 5946SOL     OW18736   4.110   2.420   5.367
 5946SOL    HW118737   4.014   2.440   5.352
 5946SOL    HW218738   4.165   2.466   5.297
 5947SOL     OW18739   5.925   3.508   2.641
 5947SOL    HW118740   5.928   3.573   2.565
 5947SOL    HW218741   5.868   3.430   2.617
 5948SOL     OW18742   3.009   6.022   2.931
 5948SOL    HW118743   3.037   6.091   2.997
 5948SOL    HW218744   2.974   5.941   2.979
 5949SOL     OW18745   4.816   4.002   2.801
 5949SOL    HW118746   4.785   3.907   2.809
 5949SOL    HW218747   4.815   4.045   2.891
 5950SOL     OW18748   0.142   1.604   4.683
 5950SOL    HW118749   0.203   1.680   4.707
 5950SOL    HW218750   0.168   1.523   4.736
 5951SOL     OW18751   2.143   0.412   3.316
 5951SOL    HW118752   2.147   0.493   3.258
 5951SOL    HW218753   2.224   0.408   3.374
 5952SOL     OW18754   0.492   6.537   4.592
 5952SOL    HW118755   0.432   6.488   4.529
 5952SOL    HW218756   0.566   6.476   4.621
 5953SOL     OW18757   0.850   3.539   6.109
 5953SOL    HW118758   0.937   3.545   6.060
 5953SOL    HW218759   0.837   3.446   6.143
 5954SOL     OW18760   1.561   4.480   6.559
 5954SOL    HW118761   1.528   4.557   6.504
 5954SOL    HW218762   1.606   4.413   6.500
 5955SOL     OW18763   3.955   5.097   2.116
 5955SOL    HW118764   3.895   5.152   2.057
 5955SOL    HW218765   4.043   5.083   2.071
 5956SOL     OW18766   0.253   1.717   0.527
 5956SOL    HW118767   0.196   1.728   0.608
 5956SOL    HW218768   0.226   1.783   0.457
 5957SOL     OW18769   4.326   6.669   6.058
 5957SOL    HW118770   4.286   6.595   6.112
 5957SOL    HW218771   4.254   6.713   6.004
 5958SOL     OW18772   1.269   5.726   2.359
 5958SOL    HW118773   1.200   5.796   2.381
 5958SOL    HW218774   1.335   5.764   2.295
 5959SOL     OW18775   1.718   0.704   5.884
 5959SOL    HW118776   1.719   0.783   5.946
 5959SOL    HW218777   1.625   0.683   5.857
 5960SOL     OW18778   3.481   5.780   5.072
 5960SOL    HW118779   3.523   5.704   5.022
 5960SOL    HW218780   3.391   5.751   5.107
 5961SOL     OW18781   2.675   1.142   5.428
 5961SOL    HW118782   2.675   1.219   5.492
 5961SOL    HW218783   2.720   1.169   5.344
 5962SOL     OW18784   5.331   4.380   2.774
 5962SOL    HW118785   5.321   4.288   2.811
 5962SOL    HW218786   5.328   4.446   2.849
 5963SOL     OW18787   4.223   4.291   1.692
 5963SOL    HW118788   4.172   4.230   1.632
 5963SOL    HW218789   4.290   4.238   1.744
 5964SOL     OW18790   1.197   3.592   5.188
 5964SOL    HW118791   1.163   3.660   5.123
 5964SOL    HW218792   1.158   3.503   5.166
 5965SOL     OW18793   1.853   2.432   4.691
 5965SOL    HW118794   1.861   2.429   4.591
 5965SOL    HW218795   1.761   2.462   4.716
 5966SOL     OW18796   1.447   5.835   4.471
 5966SOL    HW118797   1.388   5.777   4.415
 5966SOL    HW218798   1.454   5.926   4.429
 5967SOL     OW18799   4.821   5.584   1.038
 5967SOL    HW118800   4.789   5.627   0.953
 5967SOL    HW218801   4.887   5.512   1.017
 5968SOL     OW18802   1.740   2.116   3.973
 5968SOL    HW118803   1.646   2.150   3.976
 5968SOL    HW218804   1.739   2.016   3.971
 5969SOL     OW18805   0.943   2.128   2.742
 5969SOL    HW118806   1.008   2.069   2.695
 5969SOL    HW218807   0.851   2.109   2.709
 5970SOL     OW18808   2.073   4.122   3.348
 5970SOL    HW118809   2.015   4.131   3.429
 5970SOL    HW218810   2.131   4.041   3.358
 5971SOL     OW18811   3.199   5.629   3.679
 5971SOL    HW118812   3.114   5.575   3.686
 5971SOL    HW218813   3.273   5.580   3.726
 5972SOL     OW18814   5.903   0.128   1.804
 5972SOL    HW118815   5.855   0.206   1.765
 5972SOL    HW218816   5.861   0.043   1.771
 5973SOL     OW18817   2.230   4.675   3.283
 5973SOL    HW118818   2.224   4.735   3.204
 5973SOL    HW218819   2.247   4.730   3.366
 5974SOL     OW18820   1.168   4.325   6.360
 5974SOL    HW118821   1.153   4.244   6.303
 5974SOL    HW218822   1.247   4.376   6.326
 5975SOL     OW18823   2.059   2.350   6.571
 5975SOL    HW118824   2.144   2.394   6.603
 5975SOL    HW218825   1.987   2.419   6.564
 5976SOL     OW18826   3.629   3.678   4.174
 5976SOL    HW118827   3.645   3.741   4.098
 5976SOL    HW218828   3.550   3.709   4.227
 5977SOL     OW18829   0.253   3.939   2.501
 5977SOL    HW118830   0.247   3.839   2.491
 5977SOL    HW218831   0.162   3.977   2.514
 5978SOL     OW18832   5.186   5.214   1.528
 5978SOL    HW118833   5.256   5.269   1.572
 5978SOL    HW218834   5.223   5.174   1.444
 5979SOL     OW18835   0.710   1.415   1.621
 5979SOL    HW118836   0.778   1.488   1.629
 5979SOL    HW218837   0.646   1.421   1.697
 5980SOL     OW18838   6.134   2.586   5.083
 5980SOL    HW118839   6.178   2.515   5.138
 5980SOL    HW218840   6.037   2.592   5.108
 5981SOL     OW18841   3.389   2.071   0.582
 5981SOL    HW118842   3.302   2.038   0.546
 5981SOL    HW218843   3.378   2.163   0.619
 5982SOL     OW18844   6.452   2.818   7.013
 5982SOL    HW118845   6.401   2.772   6.940
 5982SOL    HW218846   6.407   2.905   0.012
 5983SOL     OW18847   0.588   0.560   4.214
 5983SOL    HW118848   0.679   0.522   4.233
 5983SOL    HW218849   0.522   0.520   4.277
 5984SOL     OW18850   0.619   0.184   6.259
 5984SOL    HW118851   0.672   0.246   6.203
 5984SOL    HW218852   0.678   0.114   6.298
 5985SOL     OW18853   5.745   3.228   3.777
 5985SOL    HW118854   5.801   3.231   3.860
 5985SOL    HW218855   5.796   3.183   3.704
 5986SOL     OW18856   3.345   3.448   2.254
 5986SOL    HW118857   3.335   3.449   2.154
 5986SOL    HW218858   3.281   3.514   2.294
 5987SOL     OW18859   3.687   0.154   5.074
 5987SOL    HW118860   3.774   0.163   5.025
 5987SOL    HW218861   3.645   0.066   5.052
 5988SOL     OW18862   3.752   6.739   6.052
 5988SOL    HW118863   3.825   6.729   5.984
 5988SOL    HW218864   3.788   6.720   6.143
 5989SOL     OW18865   3.144   1.814   6.711
 5989SOL    HW118866   3.135   1.764   6.625
 5989SOL    HW218867   3.237   1.849   6.720
 5990SOL     OW18868   2.893   6.131   3.629
 5990SOL    HW118869   2.916   6.156   3.723
 5990SOL    HW218870   2.965   6.162   3.568
 5991SOL     OW18871   3.618   4.951   3.142
 5991SOL    HW118872   3.532   4.941   3.093
 5991SOL    HW218873   3.599   4.969   3.239
 5992SOL     OW18874   3.883   1.898   4.390
 5992SOL    HW118875   3.911   1.912   4.485
 5992SOL    HW218876   3.964   1.902   4.330
 5993SOL     OW18877   2.694   5.356   4.269
 5993SOL    HW118878   2.619   5.371   4.334
 5993SOL    HW218879   2.776   5.404   4.300
 5994SOL     OW18880   6.252   2.101   0.114
 5994SOL    HW118881   6.239   2.115   0.212
 5994SOL    HW218882   6.339   2.140   0.086
 5995SOL     OW18883   0.261   3.672   1.565
 5995SOL    HW118884   0.263   3.747   1.500
 5995SOL    HW218885   0.352   3.658   1.603
 5996SOL     OW18886   1.490   5.866   6.179
 5996SOL    HW118887   1.429   5.926   6.127
 5996SOL    HW218888   1.571   5.845   6.124
 5997SOL     OW18889   0.794   0.254   1.462
 5997SOL    HW118890   0.876   0.212   1.500
 5997SOL    HW218891   0.757   0.322   1.526
 5998SOL     OW18892   5.269   3.149   3.126
 5998SOL    HW118893   5.339   3.172   3.059
 5998SOL    HW218894   5.184   3.127   3.079
 5999SOL     OW18895   2.103   3.028   3.081
 5999SOL    HW118896   2.083   3.006   3.176
 5999SOL    HW218897   2.020   3.061   3.036
 6000SOL     OW18898   5.281   1.129   3.752
 6000SOL    HW118899   5.220   1.172   3.686
 6000SOL    HW218900   5.270   1.173   3.841
 6001SOL     OW18901   5.717   1.307   0.182
 6001SOL    HW118902   5.624   1.331   0.156
 6001SOL    HW218903   5.733   1.210   0.163
 6002SOL     OW18904   2.512   0.169   2.358
 6002SOL    HW118905   2.526   0.158   2.259
 6002SOL    HW218906   2.574   0.240   2.392
 6003SOL     OW18907   5.060   4.491   3.969
 6003SOL    HW118908   5.119   4.410   3.970
 6003SOL    HW218909   5.012   4.496   3.881
 6004SOL     OW18910   0.742   3.871   1.966
 6004SOL    HW118911   0.686   3.826   2.036
 6004SOL    HW218912   0.829   3.822   1.956
 6005SOL     OW18913   2.375   6.337   2.253
 6005SOL    HW118914   2.391   6.306   2.347
 6005SOL    HW218915   2.415   6.271   2.189
 6006SOL     OW18916   1.917   6.068   6.707
 6006SOL    HW118917   1.943   6.010   6.631
 6006SOL    HW218918   1.947   6.162   6.689
 6007SOL     OW18919   5.680   3.767   4.807
 6007SOL    HW118920   5.580   3.762   4.801
 6007SOL    HW218921   5.707   3.863   4.819
 6008SOL     OW18922   4.796   4.055   2.011
 6008SOL    HW118923   4.741   4.124   2.057
 6008SOL    HW218924   4.736   3.997   1.956
 6009SOL     OW18925   3.687   1.488   4.621
 6009SOL    HW118926   3.594   1.465   4.651
 6009SOL    HW218927   3.695   1.588   4.613
 6010SOL     OW18928   1.955   4.931   3.568
 6010SOL    HW118929   2.027   4.888   3.622
 6010SOL    HW218930   1.991   5.013   3.524
 6011SOL     OW18931   6.310   2.369   1.823
 6011SOL    HW118932   6.395   2.316   1.819
 6011SOL    HW218933   6.233   2.306   1.836
 6012SOL     OW18934   0.720   2.514   1.145
 6012SOL    HW118935   0.802   2.501   1.089
 6012SOL    HW218936   0.671   2.427   1.154
 6013SOL     OW18937   5.532   0.606   2.536
 6013SOL    HW118938   5.487   0.564   2.457
 6013SOL    HW218939   5.464   0.652   2.593
 6014SOL     OW18940   6.259   1.272   0.611
 6014SOL    HW118941   6.256   1.185   0.562
 6014SOL    HW218942   6.168   1.293   0.647
 6015SOL     OW18943   6.307   6.972   4.804
 6015SOL    HW118944   6.401   6.978   4.771
 6015SOL    HW218945   6.248   0.011   4.752
 6016SOL     OW18946   1.235   0.068   5.646
 6016SOL    HW118947   1.304   0.109   5.706
 6016SOL    HW218948   1.232   0.120   5.560
 6017SOL     OW18949   0.256   3.555   2.176
 6017SOL    HW118950   0.169   3.595   2.203
 6017SOL    HW218951   0.284   3.591   2.087
 6018SOL     OW18952   3.518   5.096   1.511
 6018SOL    HW118953   3.575   5.175   1.533
 6018SOL    HW218954   3.427   5.108   1.551
 6019SOL     OW18955   6.432   0.082   3.806
 6019SOL    HW118956   6.422   7.005   3.811
 6019SOL    HW218957   6.522   0.109   3.842
 6020SOL     OW18958   2.397   6.247   2.563
 6020SOL    HW118959   2.457   6.242   2.643
 6020SOL    HW218960   2.385   6.155   2.525
 6021SOL     OW18961   3.175   0.141   3.265
 6021SOL    HW118962   3.261   0.106   3.302
 6021SOL    HW218963   3.125   0.067   3.221
 6022SOL     OW18964   3.484   2.021   5.961
 6022SOL    HW118965   3.570   1.971   5.957
 6022SOL    HW218966   3.473   2.063   6.051
 6023SOL     OW18967   0.275   2.139   1.836
 6023SOL    HW118968   0.208   2.112   1.767
 6023SOL    HW218969   0.324   2.221   1.805
 6024SOL     OW18970   6.101   5.251   2.623
 6024SOL    HW118971   6.167   5.186   2.661
 6024SOL    HW218972   6.088   5.232   2.526
 6025SOL     OW18973   4.303   2.200   2.727
 6025SOL    HW118974   4.317   2.263   2.804
 6025SOL    HW218975   4.224   2.230   2.673
 6026SOL     OW18976   1.015   4.295   5.683
 6026SOL    HW118977   0.922   4.261   5.671
 6026SOL    HW218978   1.019   4.353   5.765
 6027SOL     OW18979   4.205   4.364   0.270
 6027SOL    HW118980   4.302   4.384   0.258
 6027SOL    HW218981   4.194   4.293   0.340
 6028SOL     OW18982   0.831   4.171   6.066
 6028SOL    HW118983   0.860   4.093   6.121
 6028SOL    HW218984   0.908   4.234   6.054
 6029SOL     OW18985   1.283   5.221   1.760
 6029SOL    HW118986   1.327   5.164   1.691
 6029SOL    HW218987   1.221   5.286   1.716
 6030SOL     OW18988   1.863   6.417   1.771
 6030SOL    HW118989   1.939   6.464   1.816
 6030SOL    HW218990   1.823   6.350   1.833
 6031SOL     OW18991   4.647   0.592   4.670
 6031SOL    HW118992   4.691   0.549   4.591
 6031SOL    HW218993   4.548   0.583   4.661
 6032SOL     OW18994   1.354   2.497   1.926
 6032SOL    HW118995   1.402   2.584   1.913
 6032SOL    HW218996   1.380   2.434   1.853
 6033SOL     OW18997   0.284   6.792   4.491
 6033SOL    HW118998   0.344   6.771   4.413
 6033SOL    HW218999   0.221   6.715   4.506
 6034SOL     OW19000   2.457   4.532   4.530
 6034SOL    HW119001   2.542   4.561   4.575
 6034SOL    HW219002   2.422   4.450   4.575
 6035SOL     OW19003   4.636   0.392   4.167
 6035SOL    HW119004   4.721   0.358   4.127
 6035SOL    HW219005   4.625   0.489   4.145
 6036SOL     OW19006   5.606   0.601   5.107
 6036SOL    HW119007   5.699   0.586   5.141
 6036SOL    HW219008   5.559   0.666   5.166
 6037SOL     OW19009   0.518   5.943   4.951
 6037SOL    HW119010   0.450   5.938   4.878
 6037SOL    HW219011   0.607   5.965   4.911
 6038SOL     OW19012   0.528   3.985   6.559
 6038SOL    HW119013   0.504   4.082   6.553
 6038SOL    HW219014   0.539   3.948   6.466
 6039SOL     OW19015   3.315   3.526   3.941
 6039SOL    HW119016   3.405   3.482   3.936
 6039SOL    HW219017   3.245   3.457   3.958
 6040SOL     OW19018   1.382   1.033   0.549
 6040SOL    HW119019   1.360   0.979   0.631
 6040SOL    HW219020   1.298   1.070   0.510
 6041SOL     OW19021   0.501   3.114   0.012
 6041SOL    HW119022   0.557   3.157   6.963
 6041SOL    HW219023   0.536   3.140   0.102
 6042SOL     OW19024   5.292   5.750   4.750
 6042SOL    HW119025   5.204   5.726   4.790
 6042SOL    HW219026   5.313   5.687   4.675
 6043SOL     OW19027   6.857   4.878   3.410
 6043SOL    HW119028   6.863   4.967   3.454
 6043SOL    HW219029   6.931   4.820   3.441
 6044SOL     OW19030   1.598   0.869   0.502
 6044SOL    HW119031   1.529   0.939   0.523
 6044SOL    HW219032   1.555   0.779   0.502
 6045SOL     OW19033   6.250   3.917   6.434
 6045SOL    HW119034   6.224   3.952   6.524
 6045SOL    HW219035   6.332   3.965   6.402
 6046SOL     OW19036   1.029   3.720   6.875
 6046SOL    HW119037   0.991   3.641   6.826
 6046SOL    HW219038   1.051   3.694   6.969
 6047SOL     OW19039   1.410   6.047   5.201
 6047SOL    HW119040   1.410   6.115   5.274
 6047SOL    HW219041   1.349   6.079   5.128
 6048SOL     OW19042   4.853   5.956   3.799
 6048SOL    HW119043   4.886   6.013   3.874
 6048SOL    HW219044   4.847   6.011   3.716
 6049SOL     OW19045   6.933   5.678   0.210
 6049SOL    HW119046   6.961   5.671   0.114
 6049SOL    HW219047   6.847   5.628   0.223
 6050SOL     OW19048   5.656   4.197   5.223
 6050SOL    HW119049   5.690   4.205   5.317
 6050SOL    HW219050   5.692   4.113   5.182
 6051SOL     OW19051   2.966   1.878   3.574
 6051SOL    HW119052   3.033   1.847   3.508
 6051SOL    HW219053   2.997   1.858   3.667
 6052SOL     OW19054   0.525   1.911   6.979
 6052SOL    HW119055   0.527   1.860   6.893
 6052SOL    HW219056   0.572   1.858   0.027
 6053SOL     OW19057   1.138   0.331   6.341
 6053SOL    HW119058   1.039   0.325   6.337
 6053SOL    HW219059   1.167   0.344   6.436
 6054SOL     OW19060   0.601   4.297   6.128
 6054SOL    HW119061   0.518   4.297   6.073
 6054SOL    HW219062   0.674   4.249   6.078
 6055SOL     OW19063   5.677   6.794   2.904
 6055SOL    HW119064   5.735   6.722   2.865
 6055SOL    HW219065   5.599   6.752   2.951
 6056SOL     OW19066   5.272   3.051   6.152
 6056SOL    HW119067   5.354   3.103   6.130
 6056SOL    HW219068   5.213   3.105   6.212
 6057SOL     OW19069   4.439   0.951   6.882
 6057SOL    HW119070   4.508   0.897   6.833
 6057SOL    HW219071   4.470   1.046   6.890
 6058SOL     OW19072   5.319   2.274   5.613
 6058SOL    HW119073   5.360   2.188   5.646
 6058SOL    HW219074   5.353   2.350   5.669
 6059SOL     OW19075   0.156   6.337   6.683
 6059SOL    HW119076   0.067   6.384   6.685
 6059SOL    HW219077   0.212   6.374   6.609
 6060SOL     OW19078   3.195   5.224   6.419
 6060SOL    HW119079   3.169   5.250   6.512
 6060SOL    HW219080   3.294   5.227   6.409
 6061SOL     OW19081   2.211   1.462   0.087
 6061SOL    HW119082   2.297   1.513   0.094
 6061SOL    HW219083   2.207   1.415   7.021
 6062SOL     OW19084   1.291   0.563   3.364
 6062SOL    HW119085   1.251   0.606   3.283
 6062SOL    HW219086   1.220   0.545   3.432
 6063SOL     OW19087   6.098   6.039   0.091
 6063SOL    HW119088   6.150   6.124   0.088
 6063SOL    HW219089   6.146   5.973   0.149
 6064SOL     OW19090   1.284   5.499   2.488
 6064SOL    HW119091   1.291   5.573   2.421
 6064SOL    HW219092   1.230   5.530   2.567
 6065SOL     OW19093   5.477   0.303   1.196
 6065SOL    HW119094   5.405   0.267   1.256
 6065SOL    HW219095   5.491   0.240   1.119
 6066SOL     OW19096   4.622   2.396   5.549
 6066SOL    HW119097   4.560   2.323   5.579
 6066SOL    HW219098   4.604   2.478   5.604
 6067SOL     OW19099   4.651   1.572   0.164
 6067SOL    HW119100   4.631   1.671   0.162
 6067SOL    HW219101   4.723   1.551   0.098
 6068SOL     OW19102   4.886   0.927   5.478
 6068SOL    HW119103   4.919   0.891   5.565
 6068SOL    HW219104   4.939   0.887   5.403
 6069SOL     OW19105   6.844   5.699   3.590
 6069SOL    HW119106   6.891   5.778   3.629
 6069SOL    HW219107   6.830   5.714   3.492
 6070SOL     OW19108   5.019   3.445   1.118
 6070SOL    HW119109   5.005   3.497   1.034
 6070SOL    HW219110   4.978   3.354   1.108
 6071SOL     OW19111   4.815   0.292   5.196
 6071SOL    HW119112   4.821   0.388   5.170
 6071SOL    HW219113   4.720   0.262   5.191
 6072SOL     OW19114   6.112   1.411   1.478
 6072SOL    HW119115   6.085   1.506   1.465
 6072SOL    HW219116   6.068   1.354   1.409
 6073SOL     OW19117   5.976   1.227   1.063
 6073SOL    HW119118   6.023   1.140   1.081
 6073SOL    HW219119   6.040   1.291   1.021
 6074SOL     OW19120   0.599   0.641   5.779
 6074SOL    HW119121   0.633   0.723   5.825
 6074SOL    HW219122   0.511   0.661   5.736
 6075SOL     OW19123   5.379   3.507   5.645
 6075SOL    HW119124   5.385   3.420   5.596
 6075SOL    HW219125   5.294   3.554   5.618
 6076SOL     OW19126   2.871   0.276   3.689
 6076SOL    HW119127   2.834   0.233   3.771
 6076SOL    HW219128   2.810   0.259   3.612
 6077SOL     OW19129   4.983   4.916   3.448
 6077SOL    HW119130   5.032   4.890   3.365
 6077SOL    HW219131   4.988   4.841   3.514
 6078SOL     OW19132   2.052   4.777   4.523
 6078SOL    HW119133   2.082   4.749   4.614
 6078SOL    HW219134   1.967   4.829   4.531
 6079SOL     OW19135   3.148   1.891   0.499
 6079SOL    HW119136   3.150   1.811   0.439
 6079SOL    HW219137   3.131   1.973   0.445
 6080SOL     OW19138   5.885   3.474   3.564
 6080SOL    HW119139   5.868   3.535   3.642
 6080SOL    HW219140   5.972   3.500   3.521
 6081SOL     OW19141   0.857   4.506   1.891
 6081SOL    HW119142   0.929   4.445   1.924
 6081SOL    HW219143   0.894   4.568   1.822
 6082SOL     OW19144   4.704   1.970   5.127
 6082SOL    HW119145   4.697   2.005   5.033
 6082SOL    HW219146   4.659   1.881   5.133
 6083SOL     OW19147   1.994   6.743   6.603
 6083SOL    HW119148   1.981   6.796   6.687
 6083SOL    HW219149   2.033   6.654   6.625
 6084SOL     OW19150   0.340   5.940   6.198
 6084SOL    HW119151   0.278   5.995   6.254
 6084SOL    HW219152   0.433   5.977   6.204
 6085SOL     OW19153   5.490   5.102   1.773
 6085SOL    HW119154   5.452   5.071   1.685
 6085SOL    HW219155   5.553   5.032   1.808
 6086SOL     OW19156   3.415   2.090   2.035
 6086SOL    HW119157   3.428   1.992   2.048
 6086SOL    HW219158   3.503   2.134   2.023
 6087SOL     OW19159   3.785   0.975   0.663
 6087SOL    HW119160   3.764   0.878   0.652
 6087SOL    HW219161   3.834   0.988   0.749
 6088SOL     OW19162   0.494   0.760   4.806
 6088SOL    HW119163   0.553   0.767   4.886
 6088SOL    HW219164   0.422   0.829   4.811
 6089SOL     OW19165   6.827   3.632   1.405
 6089SOL    HW119166   6.862   3.554   1.352
 6089SOL    HW219167   6.754   3.601   1.466
 6090SOL     OW19168   6.959   6.402   4.169
 6090SOL    HW119169   0.012   6.400   4.103
 6090SOL    HW219170   6.916   6.312   4.174
 6091SOL     OW19171   6.895   1.931   1.903
 6091SOL    HW119172   6.958   1.854   1.893
 6091SOL    HW219173   6.898   1.965   1.996
 6092SOL     OW19174   0.737   3.430   1.278
 6092SOL    HW119175   0.810   3.455   1.214
 6092SOL    HW219176   0.655   3.402   1.228
 6093SOL     OW19177   0.670   4.495   0.522
 6093SOL    HW119178   0.616   4.561   0.470
 6093SOL    HW219179   0.648   4.503   0.620
 6094SOL     OW19180   0.525   1.329   0.955
 6094SOL    HW119181   0.554   1.388   0.880
 6094SOL    HW219182   0.558   1.366   1.041
 6095SOL     OW19183   0.276   3.897   5.330
 6095SOL    HW119184   0.194   3.921   5.278
 6095SOL    HW219185   0.270   3.936   5.422
 6096SOL     OW19186   5.727   1.953   2.610
 6096SOL    HW119187   5.670   1.992   2.537
 6096SOL    HW219188   5.806   1.906   2.570
 6097SOL     OW19189   3.838   1.634   2.415
 6097SOL    HW119190   3.873   1.727   2.429
 6097SOL    HW219191   3.841   1.584   2.501
 6098SOL     OW19192   0.388   0.872   6.828
 6098SOL    HW119193   0.296   0.835   6.839
 6098SOL    HW219194   0.443   0.848   6.908
 6099SOL     OW19195   5.968   4.032   4.689
 6099SOL    HW119196   5.918   4.028   4.602
 6099SOL    HW219197   6.045   3.968   4.687
 6100SOL     OW19198   6.879   2.985   1.247
 6100SOL    HW119199   6.952   2.962   1.310
 6100SOL    HW219200   6.917   3.000   1.156
 6101SOL     OW19201   6.100   6.465   3.770
 6101SOL    HW119202   6.175   6.516   3.727
 6101SOL    HW219203   6.072   6.512   3.854
 6102SOL     OW19204   3.400   6.202   4.962
 6102SOL    HW119205   3.429   6.270   4.894
 6102SOL    HW219206   3.475   6.186   5.026
 6103SOL     OW19207   5.361   1.796   5.198
 6103SOL    HW119208   5.426   1.749   5.140
 6103SOL    HW219209   5.397   1.886   5.223
 6104SOL     OW19210   2.384   3.281   1.575
 6104SOL    HW119211   2.419   3.199   1.529
 6104SOL    HW219212   2.300   3.258   1.625
 6105SOL     OW19213   3.352   4.985   4.547
 6105SOL    HW119214   3.281   4.920   4.576
 6105SOL    HW219215   3.327   5.077   4.577
 6106SOL     OW19216   2.275   5.117   4.201
 6106SOL    HW119217   2.259   5.065   4.117
 6106SOL    HW219218   2.257   5.059   4.281
 6107SOL     OW19219   2.091   4.936   6.148
 6107SOL    HW119220   2.011   4.993   6.164
 6107SOL    HW219221   2.141   4.969   6.068
 6108SOL     OW19222   5.289   2.133   5.042
 6108SOL    HW119223   5.223   2.208   5.038
 6108SOL    HW219224   5.376   2.163   5.002
 6109SOL     OW19225   0.291   4.504   1.817
 6109SOL    HW119226   0.296   4.506   1.717
 6109SOL    HW219227   0.297   4.597   1.853
 6110SOL     OW19228   3.363   2.089   3.924
 6110SOL    HW119229   3.456   2.096   3.887
 6110SOL    HW219230   3.306   2.036   3.862
 6111SOL     OW19231   0.877   4.421   3.474
 6111SOL    HW119232   0.941   4.482   3.521
 6111SOL    HW219233   0.801   4.399   3.534
 6112SOL     OW19234   1.336   0.921   1.137
 6112SOL    HW119235   1.345   0.970   1.050
 6112SOL    HW219236   1.383   0.972   1.209
 6113SOL     OW19237   1.525   4.676   5.927
 6113SOL    HW119238   1.434   4.684   5.886
 6113SOL    HW219239   1.590   4.646   5.857
 6114SOL     OW19240   3.515   4.442   1.129
 6114SOL    HW119241   3.567   4.519   1.166
 6114SOL    HW219242   3.498   4.457   1.032
 6115SOL     OW19243   0.057   4.456   2.389
 6115SOL    HW119244   0.093   4.526   2.451
 6115SOL    HW219245   0.090   4.366   2.419
 6116SOL     OW19246   4.293   2.549   0.954
 6116SOL    HW119247   4.261   2.639   0.985
 6116SOL    HW219248   4.249   2.526   0.868
 6117SOL     OW19249   5.525   6.014   4.015
 6117SOL    HW119250   5.459   6.055   3.952
 6117SOL    HW219251   5.504   6.042   4.108
 6118SOL     OW19252   6.351   0.212   3.588
 6118SOL    HW119253   6.364   0.159   3.672
 6118SOL    HW219254   6.438   0.215   3.538
 6119SOL     OW19255   5.572   5.320   5.125
 6119SOL    HW119256   5.582   5.418   5.142
 6119SOL    HW219257   5.497   5.305   5.061
 6120SOL     OW19258   2.276   2.043   2.641
 6120SOL    HW119259   2.274   2.053   2.740
 6120SOL    HW219260   2.364   2.076   2.606
 6121SOL     OW19261   6.786   2.079   3.142
 6121SOL    HW119262   6.863   2.023   3.170
 6121SOL    HW219263   6.820   2.163   3.098
 6122SOL     OW19264   3.763   5.444   4.071
 6122SOL    HW119265   3.733   5.440   4.167
 6122SOL    HW219266   3.861   5.461   4.068
 6123SOL     OW19267   6.025   1.900   2.879
 6123SOL    HW119268   6.076   1.986   2.877
 6123SOL    HW219269   5.953   1.906   2.948
 6124SOL     OW19270   2.755   0.450   5.349
 6124SOL    HW119271   2.744   0.390   5.269
 6124SOL    HW219272   2.681   0.433   5.414
 6125SOL     OW19273   1.371   4.299   2.821
 6125SOL    HW119274   1.299   4.274   2.885
 6125SOL    HW219275   1.340   4.377   2.765
 6126SOL     OW19276   3.529   6.560   3.235
 6126SOL    HW119277   3.504   6.649   3.196
 6126SOL    HW219278   3.538   6.493   3.162
 6127SOL     OW19279   1.808   5.692   1.227
 6127SOL    HW119280   1.858   5.776   1.205
 6127SOL    HW219281   1.712   5.704   1.202
 6128SOL     OW19282   5.414   4.215   1.806
 6128SOL    HW119283   5.449   4.133   1.761
 6128SOL    HW219284   5.476   4.241   1.881
 6129SOL     OW19285   6.619   3.660   3.545
 6129SOL    HW119286   6.641   3.756   3.561
 6129SOL    HW219287   6.535   3.654   3.491
 6130SOL     OW19288   5.689   3.225   2.719
 6130SOL    HW119289   5.685   3.289   2.795
 6130SOL    HW219290   5.719   3.273   2.636
 6131SOL     OW19291   0.251   1.305   5.307
 6131SOL    HW119292   0.155   1.280   5.314
 6131SOL    HW219293   0.300   1.235   5.256
 6132SOL     OW19294   0.140   2.625   0.469
 6132SOL    HW119295   0.135   2.554   0.398
 6132SOL    HW219296   0.168   2.583   0.556
 6133SOL     OW19297   1.451   4.917   0.341
 6133SOL    HW119298   1.537   4.966   0.358
 6133SOL    HW219299   1.452   4.880   0.248
 6134SOL     OW19300   4.793   3.972   6.280
 6134SOL    HW119301   4.711   3.949   6.332
 6134SOL    HW219302   4.858   3.895   6.286
 6135SOL     OW19303   6.085   6.799   2.311
 6135SOL    HW119304   6.148   6.869   2.276
 6135SOL    HW219305   5.992   6.836   2.314
 6136SOL     OW19306   1.330   2.050   2.664
 6136SOL    HW119307   1.357   2.145   2.678
 6136SOL    HW219308   1.393   1.990   2.714
 6137SOL     OW19309   3.527   0.041   6.088
 6137SOL    HW119310   3.477   6.983   6.121
 6137SOL    HW219311   3.590   0.072   6.160
 6138SOL     OW19312   4.550   0.774   2.924
 6138SOL    HW119313   4.610   0.718   2.981
 6138SOL    HW219314   4.472   0.805   2.978
 6139SOL     OW19315   2.538   6.061   3.594
 6139SOL    HW119316   2.459   6.069   3.534
 6139SOL    HW219317   2.620   6.094   3.546
 6140SOL     OW19318   2.204   6.052   1.244
 6140SOL    HW119319   2.132   6.024   1.307
 6140SOL    HW219320   2.198   6.150   1.227
 6141SOL     OW19321   0.835   6.173   4.946
 6141SOL    HW119322   0.878   6.161   5.035
 6141SOL    HW219323   0.868   6.258   4.904
 6142SOL     OW19324   6.924   3.143   4.279
 6142SOL    HW119325   6.834   3.167   4.315
 6142SOL    HW219326   6.989   3.135   4.354
 6143SOL     OW19327   6.418   5.754   6.302
 6143SOL    HW119328   6.472   5.671   6.290
 6143SOL    HW219329   6.395   5.792   6.213
 6144SOL     OW19330   0.348   5.904   4.741
 6144SOL    HW119331   0.362   5.866   4.649
 6144SOL    HW219332   0.258   5.949   4.745
 6145SOL     OW19333   5.957   5.221   3.853
 6145SOL    HW119334   5.892   5.145   3.843
 6145SOL    HW219335   5.906   5.306   3.868
 6146SOL     OW19336   5.785   1.970   3.633
 6146SOL    HW119337   5.752   2.050   3.584
 6146SOL    HW219338   5.841   1.914   3.572
 6147SOL     OW19339   1.334   3.669   3.822
 6147SOL    HW119340   1.298   3.671   3.729
 6147SOL    HW219341   1.304   3.751   3.871
 6148SOL     OW19342   5.906   6.637   3.223
 6148SOL    HW119343   5.829   6.575   3.216
 6148SOL    HW219344   5.900   6.707   3.151
 6149SOL     OW19345   1.266   5.864   4.684
 6149SOL    HW119346   1.335   5.856   4.611
 6149SOL    HW219347   1.268   5.782   4.741
 6150SOL     OW19348   4.614   6.764   6.399
 6150SOL    HW119349   4.522   6.774   6.436
 6150SOL    HW219350   4.682   6.775   6.472
 6151SOL     OW19351   3.833   0.237   4.696
 6151SOL    HW119352   3.855   0.170   4.768
 6151SOL    HW219353   3.810   0.325   4.739
 6152SOL     OW19354   6.599   3.852   5.943
 6152SOL    HW119355   6.636   3.945   5.952
 6152SOL    HW219356   6.508   3.856   5.903
 6153SOL     OW19357   3.776   5.648   5.720
 6153SOL    HW119358   3.718   5.566   5.716
 6153SOL    HW219359   3.731   5.722   5.670
 6154SOL     OW19360   5.202   2.701   3.372
 6154SOL    HW119361   5.158   2.623   3.329
 6154SOL    HW219362   5.217   2.773   3.304
 6155SOL     OW19363   2.883   4.803   4.748
 6155SOL    HW119364   2.913   4.723   4.799
 6155SOL    HW219365   2.867   4.879   4.811
 6156SOL     OW19366   5.932   0.522   4.447
 6156SOL    HW119367   5.921   0.548   4.351
 6156SOL    HW219368   5.885   0.588   4.506
 6157SOL     OW19369   1.571   0.688   4.701
 6157SOL    HW119370   1.603   0.611   4.647
 6157SOL    HW219371   1.485   0.722   4.663
 6158SOL     OW19372   4.816   6.454   6.922
 6158SOL    HW119373   4.900   6.507   6.905
 6158SOL    HW219374   4.840   6.363   6.956
 6159SOL     OW19375   4.994   3.789   6.283
 6159SOL    HW119376   4.987   3.796   6.183
 6159SOL    HW219377   4.963   3.698   6.312
 6160SOL     OW19378   6.409   5.364   0.215
 6160SOL    HW119379   6.462   5.290   0.258
 6160SOL    HW219380   6.359   5.415   0.285
 6161SOL     OW19381   5.681   0.037   6.298
 6161SOL    HW119382   5.627   0.112   6.334
 6161SOL    HW219383   5.661   0.025   6.201
 6162SOL     OW19384   5.901   5.877   3.621
 6162SOL    HW119385   5.929   5.786   3.591
 6162SOL    HW219386   5.939   5.946   3.558
 6163SOL     OW19387   6.989   4.248   3.287
 6163SOL    HW119388   6.901   4.209   3.259
 6163SOL    HW219389   0.011   4.187   3.352
 6164SOL     OW19390   4.575   3.399   1.246
 6164SOL    HW119391   4.592   3.350   1.161
 6164SOL    HW219392   4.477   3.418   1.255
 6165SOL     OW19393   3.636   6.883   0.883
 6165SOL    HW119394   3.582   6.911   0.962
 6165SOL    HW219395   3.710   6.949   0.868
 6166SOL     OW19396   3.282   0.856   0.594
 6166SOL    HW119397   3.318   0.769   0.561
 6166SOL    HW219398   3.190   0.842   0.631
 6167SOL     OW19399   0.342   5.039   3.549
 6167SOL    HW119400   0.311   4.985   3.471
 6167SOL    HW219401   0.264   5.058   3.609
 6168SOL     OW19402   0.053   2.676   1.723
 6168SOL    HW119403   0.119   2.626   1.778
 6168SOL    HW219404   0.045   2.770   1.757
 6169SOL     OW19405   1.236   4.212   1.167
 6169SOL    HW119406   1.143   4.192   1.198
 6169SOL    HW219407   1.255   4.159   1.084
 6170SOL     OW19408   5.979   2.113   3.417
 6170SOL    HW119409   6.050   2.080   3.479
 6170SOL    HW219410   5.904   2.151   3.470
 6171SOL     OW19411   5.423   2.392   6.377
 6171SOL    HW119412   5.456   2.336   6.453
 6171SOL    HW219413   5.498   2.448   6.342
 6172SOL     OW19414   0.032   4.767   3.567
 6172SOL    HW119415   0.114   4.711   3.553
 6172SOL    HW219416   6.996   4.724   3.635
 6173SOL     OW19417   5.370   6.528   2.866
 6173SOL    HW119418   5.452   6.472   2.856
 6173SOL    HW219419   5.384   6.596   2.938
 6174SOL     OW19420   0.316   2.291   3.423
 6174SOL    HW119421   0.362   2.301   3.335
 6174SOL    HW219422   0.220   2.268   3.408
 6175SOL     OW19423   4.319   2.705   6.280
 6175SOL    HW119424   4.394   2.704   6.215
 6175SOL    HW219425   4.246   2.645   6.248
 6176SOL     OW19426   2.985   5.075   5.951
 6176SOL    HW119427   3.046   5.062   6.029
 6176SOL    HW219428   2.914   5.141   5.975
 6177SOL     OW19429   5.753   5.369   1.799
 6177SOL    HW119430   5.848   5.396   1.816
 6177SOL    HW219431   5.693   5.446   1.818
 6178SOL     OW19432   4.337   4.641   1.791
 6178SOL    HW119433   4.415   4.620   1.731
 6178SOL    HW219434   4.252   4.624   1.742
 6179SOL     OW19435   4.878   5.260   4.587
 6179SOL    HW119436   4.942   5.328   4.622
 6179SOL    HW219437   4.790   5.269   4.635
 6180SOL     OW19438   1.592   3.396   6.693
 6180SOL    HW119439   1.598   3.408   6.792
 6180SOL    HW219440   1.624   3.304   6.669
 6181SOL     OW19441   7.007   6.479   0.089
 6181SOL    HW119442   0.048   6.460   0.015
 6181SOL    HW219443   0.000   6.414   0.164
 6182SOL     OW19444   2.730   2.681   6.112
 6182SOL    HW119445   2.719   2.769   6.067
 6182SOL    HW219446   2.825   2.650   6.102
 6183SOL     OW19447   0.643   0.625   0.611
 6183SOL    HW119448   0.687   0.615   0.700
 6183SOL    HW219449   0.620   0.721   0.596
 6184SOL     OW19450   3.495   6.301   5.270
 6184SOL    HW119451   3.400   6.271   5.256
 6184SOL    HW219452   3.497   6.374   5.338
 6185SOL     OW19453   3.136   3.003   3.608
 6185SOL    HW119454   3.224   2.967   3.577
 6185SOL    HW219455   3.129   2.990   3.707
 6186SOL     OW19456   1.103   1.413   1.997
 6186SOL    HW119457   1.077   1.342   2.062
 6186SOL    HW219458   1.139   1.492   2.046
 6187SOL     OW19459   3.571   2.378   5.680
 6187SOL    HW119460   3.653   2.436   5.673
 6187SOL    HW219461   3.535   2.382   5.773
 6188SOL     OW19462   1.182   1.365   5.841
 6188SOL    HW119463   1.282   1.355   5.838
 6188SOL    HW219464   1.156   1.404   5.929
 6189SOL     OW19465   6.969   5.529   0.716
 6189SOL    HW119466   0.033   5.503   0.672
 6189SOL    HW219467   6.907   5.450   0.715
 6190SOL     OW19468   0.926   3.127   4.034
 6190SOL    HW119469   0.899   3.188   3.960
 6190SOL    HW219470   0.872   3.147   4.115
 6191SOL     OW19471   3.076   4.634   0.248
 6191SOL    HW119472   3.035   4.576   0.318
 6191SOL    HW219473   3.005   4.677   0.193
 6192SOL     OW19474   2.635   1.986   1.246
 6192SOL    HW119475   2.675   1.932   1.320
 6192SOL    HW219476   2.634   1.933   1.162
 6193SOL     OW19477   4.421   5.334   6.888
 6193SOL    HW119478   4.423   5.270   6.811
 6193SOL    HW219479   4.514   5.350   6.921
 6194SOL     OW19480   5.899   6.770   5.831
 6194SOL    HW119481   5.865   6.783   5.924
 6194SOL    HW219482   5.955   6.848   5.804
 6195SOL     OW19483   4.937   5.342   5.637
 6195SOL    HW119484   4.936   5.436   5.604
 6195SOL    HW219485   5.025   5.323   5.681
 6196SOL     OW19486   6.566   3.717   3.138
 6196SOL    HW119487   6.482   3.770   3.127
 6196SOL    HW219488   6.565   3.671   3.227
 6197SOL     OW19489   0.770   5.627   0.379
 6197SOL    HW119490   0.861   5.607   0.416
 6197SOL    HW219491   0.771   5.716   0.334
 6198SOL     OW19492   6.610   2.008   6.021
 6198SOL    HW119493   6.574   2.072   5.954
 6198SOL    HW219494   6.535   1.957   6.063
 6199SOL     OW19495   2.449   6.997   6.299
 6199SOL    HW119496   2.359   6.960   6.276
 6199SOL    HW219497   2.455   7.012   6.398
 6200SOL     OW19498   1.882   0.118   6.522
 6200SOL    HW119499   1.891   0.217   6.519
 6200SOL    HW219500   1.973   0.076   6.527
 6201SOL     OW19501   0.933   4.700   3.878
 6201SOL    HW119502   0.959   4.789   3.915
 6201SOL    HW219503   0.920   4.707   3.779
 6202SOL     OW19504   5.335   1.008   1.364
 6202SOL    HW119505   5.373   0.915   1.356
 6202SOL    HW219506   5.381   1.068   1.300
 6203SOL     OW19507   0.251   1.189   2.356
 6203SOL    HW119508   0.190   1.199   2.434
 6203SOL    HW219509   0.315   1.266   2.353
 6204SOL     OW19510   1.108   6.088   4.748
 6204SOL    HW119511   1.015   6.072   4.713
 6204SOL    HW219512   1.164   6.006   4.733
 6205SOL     OW19513   0.097   4.475   3.561
 6205SOL    HW119514   0.011   4.490   3.513
 6205SOL    HW219515   0.162   4.430   3.500
 6206SOL     OW19516   5.258   2.171   3.775
 6206SOL    HW119517   5.160   2.192   3.766
 6206SOL    HW219518   5.274   2.122   3.861
 6207SOL     OW19519   1.842   5.580   3.420
 6207SOL    HW119520   1.836   5.653   3.351
 6207SOL    HW219521   1.798   5.610   3.504
 6208SOL     OW19522   3.718   4.243   5.928
 6208SOL    HW119523   3.756   4.327   5.888
 6208SOL    HW219524   3.620   4.240   5.912
 6209SOL     OW19525   3.388   1.224   2.653
 6209SOL    HW119526   3.466   1.248   2.711
 6209SOL    HW219527   3.417   1.156   2.586
 6210SOL     OW19528   5.191   0.165   4.283
 6210SOL    HW119529   5.287   0.183   4.305
 6210SOL    HW219530   5.140   0.251   4.283
 6211SOL     OW19531   5.559   2.938   5.273
 6211SOL    HW119532   5.561   2.844   5.307
 6211SOL    HW219533   5.505   2.994   5.335
 6212SOL     OW19534   4.834   4.191   4.511
 6212SOL    HW119535   4.818   4.093   4.501
 6212SOL    HW219536   4.789   4.224   4.594
 6213SOL     OW19537   5.434   5.824   0.734
 6213SOL    HW119538   5.408   5.727   0.740
 6213SOL    HW219539   5.389   5.875   0.807
 6214SOL     OW19540   6.557   6.474   6.125
 6214SOL    HW119541   6.467   6.459   6.085
 6214SOL    HW219542   6.596   6.386   6.154
 6215SOL     OW19543   5.656   2.394   5.103
 6215SOL    HW119544   5.719   2.419   5.176
 6215SOL    HW219545   5.563   2.424   5.126
 6216SOL     OW19546   5.389   2.823   6.230
 6216SOL    HW119547   5.410   2.764   6.152
 6216SOL    HW219548   5.347   2.908   6.197
 6217SOL     OW19549   0.324   4.098   2.256
 6217SOL    HW119550   0.262   4.056   2.322
 6217SOL    HW219551   0.298   4.193   2.241
 6218SOL     OW19552   5.350   6.833   1.697
 6218SOL    HW119553   5.341   6.921   1.650
 6218SOL    HW219554   5.306   6.839   1.787
 6219SOL     OW19555   2.682   0.813   0.374
 6219SOL    HW119556   2.773   0.832   0.409
 6219SOL    HW219557   2.689   0.776   0.281
 6220SOL     OW19558   3.076   0.524   2.644
 6220SOL    HW119559   3.077   0.509   2.546
 6220SOL    HW219560   3.016   0.601   2.666
 6221SOL     OW19561   4.610   4.959   5.002
 6221SOL    HW119562   4.558   5.044   5.003
 6221SOL    HW219563   4.686   4.965   5.067
 6222SOL     OW19564   0.335   1.033   2.148
 6222SOL    HW119565   0.420   1.073   2.114
 6222SOL    HW219566   0.313   1.072   2.237
 6223SOL     OW19567   6.451   5.327   3.731
 6223SOL    HW119568   6.509   5.405   3.706
 6223SOL    HW219569   6.469   5.251   3.669
 6224SOL     OW19570   3.898   0.048   6.839
 6224SOL    HW119571   3.841   7.001   6.797
 6224SOL    HW219572   3.995   0.024   6.828
 6225SOL     OW19573   5.683   5.478   6.464
 6225SOL    HW119574   5.605   5.415   6.461
 6225SOL    HW219575   5.764   5.428   6.494
 6226SOL     OW19576   1.399   1.148   4.062
 6226SOL    HW119577   1.480   1.207   4.066
 6226SOL    HW219578   1.411   1.071   4.125
 6227SOL     OW19579   2.318   4.234   6.354
 6227SOL    HW119580   2.327   4.328   6.322
 6227SOL    HW219581   2.243   4.190   6.304
 6228SOL     OW19582   0.613   2.754   4.172
 6228SOL    HW119583   0.649   2.677   4.226
 6228SOL    HW219584   0.517   2.737   4.150
 6229SOL     OW19585   0.416   4.687   4.705
 6229SOL    HW119586   0.426   4.693   4.606
 6229SOL    HW219587   0.361   4.607   4.728
 6230SOL     OW19588   1.005   0.671   1.031
 6230SOL    HW119589   1.007   0.576   0.998
 6230SOL    HW219590   1.051   0.676   1.120
 6231SOL     OW19591   1.609   5.190   5.554
 6231SOL    HW119592   1.688   5.204   5.493
 6231SOL    HW219593   1.543   5.130   5.509
 6232SOL     OW19594   4.058   1.110   6.198
 6232SOL    HW119595   4.106   1.039   6.249
 6232SOL    HW219596   4.113   1.194   6.196
 6233SOL     OW19597   6.753   4.430   1.084
 6233SOL    HW119598   6.778   4.352   1.142
 6233SOL    HW219599   6.723   4.506   1.142
 6234SOL     OW19600   4.754   5.060   2.963
 6234SOL    HW119601   4.788   5.105   2.880
 6234SOL    HW219602   4.668   5.102   2.991
 6235SOL     OW19603   1.065   1.047   1.344
 6235SOL    HW119604   1.042   0.950   1.352
 6235SOL    HW219605   0.990   1.102   1.381
 6236SOL     OW19606   6.134   6.000   1.589
 6236SOL    HW119607   6.104   6.090   1.559
 6236SOL    HW219608   6.180   5.953   1.514
 6237SOL     OW19609   4.492   1.150   3.100
 6237SOL    HW119610   4.565   1.098   3.146
 6237SOL    HW219611   4.466   1.228   3.157
 6238SOL     OW19612   2.057   6.803   3.705
 6238SOL    HW119613   2.082   6.777   3.798
 6238SOL    HW219614   2.140   6.824   3.653
 6239SOL     OW19615   3.902   1.629   4.344
 6239SOL    HW119616   3.858   1.717   4.361
 6239SOL    HW219617   3.909   1.578   4.430
 6240SOL     OW19618   4.107   3.210   4.412
 6240SOL    HW119619   4.177   3.151   4.373
 6240SOL    HW219620   4.088   3.286   4.349
 6241SOL     OW19621   4.055   0.076   3.196
 6241SOL    HW119622   4.045   0.106   3.291
 6241SOL    HW219623   4.132   0.123   3.154
 6242SOL     OW19624   3.340   2.150   4.548
 6242SOL    HW119625   3.354   2.217   4.475
 6242SOL    HW219626   3.244   2.125   4.554
 6243SOL     OW19627   3.094   0.472   0.120
 6243SOL    HW119628   3.169   0.439   0.177
 6243SOL    HW219629   3.014   0.492   0.177
 6244SOL     OW19630   5.007   2.445   1.678
 6244SOL    HW119631   5.075   2.374   1.692
 6244SOL    HW219632   5.000   2.466   1.581
 6245SOL     OW19633   6.898   4.880   1.482
 6245SOL    HW119634   6.849   4.821   1.546
 6245SOL    HW219635   6.974   4.828   1.442
 6246SOL     OW19636   1.062   5.797   5.467
 6246SOL    HW119637   1.018   5.869   5.520
 6246SOL    HW219638   1.095   5.835   5.381
 6247SOL     OW19639   5.880   5.429   2.490
 6247SOL    HW119640   5.924   5.362   2.430
 6247SOL    HW219641   5.884   5.397   2.585
 6248SOL     OW19642   4.408   2.507   5.959
 6248SOL    HW119643   4.374   2.597   5.988
 6248SOL    HW219644   4.500   2.517   5.923
 6249SOL     OW19645   5.644   2.419   2.846
 6249SOL    HW119646   5.678   2.513   2.840
 6249SOL    HW219647   5.721   2.356   2.852
 6250SOL     OW19648   4.954   6.917   5.160
 6250SOL    HW119649   4.941   6.869   5.074
 6250SOL    HW219650   4.979   7.012   5.142
 6251SOL     OW19651   2.929   0.901   3.849
 6251SOL    HW119652   2.975   0.877   3.933
 6251SOL    HW219653   2.934   1.000   3.835
 6252SOL     OW19654   2.474   4.547   0.360
 6252SOL    HW119655   2.494   4.638   0.324
 6252SOL    HW219656   2.400   4.553   0.427
 6253SOL     OW19657   4.851   6.146   3.591
 6253SOL    HW119658   4.833   6.182   3.499
 6253SOL    HW219659   4.948   6.157   3.612
 6254SOL     OW19660   6.796   6.746   1.438
 6254SOL    HW119661   6.811   6.748   1.537
 6254SOL    HW219662   6.861   6.682   1.397
 6255SOL     OW19663   2.738   0.845   1.051
 6255SOL    HW119664   2.693   0.824   1.138
 6255SOL    HW219665   2.785   0.763   1.018
 6256SOL     OW19666   0.110   4.533   2.112
 6256SOL    HW119667   0.096   4.521   2.210
 6256SOL    HW219668   0.208   4.539   2.092
 6257SOL     OW19669   3.934   4.197   0.570
 6257SOL    HW119670   3.935   4.229   0.664
 6257SOL    HW219671   3.952   4.274   0.508
 6258SOL     OW19672   4.290   4.949   3.639
 6258SOL    HW119673   4.380   4.991   3.648
 6258SOL    HW219674   4.232   5.006   3.581
 6259SOL     OW19675   5.042   0.045   4.794
 6259SOL    HW119676   5.044   0.105   4.873
 6259SOL    HW219677   5.086   6.980   4.817
 6260SOL     OW19678   3.623   2.436   6.745
 6260SOL    HW119679   3.592   2.497   6.672
 6260SOL    HW219680   3.719   2.453   6.765
 6261SOL     OW19681   4.728   6.389   1.585
 6261SOL    HW119682   4.673   6.439   1.652
 6261SOL    HW219683   4.681   6.391   1.496
 6262SOL     OW19684   6.250   1.466   3.610
 6262SOL    HW119685   6.187   1.544   3.607
 6262SOL    HW219686   6.299   1.460   3.523
 6263SOL     OW19687   6.021   6.386   5.855
 6263SOL    HW119688   5.997   6.400   5.759
 6263SOL    HW219689   5.938   6.385   5.910
 6264SOL     OW19690   1.125   6.328   1.237
 6264SOL    HW119691   1.109   6.281   1.150
 6264SOL    HW219692   1.088   6.421   1.233
 6265SOL     OW19693   4.033   6.115   6.622
 6265SOL    HW119694   4.114   6.146   6.671
 6265SOL    HW219695   3.958   6.102   6.686
 6266SOL     OW19696   2.706   5.076   3.268
 6266SOL    HW119697   2.727   5.041   3.176
 6266SOL    HW219698   2.789   5.110   3.310
 6267SOL     OW19699   0.645   6.607   4.123
 6267SOL    HW119700   0.664   6.705   4.127
 6267SOL    HW219701   0.715   6.557   4.174
 6268SOL     OW19702   3.348   2.025   1.130
 6268SOL    HW119703   3.402   1.954   1.084
 6268SOL    HW219704   3.379   2.115   1.099
 6269SOL     OW19705   0.028   6.021   0.289
 6269SOL    HW119706   0.098   6.000   0.358
 6269SOL    HW219707   7.019   5.936   0.247
 6270SOL     OW19708   1.196   6.137   0.641
 6270SOL    HW119709   1.242   6.110   0.556
 6270SOL    HW219710   1.141   6.061   0.675
 6271SOL     OW19711   6.770   3.611   6.181
 6271SOL    HW119712   6.833   3.545   6.140
 6271SOL    HW219713   6.810   3.703   6.176
 6272SOL     OW19714   6.883   0.742   0.980
 6272SOL    HW119715   6.808   0.708   1.036
 6272SOL    HW219716   6.852   0.751   0.885
 6273SOL     OW19717   0.465   6.445   2.573
 6273SOL    HW119718   0.392   6.406   2.516
 6273SOL    HW219719   0.467   6.544   2.562
 6274SOL     OW19720   3.428   5.988   3.895
 6274SOL    HW119721   3.381   5.910   3.937
 6274SOL    HW219722   3.370   6.026   3.823
 6275SOL     OW19723   3.182   5.608   1.502
 6275SOL    HW119724   3.250   5.547   1.463
 6275SOL    HW219725   3.105   5.555   1.537
 6276SOL     OW19726   1.609   4.432   2.625
 6276SOL    HW119727   1.649   4.386   2.546
 6276SOL    HW219728   1.657   4.405   2.708
 6277SOL     OW19729   5.415   2.285   1.085
 6277SOL    HW119730   5.495   2.343   1.103
 6277SOL    HW219731   5.440   2.189   1.096
 6278SOL     OW19732   3.915   3.180   0.096
 6278SOL    HW119733   3.939   3.245   0.024
 6278SOL    HW219734   3.820   3.152   0.084
 6279SOL     OW19735   0.736   6.121   1.862
 6279SOL    HW119736   0.772   6.037   1.903
 6279SOL    HW219737   0.747   6.118   1.763
 6280SOL     OW19738   5.052   0.771   6.990
 6280SOL    HW119739   4.974   0.801   0.022
 6280SOL    HW219740   5.136   0.812   0.004
 6281SOL     OW19741   5.890   3.768   6.304
 6281SOL    HW119742   5.957   3.701   6.272
 6281SOL    HW219743   5.870   3.832   6.230
 6282SOL     OW19744   0.093   4.623   5.676
 6282SOL    HW119745   0.099   4.527   5.651
 6282SOL    HW219746   0.134   4.636   5.767
 6283SOL     OW19747   2.656   6.542   4.183
 6283SOL    HW119748   2.648   6.557   4.085
 6283SOL    HW219749   2.750   6.518   4.207
 6284SOL     OW19750   1.922   4.157   6.444
 6284SOL    HW119751   1.997   4.170   6.380
 6284SOL    HW219752   1.842   4.209   6.413
 6285SOL     OW19753   1.571   4.340   4.015
 6285SOL    HW119754   1.489   4.398   4.022
 6285SOL    HW219755   1.607   4.344   3.922
 6286SOL     OW19756   1.128   3.471   0.133
 6286SOL    HW119757   1.058   3.413   0.175
 6286SOL    HW219758   1.139   3.555   0.186
 6287SOL     OW19759   3.982   5.330   4.804
 6287SOL    HW119760   3.901   5.371   4.760
 6287SOL    HW219761   4.047   5.402   4.827
 6288SOL     OW19762   3.280   3.880   6.145
 6288SOL    HW119763   3.307   3.846   6.055
 6288SOL    HW219764   3.180   3.883   6.151
 6289SOL     OW19765   2.660   5.259   5.771
 6289SOL    HW119766   2.723   5.256   5.692
 6289SOL    HW219767   2.713   5.252   5.855
 6290SOL     OW19768   6.340   0.736   3.207
 6290SOL    HW119769   6.420   0.713   3.151
 6290SOL    HW219770   6.307   0.827   3.183
 6291SOL     OW19771   3.067   3.258   1.957
 6291SOL    HW119772   2.976   3.278   1.919
 6291SOL    HW219773   3.061   3.179   2.019
 6292SOL     OW19774   0.677   4.222   5.007
 6292SOL    HW119775   0.770   4.256   4.989
 6292SOL    HW219776   0.674   4.123   4.989
 6293SOL     OW19777   2.803   1.329   0.524
 6293SOL    HW119778   2.841   1.396   0.461
 6293SOL    HW219779   2.809   1.363   0.618
 6294SOL     OW19780   1.257   6.987   2.168
 6294SOL    HW119781   1.307   0.006   2.092
 6294SOL    HW219782   1.204   0.036   2.215
 6295SOL     OW19783   4.638   2.731   5.474
 6295SOL    HW119784   4.559   2.685   5.514
 6295SOL    HW219785   4.722   2.700   5.520
 6296SOL     OW19786   6.879   1.924   0.219
 6296SOL    HW119787   6.967   1.972   0.218
 6296SOL    HW219788   6.879   1.856   0.292
 6297SOL     OW19789   0.323   1.266   4.624
 6297SOL    HW119790   0.253   1.215   4.573
 6297SOL    HW219791   0.404   1.278   4.566
 6298SOL     OW19792   0.084   0.987   6.664
 6298SOL    HW119793   0.002   1.030   6.701
 6298SOL    HW219794   0.165   1.023   6.711
 6299SOL     OW19795   3.081   1.841   3.826
 6299SOL    HW119796   3.056   1.745   3.816
 6299SOL    HW219797   3.017   1.885   3.889
 6300SOL     OW19798   2.877   2.538   0.828
 6300SOL    HW119799   2.915   2.532   0.736
 6300SOL    HW219800   2.863   2.446   0.864
 6301SOL     OW19801   4.292   6.136   0.941
 6301SOL    HW119802   4.273   6.038   0.940
 6301SOL    HW219803   4.316   6.165   1.034
 6302SOL     OW19804   1.621   3.846   0.665
 6302SOL    HW119805   1.582   3.850   0.757
 6302SOL    HW219806   1.635   3.750   0.640
 6303SOL     OW19807   6.524   4.639   4.849
 6303SOL    HW119808   6.528   4.618   4.946
 6303SOL    HW219809   6.437   4.607   4.811
 6304SOL     OW19810   1.839   2.558   4.953
 6304SOL    HW119811   1.753   2.514   4.928
 6304SOL    HW219812   1.860   2.629   4.886
 6305SOL     OW19813   1.126   5.899   5.177
 6305SOL    HW119814   1.118   5.821   5.115
 6305SOL    HW219815   1.219   5.935   5.173
 6306SOL     OW19816   1.201   4.134   3.833
 6306SOL    HW119817   1.256   4.167   3.756
 6306SOL    HW219818   1.140   4.207   3.864
 6307SOL     OW19819   3.650   3.199   2.803
 6307SOL    HW119820   3.719   3.127   2.803
 6307SOL    HW219821   3.569   3.167   2.753
 6308SOL     OW19822   1.105   0.734   1.274
 6308SOL    HW119823   1.167   0.803   1.238
 6308SOL    HW219824   1.154   0.675   1.339
 6309SOL     OW19825   1.636   5.922   5.282
 6309SOL    HW119826   1.669   5.952   5.371
 6309SOL    HW219827   1.572   5.990   5.246
 6310SOL     OW19828   0.934   6.607   2.433
 6310SOL    HW119829   1.031   6.588   2.415
 6310SOL    HW219830   0.909   6.570   2.523
 6311SOL     OW19831   5.825   1.407   5.966
 6311SOL    HW119832   5.847   1.434   5.872
 6311SOL    HW219833   5.894   1.343   6.000
 6312SOL     OW19834   4.216   5.040   1.310
 6312SOL    HW119835   4.257   5.087   1.389
 6312SOL    HW219836   4.282   5.039   1.234
 6313SOL     OW19837   5.217   4.921   3.192
 6313SOL    HW119838   5.200   4.864   3.112
 6313SOL    HW219839   5.278   4.996   3.166
 6314SOL     OW19840   1.974   5.916   3.042
 6314SOL    HW119841   2.028   5.959   3.115
 6314SOL    HW219842   2.029   5.847   2.995
 6315SOL     OW19843   1.879   2.325   3.044
 6315SOL    HW119844   1.840   2.235   3.059
 6315SOL    HW219845   1.971   2.329   3.083
 6316SOL     OW19846   4.678   0.814   5.218
 6316SOL    HW119847   4.626   0.834   5.135
 6316SOL    HW219848   4.732   0.895   5.244
 6317SOL     OW19849   4.856   3.758   3.297
 6317SOL    HW119850   4.824   3.844   3.256
 6317SOL    HW219851   4.883   3.776   3.392
 6318SOL     OW19852   5.583   6.385   0.140
 6318SOL    HW119853   5.563   6.344   0.229
 6318SOL    HW219854   5.504   6.437   0.108
 6319SOL     OW19855   4.742   2.444   4.132
 6319SOL    HW119856   4.778   2.392   4.210
 6319SOL    HW219857   4.802   2.522   4.115
 6320SOL     OW19858   5.877   2.034   6.415
 6320SOL    HW119859   5.851   1.951   6.365
 6320SOL    HW219860   5.976   2.043   6.415
 6321SOL     OW19861   0.841   3.478   0.272
 6321SOL    HW119862   0.874   3.566   0.237
 6321SOL    HW219863   0.815   3.487   0.368
 6322SOL     OW19864   1.683   0.965   3.043
 6322SOL    HW119865   1.612   0.994   2.979
 6322SOL    HW219866   1.756   0.919   2.994
 6323SOL     OW19867   2.011   6.154   0.794
 6323SOL    HW119868   1.966   6.242   0.802
 6323SOL    HW219869   1.969   6.089   0.858
 6324SOL     OW19870   5.141   3.995   1.804
 6324SOL    HW119871   5.211   3.923   1.808
 6324SOL    HW219872   5.154   4.059   1.880
 6325SOL     OW19873   0.862   3.282   3.834
 6325SOL    HW119874   0.907   3.360   3.790
 6325SOL    HW219875   0.774   3.266   3.791
 6326SOL     OW19876   5.363   5.398   4.718
 6326SOL    HW119877   5.270   5.401   4.682
 6326SOL    HW219878   5.427   5.425   4.647
 6327SOL     OW19879   0.920   0.806   2.831
 6327SOL    HW119880   0.938   0.708   2.833
 6327SOL    HW219881   0.845   0.825   2.767
 6328SOL     OW19882   4.139   3.630   4.632
 6328SOL    HW119883   4.120   3.532   4.632
 6328SOL    HW219884   4.156   3.661   4.726
 6329SOL     OW19885   0.429   3.244   4.741
 6329SOL    HW119886   0.403   3.294   4.824
 6329SOL    HW219887   0.389   3.153   4.743
 6330SOL     OW19888   4.291   1.573   3.195
 6330SOL    HW119889   4.288   1.520   3.110
 6330SOL    HW219890   4.304   1.670   3.174
 6331SOL     OW19891   1.876   3.134   3.818
 6331SOL    HW119892   1.950   3.198   3.839
 6331SOL    HW219893   1.836   3.159   3.729
 6332SOL     OW19894   4.264   2.167   6.982
 6332SOL    HW119895   4.266   2.238   6.912
 6332SOL    HW219896   4.219   2.085   6.946
 6333SOL     OW19897   5.808   1.674   6.951
 6333SOL    HW119898   5.898   1.709   6.928
 6333SOL    HW219899   5.810   1.574   6.954
 6334SOL     OW19900   2.641   1.117   2.153
 6334SOL    HW119901   2.687   1.206   2.152
 6334SOL    HW219902   2.589   1.108   2.238
 6335SOL     OW19903   5.898   2.125   5.435
 6335SOL    HW119904   5.960   2.151   5.509
 6335SOL    HW219905   5.936   2.155   5.347
 6336SOL     OW19906   1.103   5.900   5.946
 6336SOL    HW119907   1.091   5.812   5.992
 6336SOL    HW219908   1.015   5.947   5.939
 6337SOL     OW19909   6.491   0.519   5.658
 6337SOL    HW119910   6.506   0.565   5.746
 6337SOL    HW219911   6.465   0.587   5.589
 6338SOL     OW19912   1.071   0.582   2.423
 6338SOL    HW119913   1.066   0.674   2.463
 6338SOL    HW219914   0.988   0.531   2.444
 6339SOL     OW19915   0.170   4.181   3.698
 6339SOL    HW119916   0.095   4.240   3.729
 6339SOL    HW219917   0.151   4.150   3.605
 6340SOL     OW19918   2.405   5.416   6.852
 6340SOL    HW119919   2.442   5.328   6.822
 6340SOL    HW219920   2.431   5.487   6.787
 6341SOL     OW19921   1.015   4.459   3.026
 6341SOL    HW119922   0.936   4.400   3.044
 6341SOL    HW219923   1.067   4.422   2.949
 6342SOL     OW19924   2.387   6.954   1.267
 6342SOL    HW119925   2.470   6.953   1.322
 6342SOL    HW219926   2.376   6.865   1.222
 6343SOL     OW19927   1.767   4.248   0.133
 6343SOL    HW119928   1.738   4.168   0.080
 6343SOL    HW219929   1.837   4.220   0.200
 6344SOL     OW19930   1.900   1.313   3.987
 6344SOL    HW119931   1.828   1.333   3.921
 6344SOL    HW219932   1.906   1.215   4.002
 6345SOL     OW19933   0.091   3.200   3.583
 6345SOL    HW119934   0.127   3.211   3.676
 6345SOL    HW219935   0.076   3.103   3.564
 6346SOL     OW19936   0.405   4.565   4.080
 6346SOL    HW119937   0.312   4.548   4.112
 6346SOL    HW219938   0.443   4.481   4.041
 6347SOL     OW19939   1.860   1.573   2.437
 6347SOL    HW119940   1.855   1.500   2.369
 6347SOL    HW219941   1.775   1.576   2.489
 6348SOL     OW19942   0.846   2.595   0.442
 6348SOL    HW119943   0.862   2.496   0.444
 6348SOL    HW219944   0.885   2.633   0.357
 6349SOL     OW19945   6.153   1.439   0.952
 6349SOL    HW119946   6.253   1.436   0.952
 6349SOL    HW219947   6.122   1.520   1.002
 6350SOL     OW19948   0.429   6.946   1.540
 6350SOL    HW119949   0.505   6.977   1.483
 6350SOL    HW219950   0.401   7.019   1.602
 6351SOL     OW19951   6.375   2.324   2.092
 6351SOL    HW119952   6.354   2.339   1.996
 6351SOL    HW219953   6.472   2.341   2.109
 6352SOL     OW19954   3.938   0.610   5.199
 6352SOL    HW119955   3.934   0.684   5.132
 6352SOL    HW219956   3.983   0.530   5.158
 6353SOL     OW19957   3.940   5.980   6.030
 6353SOL    HW119958   3.913   5.977   6.127
 6353SOL    HW219959   3.901   6.061   5.988
 6354SOL     OW19960   5.836   4.751   3.051
 6354SOL    HW119961   5.771   4.789   2.985
 6354SOL    HW219962   5.842   4.811   3.131
 6355SOL     OW19963   4.640   6.677   6.812
 6355SOL    HW119964   4.679   6.736   6.742
 6355SOL    HW219965   4.712   6.620   6.852
 6356SOL     OW19966   0.333   6.763   6.425
 6356SOL    HW119967   0.397   6.772   6.349
 6356SOL    HW219968   0.354   6.831   6.495
 6357SOL     OW19969   4.823   1.808   3.235
 6357SOL    HW119970   4.863   1.851   3.154
 6357SOL    HW219971   4.724   1.800   3.222
 6358SOL     OW19972   1.513   1.077   4.855
 6358SOL    HW119973   1.534   1.132   4.936
 6358SOL    HW219974   1.502   0.982   4.881
 6359SOL     OW19975   6.677   4.461   0.823
 6359SOL    HW119976   6.711   4.554   0.807
 6359SOL    HW219977   6.690   4.437   0.919
 6360SOL     OW19978   3.015   3.039   0.870
 6360SOL    HW119979   2.917   3.021   0.877
 6360SOL    HW219980   3.061   3.005   0.952
 6361SOL     OW19981   6.862   1.977   2.757
 6361SOL    HW119982   6.903   1.934   2.838
 6361SOL    HW219983   6.767   1.948   2.748
 6362SOL     OW19984   1.867   5.675   0.430
 6362SOL    HW119985   1.800   5.601   0.436
 6362SOL    HW219986   1.847   5.731   0.350
 6363SOL     OW19987   0.537   1.892   1.327
 6363SOL    HW119988   0.457   1.948   1.345
 6363SOL    HW219989   0.509   1.800   1.302
 6364SOL     OW19990   2.971   2.150   3.507
 6364SOL    HW119991   3.017   2.179   3.424
 6364SOL    HW219992   2.991   2.054   3.525
 6365SOL     OW19993   6.192   6.864   1.752
 6365SOL    HW119994   6.162   6.919   1.831
 6365SOL    HW219995   6.292   6.863   1.749
 6366SOL     OW19996   6.380   1.545   5.176
 6366SOL    HW119997   6.462   1.513   5.128
 6366SOL    HW219998   6.364   1.641   5.154
 6367SOL     OW19999   1.728   3.634   4.826
 6367SOL    HW120000   1.744   3.687   4.743
 6367SOL    HW220001   1.632   3.643   4.854
 6368SOL     OW20002   5.199   3.530   4.806
 6368SOL    HW120003   5.238   3.621   4.819
 6368SOL    HW220004   5.111   3.525   4.854
 6369SOL     OW20005   2.835   4.151   0.927
 6369SOL    HW120006   2.883   4.236   0.948
 6369SOL    HW220007   2.808   4.106   1.012
 6370SOL     OW20008   6.607   3.136   4.696
 6370SOL    HW120009   6.519   3.090   4.697
 6370SOL    HW220010   6.625   3.171   4.603
 6371SOL     OW20011   5.946   4.471   0.971
 6371SOL    HW120012   6.023   4.435   1.024
 6371SOL    HW220013   5.886   4.523   1.032
 6372SOL     OW20014   5.677   1.320   1.764
 6372SOL    HW120015   5.725   1.383   1.703
 6372SOL    HW220016   5.601   1.367   1.808
 6373SOL     OW20017   5.505   1.780   1.218
 6373SOL    HW120018   5.599   1.772   1.185
 6373SOL    HW220019   5.457   1.693   1.206
 6374SOL     OW20020   3.546   3.498   6.136
 6374SOL    HW120021   3.534   3.576   6.197
 6374SOL    HW220022   3.474   3.498   6.067
 6375SOL     OW20023   5.154   1.001   1.793
 6375SOL    HW120024   5.071   0.952   1.763
 6375SOL    HW220025   5.182   1.065   1.721
 6376SOL     OW20026   3.067   6.654   6.818
 6376SOL    HW120027   3.005   6.583   6.783
 6376SOL    HW220028   3.013   6.728   6.857
 6377SOL     OW20029   6.933   1.210   0.330
 6377SOL    HW120030   7.007   1.143   0.326
 6377SOL    HW220031   6.906   1.235   0.237
 6378SOL     OW20032   6.117   3.314   3.023
 6378SOL    HW120033   6.080   3.236   2.973
 6378SOL    HW220034   6.136   3.389   2.960
 6379SOL     OW20035   2.539   4.503   6.972
 6379SOL    HW120036   2.508   4.494   6.878
 6379SOL    HW220037   2.529   4.416   7.020
 6380SOL     OW20038   1.851   2.752   4.669
 6380SOL    HW120039   1.796   2.794   4.597
 6380SOL    HW220040   1.937   2.804   4.680
 6381SOL     OW20041   3.614   4.814   0.828
 6381SOL    HW120042   3.675   4.755   0.880
 6381SOL    HW220043   3.640   4.910   0.842
 6382SOL     OW20044   2.028   1.150   0.957
 6382SOL    HW120045   2.043   1.233   0.902
 6382SOL    HW220046   1.989   1.079   0.899
 6383SOL     OW20047   2.771   1.926   1.862
 6383SOL    HW120048   2.857   1.925   1.811
 6383SOL    HW220049   2.747   2.020   1.885
 6384SOL     OW20050   0.302   1.528   2.369
 6384SOL    HW120051   0.395   1.493   2.382
 6384SOL    HW220052   0.272   1.574   2.452
 6385SOL     OW20053   0.383   3.883   1.769
 6385SOL    HW120054   0.343   3.876   1.860
 6385SOL    HW220055   0.429   3.972   1.759
 6386SOL     OW20056   2.845   4.802   0.969
 6386SOL    HW120057   2.889   4.737   0.907
 6386SOL    HW220058   2.897   4.887   0.971
 6387SOL     OW20059   6.374   1.369   5.785
 6387SOL    HW120060   6.348   1.456   5.743
 6387SOL    HW220061   6.448   1.327   5.731
 6388SOL     OW20062   6.600   5.012   2.373
 6388SOL    HW120063   6.576   5.079   2.303
 6388SOL    HW220064   6.699   5.011   2.385
 6389SOL     OW20065   6.662   7.009   0.796
 6389SOL    HW120066   6.623   6.921   0.825
 6389SOL    HW220067   6.761   7.000   0.787
 6390SOL     OW20068   4.453   6.304   0.114
 6390SOL    HW120069   4.499   6.336   0.030
 6390SOL    HW220070   4.395   6.225   0.092
 6391SOL     OW20071   0.645   2.030   4.796
 6391SOL    HW120072   0.612   1.938   4.774
 6391SOL    HW220073   0.607   2.096   4.730
 6392SOL     OW20074   4.448   6.299   3.029
 6392SOL    HW120075   4.448   6.388   3.074
 6392SOL    HW220076   4.370   6.245   3.063
 6393SOL     OW20077   2.327   3.974   0.473
 6393SOL    HW120078   2.389   4.051   0.489
 6393SOL    HW220079   2.235   4.008   0.458
 6394SOL     OW20080   1.662   5.109   1.929
 6394SOL    HW120081   1.728   5.050   1.974
 6394SOL    HW220082   1.656   5.196   1.978
 6395SOL     OW20083   0.888   3.966   5.173
 6395SOL    HW120084   0.962   4.033   5.180
 6395SOL    HW220085   0.870   3.928   5.264
 6396SOL     OW20086   1.002   3.792   4.145
 6396SOL    HW120087   1.076   3.729   4.123
 6396SOL    HW220088   1.002   3.810   4.244
 6397SOL     OW20089   0.802   3.708   4.533
 6397SOL    HW120090   0.750   3.709   4.619
 6397SOL    HW220091   0.740   3.730   4.457
 6398SOL     OW20092   0.358   6.964   2.429
 6398SOL    HW120093   0.434   0.005   2.419
 6398SOL    HW220094   0.389   6.884   2.481
 6399SOL     OW20095   2.499   0.085   6.539
 6399SOL    HW120096   2.478   0.172   6.583
 6399SOL    HW220097   2.582   0.046   6.580
 6400SOL     OW20098   0.946   6.310   2.954
 6400SOL    HW120099   1.037   6.325   2.916
 6400SOL    HW220100   0.914   6.394   2.999
 6401SOL     OW20101   3.834   4.921   1.119
 6401SOL    HW120102   3.763   4.933   1.189
 6401SOL    HW220103   3.825   4.830   1.078
 6402SOL     OW20104   3.055   3.270   6.007
 6402SOL    HW120105   3.085   3.297   5.915
 6402SOL    HW220106   2.955   3.264   6.008
 6403SOL     OW20107   3.704   5.258   6.042
 6403SOL    HW120108   3.769   5.239   5.969
 6403SOL    HW220109   3.617   5.213   6.021
 6404SOL     OW20110   5.126   5.944   5.930
 6404SOL    HW120111   5.174   5.930   6.017
 6404SOL    HW220112   5.178   6.008   5.873
 6405SOL     OW20113   4.640   1.002   3.304
 6405SOL    HW120114   4.583   0.921   3.290
 6405SOL    HW220115   4.660   1.012   3.401
 6406SOL     OW20116   0.383   3.252   2.514
 6406SOL    HW120117   0.339   3.253   2.424
 6406SOL    HW220118   0.323   3.294   2.581
 6407SOL     OW20119   0.330   6.964   2.931
 6407SOL    HW120120   0.283   0.011   2.986
 6407SOL    HW220121   0.379   6.902   2.992
 6408SOL     OW20122   0.071   0.962   2.178
 6408SOL    HW120123   0.162   0.970   2.138
 6408SOL    HW220124   0.023   0.885   2.136
 6409SOL     OW20125   6.563   4.198   4.190
 6409SOL    HW120126   6.546   4.182   4.287
 6409SOL    HW220127   6.654   4.164   4.166
 6410SOL     OW20128   1.909   0.594   0.012
 6410SOL    HW120129   1.912   0.533   0.091
 6410SOL    HW220130   1.835   0.565   6.973
 6411SOL     OW20131   1.094   2.378   4.239
 6411SOL    HW120132   1.060   2.320   4.313
 6411SOL    HW220133   1.187   2.348   4.215
 6412SOL     OW20134   4.364   0.306   0.178
 6412SOL    HW120135   4.337   0.215   0.146
 6412SOL    HW220136   4.286   0.351   0.220
 6413SOL     OW20137   4.699   5.830   3.341
 6413SOL    HW120138   4.683   5.741   3.384
 6413SOL    HW220139   4.782   5.825   3.285
 6414SOL     OW20140   3.565   0.205   6.887
 6414SOL    HW120141   3.534   0.145   6.961
 6414SOL    HW220142   3.622   0.278   6.925
 6415SOL     OW20143   6.974   1.955   3.281
 6415SOL    HW120144   0.041   1.911   3.288
 6415SOL    HW220145   6.907   1.904   3.335
 6416SOL     OW20146   2.743   4.146   0.648
 6416SOL    HW120147   2.780   4.153   0.740
 6416SOL    HW220148   2.815   4.112   0.586
 6417SOL     OW20149   4.753   3.645   5.863
 6417SOL    HW120150   4.751   3.593   5.778
 6417SOL    HW220151   4.726   3.586   5.939
 6418SOL     OW20152   4.599   5.649   0.201
 6418SOL    HW120153   4.695   5.630   0.178
 6418SOL    HW220154   4.552   5.686   0.121
 6419SOL     OW20155   1.712   6.956   6.689
 6419SOL    HW120156   1.711   6.856   6.690
 6419SOL    HW220157   1.776   6.987   6.619
 6420SOL     OW20158   2.207   5.093   3.302
 6420SOL    HW120159   2.216   4.994   3.302
 6420SOL    HW220160   2.169   5.124   3.389
 6421SOL     OW20161   5.010   6.560   1.847
 6421SOL    HW120162   5.085   6.560   1.781
 6421SOL    HW220163   4.943   6.629   1.821
 6422SOL     OW20164   1.163   0.566   5.446
 6422SOL    HW120165   1.207   0.581   5.535
 6422SOL    HW220166   1.174   0.648   5.389
 6423SOL     OW20167   1.249   3.847   4.486
 6423SOL    HW120168   1.341   3.824   4.453
 6423SOL    HW220169   1.191   3.766   4.482
 6424SOL     OW20170   5.984   4.257   5.475
 6424SOL    HW120171   6.078   4.231   5.453
 6424SOL    HW220172   5.974   4.267   5.574
 6425SOL     OW20173   0.962   0.212   4.515
 6425SOL    HW120174   0.895   0.229   4.587
 6425SOL    HW220175   0.915   0.193   4.429
 6426SOL     OW20176   3.029   5.267   3.906
 6426SOL    HW120177   2.930   5.258   3.895
 6426SOL    HW220178   3.069   5.177   3.924
 6427SOL     OW20179   3.199   3.545   3.214
 6427SOL    HW120180   3.108   3.506   3.228
 6427SOL    HW220181   3.247   3.551   3.301
 6428SOL     OW20182   6.550   3.208   6.528
 6428SOL    HW120183   6.534   3.135   6.595
 6428SOL    HW220184   6.500   3.187   6.444
 6429SOL     OW20185   2.737   1.744   4.082
 6429SOL    HW120186   2.805   1.720   4.151
 6429SOL    HW220187   2.695   1.660   4.046
 6430SOL     OW20188   6.507   1.269   4.085
 6430SOL    HW120189   6.449   1.286   4.165
 6430SOL    HW220190   6.549   1.178   4.094
 6431SOL     OW20191   3.599   4.948   3.428
 6431SOL    HW120192   3.606   4.912   3.521
 6431SOL    HW220193   3.571   5.044   3.432
 6432SOL     OW20194   4.184   3.664   0.043
 6432SOL    HW120195   4.161   3.760   0.059
 6432SOL    HW220196   4.124   3.606   0.098
 6433SOL     OW20197   4.038   5.398   6.268
 6433SOL    HW120198   4.020   5.421   6.364
 6433SOL    HW220199   3.956   5.418   6.214
 6434SOL     OW20200   6.356   4.837   6.660
 6434SOL    HW120201   6.369   4.919   6.605
 6434SOL    HW220202   6.268   4.843   6.708
 6435SOL     OW20203   4.375   1.253   0.753
 6435SOL    HW120204   4.454   1.275   0.696
 6435SOL    HW220205   4.381   1.156   0.780
 6436SOL     OW20206   0.780   1.740   3.836
 6436SOL    HW120207   0.739   1.668   3.781
 6436SOL    HW220208   0.825   1.700   3.916
 6437SOL     OW20209   1.005   2.922   6.729
 6437SOL    HW120210   1.030   2.825   6.734
 6437SOL    HW220211   0.938   2.936   6.657
 6438SOL     OW20212   0.963   5.711   1.806
 6438SOL    HW120213   0.945   5.615   1.783
 6438SOL    HW220214   1.004   5.757   1.727
 6439SOL     OW20215   4.390   5.933   2.809
 6439SOL    HW120216   4.336   5.895   2.733
 6439SOL    HW220217   4.455   5.864   2.841
 6440SOL     OW20218   2.292   2.383   5.313
 6440SOL    HW120219   2.213   2.434   5.348
 6440SOL    HW220220   2.310   2.411   5.219
 6441SOL     OW20221   1.433   1.485   1.613
 6441SOL    HW120222   1.415   1.438   1.700
 6441SOL    HW220223   1.486   1.424   1.553
 6442SOL     OW20224   3.004   2.246   4.258
 6442SOL    HW120225   3.100   2.259   4.235
 6442SOL    HW220226   2.959   2.196   4.185
 6443SOL     OW20227   2.310   2.306   5.819
 6443SOL    HW120228   2.248   2.228   5.810
 6443SOL    HW220229   2.358   2.321   5.732
 6444SOL     OW20230   6.848   4.371   5.559
 6444SOL    HW120231   6.836   4.345   5.463
 6444SOL    HW220232   6.796   4.454   5.577
 6445SOL     OW20233   3.054   3.187   3.440
 6445SOL    HW120234   3.015   3.256   3.501
 6445SOL    HW220235   3.060   3.100   3.489
 6446SOL     OW20236   0.663   6.917   1.898
 6446SOL    HW120237   0.725   6.872   1.834
 6446SOL    HW220238   0.675   7.016   1.891
 6447SOL     OW20239   0.221   3.889   1.377
 6447SOL    HW120240   0.260   3.977   1.403
 6447SOL    HW220241   0.259   3.860   1.289
 6448SOL     OW20242   4.073   4.167   1.484
 6448SOL    HW120243   4.071   4.069   1.462
 6448SOL    HW220244   3.979   4.199   1.499
 6449SOL     OW20245   4.603   6.075   6.934
 6449SOL    HW120246   4.697   6.088   6.968
 6449SOL    HW220247   4.539   6.088   7.009
 6450SOL     OW20248   4.127   3.526   0.826
 6450SOL    HW120249   4.053   3.497   0.886
 6450SOL    HW220250   4.211   3.538   0.879
 6451SOL     OW20251   4.044   3.517   1.635
 6451SOL    HW120252   4.135   3.478   1.645
 6451SOL    HW220253   4.017   3.562   1.721
 6452SOL     OW20254   4.540   1.628   4.269
 6452SOL    HW120255   4.569   1.589   4.182
 6452SOL    HW220256   4.461   1.688   4.254
 6453SOL     OW20257   3.292   1.193   2.887
 6453SOL    HW120258   3.208   1.245   2.903
 6453SOL    HW220259   3.323   1.207   2.793
 6454SOL     OW20260   4.738   3.460   5.663
 6454SOL    HW120261   4.660   3.398   5.652
 6454SOL    HW220262   4.743   3.522   5.585
 6455SOL     OW20263   0.098   3.065   5.478
 6455SOL    HW120264   7.021   3.056   5.484
 6455SOL    HW220265   0.125   3.154   5.514
 6456SOL     OW20266   6.256   1.908   3.162
 6456SOL    HW120267   6.171   1.961   3.165
 6456SOL    HW220268   6.300   1.910   3.252
 6457SOL     OW20269   1.491   6.043   3.498
 6457SOL    HW120270   1.463   6.139   3.495
 6457SOL    HW220271   1.438   5.995   3.568
 6458SOL     OW20272   1.160   0.061   4.633
 6458SOL    HW120273   1.108   6.999   4.648
 6458SOL    HW220274   1.106   0.124   4.578
 6459SOL     OW20275   0.108   3.185   3.188
 6459SOL    HW120276   0.016   3.175   3.226
 6459SOL    HW220277   0.169   3.222   3.258
 6460SOL     OW20278   1.422   5.025   5.414
 6460SOL    HW120279   1.418   5.104   5.353
 6460SOL    HW220280   1.447   4.944   5.362
 6461SOL     OW20281   6.827   0.049   2.302
 6461SOL    HW120282   6.777   0.132   2.278
 6461SOL    HW220283   6.869   0.060   2.392
 6462SOL     OW20284   2.815   4.350   5.817
 6462SOL    HW120285   2.855   4.260   5.796
 6462SOL    HW220286   2.775   4.348   5.909
 6463SOL     OW20287   4.937   3.194   1.896
 6463SOL    HW120288   4.877   3.143   1.957
 6463SOL    HW220289   4.889   3.216   1.811
 6464SOL     OW20290   0.667   3.475   3.278
 6464SOL    HW120291   0.708   3.438   3.195
 6464SOL    HW220292   0.587   3.530   3.255
 6465SOL     OW20293   2.174   1.284   2.595
 6465SOL    HW120294   2.170   1.290   2.695
 6465SOL    HW220295   2.268   1.299   2.565
 6466SOL     OW20296   6.447   5.240   6.786
 6466SOL    HW120297   6.348   5.221   6.782
 6466SOL    HW220298   6.484   5.206   6.872
 6467SOL     OW20299   2.700   3.342   5.577
 6467SOL    HW120300   2.658   3.338   5.487
 6467SOL    HW220301   2.796   3.314   5.571
 6468SOL     OW20302   0.851   0.879   6.992
 6468SOL    HW120303   0.844   0.964   6.940
 6468SOL    HW220304   0.930   0.827   6.959
 6469SOL     OW20305   3.178   0.879   0.985
 6469SOL    HW120306   3.128   0.813   1.042
 6469SOL    HW220307   3.152   0.972   1.011
 6470SOL     OW20308   6.364   0.582   6.301
 6470SOL    HW120309   6.403   0.649   6.364
 6470SOL    HW220310   6.296   0.526   6.348
 6471SOL     OW20311   0.610   6.493   5.318
 6471SOL    HW120312   0.561   6.431   5.379
 6471SOL    HW220313   0.638   6.444   5.236
 6472SOL     OW20314   0.865   6.192   0.789
 6472SOL    HW120315   0.926   6.140   0.848
 6472SOL    HW220316   0.901   6.284   0.775
 6473SOL     OW20317   2.966   1.352   3.558
 6473SOL    HW120318   2.984   1.448   3.538
 6473SOL    HW220319   3.003   1.295   3.484
 6474SOL     OW20320   4.093   0.624   4.611
 6474SOL    HW120321   4.063   0.641   4.518
 6474SOL    HW220322   4.093   0.526   4.630
 6475SOL     OW20323   5.808   6.135   4.013
 6475SOL    HW120324   5.735   6.075   4.045
 6475SOL    HW220325   5.818   6.124   3.914
 6476SOL     OW20326   5.226   4.055   4.472
 6476SOL    HW120327   5.301   4.016   4.525
 6476SOL    HW220328   5.179   3.982   4.422
 6477SOL     OW20329   1.472   6.867   0.934
 6477SOL    HW120330   1.494   6.808   1.012
 6477SOL    HW220331   1.374   6.887   0.935
 6478SOL     OW20332   1.908   6.431   6.803
 6478SOL    HW120333   1.865   6.344   6.830
 6478SOL    HW220334   1.844   6.506   6.821
 6479SOL     OW20335   4.583   5.103   4.238
 6479SOL    HW120336   4.672   5.114   4.281
 6479SOL    HW220337   4.535   5.025   4.279
 6480SOL     OW20338   2.653   0.834   5.200
 6480SOL    HW120339   2.568   0.793   5.232
 6480SOL    HW220340   2.731   0.787   5.243
 6481SOL     OW20341   4.119   3.867   1.478
 6481SOL    HW120342   4.049   3.798   1.459
 6481SOL    HW220343   4.172   3.839   1.558
 6482SOL     OW20344   5.077   3.183   3.813
 6482SOL    HW120345   5.035   3.206   3.900
 6482SOL    HW220346   5.094   3.085   3.809
 6483SOL     OW20347   1.992   6.423   5.364
 6483SOL    HW120348   2.055   6.387   5.432
 6483SOL    HW220349   1.959   6.513   5.392
 6484SOL     OW20350   3.748   0.369   3.434
 6484SOL    HW120351   3.714   0.286   3.478
 6484SOL    HW220352   3.671   0.423   3.401
 6485SOL     OW20353   2.186   4.639   5.361
 6485SOL    HW120354   2.202   4.590   5.447
 6485SOL    HW220355   2.148   4.577   5.293
 6486SOL     OW20356   6.844   4.128   2.506
 6486SOL    HW120357   6.806   4.161   2.593
 6486SOL    HW220358   6.818   4.191   2.433
 6487SOL     OW20359   6.143   5.525   4.931
 6487SOL    HW120360   6.131   5.493   4.837
 6487SOL    HW220361   6.069   5.588   4.955
 6488SOL     OW20362   3.281   4.891   3.409
 6488SOL    HW120363   3.370   4.919   3.446
 6488SOL    HW220364   3.294   4.809   3.352
 6489SOL     OW20365   6.339   3.737   5.300
 6489SOL    HW120366   6.291   3.651   5.312
 6489SOL    HW220367   6.372   3.744   5.206
 6490SOL     OW20368   1.391   3.369   6.435
 6490SOL    HW120369   1.294   3.371   6.459
 6490SOL    HW220370   1.445   3.354   6.518
 6491SOL     OW20371   1.006   6.877   2.363
 6491SOL    HW120372   0.975   6.782   2.363
 6491SOL    HW220373   1.019   6.908   2.457
 6492SOL     OW20374   4.115   3.280   3.173
 6492SOL    HW120375   4.147   3.360   3.225
 6492SOL    HW220376   4.159   3.198   3.209
 6493SOL     OW20377   1.690   4.669   3.936
 6493SOL    HW120378   1.603   4.705   3.900
 6493SOL    HW220379   1.739   4.623   3.862
 6494SOL     OW20380   0.000   0.871   1.400
 6494SOL    HW120381   6.928   0.856   1.373
 6494SOL    HW220382   0.025   0.967   1.385
 6495SOL     OW20383   6.168   6.438   2.642
 6495SOL    HW120384   6.127   6.399   2.560
 6495SOL    HW220385   6.181   6.536   2.630
 6496SOL     OW20386   2.929   2.860   1.329
 6496SOL    HW120387   2.945   2.784   1.265
 6496SOL    HW220388   3.011   2.874   1.384
 6497SOL     OW20389   6.835   2.647   0.599
 6497SOL    HW120390   6.758   2.710   0.585
 6497SOL    HW220391   6.820   2.563   0.546
 6498SOL     OW20392   2.502   4.972   4.435
 6498SOL    HW120393   2.472   4.894   4.380
 6498SOL    HW220394   2.596   4.994   4.411
 6499SOL     OW20395   5.477   2.184   2.826
 6499SOL    HW120396   5.449   2.192   2.731
 6499SOL    HW220397   5.528   2.266   2.853
 6500SOL     OW20398   1.849   3.519   3.047
 6500SOL    HW120399   1.772   3.455   3.053
 6500SOL    HW220400   1.852   3.576   3.129
 6501SOL     OW20401   6.477   1.347   2.492
 6501SOL    HW120402   6.558   1.342   2.433
 6501SOL    HW220403   6.407   1.285   2.457
 6502SOL     OW20404   0.899   3.100   2.531
 6502SOL    HW120405   0.890   3.044   2.449
 6502SOL    HW220406   0.818   3.159   2.541
 6503SOL     OW20407   0.337   2.930   6.111
 6503SOL    HW120408   0.405   2.983   6.061
 6503SOL    HW220409   0.300   2.858   6.053
 6504SOL     OW20410   4.209   6.254   5.922
 6504SOL    HW120411   4.112   6.251   5.944
 6504SOL    HW220412   4.229   6.333   5.865
 6505SOL     OW20413   0.911   6.901   6.836
 6505SOL    HW120414   0.881   6.973   6.898
 6505SOL    HW220415   0.977   6.938   6.771
 6506SOL     OW20416   0.486   4.611   2.314
 6506SOL    HW120417   0.541   4.693   2.299
 6506SOL    HW220418   0.471   4.564   2.227
 6507SOL     OW20419   5.541   5.244   0.743
 6507SOL    HW120420   5.533   5.332   0.697
 6507SOL    HW220421   5.453   5.196   0.739
 6508SOL     OW20422   0.093   1.000   4.723
 6508SOL    HW120423   0.135   1.033   4.639
 6508SOL    HW220424   0.015   1.058   4.746
 6509SOL     OW20425   2.540   1.746   6.699
 6509SOL    HW120426   2.599   1.810   6.748
 6509SOL    HW220427   2.532   1.662   6.751
 6510SOL     OW20428   4.003   5.092   3.985
 6510SOL    HW120429   3.996   5.110   3.887
 6510SOL    HW220430   4.066   5.017   4.001
 6511SOL     OW20431   3.624   3.230   0.094
 6511SOL    HW120432   3.531   3.244   0.128
 6511SOL    HW220433   3.627   3.249   7.018
 6512SOL     OW20434   5.346   1.561   2.071
 6512SOL    HW120435   5.255   1.523   2.089
 6512SOL    HW220436   5.415   1.503   2.113
 6513SOL     OW20437   3.672   4.995   1.805
 6513SOL    HW120438   3.639   4.917   1.858
 6513SOL    HW220439   3.607   5.015   1.732
 6514SOL     OW20440   5.233   5.428   5.492
 6514SOL    HW120441   5.307   5.361   5.497
 6514SOL    HW220442   5.199   5.447   5.584
 6515SOL     OW20443   0.765   5.273   2.217
 6515SOL    HW120444   0.808   5.234   2.136
 6515SOL    HW220445   0.828   5.268   2.295
 6516SOL     OW20446   5.536   1.319   3.664
 6516SOL    HW120447   5.590   1.399   3.640
 6516SOL    HW220448   5.464   1.345   3.729
 6517SOL     OW20449   6.820   4.335   0.600
 6517SOL    HW120450   6.792   4.338   0.696
 6517SOL    HW220451   6.892   4.403   0.584
 6518SOL     OW20452   1.210   1.956   1.893
 6518SOL    HW120453   1.284   1.890   1.884
 6518SOL    HW220454   1.134   1.915   1.943
 6519SOL     OW20455   1.578   2.466   3.317
 6519SOL    HW120456   1.534   2.528   3.382
 6519SOL    HW220457   1.676   2.486   3.314
 6520SOL     OW20458   6.288   6.749   6.843
 6520SOL    HW120459   6.298   6.667   6.787
 6520SOL    HW220460   6.330   6.734   6.933
 6521SOL     OW20461   1.554   4.506   4.858
 6521SOL    HW120462   1.551   4.604   4.876
 6521SOL    HW220463   1.644   4.470   4.884
 6522SOL     OW20464   2.194   3.033   5.264
 6522SOL    HW120465   2.125   3.103   5.244
 6522SOL    HW220466   2.254   3.021   5.185
 6523SOL     OW20467   4.848   6.483   0.574
 6523SOL    HW120468   4.891   6.529   0.495
 6523SOL    HW220469   4.815   6.393   0.546
 6524SOL     OW20470   3.770   1.991   0.957
 6524SOL    HW120471   3.831   2.070   0.963
 6524SOL    HW220472   3.795   1.935   0.879
 6525SOL     OW20473   2.933   4.783   3.524
 6525SOL    HW120474   3.000   4.856   3.514
 6525SOL    HW220475   2.902   4.754   3.434
 6526SOL     OW20476   6.084   6.564   0.593
 6526SOL    HW120477   6.094   6.559   0.493
 6526SOL    HW220478   6.158   6.620   0.630
 6527SOL     OW20479   5.550   2.263   0.678
 6527SOL    HW120480   5.544   2.360   0.702
 6527SOL    HW220481   5.637   2.245   0.633
 6528SOL     OW20482   4.617   6.910   0.756
 6528SOL    HW120483   4.676   6.903   0.675
 6528SOL    HW220484   4.525   6.935   0.727
 6529SOL     OW20485   3.987   6.473   1.310
 6529SOL    HW120486   3.922   6.425   1.370
 6529SOL    HW220487   4.051   6.407   1.271
 6530SOL     OW20488   0.291   2.916   4.235
 6530SOL    HW120489   0.328   2.962   4.315
 6530SOL    HW220490   0.346   2.940   4.155
 6531SOL     OW20491   2.935   3.474   4.162
 6531SOL    HW120492   2.989   3.390   4.170
 6531SOL    HW220493   2.942   3.509   4.068
 6532SOL     OW20494   0.828   5.896   6.596
 6532SOL    HW120495   0.819   5.881   6.498
 6532SOL    HW220496   0.845   5.809   6.642
 6533SOL     OW20497   5.632   4.731   1.315
 6533SOL    HW120498   5.715   4.786   1.326
 6533SOL    HW220499   5.576   4.770   1.242
 6534SOL     OW20500   6.371   2.994   4.704
 6534SOL    HW120501   6.326   2.994   4.614
 6534SOL    HW220502   6.323   2.931   4.765
 6535SOL     OW20503   5.591   3.322   6.672
 6535SOL    HW120504   5.644   3.264   6.610
 6535SOL    HW220505   5.619   3.304   6.766
 6536SOL     OW20506   6.767   6.026   5.299
 6536SOL    HW120507   6.733   5.939   5.263
 6536SOL    HW220508   6.705   6.099   5.271
 6537SOL     OW20509   6.474   5.385   4.218
 6537SOL    HW120510   6.495   5.339   4.132
 6537SOL    HW220511   6.552   5.439   4.248
 6538SOL     OW20512   0.949   3.963   2.991
 6538SOL    HW120513   0.878   3.972   3.061
 6538SOL    HW220514   1.033   3.928   3.033
 6539SOL     OW20515   5.466   6.418   5.358
 6539SOL    HW120516   5.438   6.405   5.453
 6539SOL    HW220517   5.455   6.514   5.332
 6540SOL     OW20518   0.996   2.672   5.397
 6540SOL    HW120519   1.047   2.608   5.341
 6540SOL    HW220520   0.923   2.623   5.445
 6541SOL     OW20521   3.497   1.915   5.639
 6541SOL    HW120522   3.472   1.894   5.544
 6541SOL    HW220523   3.419   1.959   5.684
 6542SOL     OW20524   1.709   4.554   2.156
 6542SOL    HW120525   1.727   4.495   2.234
 6542SOL    HW220526   1.710   4.649   2.185
 6543SOL     OW20527   3.637   1.794   4.245
 6543SOL    HW120528   3.717   1.846   4.276
 6543SOL    HW220529   3.558   1.855   4.238
 6544SOL     OW20530   1.253   0.884   1.586
 6544SOL    HW120531   1.336   0.939   1.586
 6544SOL    HW220532   1.232   0.854   1.679
 6545SOL     OW20533   6.307   4.725   0.584
 6545SOL    HW120534   6.239   4.692   0.649
 6545SOL    HW220535   6.390   4.669   0.590
 6546SOL     OW20536   4.248   5.340   3.763
 6546SOL    HW120537   4.198   5.253   3.765
 6546SOL    HW220538   4.264   5.371   3.856
 6547SOL     OW20539   0.391   6.738   5.163
 6547SOL    HW120540   0.363   6.662   5.221
 6547SOL    HW220541   0.397   6.708   5.068
 6548SOL     OW20542   1.834   1.135   5.269
 6548SOL    HW120543   1.813   1.095   5.358
 6548SOL    HW220544   1.861   1.063   5.205
 6549SOL     OW20545   2.116   1.640   2.497
 6549SOL    HW120546   2.027   1.600   2.479
 6549SOL    HW220547   2.109   1.740   2.492
 6550SOL     OW20548   5.598   0.070   1.899
 6550SOL    HW120549   5.622   7.015   1.840
 6550SOL    HW220550   5.547   0.138   1.846
 6551SOL     OW20551   2.172   5.811   1.082
 6551SOL    HW120552   2.139   5.736   1.139
 6551SOL    HW220553   2.163   5.898   1.131
 6552SOL     OW20554   2.544   3.623   6.906
 6552SOL    HW120555   2.484   3.588   6.835
 6552SOL    HW220556   2.509   3.710   6.941
 6553SOL     OW20557   0.007   1.819   2.919
 6553SOL    HW120558   0.025   1.736   2.972
 6553SOL    HW220559   0.062   1.895   2.955
 6554SOL     OW20560   2.288   1.933   3.870
 6554SOL    HW120561   2.384   1.951   3.849
 6554SOL    HW220562   2.274   1.941   3.969
 6555SOL     OW20563   2.192   3.696   1.739
 6555SOL    HW120564   2.160   3.678   1.646
 6555SOL    HW220565   2.230   3.613   1.778
 6556SOL     OW20566   4.819   3.039   3.497
 6556SOL    HW120567   4.845   3.091   3.415
 6556SOL    HW220568   4.800   3.102   3.572
 6557SOL     OW20569   1.698   6.605   2.235
 6557SOL    HW120570   1.735   6.628   2.145
 6557SOL    HW220571   1.756   6.645   2.306
 6558SOL     OW20572   4.956   5.620   0.753
 6558SOL    HW120573   5.020   5.589   0.683
 6558SOL    HW220574   5.005   5.679   0.818
 6559SOL     OW20575   0.172   1.859   6.145
 6559SOL    HW120576   0.225   1.876   6.228
 6559SOL    HW220577   0.083   1.820   6.170
 6560SOL     OW20578   6.408   4.752   6.235
 6560SOL    HW120579   6.358   4.831   6.270
 6560SOL    HW220580   6.480   4.726   6.299
 6561SOL     OW20581   2.614   4.964   6.900
 6561SOL    HW120582   2.695   4.926   6.857
 6561SOL    HW220583   2.637   4.998   6.991
 6562SOL     OW20584   4.532   2.730   1.227
 6562SOL    HW120585   4.465   2.658   1.246
 6562SOL    HW220586   4.505   2.780   1.145
 6563SOL     OW20587   5.738   4.366   5.744
 6563SOL    HW120588   5.803   4.430   5.702
 6563SOL    HW220589   5.785   4.281   5.766
 6564SOL     OW20590   6.037   3.848   2.237
 6564SOL    HW120591   6.134   3.860   2.215
 6564SOL    HW220592   5.987   3.821   2.155
 6565SOL     OW20593   5.370   5.348   1.718
 6565SOL    HW120594   5.412   5.278   1.775
 6565SOL    HW220595   5.407   5.438   1.743
 6566SOL     OW20596   5.259   5.793   4.175
 6566SOL    HW120597   5.217   5.758   4.259
 6566SOL    HW220598   5.202   5.866   4.137
 6567SOL     OW20599   2.641   0.618   2.517
 6567SOL    HW120600   2.732   0.642   2.550
 6567SOL    HW220601   2.575   0.630   2.592
 6568SOL     OW20602   5.141   1.671   0.213
 6568SOL    HW120603   5.060   1.714   0.172
 6568SOL    HW220604   5.124   1.654   0.310
 6569SOL     OW20605   1.617   3.832   3.210
 6569SOL    HW120606   1.713   3.860   3.217
 6569SOL    HW220607   1.605   3.743   3.255
 6570SOL     OW20608   4.269   0.195   2.720
 6570SOL    HW120609   4.249   0.288   2.749
 6570SOL    HW220610   4.201   0.133   2.760
 6571SOL     OW20611   2.472   6.864   2.871
 6571SOL    HW120612   2.402   6.894   2.806
 6571SOL    HW220613   2.550   6.927   2.868
 6572SOL     OW20614   1.069   6.480   3.706
 6572SOL    HW120615   0.993   6.500   3.768
 6572SOL    HW220616   1.058   6.534   3.622
 6573SOL     OW20617   1.138   2.833   3.748
 6573SOL    HW120618   1.040   2.853   3.744
 6573SOL    HW220619   1.189   2.908   3.705
 6574SOL     OW20620   1.179   4.651   1.575
 6574SOL    HW120621   1.160   4.583   1.646
 6574SOL    HW220622   1.096   4.668   1.522
 6575SOL     OW20623   6.839   1.265   3.991
 6575SOL    HW120624   6.812   1.259   4.087
 6575SOL    HW220625   6.913   1.331   3.981
 6576SOL     OW20626   4.269   0.902   2.703
 6576SOL    HW120627   4.263   0.887   2.801
 6576SOL    HW220628   4.198   0.849   2.656
 6577SOL     OW20629   2.926   0.988   5.565
 6577SOL    HW120630   2.936   1.035   5.478
 6577SOL    HW220631   3.013   0.992   5.615
 6578SOL     OW20632   0.903   5.983   0.058
 6578SOL    HW120633   0.828   6.041   0.026
 6578SOL    HW220634   0.920   5.999   0.156
 6579SOL     OW20635   1.822   2.097   2.888
 6579SOL    HW120636   1.823   1.998   2.876
 6579SOL    HW220637   1.874   2.140   2.815
 6580SOL     OW20638   2.875   2.748   0.009
 6580SOL    HW120639   2.911   2.839   0.028
 6580SOL    HW220640   2.799   2.728   0.071
 6581SOL     OW20641   0.953   2.286   1.817
 6581SOL    HW120642   0.859   2.264   1.789
 6581SOL    HW220643   1.017   2.231   1.765
 6582SOL     OW20644   3.459   6.322   3.072
 6582SOL    HW120645   3.559   6.323   3.065
 6582SOL    HW220646   3.421   6.270   2.995
 6583SOL     OW20647   2.430   4.455   1.054
 6583SOL    HW120648   2.438   4.360   1.083
 6583SOL    HW220649   2.515   4.504   1.074
 6584SOL     OW20650   4.527   3.760   5.538
 6584SOL    HW120651   4.608   3.720   5.494
 6584SOL    HW220652   4.450   3.759   5.475
 6585SOL     OW20653   5.173   0.013   2.136
 6585SOL    HW120654   5.167   0.023   2.037
 6585SOL    HW220655   5.259   0.053   2.169
 6586SOL     OW20656   6.863   1.884   6.586
 6586SOL    HW120657   6.847   1.828   6.668
 6586SOL    HW220658   6.789   1.868   6.520
 6587SOL     OW20659   2.739   4.884   5.400
 6587SOL    HW120660   2.656   4.839   5.368
 6587SOL    HW220661   2.810   4.816   5.417
 6588SOL     OW20662   1.407   2.402   0.556
 6588SOL    HW120663   1.353   2.450   0.488
 6588SOL    HW220664   1.358   2.321   0.587
 6589SOL     OW20665   5.742   0.194   0.802
 6589SOL    HW120666   5.816   0.244   0.847
 6589SOL    HW220667   5.694   0.255   0.740
 6590SOL     OW20668   0.853   6.044   4.420
 6590SOL    HW120669   0.865   6.044   4.519
 6590SOL    HW220670   0.756   6.043   4.398
 6591SOL     OW20671   6.519   3.343   3.408
 6591SOL    HW120672   6.429   3.366   3.446
 6591SOL    HW220673   6.509   3.271   3.340
 6592SOL     OW20674   0.089   0.143   4.536
 6592SOL    HW120675   0.136   0.158   4.449
 6592SOL    HW220676   0.016   0.076   4.523
 6593SOL     OW20677   0.881   0.221   3.284
 6593SOL    HW120678   0.860   0.292   3.351
 6593SOL    HW220679   0.972   0.183   3.302
 6594SOL     OW20680   5.375   0.117   6.550
 6594SOL    HW120681   5.331   0.186   6.607
 6594SOL    HW220682   5.397   0.036   6.605
 6595SOL     OW20683   0.688   0.197   4.837
 6595SOL    HW120684   0.764   0.135   4.855
 6595SOL    HW220685   0.690   0.225   4.741
 6596SOL     OW20686   5.086   0.435   3.286
 6596SOL    HW120687   5.008   0.454   3.346
 6596SOL    HW220688   5.138   0.519   3.271
 6597SOL     OW20689   1.112   5.363   1.592
 6597SOL    HW120690   1.025   5.380   1.638
 6597SOL    HW220691   1.104   5.280   1.536
 6598SOL     OW20692   1.631   5.215   1.657
 6598SOL    HW120693   1.647   5.181   1.750
 6598SOL    HW220694   1.559   5.162   1.614
 6599SOL     OW20695   0.520   6.209   6.639
 6599SOL    HW120696   0.430   6.189   6.600
 6599SOL    HW220697   0.567   6.123   6.659
 6600SOL     OW20698   5.417   0.278   4.686
 6600SOL    HW120699   5.334   0.226   4.663
 6600SOL    HW220700   5.398   0.338   4.763
 6601SOL     OW20701   0.867   2.591   3.586
 6601SOL    HW120702   0.804   2.663   3.558
 6601SOL    HW220703   0.815   2.513   3.622
 6602SOL     OW20704   6.259   6.192   0.508
 6602SOL    HW120705   6.315   6.271   0.533
 6602SOL    HW220706   6.305   6.138   0.438
 6603SOL     OW20707   6.743   4.715   2.481
 6603SOL    HW120708   6.677   4.652   2.522
 6603SOL    HW220709   6.725   4.724   2.383
 6604SOL     OW20710   2.461   4.831   2.226
 6604SOL    HW120711   2.404   4.875   2.296
 6604SOL    HW220712   2.514   4.901   2.177
 6605SOL     OW20713   0.025   5.766   0.794
 6605SOL    HW120714   7.010   5.678   0.764
 6605SOL    HW220715   0.052   5.819   0.714
 6606SOL     OW20716   0.988   5.078   3.145
 6606SOL    HW120717   1.032   5.077   3.055
 6606SOL    HW220718   0.918   5.008   3.149
 6607SOL     OW20719   0.137   2.675   4.250
 6607SOL    HW120720   0.148   2.703   4.345
 6607SOL    HW220721   0.225   2.680   4.203
 6608SOL     OW20722   1.912   0.466   5.282
 6608SOL    HW120723   1.898   0.557   5.321
 6608SOL    HW220724   1.993   0.425   5.324
 6609SOL     OW20725   2.710   1.895   0.212
 6609SOL    HW120726   2.733   1.990   0.192
 6609SOL    HW220727   2.640   1.892   0.284
 6610SOL     OW20728   3.290   5.982   0.862
 6610SOL    HW120729   3.294   5.987   0.962
 6610SOL    HW220730   3.217   5.919   0.835
 6611SOL     OW20731   2.859   1.411   5.187
 6611SOL    HW120732   2.767   1.371   5.184
 6611SOL    HW220733   2.855   1.503   5.226
 6612SOL     OW20734   6.169   0.461   0.026
 6612SOL    HW120735   6.226   0.493   6.972
 6612SOL    HW220736   6.168   0.361   0.027
 6613SOL     OW20737   5.027   6.745   1.123
 6613SOL    HW120738   5.078   6.670   1.165
 6613SOL    HW220739   5.089   6.820   1.102
 6614SOL     OW20740   4.548   5.183   0.598
 6614SOL    HW120741   4.587   5.091   0.602
 6614SOL    HW220742   4.557   5.218   0.505
 6615SOL     OW20743   3.797   5.718   5.986
 6615SOL    HW120744   3.763   5.694   5.895
 6615SOL    HW220745   3.871   5.785   5.978
 6616SOL     OW20746   3.892   2.276   6.592
 6616SOL    HW120747   3.834   2.331   6.532
 6616SOL    HW220748   3.960   2.334   6.637
 6617SOL     OW20749   3.712   1.410   4.233
 6617SOL    HW120750   3.785   1.478   4.228
 6617SOL    HW220751   3.628   1.447   4.195
 6618SOL     OW20752   6.465   2.593   3.629
 6618SOL    HW120753   6.417   2.555   3.549
 6618SOL    HW220754   6.448   2.692   3.634
 6619SOL     OW20755   4.492   4.806   3.369
 6619SOL    HW120756   4.448   4.885   3.328
 6619SOL    HW220757   4.436   4.771   3.444
 6620SOL     OW20758   1.174   3.243   3.667
 6620SOL    HW120759   1.204   3.245   3.762
 6620SOL    HW220760   1.204   3.158   3.624
 6621SOL     OW20761   3.730   3.568   3.177
 6621SOL    HW120762   3.631   3.553   3.174
 6621SOL    HW220763   3.768   3.563   3.084
 6622SOL     OW20764   6.705   5.169   1.794
 6622SOL    HW120765   6.784   5.181   1.854
 6622SOL    HW220766   6.677   5.073   1.796
 6623SOL     OW20767   3.416   3.226   4.249
 6623SOL    HW120768   3.467   3.277   4.319
 6623SOL    HW220769   3.319   3.225   4.274
 6624SOL     OW20770   2.478   2.554   2.550
 6624SOL    HW120771   2.503   2.489   2.621
 6624SOL    HW220772   2.514   2.523   2.462
 6625SOL     OW20773   0.960   5.252   6.125
 6625SOL    HW120774   0.967   5.187   6.200
 6625SOL    HW220775   1.046   5.301   6.114
 6626SOL     OW20776   3.685   5.836   5.573
 6626SOL    HW120777   3.622   5.831   5.496
 6626SOL    HW220778   3.728   5.926   5.576
 6627SOL     OW20779   2.801   0.367   4.471
 6627SOL    HW120780   2.743   0.321   4.538
 6627SOL    HW220781   2.896   0.368   4.504
 6628SOL     OW20782   3.696   6.017   3.953
 6628SOL    HW120783   3.605   5.989   3.921
 6628SOL    HW220784   3.686   6.093   4.017
 6629SOL     OW20785   4.943   6.093   5.100
 6629SOL    HW120786   4.935   6.077   5.002
 6629SOL    HW220787   4.992   6.179   5.116
 6630SOL     OW20788   1.825   0.095   0.307
 6630SOL    HW120789   1.784   0.159   0.371
 6630SOL    HW220790   1.909   0.134   0.269
 6631SOL     OW20791   1.512   1.402   5.806
 6631SOL    HW120792   1.560   1.362   5.728
 6631SOL    HW220793   1.474   1.491   5.780
 6632SOL     OW20794   1.279   0.471   5.720
 6632SOL    HW120795   1.207   0.429   5.665
 6632SOL    HW220796   1.340   0.400   5.755
 6633SOL     OW20797   4.897   0.011   5.961
 6633SOL    HW120798   4.962   0.020   6.036
 6633SOL    HW220799   4.929   6.963   5.898
 6634SOL     OW20800   2.835   2.248   3.995
 6634SOL    HW120801   2.754   2.304   3.979
 6634SOL    HW220802   2.906   2.273   3.929
 6635SOL     OW20803   4.792   5.573   6.070
 6635SOL    HW120804   4.729   5.631   6.123
 6635SOL    HW220805   4.880   5.620   6.061
 6636SOL     OW20806   4.481   1.560   1.332
 6636SOL    HW120807   4.465   1.636   1.269
 6636SOL    HW220808   4.477   1.594   1.426
 6637SOL     OW20809   0.291   3.427   0.140
 6637SOL    HW120810   0.261   3.385   0.054
 6637SOL    HW220811   0.210   3.454   0.193
 6638SOL     OW20812   3.035   3.172   4.143
 6638SOL    HW120813   3.078   3.081   4.139
 6638SOL    HW220814   3.097   3.236   4.189
 6639SOL     OW20815   5.803   2.760   2.247
 6639SOL    HW120816   5.819   2.784   2.152
 6639SOL    HW220817   5.859   2.819   2.306
 6640SOL     OW20818   0.523   3.733   4.077
 6640SOL    HW120819   0.565   3.819   4.051
 6640SOL    HW220820   0.586   3.658   4.057
 6641SOL     OW20821   5.290   2.352   0.410
 6641SOL    HW120822   5.267   2.449   0.419
 6641SOL    HW220823   5.272   2.305   0.496
 6642SOL     OW20824   0.654   4.885   6.435
 6642SOL    HW120825   0.674   4.792   6.404
 6642SOL    HW220826   0.735   4.925   6.477
 6643SOL     OW20827   5.669   5.485   5.696
 6643SOL    HW120828   5.722   5.527   5.769
 6643SOL    HW220829   5.584   5.447   5.733
 6644SOL     OW20830   2.054   6.169   3.563
 6644SOL    HW120831   2.101   6.252   3.594
 6644SOL    HW220832   1.979   6.148   3.627
 6645SOL     OW20833   4.923   2.921   5.396
 6645SOL    HW120834   4.901   2.933   5.493
 6645SOL    HW220835   4.882   2.837   5.362
 6646SOL     OW20836   4.528   0.237   6.163
 6646SOL    HW120837   4.481   0.165   6.215
 6646SOL    HW220838   4.627   0.228   6.175
 6647SOL     OW20839   2.881   4.983   0.696
 6647SOL    HW120840   2.931   4.980   0.783
 6647SOL    HW220841   2.783   4.985   0.715
 6648SOL     OW20842   3.231   5.743   5.176
 6648SOL    HW120843   3.206   5.651   5.207
 6648SOL    HW220844   3.171   5.811   5.219
 6649SOL     OW20845   5.853   2.671   5.116
 6649SOL    HW120846   5.832   2.767   5.096
 6649SOL    HW220847   5.779   2.632   5.171
 6650SOL     OW20848   2.638   0.764   4.928
 6650SOL    HW120849   2.605   0.788   5.020
 6650SOL    HW220850   2.684   0.844   4.888
 6651SOL     OW20851   6.062   1.055   3.320
 6651SOL    HW120852   5.964   1.037   3.306
 6651SOL    HW220853   6.087   1.029   3.413
 6652SOL     OW20854   6.712   5.536   6.526
 6652SOL    HW120855   6.670   5.627   6.523
 6652SOL    HW220856   6.810   5.546   6.543
 6653SOL     OW20857   5.698   3.677   0.187
 6653SOL    HW120858   5.636   3.616   0.136
 6653SOL    HW220859   5.708   3.763   0.137
 6654SOL     OW20860   6.589   1.588   3.250
 6654SOL    HW120861   6.646   1.507   3.263
 6654SOL    HW220862   6.631   1.666   3.297
 6655SOL     OW20863   6.697   5.442   1.767
 6655SOL    HW120864   6.775   5.490   1.807
 6655SOL    HW220865   6.716   5.344   1.764
 6656SOL     OW20866   5.308   1.625   2.525
 6656SOL    HW120867   5.223   1.586   2.490
 6656SOL    HW220868   5.311   1.723   2.502
 6657SOL     OW20869   4.627   1.907   4.132
 6657SOL    HW120870   4.641   1.998   4.091
 6657SOL    HW220871   4.716   1.865   4.149
 6658SOL     OW20872   6.251   6.092   4.132
 6658SOL    HW120873   6.227   6.005   4.090
 6658SOL    HW220874   6.188   6.163   4.099
 6659SOL     OW20875   0.987   6.425   0.749
 6659SOL    HW120876   1.076   6.427   0.795
 6659SOL    HW220877   0.936   6.508   0.773
 6660SOL     OW20878   1.401   0.916   3.618
 6660SOL    HW120879   1.411   0.988   3.686
 6660SOL    HW220880   1.425   0.951   3.527
 6661SOL     OW20881   3.987   6.498   3.708
 6661SOL    HW120882   3.959   6.482   3.802
 6661SOL    HW220883   3.910   6.535   3.656
 6662SOL     OW20884   4.111   6.396   1.576
 6662SOL    HW120885   4.075   6.470   1.519
 6662SOL    HW220886   4.197   6.363   1.537
 6663SOL     OW20887   1.649   4.103   5.192
 6663SOL    HW120888   1.616   4.010   5.207
 6663SOL    HW220889   1.736   4.100   5.144
 6664SOL     OW20890   3.403   6.800   1.613
 6664SOL    HW120891   3.340   6.739   1.661
 6664SOL    HW220892   3.363   6.891   1.608
 6665SOL     OW20893   2.908   0.403   6.485
 6665SOL    HW120894   2.897   0.501   6.467
 6665SOL    HW220895   2.937   0.390   6.580
 6666SOL     OW20896   3.079   6.785   6.029
 6666SOL    HW120897   3.081   6.884   6.044
 6666SOL    HW220898   3.020   6.764   5.951
 6667SOL     OW20899   1.599   5.780   7.003
 6667SOL    HW120900   1.508   5.809   6.973
 6667SOL    HW220901   1.663   5.784   6.926
 6668SOL     OW20902   0.206   3.615   6.042
 6668SOL    HW120903   0.228   3.711   6.060
 6668SOL    HW220904   0.122   3.590   6.090
 6669SOL     OW20905   0.640   3.564   3.645
 6669SOL    HW120906   0.659   3.644   3.701
 6669SOL    HW220907   0.723   3.536   3.597
 6670SOL     OW20908   2.615   3.887   0.599
 6670SOL    HW120909   2.599   3.985   0.614
 6670SOL    HW220910   2.532   3.836   0.622
 6671SOL     OW20911   5.173   5.269   0.386
 6671SOL    HW120912   5.217   5.180   0.393
 6671SOL    HW220913   5.189   5.308   0.295
 6672SOL     OW20914   1.693   2.526   1.115
 6672SOL    HW120915   1.641   2.442   1.133
 6672SOL    HW220916   1.692   2.545   1.017
 6673SOL     OW20917   5.440   3.970   4.279
 6673SOL    HW120918   5.359   3.975   4.338
 6673SOL    HW220919   5.456   3.875   4.253
 6674SOL     OW20920   6.328   1.341   6.961
 6674SOL    HW120921   6.308   1.408   6.889
 6674SOL    HW220922   6.252   1.337   0.003
 6675SOL     OW20923   5.157   1.102   0.742
 6675SOL    HW120924   5.241   1.078   0.790
 6675SOL    HW220925   5.078   1.083   0.801
 6676SOL     OW20926   0.919   3.507   5.695
 6676SOL    HW120927   0.970   3.549   5.771
 6676SOL    HW220928   0.821   3.508   5.716
 6677SOL     OW20929   0.719   2.253   6.976
 6677SOL    HW120930   0.678   2.269   0.044
 6677SOL    HW220931   0.776   2.171   6.980
 6678SOL     OW20932   3.094   4.415   6.905
 6678SOL    HW120933   3.176   4.357   6.911
 6678SOL    HW220934   3.119   4.510   6.920
 6679SOL     OW20935   1.554   0.377   3.550
 6679SOL    HW120936   1.537   0.476   3.553
 6679SOL    HW220937   1.630   0.358   3.488
 6680SOL     OW20938   6.439   5.434   1.903
 6680SOL    HW120939   6.362   5.429   1.838
 6680SOL    HW220940   6.525   5.434   1.852
 6681SOL     OW20941   3.176   6.177   1.244
 6681SOL    HW120942   3.152   6.190   1.340
 6681SOL    HW220943   3.128   6.098   1.207
 6682SOL     OW20944   2.389   4.985   6.573
 6682SOL    HW120945   2.339   4.959   6.490
 6682SOL    HW220946   2.446   4.909   6.603
 6683SOL     OW20947   6.590   6.262   6.365
 6683SOL    HW120948   6.491   6.260   6.382
 6683SOL    HW220949   6.638   6.218   6.440
 6684SOL     OW20950   3.160   0.015   6.203
 6684SOL    HW120951   3.108   7.001   6.281
 6684SOL    HW220952   3.246   6.987   6.195
 6685SOL     OW20953   3.848   2.888   0.932
 6685SOL    HW120954   3.749   2.899   0.930
 6685SOL    HW220955   3.884   2.919   1.020
 6686SOL     OW20956   4.611   4.629   5.436
 6686SOL    HW120957   4.600   4.622   5.337
 6686SOL    HW220958   4.700   4.592   5.462
 6687SOL     OW20959   0.029   2.878   1.009
 6687SOL    HW120960   0.094   2.954   1.004
 6687SOL    HW220961   0.008   2.845   0.917
 6688SOL     OW20962   5.568   6.192   0.347
 6688SOL    HW120963   5.592   6.095   0.344
 6688SOL    HW220964   5.648   6.246   0.372
 6689SOL     OW20965   3.911   4.416   5.557
 6689SOL    HW120966   3.856   4.429   5.639
 6689SOL    HW220967   4.008   4.413   5.582
 6690SOL     OW20968   1.370   7.005   6.885
 6690SOL    HW120969   1.314   6.990   6.966
 6690SOL    HW220970   1.375   6.920   6.832
 6691SOL     OW20971   1.802   2.211   2.342
 6691SOL    HW120972   1.755   2.198   2.254
 6691SOL    HW220973   1.891   2.166   2.339
 6692SOL     OW20974   4.022   6.168   2.180
 6692SOL    HW120975   4.027   6.069   2.167
 6692SOL    HW220976   4.096   6.196   2.241
 6693SOL     OW20977   2.946   1.297   6.018
 6693SOL    HW120978   2.939   1.352   6.101
 6693SOL    HW220979   2.888   1.337   5.947
 6694SOL     OW20980   4.390   3.990   1.673
 6694SOL    HW120981   4.408   4.068   1.733
 6694SOL    HW220982   4.422   4.011   1.581
 6695SOL     OW20983   3.257   2.353   0.266
 6695SOL    HW120984   3.215   2.396   0.186
 6695SOL    HW220985   3.355   2.374   0.267
 6696SOL     OW20986   3.439   3.057   5.122
 6696SOL    HW120987   3.485   3.054   5.210
 6696SOL    HW220988   3.356   3.001   5.125
 6697SOL     OW20989   4.885   1.032   2.880
 6697SOL    HW120990   4.866   1.024   2.978
 6697SOL    HW220991   4.852   1.120   2.846
 6698SOL     OW20992   3.042   3.820   1.218
 6698SOL    HW120993   3.107   3.747   1.236
 6698SOL    HW220994   3.024   3.870   1.303
 6699SOL     OW20995   1.248   3.610   6.163
 6699SOL    HW120996   1.339   3.611   6.203
 6699SOL    HW220997   1.233   3.523   6.115
 6700SOL     OW20998   5.145   6.983   1.276
 6700SOL    HW120999   5.061   7.019   1.237
 6700SOL    HW221000   5.123   6.922   1.352
 6701SOL     OW21001   6.346   6.701   1.356
 6701SOL    HW121002   6.330   6.799   1.369
 6701SOL    HW221003   6.258   6.653   1.357
 6702SOL     OW21004   4.913   2.493   1.426
 6702SOL    HW121005   4.834   2.541   1.466
 6702SOL    HW221006   4.958   2.553   1.360
 6703SOL     OW21007   0.186   1.238   0.760
 6703SOL    HW121008   0.090   1.219   0.741
 6703SOL    HW221009   0.193   1.301   0.838
 6704SOL     OW21010   2.512   6.202   6.633
 6704SOL    HW121011   2.485   6.148   6.554
 6704SOL    HW221012   2.531   6.296   6.604
 6705SOL     OW21013   1.550   4.281   3.079
 6705SOL    HW121014   1.517   4.305   2.988
 6705SOL    HW221015   1.614   4.351   3.111
 6706SOL     OW21016   0.488   5.654   1.521
 6706SOL    HW121017   0.536   5.738   1.546
 6706SOL    HW221018   0.435   5.621   1.599
 6707SOL     OW21019   5.146   0.916   2.835
 6707SOL    HW121020   5.050   0.942   2.845
 6707SOL    HW221021   5.178   0.871   2.918
 6708SOL     OW21022   0.048   3.318   0.996
 6708SOL    HW121023   6.978   3.280   1.000
 6708SOL    HW221024   0.042   3.418   0.996
 6709SOL     OW21025   2.321   4.227   1.723
 6709SOL    HW121026   2.311   4.238   1.822
 6709SOL    HW221027   2.231   4.219   1.681
 6710SOL     OW21028   4.600   2.155   2.208
 6710SOL    HW121029   4.674   2.170   2.142
 6710SOL    HW221030   4.603   2.226   2.278
 6711SOL     OW21031   4.380   5.620   5.925
 6711SOL    HW121032   4.381   5.671   6.011
 6711SOL    HW221033   4.330   5.672   5.856
 6712SOL     OW21034   5.668   3.692   1.015
 6712SOL    HW121035   5.745   3.635   1.040
 6712SOL    HW221036   5.684   3.733   0.926
 6713SOL     OW21037   2.101   4.588   4.323
 6713SOL    HW121038   2.073   4.661   4.386
 6713SOL    HW221039   2.153   4.519   4.373
 6714SOL     OW21040   6.066   0.887   2.519
 6714SOL    HW121041   5.998   0.960   2.527
 6714SOL    HW221042   6.133   0.897   2.593
 6715SOL     OW21043   0.891   6.785   5.502
 6715SOL    HW121044   0.802   6.774   5.457
 6715SOL    HW221045   0.964   6.776   5.435
 6716SOL     OW21046   1.440   4.531   2.025
 6716SOL    HW121047   1.537   4.551   2.032
 6716SOL    HW221048   1.427   4.436   1.995
 6717SOL     OW21049   6.271   2.422   5.233
 6717SOL    HW121050   6.345   2.478   5.269
 6717SOL    HW221051   6.308   2.338   5.192
 6718SOL     OW21052   4.848   2.456   0.899
 6718SOL    HW121053   4.815   2.511   0.975
 6718SOL    HW221054   4.884   2.370   0.933
 6719SOL     OW21055   1.656   0.471   0.286
 6719SOL    HW121056   1.667   0.377   0.252
 6719SOL    HW221057   1.736   0.525   0.262
 6720SOL     OW21058   1.421   1.855   4.495
 6720SOL    HW121059   1.492   1.848   4.565
 6720SOL    HW221060   1.456   1.820   4.408
 6721SOL     OW21061   6.154   6.498   0.336
 6721SOL    HW121062   6.190   6.570   0.277
 6721SOL    HW221063   6.143   6.414   0.283
 6722SOL     OW21064   6.965   3.859   1.366
 6722SOL    HW121065   0.040   3.844   1.387
 6722SOL    HW221066   6.917   3.772   1.366
 6723SOL     OW21067   2.123   3.544   4.293
 6723SOL    HW121068   2.118   3.590   4.381
 6723SOL    HW221069   2.209   3.493   4.287
 6724SOL     OW21070   2.044   3.262   5.271
 6724SOL    HW121071   2.009   3.348   5.310
 6724SOL    HW221072   2.043   3.268   5.172
 6725SOL     OW21073   4.588   2.626   3.534
 6725SOL    HW121074   4.633   2.704   3.492
 6725SOL    HW221075   4.650   2.548   3.536
 6726SOL     OW21076   6.981   1.278   6.958
 6726SOL    HW121077   7.017   1.287   6.865
 6726SOL    HW221078   0.024   1.317   0.001
 6727SOL     OW21079   0.808   5.357   5.451
 6727SOL    HW121080   0.873   5.284   5.432
 6727SOL    HW221081   0.847   5.445   5.423
 6728SOL     OW21082   3.530   1.437   5.105
 6728SOL    HW121083   3.517   1.534   5.129
 6728SOL    HW221084   3.624   1.423   5.074
 6729SOL     OW21085   4.135   1.197   2.565
 6729SOL    HW121086   4.047   1.149   2.566
 6729SOL    HW221087   4.188   1.171   2.646
 6730SOL     OW21088   0.272   2.043   1.346
 6730SOL    HW121089   0.265   2.117   1.414
 6730SOL    HW221090   0.189   1.987   1.349
 6731SOL     OW21091   3.616   0.689   6.000
 6731SOL    HW121092   3.653   0.777   6.028
 6731SOL    HW221093   3.691   0.625   5.982
 6732SOL     OW21094   5.957   4.913   5.973
 6732SOL    HW121095   5.903   4.866   6.043
 6732SOL    HW221096   5.901   4.924   5.890
 6733SOL     OW21097   5.380   4.744   5.658
 6733SOL    HW121098   5.320   4.812   5.700
 6733SOL    HW221099   5.366   4.744   5.559
 6734SOL     OW21100   5.351   1.935   5.538
 6734SOL    HW121101   5.364   1.983   5.451
 6734SOL    HW221102   5.383   1.840   5.528
 6735SOL     OW21103   5.761   2.523   4.853
 6735SOL    HW121104   5.662   2.507   4.852
 6735SOL    HW221105   5.797   2.500   4.944
 6736SOL     OW21106   3.745   3.419   0.594
 6736SOL    HW121107   3.823   3.369   0.555
 6736SOL    HW221108   3.699   3.361   0.661
 6737SOL     OW21109   6.146   2.992   1.166
 6737SOL    HW121110   6.178   3.086   1.150
 6737SOL    HW221111   6.194   2.954   1.245
 6738SOL     OW21112   1.828   6.841   3.540
 6738SOL    HW121113   1.912   6.812   3.586
 6738SOL    HW221114   1.777   6.902   3.601
 6739SOL     OW21115   0.465   0.263   5.519
 6739SOL    HW121116   0.488   0.216   5.433
 6739SOL    HW221117   0.387   0.217   5.562
 6740SOL     OW21118   0.844   6.849   1.699
 6740SOL    HW121119   0.768   6.801   1.655
 6740SOL    HW221120   0.929   6.829   1.650
 6741SOL     OW21121   3.229   2.095   0.299
 6741SOL    HW121122   3.246   2.193   0.297
 6741SOL    HW221123   3.211   2.061   0.207
 6742SOL     OW21124   6.741   5.238   2.631
 6742SOL    HW121125   6.741   5.138   2.639
 6742SOL    HW221126   6.827   5.268   2.590
 6743SOL     OW21127   3.487   4.311   6.956
 6743SOL    HW121128   3.487   4.409   6.939
 6743SOL    HW221129   3.547   4.291   0.011
 6744SOL     OW21130   6.650   6.461   5.848
 6744SOL    HW121131   6.626   6.364   5.855
 6744SOL    HW221132   6.588   6.515   5.904
 6745SOL     OW21133   5.643   3.369   5.017
 6745SOL    HW121134   5.688   3.336   5.100
 6745SOL    HW221135   5.568   3.307   4.992
 6746SOL     OW21136   1.649   2.640   2.671
 6746SOL    HW121137   1.715   2.716   2.674
 6746SOL    HW221138   1.691   2.558   2.710
 6747SOL     OW21139   0.968   6.008   5.610
 6747SOL    HW121140   0.944   5.969   5.699
 6747SOL    HW221141   0.920   6.095   5.597
 6748SOL     OW21142   1.432   2.593   3.812
 6748SOL    HW121143   1.334   2.581   3.828
 6748SOL    HW221144   1.463   2.679   3.851
 6749SOL     OW21145   3.515   4.954   2.356
 6749SOL    HW121146   3.489   4.954   2.259
 6749SOL    HW221147   3.432   4.959   2.413
 6750SOL     OW21148   3.501   0.095   5.432
 6750SOL    HW121149   3.557   0.177   5.445
 6750SOL    HW221150   3.439   0.109   5.355
 6751SOL     OW21151   3.928   1.230   4.196
 6751SOL    HW121152   3.836   1.267   4.206
 6751SOL    HW221153   3.994   1.292   4.238
 6752SOL     OW21154   2.097   5.327   2.774
 6752SOL    HW121155   2.044   5.378   2.705
 6752SOL    HW221156   2.124   5.389   2.847
 6753SOL     OW21157   3.533   4.608   6.858
 6753SOL    HW121158   3.450   4.581   6.809
 6753SOL    HW221159   3.570   4.691   6.815
 6754SOL     OW21160   5.725   0.600   0.626
 6754SOL    HW121161   5.757   0.691   0.648
 6754SOL    HW221162   5.729   0.586   0.527
 6755SOL     OW21163   3.625   5.552   5.333
 6755SOL    HW121164   3.561   5.480   5.308
 6755SOL    HW221165   3.575   5.630   5.372
 6756SOL     OW21166   4.098   3.162   5.276
 6756SOL    HW121167   4.113   3.234   5.208
 6756SOL    HW221168   4.186   3.128   5.309
 6757SOL     OW21169   4.008   6.728   1.669
 6757SOL    HW121170   4.094   6.738   1.720
 6757SOL    HW221171   3.946   6.802   1.693
 6758SOL     OW21172   5.519   2.266   3.436
 6758SOL    HW121173   5.433   2.218   3.453
 6758SOL    HW221174   5.563   2.228   3.354
 6759SOL     OW21175   1.472   2.753   1.917
 6759SOL    HW121176   1.516   2.820   1.856
 6759SOL    HW221177   1.498   2.774   2.011
 6760SOL     OW21178   5.051   1.801   5.883
 6760SOL    HW121179   4.962   1.821   5.925
 6760SOL    HW221180   5.093   1.885   5.851
 6761SOL     OW21181   2.651   0.185   5.235
 6761SOL    HW121182   2.602   0.125   5.172
 6761SOL    HW221183   2.716   0.241   5.184
 6762SOL     OW21184   5.490   4.755   4.170
 6762SOL    HW121185   5.392   4.758   4.188
 6762SOL    HW221186   5.505   4.716   4.079
 6763SOL     OW21187   5.637   5.616   3.522
 6763SOL    HW121188   5.612   5.579   3.611
 6763SOL    HW221189   5.735   5.638   3.520
 6764SOL     OW21190   1.090   4.481   2.175
 6764SOL    HW121191   1.090   4.414   2.101
 6764SOL    HW221192   1.094   4.573   2.137
 6765SOL     OW21193   6.937   4.691   3.199
 6765SOL    HW121194   6.893   4.743   3.272
 6765SOL    HW221195   6.877   4.688   3.119
 6766SOL     OW21196   6.005   0.253   1.529
 6766SOL    HW121197   6.000   0.153   1.532
 6766SOL    HW221198   6.040   0.282   1.440
 6767SOL     OW21199   3.198   0.435   1.464
 6767SOL    HW121200   3.292   0.409   1.440
 6767SOL    HW221201   3.185   0.424   1.563
 6768SOL     OW21202   2.190   0.292   6.384
 6768SOL    HW121203   2.289   0.293   6.368
 6768SOL    HW221204   2.164   0.205   6.427
 6769SOL     OW21205   5.586   2.797   1.255
 6769SOL    HW121206   5.645   2.875   1.234
 6769SOL    HW221207   5.491   2.826   1.254
 6770SOL     OW21208   0.205   1.794   1.631
 6770SOL    HW121209   0.219   1.701   1.597
 6770SOL    HW221210   0.123   1.833   1.589
 6771SOL     OW21211   4.840   1.259   3.533
 6771SOL    HW121212   4.813   1.310   3.616
 6771SOL    HW221213   4.788   1.174   3.529
 6772SOL     OW21214   3.332   1.388   4.926
 6772SOL    HW121215   3.342   1.471   4.872
 6772SOL    HW221216   3.396   1.390   5.003
 6773SOL     OW21217   6.739   3.506   2.113
 6773SOL    HW121218   6.708   3.599   2.090
 6773SOL    HW221219   6.828   3.490   2.070
 6774SOL     OW21220   1.842   1.752   5.866
 6774SOL    HW121221   1.839   1.839   5.817
 6774SOL    HW221222   1.853   1.678   5.800
 6775SOL     OW21223   0.231   3.263   0.597
 6775SOL    HW121224   0.301   3.305   0.539
 6775SOL    HW221225   0.241   3.164   0.595
 6776SOL     OW21226   5.917   6.395   6.495
 6776SOL    HW121227   5.925   6.406   6.396
 6776SOL    HW221228   5.956   6.475   6.541
 6777SOL     OW21229   4.311   4.778   6.996
 6777SOL    HW121230   4.223   4.731   6.989
 6777SOL    HW221231   4.311   4.839   0.052
 6778SOL     OW21232   6.464   5.462   3.115
 6778SOL    HW121233   6.423   5.371   3.111
 6778SOL    HW221234   6.518   5.477   3.032
 6779SOL     OW21235   5.389   3.311   6.273
 6779SOL    HW121236   5.456   3.360   6.328
 6779SOL    HW221237   5.425   3.297   6.180
 6780SOL     OW21238   1.049   2.645   1.448
 6780SOL    HW121239   1.032   2.549   1.428
 6780SOL    HW221240   1.013   2.667   1.539
 6781SOL     OW21241   5.340   4.408   5.423
 6781SOL    HW121242   5.333   4.507   5.430
 6781SOL    HW221243   5.416   4.375   5.479
 6782SOL     OW21244   6.158   1.765   3.712
 6782SOL    HW121245   6.194   1.720   3.794
 6782SOL    HW221246   6.082   1.824   3.737
 6783SOL     OW21247   1.283   5.482   6.722
 6783SOL    HW121248   1.258   5.563   6.668
 6783SOL    HW221249   1.262   5.399   6.669
 6784SOL     OW21250   4.486   3.414   0.511
 6784SOL    HW121251   4.422   3.344   0.541
 6784SOL    HW221252   4.493   3.412   0.411
 6785SOL     OW21253   5.631   5.940   1.827
 6785SOL    HW121254   5.679   5.860   1.863
 6785SOL    HW221255   5.682   6.023   1.848
 6786SOL     OW21256   1.656   3.506   5.160
 6786SOL    HW121257   1.747   3.545   5.152
 6786SOL    HW221258   1.663   3.408   5.180
 6787SOL     OW21259   0.936   3.862   2.229
 6787SOL    HW121260   0.912   3.958   2.217
 6787SOL    HW221261   0.852   3.807   2.237
 6788SOL     OW21262   2.687   3.816   0.880
 6788SOL    HW121263   2.783   3.807   0.907
 6788SOL    HW221264   2.681   3.871   0.797
 6789SOL     OW21265   1.999   4.514   3.103
 6789SOL    HW121266   1.974   4.603   3.064
 6789SOL    HW221267   2.058   4.528   3.182
 6790SOL     OW21268   1.116   3.128   0.621
 6790SOL    HW121269   1.119   3.108   0.719
 6790SOL    HW221270   1.143   3.223   0.606
 6791SOL     OW21271   3.761   3.859   5.659
 6791SOL    HW121272   3.750   3.859   5.560
 6791SOL    HW221273   3.816   3.781   5.687
 6792SOL     OW21274   0.450   5.160   0.588
 6792SOL    HW121275   0.433   5.204   0.500
 6792SOL    HW221276   0.543   5.179   0.618
 6793SOL     OW21277   5.708   1.250   1.082
 6793SOL    HW121278   5.807   1.237   1.087
 6793SOL    HW221279   5.675   1.219   0.993
 6794SOL     OW21280   2.989   1.520   4.738
 6794SOL    HW121281   3.086   1.542   4.730
 6794SOL    HW221282   2.954   1.554   4.825
 6795SOL     OW21283   3.859   5.788   6.977
 6795SOL    HW121284   3.880   5.743   6.891
 6795SOL    HW221285   3.766   5.824   6.974
 6796SOL     OW21286   4.321   1.931   2.589
 6796SOL    HW121287   4.309   2.022   2.627
 6796SOL    HW221288   4.247   1.871   2.621
 6797SOL     OW21289   6.567   2.705   2.827
 6797SOL    HW121290   6.570   2.759   2.743
 6797SOL    HW221291   6.657   2.668   2.847
 6798SOL     OW21292   6.381   6.778   2.201
 6798SOL    HW121293   6.402   6.722   2.281
 6798SOL    HW221294   6.403   6.726   2.118
 6799SOL     OW21295   5.148   5.976   2.499
 6799SOL    HW121296   5.191   5.900   2.450
 6799SOL    HW221297   5.188   6.062   2.469
 6800SOL     OW21298   3.602   3.929   6.456
 6800SOL    HW121299   3.677   3.992   6.437
 6800SOL    HW221300   3.580   3.932   6.554
 6801SOL     OW21301   0.572   2.764   3.148
 6801SOL    HW121302   0.491   2.768   3.089
 6801SOL    HW221303   0.628   2.685   3.122
 6802SOL     OW21304   3.255   4.943   2.435
 6802SOL    HW121305   3.234   5.040   2.451
 6802SOL    HW221306   3.227   4.918   2.343
 6803SOL     OW21307   4.247   2.683   0.087
 6803SOL    HW121308   4.290   2.772   0.100
 6803SOL    HW221309   4.148   2.695   0.074
 6804SOL     OW21310   1.694   5.901   3.575
 6804SOL    HW121311   1.607   5.950   3.573
 6804SOL    HW221312   1.763   5.952   3.524
 6805SOL     OW21313   6.306   1.572   5.641
 6805SOL    HW121314   6.308   1.672   5.639
 6805SOL    HW221315   6.237   1.538   5.577
 6806SOL     OW21316   4.795   5.892   5.192
 6806SOL    HW121317   4.782   5.828   5.116
 6806SOL    HW221318   4.844   5.972   5.160
 6807SOL     OW21319   4.254   3.540   6.629
 6807SOL    HW121320   4.220   3.508   6.718
 6807SOL    HW221321   4.285   3.634   6.637
 6808SOL     OW21322   2.645   4.597   4.083
 6808SOL    HW121323   2.735   4.580   4.042
 6808SOL    HW221324   2.586   4.642   4.016
 6809SOL     OW21325   1.287   3.380   6.957
 6809SOL    HW121326   1.301   3.451   6.889
 6809SOL    HW221327   1.234   3.416   0.011
 6810SOL     OW21328   5.936   1.433   3.665
 6810SOL    HW121329   5.942   1.491   3.747
 6810SOL    HW221330   6.024   1.386   3.652
 6811SOL     OW21331   5.427   6.140   2.733
 6811SOL    HW121332   5.419   6.046   2.702
 6811SOL    HW221333   5.523   6.161   2.752
 6812SOL     OW21334   3.960   3.100   2.906
 6812SOL    HW121335   3.922   3.086   2.815
 6812SOL    HW221336   3.999   3.192   2.912
 6813SOL     OW21337   5.380   3.965   1.233
 6813SOL    HW121338   5.346   4.026   1.305
 6813SOL    HW221339   5.372   4.010   1.144
 6814SOL     OW21340   2.335   2.661   0.592
 6814SOL    HW121341   2.319   2.562   0.598
 6814SOL    HW221342   2.428   2.677   0.558
 6815SOL     OW21343   1.720   6.883   0.213
 6815SOL    HW121344   1.657   6.899   0.137
 6815SOL    HW221345   1.756   6.971   0.245
 6816SOL     OW21346   4.979   4.687   1.318
 6816SOL    HW121347   5.009   4.593   1.299
 6816SOL    HW221348   4.883   4.686   1.345
 6817SOL     OW21349   1.699   2.325   5.965
 6817SOL    HW121350   1.783   2.374   5.988
 6817SOL    HW221351   1.620   2.382   5.986
 6818SOL     OW21352   4.399   5.032   1.123
 6818SOL    HW121353   4.368   5.055   1.030
 6818SOL    HW221354   4.452   5.108   1.160
 6819SOL     OW21355   2.568   1.986   3.795
 6819SOL    HW121356   2.612   1.899   3.774
 6819SOL    HW221357   2.585   2.052   3.722
 6820SOL     OW21358   1.605   5.196   4.687
 6820SOL    HW121359   1.541   5.164   4.616
 6820SOL    HW221360   1.657   5.274   4.652
 6821SOL     OW21361   2.443   2.661   3.821
 6821SOL    HW121362   2.392   2.742   3.794
 6821SOL    HW221363   2.386   2.580   3.809
 6822SOL     OW21364   5.295   1.376   5.669
 6822SOL    HW121365   5.287   1.476   5.671
 6822SOL    HW221366   5.268   1.343   5.579
 6823SOL     OW21367   4.152   3.347   1.963
 6823SOL    HW121368   4.183   3.389   2.048
 6823SOL    HW221369   4.066   3.389   1.935
 6824SOL     OW21370   0.572   5.465   5.277
 6824SOL    HW121371   0.477   5.497   5.276
 6824SOL    HW221372   0.578   5.379   5.228
 6825SOL     OW21373   5.615   0.767   4.868
 6825SOL    HW121374   5.674   0.846   4.883
 6825SOL    HW221375   5.636   0.696   4.935
 6826SOL     OW21376   0.926   2.969   3.462
 6826SOL    HW121377   0.868   2.888   3.473
 6826SOL    HW221378   0.968   2.991   3.550
 6827SOL     OW21379   4.292   5.305   5.013
 6827SOL    HW121380   4.244   5.236   4.959
 6827SOL    HW221381   4.390   5.290   5.007
 6828SOL     OW21382   2.199   2.029   0.900
 6828SOL    HW121383   2.200   2.081   0.986
 6828SOL    HW221384   2.235   2.086   0.826
 6829SOL     OW21385   5.754   4.880   3.614
 6829SOL    HW121386   5.695   4.958   3.594
 6829SOL    HW221387   5.766   4.870   3.712
 6830SOL     OW21388   5.155   1.417   3.686
 6830SOL    HW121389   5.165   1.338   3.626
 6830SOL    HW221390   5.106   1.389   3.769
 6831SOL     OW21391   0.723   1.835   6.229
 6831SOL    HW121392   0.746   1.923   6.270
 6831SOL    HW221393   0.634   1.805   6.264
 6832SOL     OW21394   2.529   5.278   1.195
 6832SOL    HW121395   2.501   5.292   1.290
 6832SOL    HW221396   2.536   5.367   1.150
 6833SOL     OW21397   4.361   6.039   0.093
 6833SOL    HW121398   4.354   5.970   0.165
 6833SOL    HW221399   4.276   6.043   0.041
 6834SOL     OW21400   2.600   4.940   2.697
 6834SOL    HW121401   2.608   4.841   2.684
 6834SOL    HW221402   2.642   4.966   2.783
 6835SOL     OW21403   3.428   6.662   4.421
 6835SOL    HW121404   3.422   6.722   4.500
 6835SOL    HW221405   3.515   6.677   4.374
 6836SOL     OW21406   3.842   5.600   0.170
 6836SOL    HW121407   3.864   5.682   0.117
 6836SOL    HW221408   3.762   5.618   0.227
 6837SOL     OW21409   0.399   3.376   2.985
 6837SOL    HW121410   0.396   3.345   2.890
 6837SOL    HW221411   0.429   3.300   3.044
 6838SOL     OW21412   2.602   2.008   0.820
 6838SOL    HW121413   2.635   2.086   0.873
 6838SOL    HW221414   2.543   2.039   0.746
 6839SOL     OW21415   3.577   1.203   2.067
 6839SOL    HW121416   3.555   1.108   2.087
 6839SOL    HW221417   3.498   1.261   2.089
 6840SOL     OW21418   0.825   0.486   5.757
 6840SOL    HW121419   0.737   0.532   5.772
 6840SOL    HW221420   0.898   0.555   5.754
 6841SOL     OW21421   0.023   3.079   5.814
 6841SOL    HW121422   0.030   2.981   5.831
 6841SOL    HW221423   0.090   3.127   5.871
 6842SOL     OW21424   2.584   4.666   2.636
 6842SOL    HW121425   2.652   4.638   2.568
 6842SOL    HW221426   2.514   4.595   2.644
 6843SOL     OW21427   4.713   6.801   1.451
 6843SOL    HW121428   4.616   6.825   1.456
 6843SOL    HW221429   4.761   6.871   1.397
 6844SOL     OW21430   5.587   0.485   5.577
 6844SOL    HW121431   5.682   0.453   5.575
 6844SOL    HW221432   5.557   0.504   5.484
 6845SOL     OW21433   5.423   2.168   2.560
 6845SOL    HW121434   5.405   2.266   2.551
 6845SOL    HW221435   5.440   2.129   2.470
 6846SOL     OW21436   1.834   3.354   6.945
 6846SOL    HW121437   1.795   3.445   6.946
 6846SOL    HW221438   1.761   3.286   6.949
 6847SOL     OW21439   6.834   2.322   3.435
 6847SOL    HW121440   6.750   2.273   3.458
 6847SOL    HW221441   6.812   2.406   3.386
 6848SOL     OW21442   6.736   5.036   4.071
 6848SOL    HW121443   6.767   4.973   4.143
 6848SOL    HW221444   6.726   4.985   3.986
 6849SOL     OW21445   3.060   4.011   5.547
 6849SOL    HW121446   3.012   4.039   5.464
 6849SOL    HW221447   3.104   3.922   5.532
 6850SOL     OW21448   5.335   0.816   4.784
 6850SOL    HW121449   5.432   0.833   4.768
 6850SOL    HW221450   5.321   0.722   4.815
 6851SOL     OW21451   1.903   4.387   3.378
 6851SOL    HW121452   1.873   4.297   3.409
 6851SOL    HW221453   1.961   4.429   3.447
 6852SOL     OW21454   4.689   2.808   0.732
 6852SOL    HW121455   4.695   2.709   0.719
 6852SOL    HW221456   4.780   2.848   0.722
 6853SOL     OW21457   4.496   5.275   5.684
 6853SOL    HW121458   4.402   5.262   5.652
 6853SOL    HW221459   4.494   5.305   5.780
 6854SOL     OW21460   5.113   6.258   5.285
 6854SOL    HW121461   5.210   6.246   5.267
 6854SOL    HW221462   5.098   6.268   5.384
 6855SOL     OW21463   3.713   5.369   2.631
 6855SOL    HW121464   3.729   5.300   2.561
 6855SOL    HW221465   3.670   5.327   2.711
 6856SOL     OW21466   6.412   2.891   0.627
 6856SOL    HW121467   6.464   2.959   0.576
 6856SOL    HW221468   6.475   2.834   0.681
 6857SOL     OW21469   1.969   4.753   6.426
 6857SOL    HW121470   2.047   4.756   6.363
 6857SOL    HW221471   1.999   4.782   6.517
 6858SOL     OW21472   1.164   3.647   1.941
 6858SOL    HW121473   1.124   3.736   1.961
 6858SOL    HW221474   1.212   3.613   2.022
 6859SOL     OW21475   2.416   2.329   0.837
 6859SOL    HW121476   2.340   2.323   0.902
 6859SOL    HW221477   2.380   2.338   0.744
 6860SOL     OW21478   0.366   0.001   6.966
 6860SOL    HW121479   0.431   0.012   0.018
 6860SOL    HW221480   0.304   0.079   6.964
 6861SOL     OW21481   6.491   3.501   6.975
 6861SOL    HW121482   6.515   3.442   6.899
 6861SOL    HW221483   6.440   3.580   6.942
 6862SOL     OW21484   0.844   4.665   3.119
 6862SOL    HW121485   0.898   4.680   3.202
 6862SOL    HW221486   0.789   4.582   3.130
 6863SOL     OW21487   5.124   1.097   5.713
 6863SOL    HW121488   5.098   1.118   5.808
 6863SOL    HW221489   5.151   1.001   5.707
 6864SOL     OW21490   2.174   3.351   6.444
 6864SOL    HW121491   2.148   3.309   6.358
 6864SOL    HW221492   2.266   3.391   6.436
 6865SOL     OW21493   1.827   0.555   3.171
 6865SOL    HW121494   1.748   0.604   3.206
 6865SOL    HW221495   1.798   0.468   3.132
 6866SOL     OW21496   2.094   4.906   6.930
 6866SOL    HW121497   2.145   4.846   6.992
 6866SOL    HW221498   2.139   4.994   6.924
 6867SOL     OW21499   1.780   2.425   6.338
 6867SOL    HW121500   1.865   2.392   6.298
 6867SOL    HW221501   1.716   2.349   6.350
 6868SOL     OW21502   3.903   5.313   3.365
 6868SOL    HW121503   3.849   5.265   3.434
 6868SOL    HW221504   3.874   5.283   3.274
 6869SOL     OW21505   1.438   0.349   5.271
 6869SOL    HW121506   1.462   0.282   5.201
 6869SOL    HW221507   1.515   0.362   5.333
 6870SOL     OW21508   5.971   2.945   6.842
 6870SOL    HW121509   5.969   3.043   6.862
 6870SOL    HW221510   5.918   2.896   6.911
 6871SOL     OW21511   6.132   2.243   3.168
 6871SOL    HW121512   6.073   2.179   3.216
 6871SOL    HW221513   6.123   2.334   3.208
 6872SOL     OW21514   1.689   5.135   0.976
 6872SOL    HW121515   1.737   5.168   0.896
 6872SOL    HW221516   1.637   5.053   0.953
 6873SOL     OW21517   0.588   3.829   2.200
 6873SOL    HW121518   0.540   3.757   2.250
 6873SOL    HW221519   0.584   3.914   2.252
 6874SOL     OW21520   3.926   5.968   1.845
 6874SOL    HW121521   3.899   5.959   1.749
 6874SOL    HW221522   3.947   6.063   1.866
 6875SOL     OW21523   2.878   1.418   6.336
 6875SOL    HW121524   2.907   1.324   6.322
 6875SOL    HW221525   2.957   1.479   6.333
 6876SOL     OW21526   5.612   5.465   3.305
 6876SOL    HW121527   5.517   5.473   3.276
 6876SOL    HW221528   5.621   5.501   3.398
 6877SOL     OW21529   0.865   4.416   1.558
 6877SOL    HW121530   0.828   4.470   1.634
 6877SOL    HW221531   0.920   4.341   1.593
 6878SOL     OW21532   1.787   0.685   3.876
 6878SOL    HW121533   1.803   0.645   3.786
 6878SOL    HW221534   1.812   0.618   3.946
 6879SOL     OW21535   1.030   1.568   1.323
 6879SOL    HW121536   1.105   1.520   1.368
 6879SOL    HW221537   1.055   1.587   1.228
 6880SOL     OW21538   1.800   6.628   0.136
 6880SOL    HW121539   1.749   6.548   0.167
 6880SOL    HW221540   1.803   6.696   0.210
 6881SOL     OW21541   0.047   3.440   1.285
 6881SOL    HW121542   6.985   3.387   1.277
 6881SOL    HW221543   0.063   3.489   1.199
 6882SOL     OW21544   2.575   6.333   0.046
 6882SOL    HW121545   2.528   6.250   0.078
 6882SOL    HW221546   2.628   6.372   0.122
 6883SOL     OW21547   4.792   6.593   1.104
 6883SOL    HW121548   4.882   6.636   1.099
 6883SOL    HW221549   4.789   6.531   1.183
 6884SOL     OW21550   1.144   5.067   3.390
 6884SOL    HW121551   1.108   5.045   3.300
 6884SOL    HW221552   1.214   5.000   3.415
 6885SOL     OW21553   5.588   5.116   4.646
 6885SOL    HW121554   5.546   5.186   4.588
 6885SOL    HW221555   5.539   5.111   4.733
 6886SOL     OW21556   5.703   3.672   0.749
 6886SOL    HW121557   5.732   3.611   0.675
 6886SOL    HW221558   5.606   3.657   0.768
 6887SOL     OW21559   5.067   6.739   5.561
 6887SOL    HW121560   5.075   6.654   5.509
 6887SOL    HW221561   5.121   6.810   5.516
 6888SOL     OW21562   6.575   4.125   1.143
 6888SOL    HW121563   6.576   4.169   1.053
 6888SOL    HW221564   6.668   4.124   1.181
 6889SOL     OW21565   0.719   2.857   5.535
 6889SOL    HW121566   0.768   2.925   5.481
 6889SOL    HW221567   0.715   2.770   5.485
 6890SOL     OW21568   4.712   4.414   4.164
 6890SOL    HW121569   4.762   4.480   4.107
 6890SOL    HW221570   4.764   4.329   4.170
 6891SOL     OW21571   1.360   1.296   1.160
 6891SOL    HW121572   1.455   1.266   1.158
 6891SOL    HW221573   1.350   1.380   1.106
 6892SOL     OW21574   1.611   0.741   5.376
 6892SOL    HW121575   1.551   0.819   5.392
 6892SOL    HW221576   1.626   0.692   5.462
 6893SOL     OW21577   5.467   3.123   0.747
 6893SOL    HW121578   5.473   3.222   0.762
 6893SOL    HW221579   5.511   3.076   0.824
 6894SOL     OW21580   5.641   5.241   6.876
 6894SOL    HW121581   5.553   5.288   6.874
 6894SOL    HW221582   5.712   5.300   6.838
 6895SOL     OW21583   1.626   5.320   2.532
 6895SOL    HW121584   1.574   5.255   2.587
 6895SOL    HW221585   1.616   5.412   2.569
 6896SOL     OW21586   5.140   1.054   6.550
 6896SOL    HW121587   5.207   1.044   6.477
 6896SOL    HW221588   5.080   1.131   6.531
 6897SOL     OW21589   4.211   2.267   4.797
 6897SOL    HW121590   4.199   2.335   4.869
 6897SOL    HW221591   4.123   2.225   4.775
 6898SOL     OW21592   1.912   6.789   1.612
 6898SOL    HW121593   1.865   6.702   1.598
 6898SOL    HW221594   1.846   6.858   1.643
 6899SOL     OW21595   5.415   5.054   2.783
 6899SOL    HW121596   5.327   5.024   2.818
 6899SOL    HW221597   5.421   5.154   2.788
 6900SOL     OW21598   6.836   3.995   4.736
 6900SOL    HW121599   6.781   4.075   4.712
 6900SOL    HW221600   6.929   4.024   4.759
 6901SOL     OW21601   5.365   4.094   6.649
 6901SOL    HW121602   5.299   4.135   6.585
 6901SOL    HW221603   5.392   4.162   6.717
 6902SOL     OW21604   0.408   5.781   5.667
 6902SOL    HW121605   0.370   5.770   5.575
 6902SOL    HW221606   0.505   5.806   5.660
 6903SOL     OW21607   1.208   6.398   5.378
 6903SOL    HW121608   1.219   6.498   5.385
 6903SOL    HW221609   1.116   6.377   5.347
 6904SOL     OW21610   0.384   0.174   6.385
 6904SOL    HW121611   0.326   0.255   6.383
 6904SOL    HW221612   0.473   0.196   6.345
 6905SOL     OW21613   4.525   5.875   5.118
 6905SOL    HW121614   4.601   5.892   5.181
 6905SOL    HW221615   4.441   5.862   5.171
 6906SOL     OW21616   2.897   1.693   3.121
 6906SOL    HW121617   2.892   1.792   3.134
 6906SOL    HW221618   2.887   1.647   3.210
 6907SOL     OW21619   5.435   3.227   0.268
 6907SOL    HW121620   5.515   3.243   0.326
 6907SOL    HW221621   5.423   3.305   0.206
 6908SOL     OW21622   3.916   5.850   0.826
 6908SOL    HW121623   3.842   5.834   0.760
 6908SOL    HW221624   3.893   5.808   0.913
 6909SOL     OW21625   5.376   4.607   2.932
 6909SOL    HW121626   5.448   4.618   2.863
 6909SOL    HW221627   5.315   4.685   2.930
 6910SOL     OW21628   1.732   2.693   2.130
 6910SOL    HW121629   1.704   2.598   2.114
 6910SOL    HW221630   1.656   2.744   2.169
 6911SOL     OW21631   2.520   6.759   5.187
 6911SOL    HW121632   2.522   6.725   5.093
 6911SOL    HW221633   2.436   6.727   5.232
 6912SOL     OW21634   2.477   4.131   6.544
 6912SOL    HW121635   2.467   4.179   6.631
 6912SOL    HW221636   2.418   4.173   6.476
 6913SOL     OW21637   4.225   5.821   5.732
 6913SOL    HW121638   4.277   5.772   5.662
 6913SOL    HW221639   4.234   5.920   5.717
 6914SOL     OW21640   0.794   2.120   2.183
 6914SOL    HW121641   0.795   2.105   2.084
 6914SOL    HW221642   0.882   2.155   2.213
 6915SOL     OW21643   6.389   3.288   4.489
 6915SOL    HW121644   6.346   3.370   4.451
 6915SOL    HW221645   6.359   3.275   4.583
 6916SOL     OW21646   4.594   5.905   5.590
 6916SOL    HW121647   4.642   5.857   5.516
 6916SOL    HW221648   4.543   5.982   5.552
 6917SOL     OW21649   3.778   5.601   1.858
 6917SOL    HW121650   3.730   5.543   1.924
 6917SOL    HW221651   3.749   5.696   1.871
 6918SOL     OW21652   1.956   3.749   6.814
 6918SOL    HW121653   2.037   3.756   6.756
 6918SOL    HW221654   1.981   3.710   6.903
 6919SOL     OW21655   6.393   6.234   3.233
 6919SOL    HW121656   6.434   6.275   3.315
 6919SOL    HW221657   6.464   6.190   3.179
 6920SOL     OW21658   0.484   3.060   5.550
 6920SOL    HW121659   0.435   3.126   5.493
 6920SOL    HW221660   0.570   3.035   5.506
 6921SOL     OW21661   3.554   0.591   5.330
 6921SOL    HW121662   3.562   0.501   5.288
 6921SOL    HW221663   3.483   0.643   5.283
 6922SOL     OW21664   3.073   4.416   6.622
 6922SOL    HW121665   2.985   4.415   6.670
 6922SOL    HW221666   3.087   4.327   6.578
 6923SOL     OW21667   5.231   6.949   3.470
 6923SOL    HW121668   5.290   6.999   3.407
 6923SOL    HW221669   5.174   6.886   3.417
 6924SOL     OW21670   2.754   5.307   1.545
 6924SOL    HW121671   2.733   5.213   1.574
 6924SOL    HW221672   2.668   5.355   1.524
 6925SOL     OW21673   6.367   6.708   4.740
 6925SOL    HW121674   6.348   6.805   4.756
 6925SOL    HW221675   6.400   6.696   4.646
 6926SOL     OW21676   2.999   2.597   0.259
 6926SOL    HW121677   2.957   2.682   0.228
 6926SOL    HW221678   3.068   2.617   0.329
 6927SOL     OW21679   3.414   6.337   5.693
 6927SOL    HW121680   3.482   6.268   5.667
 6927SOL    HW221681   3.406   6.340   5.793
 6928SOL     OW21682   4.156   5.729   0.715
 6928SOL    HW121683   4.073   5.771   0.752
 6928SOL    HW221684   4.135   5.684   0.629
 6929SOL     OW21685   4.929   5.766   3.151
 6929SOL    HW121686   4.989   5.722   3.217
 6929SOL    HW221687   4.910   5.704   3.075
 6930SOL     OW21688   0.509   6.224   1.978
 6930SOL    HW121689   0.585   6.178   1.932
 6930SOL    HW221690   0.422   6.193   1.939
 6931SOL     OW21691   3.983   3.019   0.326
 6931SOL    HW121692   4.025   3.050   0.241
 6931SOL    HW221693   4.004   3.085   0.399
 6932SOL     OW21694   3.932   1.019   0.233
 6932SOL    HW121695   3.856   0.971   0.189
 6932SOL    HW221696   3.898   1.101   0.278
 6933SOL     OW21697   3.809   6.191   5.940
 6933SOL    HW121698   3.760   6.223   5.858
 6933SOL    HW221699   3.843   6.270   5.991
 6934SOL     OW21700   4.424   5.293   0.154
 6934SOL    HW121701   4.462   5.203   0.178
 6934SOL    HW221702   4.396   5.293   0.058
 6935SOL     OW21703   4.306   5.346   2.812
 6935SOL    HW121704   4.310   5.303   2.722
 6935SOL    HW221705   4.223   5.315   2.860
 6936SOL     OW21706   1.146   1.475   7.004
 6936SOL    HW121707   1.127   1.406   0.051
 6936SOL    HW221708   1.081   1.465   6.928
 6937SOL     OW21709   6.290   4.526   0.126
 6937SOL    HW121710   6.276   4.592   0.200
 6937SOL    HW221711   6.251   4.561   0.041
 6938SOL     OW21712   2.880   6.815   5.377
 6938SOL    HW121713   2.889   6.828   5.278
 6938SOL    HW221714   2.839   6.897   5.417
 6939SOL     OW21715   5.768   2.994   3.447
 6939SOL    HW121716   5.676   3.010   3.413
 6939SOL    HW221717   5.824   3.075   3.430
 6940SOL     OW21718   1.192   6.303   1.519
 6940SOL    HW121719   1.159   6.286   1.426
 6940SOL    HW221720   1.279   6.352   1.515
 6941SOL     OW21721   3.778   2.929   2.188
 6941SOL    HW121722   3.852   2.997   2.189
 6941SOL    HW221723   3.816   2.838   2.198
 6942SOL     OW21724   6.981   4.893   2.840
 6942SOL    HW121725   6.968   4.964   2.910
 6942SOL    HW221726   0.006   4.815   2.881
 6943SOL     OW21727   3.137   5.431   5.257
 6943SOL    HW121728   3.184   5.371   5.193
 6943SOL    HW221729   3.045   5.452   5.223
 6944SOL     OW21730   0.615   4.924   5.686
 6944SOL    HW121731   0.700   4.876   5.669
 6944SOL    HW221732   0.620   5.016   5.647
 6945SOL     OW21733   4.160   1.950   0.821
 6945SOL    HW121734   4.092   2.005   0.870
 6945SOL    HW221735   4.127   1.934   0.728
 6946SOL     OW21736   5.758   5.440   3.840
 6946SOL    HW121737   5.667   5.474   3.815
 6946SOL    HW221738   5.823   5.516   3.836
 6947SOL     OW21739   6.475   3.666   5.520
 6947SOL    HW121740   6.427   3.694   5.437
 6947SOL    HW221741   6.411   3.619   5.581
 6948SOL     OW21742   0.036   5.306   6.616
 6948SOL    HW121743   7.012   5.247   6.550
 6948SOL    HW221744   0.060   5.392   6.571
 6949SOL     OW21745   2.427   1.265   3.129
 6949SOL    HW121746   2.362   1.333   3.163
 6949SOL    HW221747   2.423   1.183   3.187
 6950SOL     OW21748   1.762   1.527   4.688
 6950SOL    HW121749   1.772   1.428   4.702
 6950SOL    HW221750   1.757   1.546   4.590
 6951SOL     OW21751   1.246   3.722   0.243
 6951SOL    HW121752   1.321   3.717   0.177
 6951SOL    HW221753   1.206   3.813   0.241
 6952SOL     OW21754   4.112   4.781   3.358
 6952SOL    HW121755   4.023   4.782   3.312
 6952SOL    HW221756   4.099   4.760   3.455
 6953SOL     OW21757   0.643   0.744   2.043
 6953SOL    HW121758   0.693   0.775   2.124
 6953SOL    HW221759   0.545   0.753   2.059
 6954SOL     OW21760   6.371   5.318   5.989
 6954SOL    HW121761   6.430   5.238   5.997
 6954SOL    HW221762   6.297   5.299   5.924
 6955SOL     OW21763   3.991   5.519   2.646
 6955SOL    HW121764   4.067   5.457   2.626
 6955SOL    HW221765   3.907   5.483   2.606
 6956SOL     OW21766   6.000   4.933   2.810
 6956SOL    HW121767   6.082   4.980   2.778
 6956SOL    HW221768   5.920   4.971   2.764
 6957SOL     OW21769   5.896   4.005   5.415
 6957SOL    HW121770   5.923   4.099   5.435
 6957SOL    HW221771   5.950   3.970   5.338
 6958SOL     OW21772   3.536   3.901   1.632
 6958SOL    HW121773   3.459   3.852   1.674
 6958SOL    HW221774   3.500   3.973   1.573
 6959SOL     OW21775   0.502   3.119   3.081
 6959SOL    HW121776   0.444   3.040   3.062
 6959SOL    HW221777   0.593   3.104   3.042
 6960SOL     OW21778   5.142   4.458   1.282
 6960SOL    HW121779   5.194   4.443   1.366
 6960SOL    HW221780   5.104   4.371   1.251
 6961SOL     OW21781   5.088   2.422   4.277
 6961SOL    HW121782   5.114   2.401   4.183
 6961SOL    HW221783   5.140   2.364   4.340
 6962SOL     OW21784   2.514   6.829   0.839
 6962SOL    HW121785   2.521   6.730   0.848
 6962SOL    HW221786   2.459   6.866   0.914
 6963SOL     OW21787   1.107   6.714   6.679
 6963SOL    HW121788   1.008   6.703   6.684
 6963SOL    HW221789   1.131   6.764   6.596
 6964SOL     OW21790   2.115   1.002   5.720
 6964SOL    HW121791   2.150   0.982   5.628
 6964SOL    HW221792   2.146   1.093   5.748
 6965SOL     OW21793   1.804   1.387   0.232
 6965SOL    HW121794   1.731   1.335   0.275
 6965SOL    HW221795   1.796   1.381   0.133
 6966SOL     OW21796   1.235   6.514   0.884
 6966SOL    HW121797   1.250   6.552   0.975
 6966SOL    HW221798   1.246   6.415   0.886
 6967SOL     OW21799   3.763   6.849   6.730
 6967SOL    HW121800   3.747   6.767   6.675
 6967SOL    HW221801   3.717   6.927   6.687
 6968SOL     OW21802   4.065   0.523   2.466
 6968SOL    HW121803   4.105   0.574   2.543
 6968SOL    HW221804   4.027   0.588   2.400
 6969SOL     OW21805   1.436   3.068   2.968
 6969SOL    HW121806   1.357   3.009   2.955
 6969SOL    HW221807   1.444   3.131   2.891
 6970SOL     OW21808   3.603   5.864   6.093
 6970SOL    HW121809   3.582   5.931   6.022
 6970SOL    HW221810   3.682   5.810   6.066
 6971SOL     OW21811   0.033   4.209   0.171
 6971SOL    HW121812   6.962   4.237   0.148
 6971SOL    HW221813   0.046   4.113   0.144
 6972SOL     OW21814   5.924   3.903   1.380
 6972SOL    HW121815   5.987   3.892   1.302
 6972SOL    HW221816   5.955   3.980   1.435
 6973SOL     OW21817   0.736   1.406   3.139
 6973SOL    HW121818   0.723   1.446   3.048
 6973SOL    HW221819   0.718   1.476   3.208
 6974SOL     OW21820   3.998   3.570   3.054
 6974SOL    HW121821   3.928   3.515   3.009
 6974SOL    HW221822   4.030   3.523   3.136
 6975SOL     OW21823   3.211   5.244   5.066
 6975SOL    HW121824   3.299   5.197   5.057
 6975SOL    HW221825   3.142   5.179   5.098
 6976SOL     OW21826   4.935   4.693   5.915
 6976SOL    HW121827   4.851   4.747   5.917
 6976SOL    HW221828   4.925   4.619   5.848
 6977SOL     OW21829   4.010   4.796   2.352
 6977SOL    HW121830   4.080   4.865   2.330
 6977SOL    HW221831   3.932   4.807   2.291
 6978SOL     OW21832   0.985   3.426   1.564
 6978SOL    HW121833   0.985   3.485   1.484
 6978SOL    HW221834   1.061   3.361   1.558
 6979SOL     OW21835   0.913   3.924   2.592
 6979SOL    HW121836   0.848   3.859   2.553
 6979SOL    HW221837   0.983   3.875   2.643
 6980SOL     OW21838   2.418   4.466   3.269
 6980SOL    HW121839   2.506   4.512   3.284
 6980SOL    HW221840   2.346   4.535   3.258
 6981SOL     OW21841   4.157   3.033   6.981
 6981SOL    HW121842   4.152   3.131   6.965
 6981SOL    HW221843   4.217   3.015   0.037
 6982SOL     OW21844   6.781   6.727   1.844
 6982SOL    HW121845   6.682   6.725   1.838
 6982SOL    HW221846   6.811   6.816   1.878
 6983SOL     OW21847   6.794   0.710   3.999
 6983SOL    HW121848   6.800   0.642   4.072
 6983SOL    HW221849   6.713   0.690   3.943
 6984SOL     OW21850   1.603   4.291   3.742
 6984SOL    HW121851   1.536   4.350   3.697
 6984SOL    HW221852   1.574   4.195   3.735
 6985SOL     OW21853   5.464   3.443   1.162
 6985SOL    HW121854   5.373   3.463   1.197
 6985SOL    HW221855   5.475   3.486   1.073
 6986SOL     OW21856   4.031   5.975   5.173
 6986SOL    HW121857   4.026   5.998   5.076
 6986SOL    HW221858   4.012   5.878   5.186
 6987SOL     OW21859   0.083   1.308   6.722
 6987SOL    HW121860   0.110   1.241   6.653
 6987SOL    HW221861   0.143   1.388   6.717
 6988SOL     OW21862   1.349   0.664   6.060
 6988SOL    HW121863   1.369   0.677   5.963
 6988SOL    HW221864   1.425   0.697   6.115
 6989SOL     OW21865   0.657   3.227   2.273
 6989SOL    HW121866   0.652   3.225   2.373
 6989SOL    HW221867   0.729   3.289   2.244
 6990SOL     OW21868   3.747   5.174   6.635
 6990SOL    HW121869   3.742   5.200   6.731
 6990SOL    HW221870   3.662   5.198   6.589
 6991SOL     OW21871   5.418   4.058   3.624
 6991SOL    HW121872   5.479   4.075   3.547
 6991SOL    HW221873   5.342   4.124   3.623
 6992SOL     OW21874   1.991   5.345   6.066
 6992SOL    HW121875   1.938   5.430   6.065
 6992SOL    HW221876   2.089   5.366   6.057
 6993SOL     OW21877   4.264   2.354   1.618
 6993SOL    HW121878   4.288   2.268   1.574
 6993SOL    HW221879   4.315   2.364   1.704
 6994SOL     OW21880   2.929   0.843   3.188
 6994SOL    HW121881   3.013   0.791   3.168
 6994SOL    HW221882   2.862   0.782   3.231
 6995SOL     OW21883   0.005   5.140   0.752
 6995SOL    HW121884   0.077   5.202   0.782
 6995SOL    HW221885   7.016   5.147   0.653
 6996SOL     OW21886   1.300   1.721   6.348
 6996SOL    HW121887   1.343   1.647   6.399
 6996SOL    HW221888   1.334   1.722   6.254
 6997SOL     OW21889   6.005   6.108   5.897
 6997SOL    HW121890   6.002   6.207   5.883
 6997SOL    HW221891   5.958   6.085   5.982
 6998SOL     OW21892   0.314   1.116   6.745
 6998SOL    HW121893   0.320   1.139   6.648
 6998SOL    HW221894   0.378   1.042   6.767
 6999SOL     OW21895   0.433   2.861   6.986
 6999SOL    HW121896   0.448   2.958   7.005
 6999SOL    HW221897   0.361   2.826   0.024
 7000SOL     OW21898   0.775   4.933   3.050
 7000SOL    HW121899   0.679   4.959   3.058
 7000SOL    HW221900   0.782   4.834   3.035
 7001SOL     OW21901   0.924   1.042   4.061
 7001SOL    HW121902   0.901   1.003   4.150
 7001SOL    HW221903   0.997   0.989   4.018
 7002SOL     OW21904   1.450   4.746   3.143
 7002SOL    HW121905   1.518   4.703   3.083
 7002SOL    HW221906   1.442   4.692   3.227
 7003SOL     OW21907   0.452   5.272   6.418
 7003SOL    HW121908   0.433   5.174   6.409
 7003SOL    HW221909   0.372   5.324   6.388
 7004SOL     OW21910   1.378   0.868   6.936
 7004SOL    HW121911   1.364   0.964   6.960
 7004SOL    HW221912   1.293   0.828   6.902
 7005SOL     OW21913   1.515   5.231   0.321
 7005SOL    HW121914   1.593   5.168   0.324
 7005SOL    HW221915   1.436   5.183   0.283
 7006SOL     OW21916   0.659   0.306   3.814
 7006SOL    HW121917   0.696   0.266   3.898
 7006SOL    HW221918   0.569   0.345   3.831
 7007SOL     OW21919   2.144   6.446   6.340
 7007SOL    HW121920   2.129   6.450   6.438
 7007SOL    HW221921   2.188   6.359   6.317
 7008SOL     OW21922   5.831   3.039   2.606
 7008SOL    HW121923   5.775   3.092   2.670
 7008SOL    HW221924   5.847   3.092   2.523
 7009SOL     OW21925   5.655   5.513   2.394
 7009SOL    HW121926   5.660   5.539   2.298
 7009SOL    HW221927   5.742   5.472   2.422
 7010SOL     OW21928   5.417   2.420   3.000
 7010SOL    HW121929   5.483   2.429   2.926
 7010SOL    HW221930   5.343   2.359   2.971
 7011SOL     OW21931   2.311   5.818   6.525
 7011SOL    HW121932   2.251   5.803   6.446
 7011SOL    HW221933   2.397   5.857   6.494
 7012SOL     OW21934   0.504   3.997   0.365
 7012SOL    HW121935   0.569   3.936   0.411
 7012SOL    HW221936   0.538   4.091   0.368
 7013SOL     OW21937   2.607   2.598   6.940
 7013SOL    HW121938   2.672   2.669   6.916
 7013SOL    HW221939   2.521   2.640   6.970
 7014SOL     OW21940   6.605   3.539   0.779
 7014SOL    HW121941   6.538   3.571   0.712
 7014SOL    HW221942   6.596   3.441   0.792
 7015SOL     OW21943   5.918   6.248   1.531
 7015SOL    HW121944   5.889   6.177   1.466
 7015SOL    HW221945   5.964   6.321   1.482
 7016SOL     OW21946   3.177   5.522   1.151
 7016SOL    HW121947   3.087   5.506   1.193
 7016SOL    HW221948   3.240   5.450   1.181
 7017SOL     OW21949   6.072   4.171   6.581
 7017SOL    HW121950   6.014   4.146   6.658
 7017SOL    HW221951   6.144   4.233   6.612
 7018SOL     OW21952   6.203   3.021   4.479
 7018SOL    HW121953   6.127   3.077   4.512
 7018SOL    HW221954   6.258   3.073   4.414
 7019SOL     OW21955   3.366   6.260   2.795
 7019SOL    HW121956   3.448   6.271   2.739
 7019SOL    HW221957   3.318   6.177   2.767
 7020SOL     OW21958   6.714   1.879   0.826
 7020SOL    HW121959   6.724   1.785   0.795
 7020SOL    HW221960   6.716   1.882   0.926
 7021SOL     OW21961   0.498   2.217   4.631
 7021SOL    HW121962   0.447   2.303   4.625
 7021SOL    HW221963   0.497   2.171   4.542
 7022SOL     OW21964   1.847   4.018   0.993
 7022SOL    HW121965   1.871   3.922   1.011
 7022SOL    HW221966   1.796   4.054   1.071
 7023SOL     OW21967   6.783   2.141   1.023
 7023SOL    HW121968   6.741   2.105   1.106
 7023SOL    HW221969   6.719   2.130   0.946
 7024SOL     OW21970   3.435   4.165   5.435
 7024SOL    HW121971   3.343   4.202   5.444
 7024SOL    HW221972   3.502   4.234   5.464
 7025SOL     OW21973   3.428   0.836   0.927
 7025SOL    HW121974   3.334   0.867   0.941
 7025SOL    HW221975   3.429   0.740   0.901
 7026SOL     OW21976   2.935   2.480   1.518
 7026SOL    HW121977   2.942   2.416   1.442
 7026SOL    HW221978   3.006   2.551   1.509
 7027SOL     OW21979   2.490   4.195   0.580
 7027SOL    HW121980   2.446   4.250   0.651
 7027SOL    HW221981   2.587   4.184   0.600
 7028SOL     OW21982   2.999   0.556   2.352
 7028SOL    HW121983   2.983   0.654   2.343
 7028SOL    HW221984   3.065   0.526   2.283
 7029SOL     OW21985   3.326   3.862   3.332
 7029SOL    HW121986   3.316   3.823   3.424
 7029SOL    HW221987   3.415   3.836   3.295
 7030SOL     OW21988   5.396   0.006   5.050
 7030SOL    HW121989   5.396   7.012   5.149
 7030SOL    HW221990   5.409   6.941   5.002
 7031SOL     OW21991   5.893   4.919   0.213
 7031SOL    HW121992   5.907   4.904   0.311
 7031SOL    HW221993   5.976   4.960   0.173
 7032SOL     OW21994   3.791   4.918   4.006
 7032SOL    HW121995   3.861   4.989   4.012
 7032SOL    HW221996   3.714   4.941   4.066
 7033SOL     OW21997   2.235   1.967   5.432
 7033SOL    HW121998   2.159   2.021   5.396
 7033SOL    HW221999   2.321   2.017   5.419
 7034SOL     OW22000   6.258   2.611   2.453
 7034SOL    HW122001   6.280   2.524   2.409
 7034SOL    HW222002   6.207   2.594   2.538
 7035SOL     OW22003   3.956   2.608   1.037
 7035SOL    HW122004   3.979   2.690   0.984
 7035SOL    HW222005   3.884   2.557   0.990
 7036SOL     OW22006   6.948   1.593   1.795
 7036SOL    HW122007   7.020   1.634   1.851
 7036SOL    HW222008   6.887   1.538   1.853
 7037SOL     OW22009   0.477   1.394   5.825
 7037SOL    HW122010   0.391   1.444   5.836
 7037SOL    HW222011   0.499   1.385   5.728
 7038SOL     OW22012   0.967   4.020   0.471
 7038SOL    HW122013   0.872   4.004   0.497
 7038SOL    HW222014   0.973   4.107   0.422
 7039SOL     OW22015   6.809   0.400   1.719
 7039SOL    HW122016   6.849   0.486   1.686
 7039SOL    HW222017   6.744   0.420   1.792
 7040SOL     OW22018   4.865   3.304   4.698
 7040SOL    HW122019   4.922   3.364   4.754
 7040SOL    HW222020   4.769   3.315   4.724
 7041SOL     OW22021   0.911   6.873   2.820
 7041SOL    HW122022   0.973   6.795   2.807
 7041SOL    HW222023   0.868   6.867   2.910
 7042SOL     OW22024   5.060   5.382   4.961
 7042SOL    HW122025   5.014   5.393   4.873
 7042SOL    HW222026   5.134   5.448   4.969
 7043SOL     OW22027   2.099   6.052   0.481
 7043SOL    HW122028   2.166   6.053   0.407
 7043SOL    HW222029   2.015   6.096   0.452
 7044SOL     OW22030   4.418   6.538   4.966
 7044SOL    HW122031   4.355   6.543   4.888
 7044SOL    HW222032   4.494   6.602   4.951
 7045SOL     OW22033   5.279   0.052   1.610
 7045SOL    HW122034   5.321   0.120   1.670
 7045SOL    HW222035   5.271   0.089   1.517
 7046SOL     OW22036   2.793   1.236   2.523
 7046SOL    HW122037   2.846   1.160   2.560
 7046SOL    HW222038   2.727   1.267   2.591
 7047SOL     OW22039   1.618   0.036   0.755
 7047SOL    HW122040   1.716   0.022   0.741
 7047SOL    HW222041   1.583   6.991   0.821
 7048SOL     OW22042   0.523   5.509   4.499
 7048SOL    HW122043   0.542   5.434   4.562
 7048SOL    HW222044   0.459   5.573   4.541
 7049SOL     OW22045   2.500   1.369   4.816
 7049SOL    HW122046   2.493   1.458   4.772
 7049SOL    HW222047   2.544   1.379   4.905
 7050SOL     OW22048   4.157   4.689   0.418
 7050SOL    HW122049   4.118   4.780   0.433
 7050SOL    HW222050   4.093   4.619   0.450
 7051SOL     OW22051   2.017   1.055   2.132
 7051SOL    HW122052   2.066   1.122   2.188
 7051SOL    HW222053   2.075   1.027   2.055
 7052SOL     OW22054   5.084   2.099   2.834
 7052SOL    HW122055   5.080   2.180   2.891
 7052SOL    HW222056   5.166   2.102   2.777
 7053SOL     OW22057   0.639   4.446   3.602
 7053SOL    HW122058   0.612   4.437   3.506
 7053SOL    HW222059   0.567   4.410   3.661
 7054SOL     OW22060   5.437   6.720   0.787
 7054SOL    HW122061   5.417   6.624   0.767
 7054SOL    HW222062   5.426   6.773   0.703
 7055SOL     OW22063   1.895   0.337   6.831
 7055SOL    HW122064   1.962   0.409   6.810
 7055SOL    HW222065   1.815   0.347   6.772
 7056SOL     OW22066   0.083   5.500   1.297
 7056SOL    HW122067   0.018   5.424   1.289
 7056SOL    HW222068   0.075   5.559   1.217
 7057SOL     OW22069   3.089   5.427   4.872
 7057SOL    HW122070   2.999   5.415   4.914
 7057SOL    HW222071   3.122   5.339   4.838
 7058SOL     OW22072   5.886   2.840   5.650
 7058SOL    HW122073   5.889   2.859   5.552
 7058SOL    HW222074   5.846   2.750   5.665
 7059SOL     OW22075   1.669   0.900   4.539
 7059SOL    HW122076   1.655   0.998   4.553
 7059SOL    HW222077   1.652   0.852   4.625
 7060SOL     OW22078   2.680   2.263   1.193
 7060SOL    HW122079   2.756   2.308   1.241
 7060SOL    HW222080   2.672   2.169   1.226
 7061SOL     OW22081   1.784   0.261   1.164
 7061SOL    HW122082   1.808   0.313   1.246
 7061SOL    HW222083   1.686   0.266   1.149
 7062SOL     OW22084   3.616   0.898   5.366
 7062SOL    HW122085   3.675   0.969   5.327
 7062SOL    HW222086   3.614   0.908   5.466
 7063SOL     OW22087   0.092   1.125   1.325
 7063SOL    HW122088   0.071   1.184   1.247
 7063SOL    HW222089   0.187   1.139   1.352
 7064SOL     OW22090   2.696   1.796   5.218
 7064SOL    HW122091   2.766   1.821   5.151
 7064SOL    HW222092   2.682   1.872   5.281
 7065SOL     OW22093   3.340   6.872   3.641
 7065SOL    HW122094   3.359   6.776   3.662
 7065SOL    HW222095   3.281   6.911   3.711
 7066SOL     OW22096   3.862   0.757   1.439
 7066SOL    HW122097   3.798   0.720   1.372
 7066SOL    HW222098   3.889   0.850   1.412
 7067SOL     OW22099   2.630   4.536   6.146
 7067SOL    HW122100   2.690   4.472   6.194
 7067SOL    HW222101   2.669   4.558   6.057
 7068SOL     OW22102   4.548   4.819   2.304
 7068SOL    HW122103   4.571   4.727   2.337
 7068SOL    HW222104   4.477   4.812   2.234
 7069SOL     OW22105   3.669   1.339   5.310
 7069SOL    HW122106   3.758   1.385   5.311
 7069SOL    HW222107   3.604   1.393   5.256
 7070SOL     OW22108   0.310   1.500   5.124
 7070SOL    HW122109   0.300   1.473   5.029
 7070SOL    HW222110   0.281   1.425   5.184
 7071SOL     OW22111   4.460   5.672   6.984
 7071SOL    HW122112   4.388   5.639   6.923
 7071SOL    HW222113   4.548   5.636   6.953
 7072SOL     OW22114   1.133   3.808   6.008
 7072SOL    HW122115   1.193   3.762   6.075
 7072SOL    HW222116   1.180   3.889   5.973
 7073SOL     OW22117   3.983   1.265   3.915
 7073SOL    HW122118   4.032   1.178   3.913
 7073SOL    HW222119   3.997   1.308   4.005
 7074SOL     OW22120   5.780   3.115   2.111
 7074SOL    HW122121   5.717   3.162   2.049
 7074SOL    HW222122   5.807   3.027   2.072
 7075SOL     OW22123   1.881   4.977   2.462
 7075SOL    HW122124   1.937   4.918   2.404
 7075SOL    HW222125   1.789   4.983   2.423
 7076SOL     OW22126   5.878   2.726   0.517
 7076SOL    HW122127   5.816   2.669   0.464
 7076SOL    HW222128   5.966   2.679   0.528
 7077SOL     OW22129   3.213   5.872   2.279
 7077SOL    HW122130   3.145   5.848   2.348
 7077SOL    HW222131   3.241   5.967   2.292
 7078SOL     OW22132   0.094   1.801   6.900
 7078SOL    HW122133   0.161   1.849   6.956
 7078SOL    HW222134   0.065   1.717   6.946
 7079SOL     OW22135   2.673   5.383   5.452
 7079SOL    HW122136   2.745   5.368   5.519
 7079SOL    HW222137   2.610   5.305   5.452
 7080SOL     OW22138   3.925   2.060   6.406
 7080SOL    HW122139   3.851   1.994   6.411
 7080SOL    HW222140   3.905   2.137   6.467
 7081SOL     OW22141   2.965   6.502   6.487
 7081SOL    HW122142   3.040   6.524   6.425
 7081SOL    HW222143   2.905   6.435   6.444
 7082SOL     OW22144   1.703   4.870   2.159
 7082SOL    HW122145   1.627   4.908   2.210
 7082SOL    HW222146   1.788   4.915   2.187
 7083SOL     OW22147   5.851   2.732   2.628
 7083SOL    HW122148   5.783   2.671   2.587
 7083SOL    HW222149   5.810   2.822   2.644
 7084SOL     OW22150   1.181   5.427   6.963
 7084SOL    HW122151   1.191   5.330   6.944
 7084SOL    HW222152   1.200   5.480   6.880
 7085SOL     OW22153   0.237   3.311   2.270
 7085SOL    HW122154   0.230   3.400   2.226
 7085SOL    HW222155   0.152   3.291   2.318
 7086SOL     OW22156   4.248   1.100   3.685
 7086SOL    HW122157   4.273   1.184   3.638
 7086SOL    HW222158   4.319   1.075   3.751
 7087SOL     OW22159   6.076   2.916   3.757
 7087SOL    HW122160   6.141   2.974   3.806
 7087SOL    HW222161   6.098   2.820   3.775
 7088SOL     OW22162   6.203   1.899   5.265
 7088SOL    HW122163   6.158   1.880   5.352
 7088SOL    HW222164   6.296   1.931   5.282
 7089SOL     OW22165   3.506   6.365   1.932
 7089SOL    HW122166   3.436   6.385   1.863
 7089SOL    HW222167   3.552   6.279   1.909
 7090SOL     OW22168   5.572   3.434   1.570
 7090SOL    HW122169   5.502   3.465   1.506
 7090SOL    HW222170   5.659   3.424   1.522
 7091SOL     OW22171   5.678   0.271   6.733
 7091SOL    HW122172   5.735   0.352   6.732
 7091SOL    HW222173   5.587   0.294   6.698
 7092SOL     OW22174   4.077   6.853   6.475
 7092SOL    HW122175   4.053   6.767   6.518
 7092SOL    HW222176   4.048   6.930   6.533
 7093SOL     OW22177   4.184   3.238   0.158
 7093SOL    HW122178   4.087   3.216   0.167
 7093SOL    HW222179   4.236   3.190   0.228
 7094SOL     OW22180   4.297   1.052   4.904
 7094SOL    HW122181   4.328   1.103   4.984
 7094SOL    HW222182   4.222   1.101   4.860
 7095SOL     OW22183   2.341   4.789   3.507
 7095SOL    HW122184   2.394   4.870   3.482
 7095SOL    HW222185   2.354   4.770   3.604
 7096SOL     OW22186   0.251   5.672   0.182
 7096SOL    HW122187   0.324   5.675   0.250
 7096SOL    HW222188   0.290   5.650   0.092
 7097SOL     OW22189   4.626   2.101   3.044
 7097SOL    HW122190   4.706   2.041   3.046
 7097SOL    HW222191   4.557   2.062   2.982
 7098SOL     OW22192   0.906   1.078   2.355
 7098SOL    HW122193   0.906   1.171   2.317
 7098SOL    HW222194   0.841   1.074   2.431
 7099SOL     OW22195   2.786   1.442   4.561
 7099SOL    HW122196   2.744   1.510   4.501
 7099SOL    HW222197   2.873   1.477   4.595
 7100SOL     OW22198   0.306   4.458   1.516
 7100SOL    HW122199   0.349   4.519   1.451
 7100SOL    HW222200   0.348   4.367   1.509
 7101SOL     OW22201   2.912   6.066   4.427
 7101SOL    HW122202   2.949   6.004   4.496
 7101SOL    HW222203   2.902   6.158   4.466
 7102SOL     OW22204   5.301   1.876   2.437
 7102SOL    HW122205   5.368   1.924   2.381
 7102SOL    HW222206   5.220   1.857   2.383
 7103SOL     OW22207   6.619   3.584   4.970
 7103SOL    HW122208   6.661   3.640   5.041
 7103SOL    HW222209   6.630   3.487   4.993
 7104SOL     OW22210   4.335   2.378   4.186
 7104SOL    HW122211   4.313   2.414   4.277
 7104SOL    HW222212   4.254   2.333   4.148
 7105SOL     OW22213   3.275   3.747   1.993
 7105SOL    HW122214   3.220   3.667   2.018
 7105SOL    HW222215   3.320   3.783   2.075
 7106SOL     OW22216   2.199   2.271   2.482
 7106SOL    HW122217   2.264   2.217   2.535
 7106SOL    HW222218   2.160   2.343   2.539
 7107SOL     OW22219   3.905   0.370   0.621
 7107SOL    HW122220   3.968   0.444   0.600
 7107SOL    HW222221   3.949   0.282   0.601
 7108SOL     OW22222   3.123   6.899   1.891
 7108SOL    HW122223   3.202   6.936   1.940
 7108SOL    HW222224   3.040   6.919   1.942
 7109SOL     OW22225   2.358   5.069   6.015
 7109SOL    HW122226   2.343   5.089   5.918
 7109SOL    HW222227   2.423   4.994   6.024
 7110SOL     OW22228   2.821   5.608   5.858
 7110SOL    HW122229   2.828   5.696   5.905
 7110SOL    HW222230   2.738   5.606   5.803
 7111SOL     OW22231   6.245   2.018   4.257
 7111SOL    HW122232   6.229   1.952   4.331
 7111SOL    HW222233   6.307   2.089   4.289
 7112SOL     OW22234   6.349   5.044   4.606
 7112SOL    HW122235   6.419   5.012   4.670
 7112SOL    HW222236   6.390   5.059   4.516
 7113SOL     OW22237   2.863   6.883   5.107
 7113SOL    HW122238   2.894   6.943   5.034
 7113SOL    HW222239   2.773   6.846   5.084
 7114SOL     OW22240   6.212   4.254   0.329
 7114SOL    HW122241   6.303   4.283   0.300
 7114SOL    HW222242   6.200   4.272   0.427
 7115SOL     OW22243   5.215   2.564   6.231
 7115SOL    HW122244   5.184   2.656   6.256
 7115SOL    HW222245   5.311   2.552   6.259
 7116SOL     OW22246   6.054   5.152   4.589
 7116SOL    HW122247   6.022   5.176   4.680
 7116SOL    HW222248   6.136   5.095   4.597
 7117SOL     OW22249   3.175   0.549   2.899
 7117SOL    HW122250   3.141   0.524   2.808
 7117SOL    HW222251   3.202   0.466   2.948
 7118SOL     OW22252   5.100   4.372   5.516
 7118SOL    HW122253   5.192   4.372   5.476
 7118SOL    HW222254   5.101   4.422   5.603
 7119SOL     OW22255   2.378   6.618   4.263
 7119SOL    HW122256   2.360   6.683   4.189
 7119SOL    HW222257   2.356   6.526   4.233
 7120SOL     OW22258   4.370   1.777   2.372
 7120SOL    HW122259   4.392   1.841   2.446
 7120SOL    HW222260   4.325   1.696   2.410
 7121SOL     OW22261   1.690   6.092   2.305
 7121SOL    HW122262   1.670   6.025   2.377
 7121SOL    HW222263   1.684   6.184   2.343
 7122SOL     OW22264   2.754   2.431   6.686
 7122SOL    HW122265   2.675   2.491   6.676
 7122SOL    HW222266   2.744   2.374   6.768
 7123SOL     OW22267   5.145   3.971   6.925
 7123SOL    HW122268   5.112   3.892   6.978
 7123SOL    HW222269   5.245   3.966   6.917
 7124SOL     OW22270   3.125   2.935   6.317
 7124SOL    HW122271   3.065   2.859   6.343
 7124SOL    HW222272   3.090   2.977   6.233
 7125SOL     OW22273   0.946   5.999   1.484
 7125SOL    HW122274   0.944   6.078   1.544
 7125SOL    HW222275   0.855   5.957   1.481
 7126SOL     OW22276   3.881   5.276   0.754
 7126SOL    HW122277   3.919   5.301   0.665
 7126SOL    HW222278   3.951   5.289   0.825
 7127SOL     OW22279   2.562   0.003   5.006
 7127SOL    HW122280   2.622   6.967   4.951
 7127SOL    HW222281   2.507   0.061   4.946
 7128SOL     OW22282   4.338   3.719   0.414
 7128SOL    HW122283   4.298   3.797   0.365
 7128SOL    HW222284   4.264   3.661   0.449
 7129SOL     OW22285   6.817   1.429   0.493
 7129SOL    HW122286   6.867   1.495   0.549
 7129SOL    HW222287   6.880   1.360   0.459
 7130SOL     OW22288   3.693   6.876   3.837
 7130SOL    HW122289   3.736   6.958   3.874
 7130SOL    HW222290   3.763   6.810   3.810
 7131SOL     OW22291   2.207   2.050   2.934
 7131SOL    HW122292   2.110   2.069   2.924
 7131SOL    HW222293   2.223   1.988   3.010
 7132SOL     OW22294   5.004   5.083   2.222
 7132SOL    HW122295   5.062   5.031   2.158
 7132SOL    HW222296   4.911   5.048   2.217
 7133SOL     OW22297   3.273   6.180   2.294
 7133SOL    HW122298   3.209   6.187   2.218
 7133SOL    HW222299   3.367   6.190   2.260
 7134SOL     OW22300   5.510   5.026   6.759
 7134SOL    HW122301   5.525   5.000   6.854
 7134SOL    HW222302   5.575   5.099   6.734
 7135SOL     OW22303   2.254   5.263   0.958
 7135SOL    HW122304   2.312   5.335   0.995
 7135SOL    HW222305   2.291   5.233   0.870
 7136SOL     OW22306   1.290   2.887   2.735
 7136SOL    HW122307   1.217   2.955   2.740
 7136SOL    HW222308   1.309   2.867   2.639
 7137SOL     OW22309   1.664   6.917   1.979
 7137SOL    HW122310   1.679   6.979   2.056
 7137SOL    HW222311   1.696   6.825   2.004
 7138SOL     OW22312   6.539   4.076   0.355
 7138SOL    HW122313   6.529   4.169   0.320
 7138SOL    HW222314   6.507   4.073   0.450
 7139SOL     OW22315   5.774   5.709   0.711
 7139SOL    HW122316   5.758   5.625   0.660
 7139SOL    HW222317   5.750   5.788   0.655
 7140SOL     OW22318   6.805   4.386   0.221
 7140SOL    HW122319   6.756   4.385   0.308
 7140SOL    HW222320   6.746   4.348   0.150
 7141SOL     OW22321   2.491   2.417   0.191
 7141SOL    HW122322   2.509   2.437   0.287
 7141SOL    HW222323   2.447   2.496   0.148
 7142SOL     OW22324   4.074   0.053   5.757
 7142SOL    HW122325   4.112   0.145   5.767
 7142SOL    HW222326   4.035   0.043   5.665
 7143SOL     OW22327   3.250   3.024   5.661
 7143SOL    HW122328   3.320   2.968   5.705
 7143SOL    HW222329   3.174   2.965   5.631
 7144SOL     OW22330   6.404   1.827   6.072
 7144SOL    HW122331   6.345   1.841   5.993
 7144SOL    HW222332   6.351   1.838   6.156
 7145SOL     OW22333   0.350   2.916   0.322
 7145SOL    HW122334   0.289   2.965   0.260
 7145SOL    HW222335   0.355   2.820   0.295
 7146SOL     OW22336   6.810   1.209   4.301
 7146SOL    HW122337   6.712   1.200   4.281
 7146SOL    HW222338   6.847   1.120   4.326
 7147SOL     OW22339   6.754   0.359   7.004
 7147SOL    HW122340   6.681   0.338   0.046
 7147SOL    HW222341   6.840   0.374   0.031
 7148SOL     OW22342   5.578   6.412   1.006
 7148SOL    HW122343   5.642   6.384   0.934
 7148SOL    HW222344   5.626   6.415   1.094
 7149SOL     OW22345   6.766   3.666   6.754
 7149SOL    HW122346   6.727   3.575   6.771
 7149SOL    HW222347   6.791   3.673   6.657
 7150SOL     OW22348   2.578   2.167   0.146
 7150SOL    HW122349   2.574   2.147   0.047
 7150SOL    HW222350   2.567   2.265   0.161
 7151SOL     OW22351   5.624   2.672   0.118
 7151SOL    HW122352   5.712   2.631   0.095
 7151SOL    HW222353   5.618   2.685   0.217
 7152SOL     OW22354   5.925   0.942   5.026
 7152SOL    HW122355   5.926   0.930   5.125
 7152SOL    HW222356   6.003   0.999   4.998
 7153SOL     OW22357   5.536   5.616   0.210
 7153SOL    HW122358   5.454   5.622   0.267
 7153SOL    HW222359   5.519   5.662   0.122
 7154SOL     OW22360   4.835   0.018   2.211
 7154SOL    HW122361   4.756   0.064   2.252
 7154SOL    HW222362   4.918   0.043   2.261
 7155SOL     OW22363   1.625   0.012   1.180
 7155SOL    HW122364   1.551   0.061   1.135
 7155SOL    HW222365   1.709   0.067   1.176
 7156SOL     OW22366   6.477   3.042   5.379
 7156SOL    HW122367   6.424   3.090   5.449
 7156SOL    HW222368   6.474   3.094   5.293
 7157SOL     OW22369   6.975   3.479   6.090
 7157SOL    HW122370   6.953   3.446   5.998
 7157SOL    HW222371   7.014   3.404   6.144
 7158SOL     OW22372   4.891   6.743   3.910
 7158SOL    HW122373   4.948   6.702   3.982
 7158SOL    HW222374   4.899   6.843   3.915
 7159SOL     OW22375   0.786   6.752   3.482
 7159SOL    HW122376   0.820   6.810   3.408
 7159SOL    HW222377   0.686   6.754   3.483
 7160SOL     OW22378   5.938   6.411   2.128
 7160SOL    HW122379   6.028   6.452   2.143
 7160SOL    HW222380   5.944   6.312   2.137
 7161SOL     OW22381   3.806   3.063   1.802
 7161SOL    HW122382   3.739   3.059   1.876
 7161SOL    HW222383   3.898   3.069   1.840
 7162SOL     OW22384   0.884   6.258   0.261
 7162SOL    HW122385   0.898   6.165   0.295
 7162SOL    HW222386   0.963   6.285   0.205
 7163SOL     OW22387   6.969   6.172   6.757
 7163SOL    HW122388   0.025   6.211   6.708
 7163SOL    HW222389   6.998   6.141   6.848
 7164SOL     OW22390   0.631   5.986   6.757
 7164SOL    HW122391   0.706   5.956   6.698
 7164SOL    HW222392   0.663   5.992   6.852
 7165SOL     OW22393   4.155   2.504   6.216
 7165SOL    HW122394   4.127   2.511   6.120
 7165SOL    HW222395   4.118   2.420   6.255
 7166SOL     OW22396   0.015   6.561   5.422
 7166SOL    HW122397   0.044   6.474   5.463
 7166SOL    HW222398   6.963   6.544   5.358
 7167SOL     OW22399   0.508   3.759   5.723
 7167SOL    HW122400   0.422   3.773   5.675
 7167SOL    HW222401   0.557   3.846   5.730
 7168SOL     OW22402   0.405   6.610   2.228
 7168SOL    HW122403   0.447   6.682   2.283
 7168SOL    HW222404   0.477   6.557   2.182
 7169SOL     OW22405   1.626   4.758   5.280
 7169SOL    HW122406   1.556   4.766   5.208
 7169SOL    HW222407   1.689   4.684   5.257
 7170SOL     OW22408   4.150   2.246   2.063
 7170SOL    HW122409   4.060   2.255   2.020
 7170SOL    HW222410   4.205   2.181   2.010
 7171SOL     OW22411   0.166   5.638   1.939
 7171SOL    HW122412   0.070   5.632   1.968
 7171SOL    HW222413   0.224   5.589   2.005
 7172SOL     OW22414   1.370   3.108   3.852
 7172SOL    HW122415   1.334   3.107   3.945
 7172SOL    HW222416   1.465   3.138   3.853
 7173SOL     OW22417   3.270   5.263   4.578
 7173SOL    HW122418   3.354   5.278   4.526
 7173SOL    HW222419   3.210   5.342   4.569
 7174SOL     OW22420   6.922   3.728   2.633
 7174SOL    HW122421   6.951   3.739   2.538
 7174SOL    HW222422   6.992   3.765   2.694
 7175SOL     OW22423   5.899   2.963   5.931
 7175SOL    HW122424   5.833   2.912   5.986
 7175SOL    HW222425   5.891   2.934   5.835
 7176SOL     OW22426   6.595   2.281   6.506
 7176SOL    HW122427   6.516   2.293   6.566
 7176SOL    HW222428   6.565   2.279   6.411
 7177SOL     OW22429   1.441   5.781   4.084
 7177SOL    HW122430   1.446   5.735   3.995
 7177SOL    HW222431   1.346   5.786   4.113
 7178SOL     OW22432   0.894   6.270   5.585
 7178SOL    HW122433   0.883   6.340   5.656
 7178SOL    HW222434   0.883   6.313   5.495
 7179SOL     OW22435   5.339   4.694   5.412
 7179SOL    HW122436   5.392   4.748   5.347
 7179SOL    HW222437   5.242   4.700   5.388
 7180SOL     OW22438   6.914   2.217   2.447
 7180SOL    HW122439   6.851   2.201   2.370
 7180SOL    HW222440   6.982   2.145   2.450
 7181SOL     OW22441   3.327   0.405   0.244
 7181SOL    HW122442   3.410   0.439   0.288
 7181SOL    HW222443   3.321   0.306   0.257
 7182SOL     OW22444   1.810   0.858   2.251
 7182SOL    HW122445   1.724   0.876   2.204
 7182SOL    HW222446   1.882   0.915   2.212
 7183SOL     OW22447   1.965   6.904   0.920
 7183SOL    HW122448   1.956   6.999   0.950
 7183SOL    HW222449   1.949   6.843   0.998
 7184SOL     OW22450   6.801   1.409   3.196
 7184SOL    HW122451   6.746   1.396   3.113
 7184SOL    HW222452   6.769   1.345   3.266
 7185SOL     OW22453   3.629   0.169   3.557
 7185SOL    HW122454   3.581   0.121   3.630
 7185SOL    HW222455   3.608   0.125   3.469
 7186SOL     OW22456   6.390   2.549   0.011
 7186SOL    HW122457   6.298   2.570   0.044
 7186SOL    HW222458   6.443   2.633   0.007
 7187SOL     OW22459   2.980   3.865   4.007
 7187SOL    HW122460   2.919   3.934   3.968
 7187SOL    HW222461   2.977   3.783   3.950
 7188SOL     OW22462   4.545   5.062   0.189
 7188SOL    HW122463   4.580   5.017   0.107
 7188SOL    HW222464   4.478   5.003   0.233
 7189SOL     OW22465   6.918   1.998   5.934
 7189SOL    HW122466   6.827   2.022   5.969
 7189SOL    HW222467   6.920   1.901   5.910
 7190SOL     OW22468   5.768   5.438   0.584
 7190SOL    HW122469   5.799   5.434   0.488
 7190SOL    HW222470   5.669   5.447   0.586
 7191SOL     OW22471   0.272   5.052   2.713
 7191SOL    HW122472   0.347   5.117   2.700
 7191SOL    HW222473   0.189   5.087   2.671
 7192SOL     OW22474   3.335   3.850   5.892
 7192SOL    HW122475   3.346   3.950   5.897
 7192SOL    HW222476   3.420   3.809   5.862
 7193SOL     OW22477   3.550   1.079   4.274
 7193SOL    HW122478   3.521   1.152   4.213
 7193SOL    HW222479   3.564   1.115   4.366
 7194SOL     OW22480   3.577   2.389   5.339
 7194SOL    HW122481   3.586   2.386   5.439
 7194SOL    HW222482   3.520   2.467   5.313
 7195SOL     OW22483   6.230   4.172   5.481
 7195SOL    HW122484   6.268   4.114   5.409
 7195SOL    HW222485   6.282   4.158   5.566
 7196SOL     OW22486   3.008   4.289   1.659
 7196SOL    HW122487   3.058   4.335   1.586
 7196SOL    HW222488   2.969   4.357   1.721
 7197SOL     OW22489   3.647   4.380   6.411
 7197SOL    HW122490   3.590   4.339   6.482
 7197SOL    HW222491   3.709   4.311   6.374
 7198SOL     OW22492   1.188   6.514   2.375
 7198SOL    HW122493   1.124   6.447   2.336
 7198SOL    HW222494   1.202   6.588   2.309
 7199SOL     OW22495   6.111   1.056   3.579
 7199SOL    HW122496   6.156   0.981   3.628
 7199SOL    HW222497   6.081   1.125   3.645
 7200SOL     OW22498   0.924   3.972   6.188
 7200SOL    HW122499   0.891   3.909   6.258
 7200SOL    HW222500   0.929   3.924   6.100
 7201SOL     OW22501   5.710   5.787   5.031
 7201SOL    HW122502   5.642   5.745   4.972
 7201SOL    HW222503   5.664   5.844   5.100
 7202SOL     OW22504   4.566   0.017   5.589
 7202SOL    HW122505   4.550   6.973   5.515
 7202SOL    HW222506   4.500   0.001   5.662
 7203SOL     OW22507   0.993   1.417   0.372
 7203SOL    HW122508   0.985   1.360   0.453
 7203SOL    HW222509   0.901   1.446   0.343
 7204SOL     OW22510   5.318   0.726   2.987
 7204SOL    HW122511   5.394   0.758   3.044
 7204SOL    HW222512   5.348   0.650   2.930
 7205SOL     OW22513   2.705   1.185   3.939
 7205SOL    HW122514   2.721   1.123   4.016
 7205SOL    HW222515   2.610   1.176   3.909
 7206SOL     OW22516   1.865   2.548   6.557
 7206SOL    HW122517   1.932   2.622   6.552
 7206SOL    HW222518   1.846   2.514   6.465
 7207SOL     OW22519   1.828   2.566   3.120
 7207SOL    HW122520   1.845   2.476   3.080
 7207SOL    HW222521   1.846   2.563   3.218
 7208SOL     OW22522   2.733   0.215   3.457
 7208SOL    HW122523   2.655   0.254   3.408
 7208SOL    HW222524   2.811   0.208   3.396
 7209SOL     OW22525   4.514   0.922   1.965
 7209SOL    HW122526   4.440   0.863   1.996
 7209SOL    HW222527   4.475   1.005   1.923
 7210SOL     OW22528   3.162   1.192   4.842
 7210SOL    HW122529   3.229   1.257   4.877
 7210SOL    HW222530   3.140   1.214   4.747
 7211SOL     OW22531   4.741   5.860   6.253
 7211SOL    HW122532   4.684   5.874   6.172
 7211SOL    HW222533   4.723   5.769   6.290
 7212SOL     OW22534   0.082   5.850   3.960
 7212SOL    HW122535   0.163   5.855   3.901
 7212SOL    HW222536   0.075   5.758   3.999
 7213SOL     OW22537   5.143   2.859   0.234
 7213SOL    HW122538   5.122   2.875   0.138
 7213SOL    HW222539   5.232   2.897   0.256
 7214SOL     OW22540   6.638   1.682   5.937
 7214SOL    HW122541   6.730   1.720   5.940
 7214SOL    HW222542   6.577   1.737   5.994
 7215SOL     OW22543   6.330   1.026   2.430
 7215SOL    HW122544   6.253   0.991   2.376
 7215SOL    HW222545   6.337   0.974   2.515
 7216SOL     OW22546   5.578   6.242   3.806
 7216SOL    HW122547   5.659   6.185   3.822
 7216SOL    HW222548   5.568   6.307   3.881
 7217SOL     OW22549   0.780   3.336   3.074
 7217SOL    HW122550   0.874   3.357   3.046
 7217SOL    HW222551   0.757   3.242   3.048
 7218SOL     OW22552   6.582   2.785   5.413
 7218SOL    HW122553   6.542   2.876   5.398
 7218SOL    HW222554   6.668   2.778   5.363
 7219SOL     OW22555   3.644   5.901   0.999
 7219SOL    HW122556   3.599   5.982   0.961
 7219SOL    HW222557   3.591   5.819   0.974
 7220SOL     OW22558   0.054   3.493   3.758
 7220SOL    HW122559   6.981   3.463   3.764
 7220SOL    HW222560   0.114   3.421   3.793
 7221SOL     OW22561   4.825   4.757   3.661
 7221SOL    HW122562   4.749   4.700   3.692
 7221SOL    HW222563   4.840   4.831   3.726
 7222SOL     OW22564   6.443   6.057   3.681
 7222SOL    HW122565   6.445   5.992   3.756
 7222SOL    HW222566   6.355   6.104   3.679
 7223SOL     OW22567   6.466   5.439   1.305
 7223SOL    HW122568   6.516   5.449   1.391
 7223SOL    HW222569   6.451   5.529   1.265
 7224SOL     OW22570   5.659   2.621   2.449
 7224SOL    HW122571   5.627   2.538   2.403
 7224SOL    HW222572   5.717   2.673   2.387
 7225SOL     OW22573   1.192   5.304   0.562
 7225SOL    HW122574   1.154   5.307   0.655
 7225SOL    HW222575   1.205   5.209   0.535
 7226SOL     OW22576   6.539   6.672   0.274
 7226SOL    HW122577   6.481   6.723   0.211
 7226SOL    HW222578   6.560   6.582   0.234
 7227SOL     OW22579   2.185   0.971   1.925
 7227SOL    HW122580   2.150   0.881   1.900
 7227SOL    HW222581   2.281   0.979   1.898
 7228SOL     OW22582   6.605   3.558   2.919
 7228SOL    HW122583   6.607   3.631   2.987
 7228SOL    HW222584   6.673   3.488   2.944
 7229SOL     OW22585   5.935   6.963   5.215
 7229SOL    HW122586   5.969   6.905   5.289
 7229SOL    HW222587   6.010   6.984   5.152
 7230SOL     OW22588   2.343   5.003   5.428
 7230SOL    HW122589   2.351   4.924   5.367
 7230SOL    HW222590   2.309   4.973   5.517
 7231SOL     OW22591   3.711   3.614   6.844
 7231SOL    HW122592   3.808   3.636   6.853
 7231SOL    HW222593   3.662   3.646   6.925
 7232SOL     OW22594   4.496   6.006   3.289
 7232SOL    HW122595   4.514   6.058   3.372
 7232SOL    HW222596   4.561   5.930   3.282
 7233SOL     OW22597   0.518   1.828   6.678
 7233SOL    HW122598   0.578   1.905   6.657
 7233SOL    HW222599   0.558   1.743   6.645
 7234SOL     OW22600   5.412   4.903   3.447
 7234SOL    HW122601   5.440   4.999   3.442
 7234SOL    HW222602   5.313   4.897   3.432
 7235SOL     OW22603   6.943   0.339   1.110
 7235SOL    HW122604   6.971   0.402   1.038
 7235SOL    HW222605   6.881   0.270   1.072
 7236SOL     OW22606   0.613   3.850   2.770
 7236SOL    HW122607   0.650   3.820   2.683
 7236SOL    HW222608   0.513   3.841   2.768
 7237SOL     OW22609   4.983   1.074   0.335
 7237SOL    HW122610   5.077   1.080   0.368
 7237SOL    HW222611   4.980   1.017   0.253
 7238SOL     OW22612   4.859   3.419   0.427
 7238SOL    HW122613   4.821   3.346   0.484
 7238SOL    HW222614   4.913   3.379   0.353
 7239SOL     OW22615   6.205   3.037   2.334
 7239SOL    HW122616   6.162   2.952   2.365
 7239SOL    HW222617   6.297   3.016   2.299
 7240SOL     OW22618   0.522   2.099   0.406
 7240SOL    HW122619   0.585   2.148   0.466
 7240SOL    HW222620   0.532   2.001   0.421
 7241SOL     OW22621   2.064   0.569   2.820
 7241SOL    HW122622   2.132   0.621   2.767
 7241SOL    HW222623   2.103   0.481   2.846
 7242SOL     OW22624   6.533   3.909   6.319
 7242SOL    HW122625   6.611   3.936   6.375
 7242SOL    HW222626   6.551   3.931   6.223
 7243SOL     OW22627   5.987   4.875   6.255
 7243SOL    HW122628   6.071   4.914   6.292
 7243SOL    HW222629   5.920   4.948   6.240
 7244SOL     OW22630   6.641   5.941   0.201
 7244SOL    HW122631   6.674   5.889   0.122
 7244SOL    HW222632   6.689   5.910   0.283
 7245SOL     OW22633   2.049   2.668   0.245
 7245SOL    HW122634   2.050   2.590   0.182
 7245SOL    HW222635   2.026   2.636   0.337
 7246SOL     OW22636   4.737   0.216   4.590
 7246SOL    HW122637   4.730   0.119   4.567
 7246SOL    HW222638   4.834   0.241   4.599
 7247SOL     OW22639   3.506   4.165   4.531
 7247SOL    HW122640   3.469   4.107   4.459
 7247SOL    HW222641   3.594   4.203   4.502
 7248SOL     OW22642   2.351   2.266   4.763
 7248SOL    HW122643   2.257   2.279   4.794
 7248SOL    HW222644   2.384   2.350   4.720
 7249SOL     OW22645   3.404   5.675   2.966
 7249SOL    HW122646   3.349   5.684   3.049
 7249SOL    HW222647   3.428   5.766   2.932
 7250SOL     OW22648   5.073   5.686   5.179
 7250SOL    HW122649   5.034   5.772   5.212
 7250SOL    HW222650   5.021   5.610   5.218
 7251SOL     OW22651   0.340   5.804   4.232
 7251SOL    HW122652   0.275   5.868   4.190
 7251SOL    HW222653   0.420   5.793   4.173
 7252SOL     OW22654   3.832   4.224   1.579
 7252SOL    HW122655   3.823   4.168   1.662
 7252SOL    HW222656   3.751   4.283   1.570
 7253SOL     OW22657   1.322   5.044   5.683
 7253SOL    HW122658   1.239   5.099   5.696
 7253SOL    HW222659   1.345   5.040   5.586
 7254SOL     OW22660   0.004   3.764   3.749
 7254SOL    HW122661   0.016   3.665   3.749
 7254SOL    HW222662   0.016   3.798   3.842
 7255SOL     OW22663   4.637   3.796   0.797
 7255SOL    HW122664   4.550   3.762   0.759
 7255SOL    HW222665   4.658   3.885   0.756
 7256SOL     OW22666   3.153   0.020   4.434
 7256SOL    HW122667   3.252   0.012   4.431
 7256SOL    HW222668   3.118   7.000   4.518
 7257SOL     OW22669   0.882   1.592   4.941
 7257SOL    HW122670   0.899   1.577   5.039
 7257SOL    HW222671   0.851   1.686   4.927
 7258SOL     OW22672   6.613   1.895   2.812
 7258SOL    HW122673   6.545   1.960   2.781
 7258SOL    HW222674   6.593   1.868   2.906
 7259SOL     OW22675   1.433   3.825   2.360
 7259SOL    HW122676   1.469   3.884   2.433
 7259SOL    HW222677   1.334   3.818   2.369
 7260SOL     OW22678   5.995   2.785   1.037
 7260SOL    HW122679   5.946   2.819   0.957
 7260SOL    HW222680   6.022   2.862   1.095
 7261SOL     OW22681   0.084   4.339   6.834
 7261SOL    HW122682   0.165   4.282   6.825
 7261SOL    HW222683   0.032   4.336   6.748
 7262SOL     OW22684   3.212   0.464   5.214
 7262SOL    HW122685   3.174   0.428   5.299
 7262SOL    HW222686   3.204   0.564   5.213
 7263SOL     OW22687   6.015   5.485   5.563
 7263SOL    HW122688   5.995   5.525   5.474
 7263SOL    HW222689   6.059   5.553   5.622
 7264SOL     OW22690   5.138   1.647   1.417
 7264SOL    HW122691   5.060   1.600   1.458
 7264SOL    HW222692   5.130   1.646   1.318
 7265SOL     OW22693   3.376   6.872   5.534
 7265SOL    HW122694   3.422   6.961   5.542
 7265SOL    HW222695   3.288   6.885   5.489
 7266SOL     OW22696   6.815   0.598   3.093
 7266SOL    HW122697   6.800   0.694   3.116
 7266SOL    HW222698   6.913   0.583   3.077
 7267SOL     OW22699   6.624   3.968   5.486
 7267SOL    HW122700   6.529   3.998   5.479
 7267SOL    HW222701   6.684   4.038   5.447
 7268SOL     OW22702   5.514   6.050   4.298
 7268SOL    HW122703   5.604   6.040   4.340
 7268SOL    HW222704   5.446   6.068   4.369
 7269SOL     OW22705   2.953   5.474   4.332
 7269SOL    HW122706   2.931   5.569   4.354
 7269SOL    HW222707   3.044   5.452   4.367
 7270SOL     OW22708   0.433   1.162   4.320
 7270SOL    HW122709   0.384   1.230   4.266
 7270SOL    HW222710   0.431   1.074   4.272
 7271SOL     OW22711   0.793   5.088   2.583
 7271SOL    HW122712   0.710   5.129   2.544
 7271SOL    HW222713   0.777   4.991   2.601
 7272SOL     OW22714   6.575   4.118   1.733
 7272SOL    HW122715   6.604   4.181   1.661
 7272SOL    HW222716   6.522   4.044   1.693
 7273SOL     OW22717   6.804   1.342   4.795
 7273SOL    HW122718   6.826   1.403   4.719
 7273SOL    HW222719   6.823   1.248   4.769
 7274SOL     OW22720   0.216   5.454   6.377
 7274SOL    HW122721   0.206   5.553   6.367
 7274SOL    HW222722   0.149   5.407   6.319
 7275SOL     OW22723   0.530   5.055   2.851
 7275SOL    HW122724   0.551   4.991   2.925
 7275SOL    HW222725   0.552   5.148   2.880
 7276SOL     OW22726   5.237   6.258   3.792
 7276SOL    HW122727   5.335   6.264   3.771
 7276SOL    HW222728   5.197   6.181   3.743
 7277SOL     OW22729   4.721   1.187   0.351
 7277SOL    HW122730   4.680   1.106   0.392
 7277SOL    HW222731   4.817   1.168   0.329
 7278SOL     OW22732   3.837   3.025   2.655
 7278SOL    HW122733   3.745   2.992   2.634
 7278SOL    HW222734   3.887   3.040   2.570
 7279SOL     OW22735   3.403   6.239   6.337
 7279SOL    HW122736   3.460   6.264   6.258
 7279SOL    HW222737   3.410   6.141   6.353
 7280SOL     OW22738   4.187   0.284   5.809
 7280SOL    HW122739   4.120   0.282   5.883
 7280SOL    HW222740   4.278   0.263   5.845
 7281SOL     OW22741   5.819   0.868   6.359
 7281SOL    HW122742   5.902   0.813   6.361
 7281SOL    HW222743   5.770   0.851   6.274
 7282SOL     OW22744   6.091   5.973   3.078
 7282SOL    HW122745   6.023   5.958   3.149
 7282SOL    HW222746   6.143   5.888   3.063
 7283SOL     OW22747   2.098   1.671   3.472
 7283SOL    HW122748   2.102   1.629   3.381
 7283SOL    HW222749   2.176   1.733   3.483
 7284SOL     OW22750   1.465   1.498   4.780
 7284SOL    HW122751   1.552   1.545   4.768
 7284SOL    HW222752   1.403   1.523   4.706
 7285SOL     OW22753   6.145   4.942   2.224
 7285SOL    HW122754   6.232   4.988   2.210
 7285SOL    HW222755   6.148   4.889   2.309
 7286SOL     OW22756   1.453   4.192   0.679
 7286SOL    HW122757   1.416   4.209   0.588
 7286SOL    HW222758   1.553   4.200   0.676
 7287SOL     OW22759   6.691   2.049   6.276
 7287SOL    HW122760   6.686   2.015   6.182
 7287SOL    HW222761   6.646   2.138   6.280
 7288SOL     OW22762   2.805   0.251   0.217
 7288SOL    HW122763   2.867   0.174   0.235
 7288SOL    HW222764   2.732   0.252   0.286
 7289SOL     OW22765   4.371   2.060   3.424
 7289SOL    HW122766   4.353   2.104   3.336
 7289SOL    HW222767   4.363   2.128   3.497
 7290SOL     OW22768   2.351   5.723   4.501
 7290SOL    HW122769   2.406   5.741   4.582
 7290SOL    HW222770   2.295   5.803   4.479
 7291SOL     OW22771   3.495   5.385   1.216
 7291SOL    HW122772   3.541   5.473   1.198
 7291SOL    HW222773   3.556   5.310   1.192
 7292SOL     OW22774   3.502   0.352   4.710
 7292SOL    HW122775   3.468   0.372   4.618
 7292SOL    HW222776   3.424   0.340   4.772
 7293SOL     OW22777   2.492   1.363   6.220
 7293SOL    HW122778   2.433   1.363   6.302
 7293SOL    HW222779   2.527   1.271   6.204
 7294SOL     OW22780   5.779   5.772   6.507
 7294SOL    HW122781   5.820   5.684   6.482
 7294SOL    HW222782   5.753   5.822   6.425
 7295SOL     OW22783   4.861   6.768   1.808
 7295SOL    HW122784   4.889   6.843   1.747
 7295SOL    HW222785   4.880   6.795   1.903
 7296SOL     OW22786   4.293   5.022   0.609
 7296SOL    HW122787   4.196   5.005   0.592
 7296SOL    HW222788   4.332   5.071   0.530
 7297SOL     OW22789   5.006   6.402   2.710
 7297SOL    HW122790   4.967   6.445   2.791
 7297SOL    HW222791   4.963   6.442   2.628
 7298SOL     OW22792   6.398   3.019   4.174
 7298SOL    HW122793   6.480   3.007   4.230
 7298SOL    HW222794   6.335   2.943   4.191
 7299SOL     OW22795   5.316   3.278   6.628
 7299SOL    HW122796   5.327   3.195   6.573
 7299SOL    HW222797   5.401   3.330   6.627
 7300SOL     OW22798   4.657   5.067   0.947
 7300SOL    HW122799   4.741   5.106   0.908
 7300SOL    HW222800   4.617   5.131   1.013
 7301SOL     OW22801   6.747   1.439   6.481
 7301SOL    HW122802   6.838   1.443   6.440
 7301SOL    HW222803   6.694   1.366   6.438
 7302SOL     OW22804   6.792   0.999   6.484
 7302SOL    HW122805   6.842   0.937   6.424
 7302SOL    HW222806   6.808   0.973   6.579
 7303SOL     OW22807   4.367   0.516   1.218
 7303SOL    HW122808   4.393   0.612   1.222
 7303SOL    HW222809   4.439   0.464   1.171
 7304SOL     OW22810   4.061   3.369   4.644
 7304SOL    HW122811   4.048   3.328   4.734
 7304SOL    HW222812   4.093   3.300   4.579
 7305SOL     OW22813   5.746   2.342   0.166
 7305SOL    HW122814   5.714   2.396   0.088
 7305SOL    HW222815   5.704   2.252   0.164
 7306SOL     OW22816   4.712   5.096   1.715
 7306SOL    HW122817   4.757   5.128   1.632
 7306SOL    HW222818   4.755   5.139   1.795
 7307SOL     OW22819   4.237   6.508   2.345
 7307SOL    HW122820   4.170   6.579   2.367
 7307SOL    HW222821   4.232   6.487   2.247
 7308SOL     OW22822   5.459   0.726   4.208
 7308SOL    HW122823   5.521   0.719   4.131
 7308SOL    HW222824   5.392   0.652   4.204
 7309SOL     OW22825   4.388   4.531   0.783
 7309SOL    HW122826   4.390   4.627   0.758
 7309SOL    HW222827   4.399   4.475   0.701
 7310SOL     OW22828   2.096   5.997   1.812
 7310SOL    HW122829   2.176   5.999   1.752
 7310SOL    HW222830   2.083   5.904   1.847
 7311SOL     OW22831   3.073   2.109   1.971
 7311SOL    HW122832   3.013   2.178   1.931
 7311SOL    HW222833   3.153   2.153   2.011
 7312SOL     OW22834   0.306   2.480   6.600
 7312SOL    HW122835   0.250   2.401   6.576
 7312SOL    HW222836   0.363   2.458   6.679
 7313SOL     OW22837   3.440   2.395   6.297
 7313SOL    HW122838   3.430   2.494   6.291
 7313SOL    HW222839   3.404   2.363   6.384
 7314SOL     OW22840   0.894   1.717   4.597
 7314SOL    HW122841   0.940   1.665   4.669
 7314SOL    HW222842   0.801   1.681   4.584
 7315SOL     OW22843   0.078   1.193   5.788
 7315SOL    HW122844   0.103   1.270   5.730
 7315SOL    HW222845   0.088   1.107   5.737
 7316SOL     OW22846   4.153   3.400   3.934
 7316SOL    HW122847   4.126   3.456   3.856
 7316SOL    HW222848   4.178   3.308   3.902
 7317SOL     OW22849   3.009   0.470   4.048
 7317SOL    HW122850   2.911   0.469   4.030
 7317SOL    HW222851   3.028   0.532   4.125
 7318SOL     OW22852   1.570   0.944   1.328
 7318SOL    HW122853   1.517   1.023   1.362
 7318SOL    HW222854   1.667   0.966   1.332
 7319SOL     OW22855   6.950   4.672   6.334
 7319SOL    HW122856   6.986   4.581   6.313
 7319SOL    HW222857   6.972   4.696   6.428
 7320SOL     OW22858   0.513   1.830   2.285
 7320SOL    HW122859   0.597   1.873   2.318
 7320SOL    HW222860   0.533   1.737   2.253
 7321SOL     OW22861   3.561   1.435   4.003
 7321SOL    HW122862   3.549   1.513   3.941
 7321SOL    HW222863   3.619   1.367   3.959
 7322SOL     OW22864   1.294   3.000   1.621
 7322SOL    HW122865   1.298   2.933   1.548
 7322SOL    HW222866   1.226   2.972   1.689
 7323SOL     OW22867   2.154   4.020   3.039
 7323SOL    HW122868   2.101   3.936   3.051
 7323SOL    HW222869   2.217   4.031   3.116
 7324SOL     OW22870   4.923   5.361   3.785
 7324SOL    HW122871   4.897   5.351   3.689
 7324SOL    HW222872   5.016   5.398   3.791
 7325SOL     OW22873   3.069   6.335   0.791
 7325SOL    HW122874   3.021   6.337   0.879
 7325SOL    HW222875   3.053   6.421   0.742
 7326SOL     OW22876   2.752   0.462   3.948
 7326SOL    HW122877   2.734   0.364   3.949
 7326SOL    HW222878   2.702   0.506   4.022
 7327SOL     OW22879   1.210   3.349   5.986
 7327SOL    HW122880   1.157   3.270   5.957
 7327SOL    HW222881   1.266   3.324   6.065
 7328SOL     OW22882   2.211   6.481   6.958
 7328SOL    HW122883   2.198   6.382   6.955
 7328SOL    HW222884   2.138   6.526   6.906
 7329SOL     OW22885   4.672   3.890   1.772
 7329SOL    HW122886   4.593   3.943   1.742
 7329SOL    HW222887   4.657   3.793   1.752
 7330SOL     OW22888   3.997   2.165   0.945
 7330SOL    HW122889   4.048   2.184   1.029
 7330SOL    HW222890   4.011   2.240   0.880
 7331SOL     OW22891   6.272   1.608   1.285
 7331SOL    HW122892   6.300   1.536   1.349
 7331SOL    HW222893   6.346   1.675   1.275
 7332SOL     OW22894   3.477   6.662   0.411
 7332SOL    HW122895   3.530   6.578   0.425
 7332SOL    HW222896   3.540   6.738   0.398
 7333SOL     OW22897   0.229   4.585   2.543
 7333SOL    HW122898   0.214   4.682   2.523
 7333SOL    HW222899   0.327   4.565   2.542
 7334SOL     OW22900   3.056   0.347   4.645
 7334SOL    HW122901   3.082   0.441   4.623
 7334SOL    HW222902   3.114   0.284   4.592
 7335SOL     OW22903   1.852   3.146   3.159
 7335SOL    HW122904   1.754   3.144   3.177
 7335SOL    HW222905   1.868   3.166   3.062
 7336SOL     OW22906   1.552   6.106   4.476
 7336SOL    HW122907   1.497   6.090   4.559
 7336SOL    HW222908   1.647   6.120   4.502
 7337SOL     OW22909   5.232   2.284   1.292
 7337SOL    HW122910   5.306   2.279   1.225
 7337SOL    HW222911   5.252   2.355   1.360
 7338SOL     OW22912   0.317   3.914   0.182
 7338SOL    HW122913   0.380   3.971   0.235
 7338SOL    HW222914   0.340   3.817   0.195
 7339SOL     OW22915   1.735   6.057   4.848
 7339SOL    HW122916   1.805   5.986   4.849
 7339SOL    HW222917   1.733   6.104   4.936
 7340SOL     OW22918   2.880   6.991   6.471
 7340SOL    HW122919   2.928   6.920   6.420
 7340SOL    HW222920   2.847   0.039   6.408
 7341SOL     OW22921   6.020   1.846   0.432
 7341SOL    HW122922   6.069   1.782   0.491
 7341SOL    HW222923   5.922   1.826   0.435
 7342SOL     OW22924   0.321   6.158   1.791
 7342SOL    HW122925   0.232   6.200   1.774
 7342SOL    HW222926   0.372   6.151   1.706
 7343SOL     OW22927   6.146   2.906   0.587
 7343SOL    HW122928   6.224   2.881   0.643
 7343SOL    HW222929   6.124   2.831   0.525
 7344SOL     OW22930   2.954   0.145   6.072
 7344SOL    HW122931   3.041   0.120   6.113
 7344SOL    HW222932   2.887   0.073   6.091
 7345SOL     OW22933   3.888   5.759   6.385
 7345SOL    HW122934   3.982   5.738   6.360
 7345SOL    HW222935   3.862   5.848   6.347
 7346SOL     OW22936   4.201   5.081   1.996
 7346SOL    HW122937   4.261   5.105   2.072
 7346SOL    HW222938   4.189   5.161   1.937
 7347SOL     OW22939   5.099   1.180   0.019
 7347SOL    HW122940   5.169   1.137   0.076
 7347SOL    HW222941   5.125   1.171   6.945
 7348SOL     OW22942   0.616   6.122   0.183
 7348SOL    HW122943   0.596   6.025   0.199
 7348SOL    HW222944   0.554   6.178   0.238
 7349SOL     OW22945   4.668   1.361   1.391
 7349SOL    HW122946   4.731   1.437   1.406
 7349SOL    HW222947   4.582   1.397   1.355
 7350SOL     OW22948   3.742   1.024   4.911
 7350SOL    HW122949   3.799   1.106   4.903
 7350SOL    HW222950   3.654   1.041   4.866
 7351SOL     OW22951   2.101   4.682   4.769
 7351SOL    HW122952   2.178   4.716   4.823
 7351SOL    HW222953   2.083   4.587   4.795
 7352SOL     OW22954   5.699   3.073   4.158
 7352SOL    HW122955   5.651   3.087   4.071
 7352SOL    HW222956   5.778   3.014   4.142
 7353SOL     OW22957   6.874   1.750   5.536
 7353SOL    HW122958   6.921   1.725   5.451
 7353SOL    HW222959   6.890   1.678   5.604
 7354SOL     OW22960   1.015   2.030   2.377
 7354SOL    HW122961   1.035   2.031   2.475
 7354SOL    HW222962   1.046   2.117   2.336
 7355SOL     OW22963   3.425   1.845   0.315
 7355SOL    HW122964   3.334   1.885   0.304
 7355SOL    HW222965   3.447   1.792   0.233
 7356SOL     OW22966   4.090   4.546   5.915
 7356SOL    HW122967   4.174   4.512   5.958
 7356SOL    HW222968   4.045   4.611   5.977
 7357SOL     OW22969   4.334   6.423   2.081
 7357SOL    HW122970   4.241   6.406   2.048
 7357SOL    HW222971   4.376   6.336   2.107
 7358SOL     OW22972   4.481   6.905   2.709
 7358SOL    HW122973   4.525   6.918   2.620
 7358SOL    HW222974   4.386   6.875   2.695
 7359SOL     OW22975   3.897   0.150   2.222
 7359SOL    HW122976   3.897   0.208   2.304
 7359SOL    HW222977   3.804   0.145   2.185
 7360SOL     OW22978   2.652   3.872   6.188
 7360SOL    HW122979   2.709   3.889   6.107
 7360SOL    HW222980   2.696   3.804   6.246
 7361SOL     OW22981   6.220   0.886   3.755
 7361SOL    HW122982   6.298   0.861   3.698
 7361SOL    HW222983   6.244   0.964   3.813
 7362SOL     OW22984   3.624   5.963   0.517
 7362SOL    HW122985   3.539   5.978   0.567
 7362SOL    HW222986   3.680   6.045   0.522
 7363SOL     OW22987   4.568   0.566   0.899
 7363SOL    HW122988   4.665   0.543   0.887
 7363SOL    HW222989   4.524   0.576   0.810
 7364SOL     OW22990   5.766   6.154   1.921
 7364SOL    HW122991   5.771   6.246   1.881
 7364SOL    HW222992   5.699   6.154   1.995
 7365SOL     OW22993   5.123   3.110   2.071
 7365SOL    HW122994   5.100   3.180   2.004
 7365SOL    HW222995   5.044   3.092   2.129
 7366SOL     OW22996   2.215   6.940   3.091
 7366SOL    HW122997   2.140   7.005   3.102
 7366SOL    HW222998   2.219   6.910   2.995
 7367SOL     OW22999   4.349   0.857   0.097
 7367SOL    HW123000   4.432   0.824   0.142
 7367SOL    HW223001   4.372   0.889   0.005
 7368SOL     OW23002   3.131   3.892   2.916
 7368SOL    HW123003   3.182   3.938   2.844
 7368SOL    HW223004   3.191   3.826   2.962
 7369SOL     OW23005   5.895   3.468   0.337
 7369SOL    HW123006   5.993   3.488   0.343
 7369SOL    HW223007   5.854   3.525   0.266
 7370SOL     OW23008   1.956   0.942   4.289
 7370SOL    HW123009   2.053   0.940   4.314
 7370SOL    HW223010   1.909   0.864   4.332
 7371SOL     OW23011   3.908   0.592   3.821
 7371SOL    HW123012   3.886   0.499   3.852
 7371SOL    HW223013   3.826   0.649   3.829
 7372SOL     OW23014   4.131   1.252   5.215
 7372SOL    HW123015   4.045   1.302   5.202
 7372SOL    HW223016   4.113   1.154   5.214
 7373SOL     OW23017   6.597   2.769   3.990
 7373SOL    HW123018   6.510   2.739   3.950
 7373SOL    HW223019   6.623   2.706   4.064
 7374SOL     OW23020   0.148   3.035   6.349
 7374SOL    HW123021   0.230   3.013   6.297
 7374SOL    HW223022   0.174   3.063   6.442
 7375SOL     OW23023   2.022   3.025   1.269
 7375SOL    HW123024   1.937   3.005   1.221
 7375SOL    HW223025   2.010   3.005   1.367
 7376SOL     OW23026   6.667   5.275   0.336
 7376SOL    HW123027   6.742   5.226   0.381
 7376SOL    HW223028   6.582   5.225   0.349
 7377SOL     OW23029   2.455   6.000   1.236
 7377SOL    HW123030   2.483   6.028   1.145
 7377SOL    HW223031   2.358   6.018   1.249
 7378SOL     OW23032   2.402   5.169   5.629
 7378SOL    HW123033   2.491   5.169   5.674
 7378SOL    HW223034   2.408   5.113   5.546
 7379SOL     OW23035   5.402   2.492   2.276
 7379SOL    HW123036   5.408   2.412   2.217
 7379SOL    HW223037   5.313   2.535   2.265
 7380SOL     OW23038   5.156   3.593   1.585
 7380SOL    HW123039   5.095   3.571   1.661
 7380SOL    HW223040   5.108   3.651   1.519
 7381SOL     OW23041   3.852   6.977   1.825
 7381SOL    HW123042   3.856   7.002   1.728
 7381SOL    HW223043   3.886   0.031   1.881
 7382SOL     OW23044   0.439   2.397   6.829
 7382SOL    HW123045   0.500   2.465   6.870
 7382SOL    HW223046   0.491   2.316   6.804
 7383SOL     OW23047   2.307   6.971   0.994
 7383SOL    HW123048   2.320   0.029   0.935
 7383SOL    HW223049   2.254   6.996   1.074
 7384SOL     OW23050   6.959   0.684   7.021
 7384SOL    HW123051   6.987   0.595   0.033
 7384SOL    HW223052   6.869   0.708   0.037
 7385SOL     OW23053   6.430   4.504   3.201
 7385SOL    HW123054   6.506   4.502   3.266
 7385SOL    HW223055   6.397   4.411   3.185
 7386SOL     OW23056   6.467   4.335   0.261
 7386SOL    HW123057   6.497   4.374   0.348
 7386SOL    HW223058   6.414   4.404   0.210
 7387SOL     OW23059   6.706   5.726   4.225
 7387SOL    HW123060   6.788   5.783   4.234
 7387SOL    HW223061   6.637   5.776   4.171
 7388SOL     OW23062   2.273   4.142   2.597
 7388SOL    HW123063   2.212   4.221   2.608
 7388SOL    HW223064   2.340   4.162   2.526
 7389SOL     OW23065   7.005   2.795   0.773
 7389SOL    HW123066   6.935   2.758   0.711
 7389SOL    HW223067   0.065   2.738   0.767
 7390SOL     OW23068   3.860   2.174   4.000
 7390SOL    HW123069   3.780   2.213   4.046
 7390SOL    HW223070   3.861   2.075   4.013
 7391SOL     OW23071   3.383   3.784   2.515
 7391SOL    HW123072   3.352   3.868   2.558
 7391SOL    HW223073   3.466   3.752   2.560
 7392SOL     OW23074   3.478   6.484   0.763
 7392SOL    HW123075   3.435   6.572   0.739
 7392SOL    HW223076   3.443   6.413   0.703
 7393SOL     OW23077   4.946   5.394   3.484
 7393SOL    HW123078   4.852   5.359   3.488
 7393SOL    HW223079   5.010   5.320   3.507
 7394SOL     OW23080   1.800   2.108   6.295
 7394SOL    HW123081   1.778   2.042   6.223
 7394SOL    HW223082   1.715   2.143   6.335
 7395SOL     OW23083   2.780   6.179   1.375
 7395SOL    HW123084   2.750   6.098   1.324
 7395SOL    HW223085   2.845   6.151   1.446
 7396SOL     OW23086   1.332   5.087   2.197
 7396SOL    HW123087   1.397   5.140   2.251
 7396SOL    HW223088   1.373   5.065   2.108
 7397SOL     OW23089   5.999   4.874   4.065
 7397SOL    HW123090   5.915   4.911   4.024
 7397SOL    HW223091   6.022   4.788   4.021
 7398SOL     OW23092   3.349   5.166   1.962
 7398SOL    HW123093   3.393   5.087   2.006
 7398SOL    HW223094   3.404   5.248   1.978
 7399SOL     OW23095   6.461   1.969   5.325
 7399SOL    HW123096   6.513   2.009   5.249
 7399SOL    HW223097   6.525   1.942   5.397
 7400SOL     OW23098   3.987   3.327   5.481
 7400SOL    HW123099   3.888   3.329   5.494
 7400SOL    HW223100   4.008   3.291   5.390
 7401SOL     OW23101   1.917   2.280   4.104
 7401SOL    HW123102   1.849   2.227   4.055
 7401SOL    HW223103   1.989   2.310   4.041
 7402SOL     OW23104   3.328   5.254   4.195
 7402SOL    HW123105   3.343   5.275   4.292
 7402SOL    HW223106   3.346   5.157   4.178
 7403SOL     OW23107   1.825   4.895   4.251
 7403SOL    HW123108   1.730   4.906   4.221
 7403SOL    HW223109   1.878   4.850   4.179
 7404SOL     OW23110   1.736   3.511   1.046
 7404SOL    HW123111   1.779   3.473   0.964
 7404SOL    HW223112   1.683   3.440   1.092
 7405SOL     OW23113   3.715   6.766   6.338
 7405SOL    HW123114   3.750   6.702   6.407
 7405SOL    HW223115   3.638   6.817   6.375
 7406SOL     OW23116   0.382   2.447   4.356
 7406SOL    HW123117   0.315   2.499   4.410
 7406SOL    HW223118   0.335   2.374   4.307
 7407SOL     OW23119   1.256   6.307   4.709
 7407SOL    HW123120   1.207   6.223   4.729
 7407SOL    HW223121   1.349   6.300   4.744
 7408SOL     OW23122   4.250   5.244   5.591
 7408SOL    HW123123   4.188   5.166   5.590
 7408SOL    HW223124   4.203   5.324   5.554
 7409SOL     OW23125   6.326   5.160   1.619
 7409SOL    HW123126   6.320   5.141   1.717
 7409SOL    HW223127   6.341   5.258   1.604
 7410SOL     OW23128   6.168   1.004   0.836
 7410SOL    HW123129   6.172   1.020   0.737
 7410SOL    HW223130   6.239   1.059   0.881
 7411SOL     OW23131   3.836   1.661   5.298
 7411SOL    HW123132   3.744   1.697   5.310
 7411SOL    HW223133   3.902   1.736   5.304
 7412SOL     OW23134   4.253   6.600   6.708
 7412SOL    HW123135   4.333   6.557   6.751
 7412SOL    HW223136   4.282   6.650   6.627
 7413SOL     OW23137   4.867   0.979   3.835
 7413SOL    HW123138   4.835   0.957   3.743
 7413SOL    HW223139   4.949   0.925   3.856
 7414SOL     OW23140   2.833   1.067   4.172
 7414SOL    HW123141   2.865   1.155   4.208
 7414SOL    HW223142   2.911   1.009   4.148
 7415SOL     OW23143   4.511   0.809   5.979
 7415SOL    HW123144   4.477   0.842   6.067
 7415SOL    HW223145   4.434   0.789   5.918
 7416SOL     OW23146   0.947   0.071   1.584
 7416SOL    HW123147   1.008   0.046   1.509
 7416SOL    HW223148   0.907   7.010   1.623
 7417SOL     OW23149   0.403   0.411   2.068
 7417SOL    HW123150   0.426   0.320   2.035
 7417SOL    HW223151   0.338   0.404   2.144
 7418SOL     OW23152   1.756   3.642   6.367
 7418SOL    HW123153   1.809   3.724   6.346
 7418SOL    HW223154   1.789   3.602   6.453
 7419SOL     OW23155   6.529   2.837   4.415
 7419SOL    HW123156   6.597   2.815   4.346
 7419SOL    HW223157   6.568   2.823   4.506
 7420SOL     OW23158   6.987   0.193   0.688
 7420SOL    HW123159   0.009   0.168   0.774
 7420SOL    HW223160   6.918   0.264   0.705
 7421SOL     OW23161   6.279   3.832   0.986
 7421SOL    HW123162   6.297   3.869   0.895
 7421SOL    HW223163   6.366   3.815   1.033
 7422SOL     OW23164   5.887   3.576   1.639
 7422SOL    HW123165   5.822   3.649   1.622
 7422SOL    HW223166   5.875   3.503   1.571
 7423SOL     OW23167   4.231   2.435   5.616
 7423SOL    HW123168   4.175   2.490   5.678
 7423SOL    HW223169   4.184   2.423   5.529
 7424SOL     OW23170   0.340   1.749   3.938
 7424SOL    HW123171   0.401   1.824   3.966
 7424SOL    HW223172   0.334   1.682   4.012
 7425SOL     OW23173   5.503   0.164   0.968
 7425SOL    HW123174   5.495   0.065   0.976
 7425SOL    HW223175   5.573   0.186   0.900
 7426SOL     OW23176   3.641   3.402   5.264
 7426SOL    HW123177   3.545   3.393   5.240
 7426SOL    HW223178   3.694   3.328   5.221
 7427SOL     OW23179   2.712   0.889   1.773
 7427SOL    HW123180   2.784   0.958   1.779
 7427SOL    HW223181   2.713   0.848   1.682
 7428SOL     OW23182   1.751   6.807   5.231
 7428SOL    HW123183   1.771   6.819   5.134
 7428SOL    HW223184   1.816   6.742   5.271
 7429SOL     OW23185   1.057   0.846   2.488
 7429SOL    HW123186   1.048   0.929   2.433
 7429SOL    HW223187   0.971   0.829   2.537
 7430SOL     OW23188   6.457   4.178   2.554
 7430SOL    HW123189   6.470   4.233   2.472
 7430SOL    HW223190   6.366   4.196   2.593
 7431SOL     OW23191   0.972   2.264   4.446
 7431SOL    HW123192   0.900   2.226   4.387
 7431SOL    HW223193   0.952   2.242   4.541
 7432SOL     OW23194   1.410   1.031   2.842
 7432SOL    HW123195   1.384   1.029   2.745
 7432SOL    HW223196   1.455   1.117   2.863
 7433SOL     OW23197   3.561   0.115   6.354
 7433SOL    HW123198   3.600   0.125   6.445
 7433SOL    HW223199   3.551   0.205   6.312
 7434SOL     OW23200   4.131   0.195   3.764
 7434SOL    HW123201   4.038   0.205   3.729
 7434SOL    HW223202   4.131   0.212   3.863
 7435SOL     OW23203   5.106   4.427   3.344
 7435SOL    HW123204   5.109   4.508   3.403
 7435SOL    HW223205   5.012   4.410   3.316
 7436SOL     OW23206   4.314   2.987   5.997
 7436SOL    HW123207   4.397   2.943   6.032
 7436SOL    HW223208   4.285   3.059   6.060
 7437SOL     OW23209   3.813   0.449   1.547
 7437SOL    HW123210   3.836   0.531   1.495
 7437SOL    HW223211   3.851   0.457   1.639
 7438SOL     OW23212   2.008   0.798   6.628
 7438SOL    HW123213   2.014   0.846   6.716
 7438SOL    HW223214   2.068   0.843   6.561
 7439SOL     OW23215   1.686   4.312   6.359
 7439SOL    HW123216   1.730   4.377   6.297
 7439SOL    HW223217   1.635   4.245   6.306
 7440SOL     OW23218   5.900   2.759   4.462
 7440SOL    HW123219   5.965   2.688   4.486
 7440SOL    HW223220   5.898   2.828   4.534
 7441SOL     OW23221   4.191   6.689   0.255
 7441SOL    HW123222   4.289   6.704   0.265
 7441SOL    HW223223   4.163   6.610   0.311
 7442SOL     OW23224   6.247   0.941   6.425
 7442SOL    HW123225   6.316   0.869   6.416
 7442SOL    HW223226   6.283   1.027   6.388
 7443SOL     OW23227   0.310   6.784   0.950
 7443SOL    HW123228   0.236   6.765   0.885
 7443SOL    HW223229   0.280   6.761   1.042
 7444SOL     OW23230   1.756   5.633   6.578
 7444SOL    HW123231   1.681   5.583   6.621
 7444SOL    HW223232   1.753   5.620   6.479
 7445SOL     OW23233   3.652   6.181   2.833
 7445SOL    HW123234   3.700   6.152   2.915
 7445SOL    HW223235   3.712   6.168   2.753
 7446SOL     OW23236   6.587   5.162   0.624
 7446SOL    HW123237   6.620   5.178   0.717
 7446SOL    HW223238   6.512   5.096   0.626
 7447SOL     OW23239   1.019   5.571   0.533
 7447SOL    HW123240   1.007   5.548   0.630
 7447SOL    HW223241   1.107   5.535   0.502
 7448SOL     OW23242   4.629   4.923   7.013
 7448SOL    HW123243   4.725   4.901   6.994
 7448SOL    HW223244   4.570   4.858   6.964
 7449SOL     OW23245   6.697   3.834   6.969
 7449SOL    HW123246   6.715   3.770   6.895
 7449SOL    HW223247   6.783   3.864   7.010
 7450SOL     OW23248   5.209   3.365   0.566
 7450SOL    HW123249   5.299   3.381   0.524
 7450SOL    HW223250   5.220   3.350   0.664
 7451SOL     OW23251   4.343   4.974   2.926
 7451SOL    HW123252   4.244   4.983   2.928
 7451SOL    HW223253   4.369   4.884   2.892
 7452SOL     OW23254   6.757   5.817   6.955
 7452SOL    HW123255   6.717   5.799   6.865
 7452SOL    HW223256   6.828   5.749   6.974
 7453SOL     OW23257   4.494   4.930   6.172
 7453SOL    HW123258   4.461   5.023   6.183
 7453SOL    HW223259   4.491   4.882   6.260
 7454SOL     OW23260   4.105   2.209   1.190
 7454SOL    HW123261   4.192   2.214   1.238
 7454SOL    HW223262   4.042   2.276   1.230
 7455SOL     OW23263   6.456   0.414   2.849
 7455SOL    HW123264   6.490   0.337   2.904
 7455SOL    HW223265   6.362   0.395   2.821
 7456SOL     OW23266   2.969   1.436   5.602
 7456SOL    HW123267   2.976   1.525   5.556
 7456SOL    HW223268   2.873   1.415   5.618
 7457SOL     OW23269   1.256   1.854   2.357
 7457SOL    HW123270   1.214   1.901   2.279
 7457SOL    HW223271   1.199   1.868   2.438
 7458SOL     OW23272   0.181   6.079   5.235
 7458SOL    HW123273   0.138   6.032   5.159
 7458SOL    HW223274   0.281   6.074   5.225
 7459SOL     OW23275   5.754   6.983   3.304
 7459SOL    HW123276   5.702   6.898   3.312
 7459SOL    HW223277   5.768   7.004   3.207
 7460SOL     OW23278   0.737   0.320   1.014
 7460SOL    HW123279   0.693   0.354   1.096
 7460SOL    HW223280   0.819   0.269   1.039
 7461SOL     OW23281   1.917   4.113   5.505
 7461SOL    HW123282   1.895   4.026   5.460
 7461SOL    HW223283   2.016   4.121   5.514
 7462SOL     OW23284   2.010   4.621   0.041
 7462SOL    HW123285   2.023   4.582   0.132
 7462SOL    HW223286   1.914   4.610   0.013
 7463SOL     OW23287   5.040   5.024   0.954
 7463SOL    HW123288   5.032   5.033   0.855
 7463SOL    HW223289   5.105   5.092   0.988
 7464SOL     OW23290   5.466   4.890   5.190
 7464SOL    HW123291   5.469   4.835   5.107
 7464SOL    HW223292   5.558   4.922   5.213
 7465SOL     OW23293   1.364   3.555   6.734
 7465SOL    HW123294   1.439   3.491   6.719
 7465SOL    HW223295   1.383   3.640   6.685
 7466SOL     OW23296   0.482   6.991   5.269
 7466SOL    HW123297   0.508   6.895   5.258
 7466SOL    HW223298   0.563   0.026   5.268
 7467SOL     OW23299   0.696   3.525   4.129
 7467SOL    HW123300   0.708   3.431   4.162
 7467SOL    HW223301   0.777   3.553   4.078
 7468SOL     OW23302   6.078   2.551   4.544
 7468SOL    HW123303   6.021   2.473   4.518
 7468SOL    HW223304   6.155   2.558   4.480
 7469SOL     OW23305   0.108   2.164   0.073
 7469SOL    HW123306   0.187   2.226   0.070
 7469SOL    HW223307   0.055   2.172   7.012
 7470SOL     OW23308   5.113   2.922   3.800
 7470SOL    HW123309   5.043   2.863   3.760
 7470SOL    HW223310   5.202   2.875   3.798
 7471SOL     OW23311   3.449   6.760   6.465
 7471SOL    HW123312   3.357   6.737   6.499
 7471SOL    HW223313   3.497   6.676   6.442
 7472SOL     OW23314   6.788   7.002   5.626
 7472SOL    HW123315   6.820   0.031   5.706
 7472SOL    HW223316   6.801   0.035   5.543
 7473SOL     OW23317   4.352   6.509   3.266
 7473SOL    HW123318   4.280   6.463   3.318
 7473SOL    HW223319   4.313   6.554   3.186
 7474SOL     OW23320   6.290   2.091   1.163
 7474SOL    HW123321   6.376   2.065   1.118
 7474SOL    HW223322   6.256   2.176   1.122
 7475SOL     OW23323   5.080   2.049   1.394
 7475SOL    HW123324   4.981   2.055   1.378
 7475SOL    HW223325   5.126   2.118   1.340
 7476SOL     OW23326   2.228   1.302   2.858
 7476SOL    HW123327   2.179   1.240   2.919
 7476SOL    HW223328   2.319   1.321   2.896
 7477SOL     OW23329   2.444   3.713   5.955
 7477SOL    HW123330   2.443   3.768   5.872
 7477SOL    HW223331   2.539   3.697   5.983
 7478SOL     OW23332   0.584   2.576   6.500
 7478SOL    HW123333   0.548   2.543   6.413
 7478SOL    HW223334   0.509   2.612   6.555
 7479SOL     OW23335   5.738   2.878   1.571
 7479SOL    HW123336   5.649   2.878   1.618
 7479SOL    HW223337   5.752   2.790   1.526
 7480SOL     OW23338   3.700   6.066   2.496
 7480SOL    HW123339   3.736   6.034   2.409
 7480SOL    HW223340   3.747   6.151   2.522
 7481SOL     OW23341   0.406   4.078   7.001
 7481SOL    HW123342   0.481   4.034   6.952
 7481SOL    HW223343   0.382   4.024   0.058
 7482SOL     OW23344   4.186   1.782   4.499
 7482SOL    HW123345   4.146   1.773   4.407
 7482SOL    HW223346   4.268   1.725   4.505
 7483SOL     OW23347   5.456   1.293   5.885
 7483SOL    HW123348   5.371   1.311   5.836
 7483SOL    HW223349   5.499   1.380   5.910
 7484SOL     OW23350   2.430   0.505   4.296
 7484SOL    HW123351   2.428   0.604   4.282
 7484SOL    HW223352   2.498   0.464   4.236
 7485SOL     OW23353   3.890   0.298   6.769
 7485SOL    HW123354   3.887   0.200   6.790
 7485SOL    HW223355   3.979   0.335   6.794
 7486SOL     OW23356   4.144   6.287   1.178
 7486SOL    HW123357   4.224   6.241   1.217
 7486SOL    HW223358   4.172   6.344   1.101
 7487SOL     OW23359   2.932   6.329   4.518
 7487SOL    HW123360   2.938   6.359   4.422
 7487SOL    HW223361   2.978   6.396   4.577
 7488SOL     OW23362   1.631   5.953   3.991
 7488SOL    HW123363   1.599   6.048   3.995
 7488SOL    HW223364   1.555   5.892   4.012
 7489SOL     OW23365   4.981   3.451   6.083
 7489SOL    HW123366   5.036   3.443   6.166
 7489SOL    HW223367   5.037   3.488   6.009
 7490SOL     OW23368   1.859   2.215   1.491
 7490SOL    HW123369   1.926   2.259   1.431
 7490SOL    HW223370   1.876   2.116   1.493
 7491SOL     OW23371   4.539   4.146   6.514
 7491SOL    HW123372   4.538   4.068   6.451
 7491SOL    HW223373   4.606   4.129   6.586
 7492SOL     OW23374   1.602   0.701   3.237
 7492SOL    HW123375   1.564   0.758   3.164
 7492SOL    HW223376   1.538   0.698   3.314
 7493SOL     OW23377   5.978   5.182   4.327
 7493SOL    HW123378   6.004   5.150   4.418
 7493SOL    HW223379   6.058   5.180   4.267
 7494SOL     OW23380   6.130   0.932   2.263
 7494SOL    HW123381   6.095   0.900   2.351
 7494SOL    HW223382   6.057   0.929   2.194
 7495SOL     OW23383   1.531   3.538   4.517
 7495SOL    HW123384   1.612   3.482   4.499
 7495SOL    HW223385   1.514   3.542   4.615
 7496SOL     OW23386   5.966   2.793   3.441
 7496SOL    HW123387   5.889   2.857   3.450
 7496SOL    HW223388   5.945   2.710   3.493
 7497SOL     OW23389   6.307   0.369   1.454
 7497SOL    HW123390   6.358   0.294   1.411
 7497SOL    HW223391   6.266   0.337   1.539
 7498SOL     OW23392   2.143   6.270   3.179
 7498SOL    HW123393   2.064   6.314   3.136
 7498SOL    HW223394   2.177   6.327   3.254
 7499SOL     OW23395   2.989   1.231   3.129
 7499SOL    HW123396   2.903   1.193   3.164
 7499SOL    HW223397   3.046   1.259   3.207
 7500SOL     OW23398   3.698   1.214   4.622
 7500SOL    HW123399   3.627   1.193   4.689
 7500SOL    HW223400   3.684   1.307   4.588
 7501SOL     OW23401   5.766   2.238   3.559
 7501SOL    HW123402   5.681   2.263   3.514
 7501SOL    HW223403   5.762   2.263   3.656
 7502SOL     OW23404   3.867   1.127   3.484
 7502SOL    HW123405   3.876   1.088   3.576
 7502SOL    HW223406   3.850   1.053   3.418
 7503SOL     OW23407   1.071   5.928   0.727
 7503SOL    HW123408   1.137   5.853   0.734
 7503SOL    HW223409   0.979   5.890   0.726
 7504SOL     OW23410   5.675   6.123   4.563
 7504SOL    HW123411   5.595   6.086   4.610
 7504SOL    HW223412   5.705   6.059   4.493
 7505SOL     OW23413   0.536   6.497   6.327
 7505SOL    HW123414   0.573   6.465   6.240
 7505SOL    HW223415   0.518   6.595   6.322
 7506SOL     OW23416   3.684   2.108   4.445
 7506SOL    HW123417   3.655   2.087   4.539
 7506SOL    HW223418   3.767   2.056   4.424
 7507SOL     OW23419   6.862   3.850   6.296
 7507SOL    HW123420   6.818   3.936   6.268
 7507SOL    HW223421   6.961   3.863   6.301
 7508SOL     OW23422   3.412   6.314   6.933
 7508SOL    HW123423   3.320   6.309   6.893
 7508SOL    HW223424   3.408   6.355   0.001
 7509SOL     OW23425   5.816   4.192   2.978
 7509SOL    HW123426   5.843   4.224   3.069
 7509SOL    HW223427   5.831   4.094   2.971
 7510SOL     OW23428   3.388   4.975   1.300
 7510SOL    HW123429   3.447   5.040   1.348
 7510SOL    HW223430   3.399   4.884   1.339
 7511SOL     OW23431   5.158   5.786   3.542
 7511SOL    HW123432   5.249   5.791   3.501
 7511SOL    HW223433   5.095   5.741   3.479
 7512SOL     OW23434   4.144   6.487   0.975
 7512SOL    HW123435   4.216   6.510   0.910
 7512SOL    HW223436   4.075   6.432   0.930
 7513SOL     OW23437   0.560   0.310   2.337
 7513SOL    HW123438   0.568   0.234   2.401
 7513SOL    HW223439   0.557   0.276   2.243
 7514SOL     OW23440   0.376   0.477   0.537
 7514SOL    HW123441   0.395   0.401   0.599
 7514SOL    HW223442   0.455   0.538   0.535
 7515SOL     OW23443   6.916   4.985   4.974
 7515SOL    HW123444   6.916   4.939   5.063
 7515SOL    HW223445   6.923   5.083   4.988
 7516SOL     OW23446   2.393   6.081   5.126
 7516SOL    HW123447   2.413   6.107   5.221
 7516SOL    HW223448   2.369   5.984   5.122
 7517SOL     OW23449   0.461   2.561   0.302
 7517SOL    HW123450   0.489   2.608   0.386
 7517SOL    HW223451   0.398   2.620   0.251
 7518SOL     OW23452   3.985   1.888   4.644
 7518SOL    HW123453   4.077   1.877   4.604
 7518SOL    HW223454   3.986   1.963   4.710
 7519SOL     OW23455   3.097   6.242   4.844
 7519SOL    HW123456   3.041   6.193   4.777
 7519SOL    HW223457   3.145   6.317   4.799
 7520SOL     OW23458   2.199   0.769   1.036
 7520SOL    HW123459   2.099   0.776   1.027
 7520SOL    HW223460   2.236   0.858   1.063
 7521SOL     OW23461   4.234   1.487   5.843
 7521SOL    HW123462   4.223   1.455   5.749
 7521SOL    HW223463   4.293   1.568   5.844
 7522SOL     OW23464   1.591   6.439   4.254
 7522SOL    HW123465   1.679   6.409   4.218
 7522SOL    HW223466   1.591   6.431   4.354
 7523SOL     OW23467   5.526   1.775   6.765
 7523SOL    HW123468   5.607   1.740   6.718
 7523SOL    HW223469   5.467   1.698   6.791
 7524SOL     OW23470   0.252   3.872   4.744
 7524SOL    HW123471   0.198   3.921   4.675
 7524SOL    HW223472   0.257   3.926   4.827
 7525SOL     OW23473   2.197   4.857   5.646
 7525SOL    HW123474   2.243   4.782   5.694
 7525SOL    HW223475   2.098   4.849   5.658
 7526SOL     OW23476   1.233   4.643   0.732
 7526SOL    HW123477   1.180   4.575   0.682
 7526SOL    HW223478   1.331   4.631   0.712
 7527SOL     OW23479   2.786   5.407   2.121
 7527SOL    HW123480   2.773   5.314   2.156
 7527SOL    HW223481   2.872   5.412   2.070
 7528SOL     OW23482   6.732   2.790   0.062
 7528SOL    HW123483   6.750   2.720   7.016
 7528SOL    HW223484   6.648   2.840   0.038
 7529SOL     OW23485   5.832   2.813   4.814
 7529SOL    HW123486   5.908   2.831   4.876
 7529SOL    HW223487   5.795   2.722   4.833
 7530SOL     OW23488   1.064   2.747   3.263
 7530SOL    HW123489   1.153   2.762   3.220
 7530SOL    HW223490   1.077   2.720   3.358
 7531SOL     OW23491   3.920   1.917   4.017
 7531SOL    HW123492   3.845   1.851   4.010
 7531SOL    HW223493   3.974   1.915   3.933
 7532SOL     OW23494   4.457   4.843   6.409
 7532SOL    HW123495   4.365   4.830   6.447
 7532SOL    HW223496   4.524   4.844   6.482
 7533SOL     OW23497   4.324   4.710   1.235
 7533SOL    HW123498   4.370   4.767   1.167
 7533SOL    HW223499   4.308   4.618   1.197
 7534SOL     OW23500   4.754   6.475   4.890
 7534SOL    HW123501   4.700   6.517   4.818
 7534SOL    HW223502   4.705   6.395   4.926
 7535SOL     OW23503   0.629   6.757   4.447
 7535SOL    HW123504   0.624   6.687   4.376
 7535SOL    HW223505   0.568   6.732   4.523
 7536SOL     OW23506   6.167   0.074   2.835
 7536SOL    HW123507   6.138   7.017   2.888
 7536SOL    HW223508   6.171   0.049   2.738
 7537SOL     OW23509   2.189   0.441   2.179
 7537SOL    HW123510   2.116   0.427   2.247
 7537SOL    HW223511   2.197   0.359   2.122
 7538SOL     OW23512   6.963   4.747   6.971
 7538SOL    HW123513   6.932   4.652   6.973
 7538SOL    HW223514   7.005   4.770   0.036
 7539SOL     OW23515   6.515   0.438   4.975
 7539SOL    HW123516   6.551   0.362   4.920
 7539SOL    HW223517   6.426   0.412   5.012
 7540SOL     OW23518   5.239   3.725   3.441
 7540SOL    HW123519   5.265   3.633   3.413
 7540SOL    HW223520   5.189   3.721   3.528
 7541SOL     OW23521   2.411   3.776   0.313
 7541SOL    HW123522   2.385   3.864   0.352
 7541SOL    HW223523   2.335   3.740   0.258
 7542SOL     OW23524   6.401   5.595   4.996
 7542SOL    HW123525   6.420   5.688   4.965
 7542SOL    HW223526   6.317   5.562   4.953
 7543SOL     OW23527   2.256   1.044   1.085
 7543SOL    HW123528   2.338   1.097   1.106
 7543SOL    HW223529   2.189   1.102   1.039
 7544SOL     OW23530   5.530   1.354   5.369
 7544SOL    HW123531   5.443   1.394   5.341
 7544SOL    HW223532   5.578   1.319   5.289
 7545SOL     OW23533   1.225   5.439   5.147
 7545SOL    HW123534   1.179   5.467   5.231
 7545SOL    HW223535   1.163   5.385   5.090
 7546SOL     OW23536   2.499   2.938   1.737
 7546SOL    HW123537   2.483   2.842   1.758
 7546SOL    HW223538   2.411   2.984   1.721
 7547SOL     OW23539   3.943   0.003   2.462
 7547SOL    HW123540   3.925   0.003   2.364
 7547SOL    HW223541   3.985   0.090   2.487
 7548SOL     OW23542   2.559   1.900   6.186
 7548SOL    HW123543   2.573   1.888   6.284
 7548SOL    HW223544   2.462   1.916   6.167
 7549SOL     OW23545   4.757   0.504   4.440
 7549SOL    HW123546   4.716   0.593   4.417
 7549SOL    HW223547   4.709   0.431   4.392
 7550SOL     OW23548   2.271   5.838   5.064
 7550SOL    HW123549   2.269   5.844   4.965
 7550SOL    HW223550   2.184   5.868   5.102
 7551SOL     OW23551   6.424   3.205   6.283
 7551SOL    HW123552   6.464   3.155   6.207
 7551SOL    HW223553   6.442   3.303   6.272
 7552SOL     OW23554   2.700   6.605   4.518
 7552SOL    HW123555   2.725   6.565   4.606
 7552SOL    HW223556   2.755   6.687   4.502
 7553SOL     OW23557   6.449   0.109   5.847
 7553SOL    HW123558   6.460   0.182   5.780
 7553SOL    HW223559   6.475   0.022   5.805
 7554SOL     OW23560   5.193   1.617   1.707
 7554SOL    HW123561   5.185   1.622   1.608
 7554SOL    HW223562   5.284   1.583   1.732
 7555SOL     OW23563   4.520   5.352   4.319
 7555SOL    HW123564   4.553   5.415   4.248
 7555SOL    HW223565   4.508   5.261   4.280
 7556SOL     OW23566   0.801   5.969   0.606
 7556SOL    HW123567   0.703   5.957   0.614
 7556SOL    HW223568   0.830   6.048   0.660
 7557SOL     OW23569   4.351   6.279   0.717
 7557SOL    HW123570   4.277   6.258   0.653
 7557SOL    HW223571   4.352   6.212   0.791
 7558SOL     OW23572   0.791   1.332   3.729
 7558SOL    HW123573   0.781   1.333   3.828
 7558SOL    HW223574   0.758   1.418   3.691
 7559SOL     OW23575   1.662   0.043   5.328
 7559SOL    HW123576   1.679   0.069   5.234
 7559SOL    HW223577   1.711   6.980   5.349
 7560SOL     OW23578   0.875   0.559   5.443
 7560SOL    HW123579   0.974   0.552   5.430
 7560SOL    HW223580   0.853   0.540   5.538
 7561SOL     OW23581   5.068   1.279   5.303
 7561SOL    HW123582   5.042   1.197   5.252
 7561SOL    HW223583   5.013   1.356   5.273
 7562SOL     OW23584   1.680   5.637   3.672
 7562SOL    HW123585   1.652   5.715   3.616
 7562SOL    HW223586   1.752   5.664   3.735
 7563SOL     OW23587   2.790   6.544   3.305
 7563SOL    HW123588   2.691   6.550   3.289
 7563SOL    HW223589   2.833   6.491   3.233
 7564SOL     OW23590   5.085   3.000   5.824
 7564SOL    HW123591   5.076   2.914   5.874
 7564SOL    HW223592   4.999   3.051   5.831
 7565SOL     OW23593   6.720   3.494   5.684
 7565SOL    HW123594   6.672   3.530   5.764
 7565SOL    HW223595   6.720   3.563   5.611
 7566SOL     OW23596   4.731   4.185   1.520
 7566SOL    HW123597   4.817   4.186   1.468
 7566SOL    HW223598   4.747   4.144   1.610
 7567SOL     OW23599   1.317   0.266   3.310
 7567SOL    HW123600   1.322   0.365   3.294
 7567SOL    HW223601   1.398   0.222   3.271
 7568SOL     OW23602   0.088   3.859   0.925
 7568SOL    HW123603   0.028   3.879   0.847
 7568SOL    HW223604   0.071   3.926   0.998
 7569SOL     OW23605   4.365   3.654   1.373
 7569SOL    HW123606   4.284   3.706   1.349
 7569SOL    HW223607   4.439   3.716   1.399
 7570SOL     OW23608   1.161   2.741   1.823
 7570SOL    HW123609   1.106   2.672   1.774
 7570SOL    HW223610   1.243   2.699   1.860
 7571SOL     OW23611   4.877   1.610   3.505
 7571SOL    HW123612   4.959   1.572   3.463
 7571SOL    HW223613   4.878   1.709   3.497
 7572SOL     OW23614   4.770   6.609   3.131
 7572SOL    HW123615   4.776   6.656   3.219
 7572SOL    HW223616   4.690   6.642   3.082
 7573SOL     OW23617   3.829   0.006   5.918
 7573SOL    HW123618   3.740   6.992   5.893
 7573SOL    HW223619   3.900   6.986   5.863
 7574SOL     OW23620   0.942   3.261   3.339
 7574SOL    HW123621   0.933   3.164   3.361
 7574SOL    HW223622   0.887   3.282   3.259
 7575SOL     OW23623   6.954   0.178   0.415
 7575SOL    HW123624   6.960   0.179   0.515
 7575SOL    HW223625   6.864   0.144   0.388
 7576SOL     OW23626   4.596   2.836   0.439
 7576SOL    HW123627   4.619   2.803   0.530
 7576SOL    HW223628   4.501   2.866   0.437
 7577SOL     OW23629   0.201   0.349   6.589
 7577SOL    HW123630   0.170   0.255   6.606
 7577SOL    HW223631   0.264   0.377   6.661
 7578SOL     OW23632   6.005   5.675   2.831
 7578SOL    HW123633   6.092   5.706   2.793
 7578SOL    HW223634   5.978   5.590   2.786
 7579SOL     OW23635   1.286   1.750   6.750
 7579SOL    HW123636   1.315   1.660   6.782
 7579SOL    HW223637   1.340   1.776   6.670
 7580SOL     OW23638   2.375   5.034   2.609
 7580SOL    HW123639   2.461   5.012   2.654
 7580SOL    HW223640   2.342   4.954   2.558
 7581SOL     OW23641   0.628   0.183   0.783
 7581SOL    HW123642   0.673   0.238   0.854
 7581SOL    HW223643   0.586   0.103   0.825
 7582SOL     OW23644   1.832   0.982   5.845
 7582SOL    HW123645   1.930   0.997   5.830
 7582SOL    HW223646   1.801   1.040   5.920
 7583SOL     OW23647   5.709   3.593   2.187
 7583SOL    HW123648   5.676   3.499   2.177
 7583SOL    HW223649   5.661   3.637   2.264
 7584SOL     OW23650   6.969   0.750   3.420
 7584SOL    HW123651   6.955   0.817   3.347
 7584SOL    HW223652   6.951   0.794   3.508
 7585SOL     OW23653   0.939   1.186   5.744
 7585SOL    HW123654   0.847   1.211   5.717
 7585SOL    HW223655   0.983   1.262   5.792
 7586SOL     OW23656   1.781   6.727   3.883
 7586SOL    HW123657   1.767   6.779   3.798
 7586SOL    HW223658   1.715   6.758   3.952
 7587SOL     OW23659   5.482   0.045   2.169
 7587SOL    HW123660   5.520   0.054   2.077
 7587SOL    HW223661   5.506   6.978   2.207
 7588SOL     OW23662   1.993   3.530   4.818
 7588SOL    HW123663   1.893   3.534   4.822
 7588SOL    HW223664   2.026   3.588   4.744
 7589SOL     OW23665   6.905   0.116   2.810
 7589SOL    HW123666   6.924   0.039   2.870
 7589SOL    HW223667   6.822   0.163   2.839
 7590SOL     OW23668   5.835   0.984   6.893
 7590SOL    HW123669   5.766   0.984   6.821
 7590SOL    HW223670   5.912   1.041   6.866
 7591SOL     OW23671   3.329   3.989   4.981
 7591SOL    HW123672   3.345   4.048   4.902
 7591SOL    HW223673   3.401   4.005   5.049
 7592SOL     OW23674   0.340   6.349   3.312
 7592SOL    HW123675   0.341   6.269   3.252
 7592SOL    HW223676   0.399   6.332   3.391
 7593SOL     OW23677   6.703   1.624   6.280
 7593SOL    HW123678   6.730   1.530   6.299
 7593SOL    HW223679   6.605   1.628   6.261
 7594SOL     OW23680   6.749   4.107   6.203
 7594SOL    HW123681   6.684   4.165   6.253
 7594SOL    HW223682   6.719   4.098   6.108
 7595SOL     OW23683   0.247   3.080   0.133
 7595SOL    HW123684   0.204   3.161   0.172
 7595SOL    HW223685   0.339   3.103   0.101
 7596SOL     OW23686   3.324   1.609   6.757
 7596SOL    HW123687   3.389   1.570   6.692
 7596SOL    HW223688   3.272   1.682   6.713
 7597SOL     OW23689   2.406   4.354   0.773
 7597SOL    HW123690   2.425   4.331   0.869
 7597SOL    HW223691   2.425   4.451   0.759
 7598SOL     OW23692   5.056   0.584   1.965
 7598SOL    HW123693   4.974   0.611   1.915
 7598SOL    HW223694   5.083   0.657   2.027
 7599SOL     OW23695   3.126   3.197   0.238
 7599SOL    HW123696   3.064   3.256   0.187
 7599SOL    HW223697   3.081   3.110   0.257
 7600SOL     OW23698   0.765   6.899   3.811
 7600SOL    HW123699   0.763   6.949   3.724
 7600SOL    HW223700   0.709   6.816   3.803
 7601SOL     OW23701   2.933   6.457   1.172
 7601SOL    HW123702   2.991   6.525   1.126
 7601SOL    HW223703   2.987   6.411   1.243
 7602SOL     OW23704   0.335   1.165   1.399
 7602SOL    HW123705   0.402   1.125   1.337
 7602SOL    HW223706   0.370   1.251   1.435
 7603SOL     OW23707   4.376   1.193   6.459
 7603SOL    HW123708   4.422   1.263   6.405
 7603SOL    HW223709   4.311   1.144   6.400
 7604SOL     OW23710   2.699   2.366   5.150
 7604SOL    HW123711   2.757   2.335   5.075
 7604SOL    HW223712   2.614   2.313   5.151
 7605SOL     OW23713   3.052   5.734   0.119
 7605SOL    HW123714   3.081   5.719   0.214
 7605SOL    HW223715   3.128   5.771   0.066
 7606SOL     OW23716   6.209   0.536   3.312
 7606SOL    HW123717   6.180   0.478   3.235
 7606SOL    HW223718   6.247   0.621   3.277
 7607SOL     OW23719   1.839   5.530   5.551
 7607SOL    HW123720   1.794   5.593   5.487
 7607SOL    HW223721   1.869   5.449   5.502
 7608SOL     OW23722   0.278   2.710   6.318
 7608SOL    HW123723   0.272   2.710   6.417
 7608SOL    HW223724   0.287   2.803   6.284
 7609SOL     OW23725   2.957   0.060   4.948
 7609SOL    HW123726   2.956   0.158   4.930
 7609SOL    HW223727   3.050   0.031   4.971
 7610SOL     OW23728   4.251   5.267   4.067
 7610SOL    HW123729   4.158   5.235   4.048
 7610SOL    HW223730   4.251   5.366   4.077
 7611SOL     OW23731   3.849   2.426   0.311
 7611SOL    HW123732   3.893   2.384   0.232
 7611SOL    HW223733   3.771   2.481   0.281
 7612SOL     OW23734   4.558   2.486   2.358
 7612SOL    HW123735   4.486   2.417   2.360
 7612SOL    HW223736   4.645   2.442   2.335
 7613SOL     OW23737   0.174   0.916   0.097
 7613SOL    HW123738   0.153   0.829   0.142
 7613SOL    HW223739   0.166   0.906   7.020
 7614SOL     OW23740   6.084   5.404   6.772
 7614SOL    HW123741   6.175   5.443   6.762
 7614SOL    HW223742   6.076   5.323   6.714
 7615SOL     OW23743   5.045   2.792   6.294
 7615SOL    HW123744   5.058   2.891   6.292
 7615SOL    HW223745   4.966   2.770   6.353
 7616SOL     OW23746   6.534   6.714   1.957
 7616SOL    HW123747   6.510   6.624   1.920
 7616SOL    HW223748   6.585   6.702   2.042
 7617SOL     OW23749   6.173   4.186   3.246
 7617SOL    HW123750   6.108   4.257   3.217
 7617SOL    HW223751   6.183   4.189   3.345
 7618SOL     OW23752   2.928   2.128   0.276
 7618SOL    HW123753   2.972   2.093   0.193
 7618SOL    HW223754   2.895   2.221   0.259
 7619SOL     OW23755   0.389   0.503   4.869
 7619SOL    HW123756   0.428   0.595   4.862
 7619SOL    HW223757   0.362   0.470   4.779
 7620SOL     OW23758   3.652   4.319   0.167
 7620SOL    HW123759   3.569   4.302   0.220
 7620SOL    HW223760   3.729   4.271   0.208
 7621SOL     OW23761   6.337   5.002   0.584
 7621SOL    HW123762   6.337   4.902   0.580
 7621SOL    HW223763   6.255   5.033   0.633
 7622SOL     OW23764   2.563   4.223   0.998
 7622SOL    HW123765   2.651   4.266   1.018
 7622SOL    HW223766   2.573   4.123   1.004
 7623SOL     OW23767   4.947   4.397   2.759
 7623SOL    HW123768   5.001   4.325   2.714
 7623SOL    HW223769   4.981   4.411   2.852
 7624SOL     OW23770   6.855   2.920   2.729
 7624SOL    HW123771   6.935   2.979   2.718
 7624SOL    HW223772   6.813   2.937   2.818
 7625SOL     OW23773   5.164   0.304   1.975
 7625SOL    HW123774   5.085   0.243   1.977
 7625SOL    HW223775   5.136   0.394   1.942
 7626SOL     OW23776   4.716   6.383   0.211
 7626SOL    HW123777   4.619   6.364   0.193
 7626SOL    HW223778   4.773   6.321   0.157
 7627SOL     OW23779   4.455   2.619   5.616
 7627SOL    HW123780   4.363   2.580   5.606
 7627SOL    HW223781   4.452   2.695   5.681
 7628SOL     OW23782   3.574   2.641   0.878
 7628SOL    HW123783   3.484   2.635   0.834
 7628SOL    HW223784   3.596   2.737   0.895
 7629SOL     OW23785   5.558   2.943   3.311
 7629SOL    HW123786   5.468   2.924   3.273
 7629SOL    HW223787   5.622   2.872   3.283
 7630SOL     OW23788   1.307   6.049   3.941
 7630SOL    HW123789   1.285   5.972   4.001
 7630SOL    HW223790   1.393   6.091   3.971
 7631SOL     OW23791   1.299   1.315   6.323
 7631SOL    HW123792   1.365   1.266   6.266
 7631SOL    HW223793   1.208   1.276   6.310
 7632SOL     OW23794   4.236   5.502   1.724
 7632SOL    HW123795   4.179   5.570   1.679
 7632SOL    HW223796   4.298   5.548   1.789
 7633SOL     OW23797   5.172   0.659   1.591
 7633SOL    HW123798   5.250   0.645   1.651
 7633SOL    HW223799   5.116   0.734   1.625
 7634SOL     OW23800   0.317   2.128   6.611
 7634SOL    HW123801   0.373   2.123   6.694
 7634SOL    HW223802   0.375   2.151   6.533
 7635SOL     OW23803   1.095   3.133   5.864
 7635SOL    HW123804   1.125   3.126   5.768
 7635SOL    HW223805   0.997   3.118   5.869
 7636SOL     OW23806   6.706   2.903   3.638
 7636SOL    HW123807   6.784   2.913   3.576
 7636SOL    HW223808   6.739   2.871   3.727
 7637SOL     OW23809   1.320   4.055   5.233
 7637SOL    HW123810   1.222   4.070   5.216
 7637SOL    HW223811   1.370   4.059   5.147
 7638SOL     OW23812   0.798   6.592   0.910
 7638SOL    HW123813   0.744   6.529   0.965
 7638SOL    HW223814   0.737   6.655   0.861
 7639SOL     OW23815   2.411   6.530   0.533
 7639SOL    HW123816   2.328   6.488   0.571
 7639SOL    HW223817   2.398   6.547   0.436
 7640SOL     OW23818   3.338   0.303   0.981
 7640SOL    HW123819   3.388   0.338   1.059
 7640SOL    HW223820   3.403   0.263   0.915
 7641SOL     OW23821   6.568   4.918   4.766
 7641SOL    HW123822   6.557   4.981   4.843
 7641SOL    HW223823   6.545   4.825   4.795
 7642SOL     OW23824   5.816   1.163   3.794
 7642SOL    HW123825   5.804   1.230   3.721
 7642SOL    HW223826   5.839   1.211   3.879
 7643SOL     OW23827   5.132   1.904   4.062
 7643SOL    HW123828   5.113   1.884   3.966
 7643SOL    HW223829   5.185   1.988   4.068
 7644SOL     OW23830   5.366   3.837   0.745
 7644SOL    HW123831   5.431   3.907   0.714
 7644SOL    HW223832   5.276   3.855   0.705
 7645SOL     OW23833   4.957   5.166   6.133
 7645SOL    HW123834   5.028   5.100   6.112
 7645SOL    HW223835   4.900   5.133   6.208
 7646SOL     OW23836   6.266   1.856   2.032
 7646SOL    HW123837   6.287   1.938   2.085
 7646SOL    HW223838   6.211   1.880   1.953
 7647SOL     OW23839   6.834   1.602   3.961
 7647SOL    HW123840   6.930   1.605   3.986
 7647SOL    HW223841   6.821   1.647   3.872
 7648SOL     OW23842   1.756   2.525   0.856
 7648SOL    HW123843   1.718   2.504   0.766
 7648SOL    HW223844   1.856   2.526   0.850
 7649SOL     OW23845   3.986   0.597   0.218
 7649SOL    HW123846   3.941   0.606   0.130
 7649SOL    HW223847   4.065   0.658   0.222
 7650SOL     OW23848   3.534   2.645   0.520
 7650SOL    HW123849   3.612   2.647   0.582
 7650SOL    HW223850   3.454   2.607   0.567
 7651SOL     OW23851   3.775   5.553   6.233
 7651SOL    HW123852   3.790   5.619   6.306
 7651SOL    HW223853   3.774   5.599   6.145
 7652SOL     OW23854   0.393   0.745   5.232
 7652SOL    HW123855   0.441   0.723   5.147
 7652SOL    HW223856   0.370   0.660   5.280
 7653SOL     OW23857   1.764   6.629   6.448
 7653SOL    HW123858   1.847   6.658   6.497
 7653SOL    HW223859   1.698   6.592   6.514
 7654SOL     OW23860   6.559   2.598   5.611
 7654SOL    HW123861   6.568   2.643   5.700
 7654SOL    HW223862   6.545   2.667   5.540
 7655SOL     OW23863   3.039   1.633   4.991
 7655SOL    HW123864   3.055   1.613   5.088
 7655SOL    HW223865   2.962   1.696   4.983
 7656SOL     OW23866   5.955   3.805   0.200
 7656SOL    HW123867   6.027   3.853   0.251
 7656SOL    HW223868   5.879   3.785   0.261
 7657SOL     OW23869   1.162   3.852   4.774
 7657SOL    HW123870   1.246   3.823   4.820
 7657SOL    HW223871   1.180   3.858   4.675
 7658SOL     OW23872   3.078   0.591   1.100
 7658SOL    HW123873   2.999   0.573   1.158
 7658SOL    HW223874   3.160   0.602   1.157
 7659SOL     OW23875   5.548   3.912   5.325
 7659SOL    HW123876   5.615   3.947   5.259
 7659SOL    HW223877   5.503   3.831   5.287
 7660SOL     OW23878   0.356   6.300   5.020
 7660SOL    HW123879   0.364   6.352   5.105
 7660SOL    HW223880   0.400   6.211   5.032
 7661SOL     OW23881   2.367   0.447   4.769
 7661SOL    HW123882   2.461   0.467   4.794
 7661SOL    HW223883   2.341   0.500   4.688
 7662SOL     OW23884   6.929   6.388   1.346
 7662SOL    HW123885   6.947   6.416   1.252
 7662SOL    HW223886   6.948   6.465   1.408
 7663SOL     OW23887   1.199   5.863   4.166
 7663SOL    HW123888   1.149   5.949   4.177
 7663SOL    HW223889   1.207   5.818   4.255
 7664SOL     OW23890   5.848   2.238   2.818
 7664SOL    HW123891   5.845   2.154   2.872
 7664SOL    HW223892   5.791   2.227   2.737
 7665SOL     OW23893   2.129   0.295   5.384
 7665SOL    HW123894   2.165   0.223   5.324
 7665SOL    HW223895   2.059   0.255   5.444
 7666SOL     OW23896   6.084   5.483   4.185
 7666SOL    HW123897   6.116   5.389   4.177
 7666SOL    HW223898   6.032   5.507   4.102
 7667SOL     OW23899   4.142   5.447   1.362
 7667SOL    HW123900   4.097   5.532   1.333
 7667SOL    HW223901   4.241   5.456   1.351
 7668SOL     OW23902   1.490   5.722   0.276
 7668SOL    HW123903   1.589   5.733   0.270
 7668SOL    HW223904   1.445   5.801   0.236
 7669SOL     OW23905   3.719   2.346   6.384
 7669SOL    HW123906   3.642   2.350   6.448
 7669SOL    HW223907   3.685   2.351   6.290
 7670SOL     OW23908   1.171   0.090   0.455
 7670SOL    HW123909   1.246   0.122   0.397
 7670SOL    HW223910   1.159   7.014   0.443
 7671SOL     OW23911   3.980   0.749   1.699
 7671SOL    HW123912   3.941   0.664   1.736
 7671SOL    HW223913   3.968   0.750   1.599
 7672SOL     OW23914   5.536   2.711   2.148
 7672SOL    HW123915   5.610   2.758   2.197
 7672SOL    HW223916   5.496   2.642   2.209
 7673SOL     OW23917   2.222   6.698   5.322
 7673SOL    HW123918   2.226   6.628   5.393
 7673SOL    HW223919   2.169   6.776   5.355
 7674SOL     OW23920   3.428   5.474   3.775
 7674SOL    HW123921   3.406   5.387   3.821
 7674SOL    HW223922   3.422   5.462   3.676
 7675SOL     OW23923   3.924   6.241   3.493
 7675SOL    HW123924   3.916   6.183   3.575
 7675SOL    HW223925   3.945   6.335   3.521
 7676SOL     OW23926   3.149   2.975   4.509
 7676SOL    HW123927   3.109   3.006   4.596
 7676SOL    HW223928   3.102   2.892   4.478
 7677SOL     OW23929   0.503   6.403   0.035
 7677SOL    HW123930   0.429   6.340   0.057
 7677SOL    HW223931   0.511   6.412   6.959
 7678SOL     OW23932   3.259   1.033   5.444
 7678SOL    HW123933   3.241   0.986   5.530
 7678SOL    HW223934   3.272   0.966   5.371
 7679SOL     OW23935   3.151   5.492   4.058
 7679SOL    HW123936   3.227   5.455   4.112
 7679SOL    HW223937   3.115   5.420   3.999
 7680SOL     OW23938   1.328   6.472   4.156
 7680SOL    HW123939   1.422   6.463   4.189
 7680SOL    HW223940   1.270   6.405   4.201
 7681SOL     OW23941   2.009   2.087   5.359
 7681SOL    HW123942   1.957   2.039   5.288
 7681SOL    HW223943   1.950   2.155   5.402
 7682SOL     OW23944   3.460   0.304   1.861
 7682SOL    HW123945   3.418   0.302   1.951
 7682SOL    HW223946   3.480   0.399   1.836
 7683SOL     OW23947   1.251   4.207   4.733
 7683SOL    HW123948   1.159   4.197   4.772
 7683SOL    HW223949   1.247   4.189   4.634
 7684SOL     OW23950   4.951   3.758   1.432
 7684SOL    HW123951   4.859   3.732   1.402
 7684SOL    HW223952   4.944   3.803   1.521
 7685SOL     OW23953   2.500   0.111   0.126
 7685SOL    HW123954   2.508   0.199   0.079
 7685SOL    HW223955   2.544   0.117   0.216
 7686SOL     OW23956   6.214   0.609   4.299
 7686SOL    HW123957   6.150   0.620   4.223
 7686SOL    HW223958   6.301   0.575   4.265
 7687SOL     OW23959   5.849   3.576   5.798
 7687SOL    HW123960   5.795   3.596   5.716
 7687SOL    HW223961   5.837   3.651   5.864
 7688SOL     OW23962   6.839   3.287   0.446
 7688SOL    HW123963   6.905   3.314   0.516
 7688SOL    HW223964   6.837   3.187   0.439
 7689SOL     OW23965   5.246   0.330   2.869
 7689SOL    HW123966   5.302   0.410   2.849
 7689SOL    HW223967   5.274   0.254   2.811
 7690SOL     OW23968   6.151   4.576   2.641
 7690SOL    HW123969   6.219   4.631   2.690
 7690SOL    HW223970   6.071   4.563   2.700
 7691SOL     OW23971   5.156   2.897   4.309
 7691SOL    HW123972   5.205   2.956   4.374
 7691SOL    HW223973   5.138   2.948   4.225
 7692SOL     OW23974   2.482   6.587   2.288
 7692SOL    HW123975   2.389   6.624   2.282
 7692SOL    HW223976   2.479   6.488   2.273
 7693SOL     OW23977   2.669   2.260   0.930
 7693SOL    HW123978   2.579   2.296   0.906
 7693SOL    HW223979   2.669   2.233   1.027
 7694SOL     OW23980   4.381   2.533   1.288
 7694SOL    HW123981   4.328   2.552   1.371
 7694SOL    HW223982   4.319   2.525   1.210
 7695SOL     OW23983   4.819   6.869   4.246
 7695SOL    HW123984   4.901   6.921   4.271
 7695SOL    HW223985   4.762   6.924   4.185
 7696SOL     OW23986   2.260   1.491   5.613
 7696SOL    HW123987   2.216   1.492   5.524
 7696SOL    HW223988   2.270   1.397   5.645
 7697SOL     OW23989   5.756   0.008   3.046
 7697SOL    HW123990   5.697   6.973   2.990
 7697SOL    HW223991   5.845   6.985   3.058
 7698SOL     OW23992   6.002   2.358   1.438
 7698SOL    HW123993   6.022   2.266   1.405
 7698SOL    HW223994   6.007   2.423   1.361
 7699SOL     OW23995   3.828   6.004   6.308
 7699SOL    HW123996   3.736   6.016   6.270
 7699SOL    HW223997   3.852   6.083   6.364
 7700SOL     OW23998   6.410   5.131   1.887
 7700SOL    HW123999   6.432   5.228   1.900
 7700SOL    HW224000   6.492   5.076   1.896
 7701SOL     OW24001   3.122   1.710   6.468
 7701SOL    HW124002   3.146   1.648   6.393
 7701SOL    HW224003   3.038   1.758   6.446
 7702SOL     OW24004   6.273   6.045   5.825
 7702SOL    HW124005   6.325   6.039   5.911
 7702SOL    HW224006   6.180   6.076   5.845
 7703SOL     OW24007   0.296   6.486   6.498
 7703SOL    HW124008   0.277   6.583   6.508
 7703SOL    HW224009   0.386   6.474   6.457
 7704SOL     OW24010   1.518   2.268   4.894
 7704SOL    HW124011   1.481   2.295   4.983
 7704SOL    HW224012   1.481   2.329   4.823
 7705SOL     OW24013   0.945   4.589   0.523
 7705SOL    HW124014   1.017   4.525   0.552
 7705SOL    HW224015   0.856   4.544   0.528
 7706SOL     OW24016   3.306   3.987   1.875
 7706SOL    HW124017   3.346   4.023   1.960
 7706SOL    HW224018   3.280   3.892   1.888
 7707SOL     OW24019   0.087   5.323   5.759
 7707SOL    HW124020   0.034   5.370   5.829
 7707SOL    HW224021   0.078   5.371   5.672
 7708SOL     OW24022   0.501   0.289   4.082
 7708SOL    HW124023   0.580   0.234   4.058
 7708SOL    HW224024   0.532   0.374   4.125
 7709SOL     OW24025   6.082   4.663   0.815
 7709SOL    HW124026   6.027   4.598   0.868
 7709SOL    HW224027   6.128   4.726   0.877
 7710SOL     OW24028   6.262   3.239   2.744
 7710SOL    HW124029   6.242   3.337   2.752
 7710SOL    HW224030   6.295   3.219   2.653
 7711SOL     OW24031   1.124   4.463   3.317
 7711SOL    HW124032   1.107   4.495   3.224
 7711SOL    HW224033   1.060   4.390   3.339
 7712SOL     OW24034   1.175   4.716   4.383
 7712SOL    HW124035   1.140   4.795   4.333
 7712SOL    HW224036   1.106   4.685   4.449
 7713SOL     OW24037   1.149   5.822   0.227
 7713SOL    HW124038   1.240   5.857   0.204
 7713SOL    HW224039   1.146   5.724   0.211
 7714SOL     OW24040   5.501   1.833   4.862
 7714SOL    HW124041   5.422   1.790   4.820
 7714SOL    HW224042   5.551   1.766   4.917
 7715SOL     OW24043   3.890   3.791   6.658
 7715SOL    HW124044   3.808   3.735   6.646
 7715SOL    HW224045   3.927   3.815   6.569
 7716SOL     OW24046   1.964   1.204   6.870
 7716SOL    HW124047   2.059   1.230   6.888
 7716SOL    HW224048   1.905   1.246   6.939
 7717SOL     OW24049   0.693   1.802   5.919
 7717SOL    HW124050   0.669   1.709   5.947
 7717SOL    HW224051   0.658   1.867   5.987
 7718SOL     OW24052   0.208   3.778   3.433
 7718SOL    HW124053   0.135   3.720   3.395
 7718SOL    HW224054   0.243   3.736   3.517
 7719SOL     OW24055   2.186   6.487   5.171
 7719SOL    HW124056   2.201   6.580   5.203
 7719SOL    HW224057   2.119   6.442   5.230
 7720SOL     OW24058   4.573   1.403   6.366
 7720SOL    HW124059   4.655   1.346   6.371
 7720SOL    HW224060   4.559   1.434   6.272
 7721SOL     OW24061   5.986   5.414   2.797
 7721SOL    HW124062   6.036   5.361   2.729
 7721SOL    HW224063   5.945   5.351   2.863
 7722SOL     OW24064   0.152   6.184   4.491
 7722SOL    HW124065   0.097   6.258   4.531
 7722SOL    HW224066   0.149   6.104   4.551
 7723SOL     OW24067   3.853   4.441   6.723
 7723SOL    HW124068   3.924   4.487   6.777
 7723SOL    HW224069   3.794   4.509   6.681
 7724SOL     OW24070   1.363   4.610   0.411
 7724SOL    HW124071   1.333   4.691   0.461
 7724SOL    HW224072   1.459   4.618   0.388
 7725SOL     OW24073   5.400   3.342   4.714
 7725SOL    HW124074   5.370   3.368   4.806
 7725SOL    HW224075   5.320   3.324   4.657
 7726SOL     OW24076   2.286   3.306   0.791
 7726SOL    HW124077   2.373   3.354   0.775
 7726SOL    HW224078   2.238   3.350   0.867
 7727SOL     OW24079   5.555   0.602   3.544
 7727SOL    HW124080   5.633   0.557   3.588
 7727SOL    HW224081   5.480   0.610   3.610
 7728SOL     OW24082   2.107   3.172   5.539
 7728SOL    HW124083   2.200   3.209   5.547
 7728SOL    HW224084   2.062   3.213   5.459
 7729SOL     OW24085   0.117   1.139   2.820
 7729SOL    HW124086   0.203   1.088   2.817
 7729SOL    HW224087   0.042   1.076   2.843
 7730SOL     OW24088   6.098   3.575   6.259
 7730SOL    HW124089   6.108   3.530   6.348
 7730SOL    HW224090   6.093   3.506   6.187
 7731SOL     OW24091   6.953   0.515   6.218
 7731SOL    HW124092   0.003   0.533   6.285
 7731SOL    HW224093   6.865   0.509   6.265
 7732SOL     OW24094   4.312   1.164   0.228
 7732SOL    HW124095   4.357   1.251   0.249
 7732SOL    HW224096   4.331   1.138   0.134
 7733SOL     OW24097   5.699   6.459   1.498
 7733SOL    HW124098   5.658   6.534   1.550
 7733SOL    HW224099   5.743   6.395   1.561
 7734SOL     OW24100   4.072   3.771   3.394
 7734SOL    HW124101   4.131   3.800   3.469
 7734SOL    HW224102   3.978   3.762   3.427
 7735SOL     OW24103   0.796   5.817   0.882
 7735SOL    HW124104   0.735   5.843   0.806
 7735SOL    HW224105   0.741   5.786   0.959
 7736SOL     OW24106   1.832   1.539   1.023
 7736SOL    HW124107   1.810   1.512   0.930
 7736SOL    HW224108   1.752   1.582   1.065
 7737SOL     OW24109   4.407   4.691   6.770
 7737SOL    HW124110   4.377   4.598   6.750
 7737SOL    HW224111   4.376   4.718   6.861
 7738SOL     OW24112   1.404   0.937   5.382
 7738SOL    HW124113   1.378   1.022   5.337
 7738SOL    HW224114   1.367   0.935   5.475
 7739SOL     OW24115   0.825   3.016   6.484
 7739SOL    HW124116   0.743   3.046   6.532
 7739SOL    HW224117   0.878   3.095   6.456
 7740SOL     OW24118   2.431   0.582   3.998
 7740SOL    HW124119   2.425   0.645   3.920
 7740SOL    HW224120   2.398   0.629   4.080
 7741SOL     OW24121   6.474   4.339   6.055
 7741SOL    HW124122   6.411   4.384   5.992
 7741SOL    HW224123   6.471   4.384   6.144
 7742SOL     OW24124   4.889   2.613   3.779
 7742SOL    HW124125   4.927   2.633   3.869
 7742SOL    HW224126   4.955   2.641   3.709
 7743SOL     OW24127   3.435   1.236   6.172
 7743SOL    HW124128   3.388   1.303   6.114
 7743SOL    HW224129   3.398   1.145   6.154
 7744SOL     OW24130   0.310   6.287   4.722
 7744SOL    HW124131   0.231   6.344   4.744
 7744SOL    HW224132   0.380   6.298   4.793
 7745SOL     OW24133   2.692   0.120   0.640
 7745SOL    HW124134   2.627   0.091   0.711
 7745SOL    HW224135   2.775   0.064   0.648
 7746SOL     OW24136   0.026   6.154   0.792
 7746SOL    HW124137   0.018   6.080   0.725
 7746SOL    HW224138   0.070   6.233   0.748
 7747SOL     OW24139   0.053   6.147   1.361
 7747SOL    HW124140   0.001   6.233   1.362
 7747SOL    HW224141   0.031   6.093   1.442
 7748SOL     OW24142   4.742   0.681   5.967
 7748SOL    HW124143   4.665   0.742   5.988
 7748SOL    HW224144   4.826   0.720   6.004
 7749SOL     OW24145   3.150   3.393   2.641
 7749SOL    HW124146   3.220   3.447   2.687
 7749SOL    HW224147   3.191   3.345   2.563
 7750SOL     OW24148   5.336   4.056   6.347
 7750SOL    HW124149   5.266   4.113   6.392
 7750SOL    HW224150   5.309   3.960   6.352
 7751SOL     OW24151   0.745   1.297   4.713
 7751SOL    HW124152   0.712   1.267   4.802
 7751SOL    HW224153   0.722   1.229   4.644
 7752SOL     OW24154   5.574   4.045   6.185
 7752SOL    HW124155   5.636   4.105   6.235
 7752SOL    HW224156   5.503   4.012   6.246
 7753SOL     OW24157   2.796   1.001   4.815
 7753SOL    HW124158   2.764   1.074   4.755
 7753SOL    HW224159   2.853   1.040   4.888
 7754SOL     OW24160   6.440   1.362   0.935
 7754SOL    HW124161   6.402   1.373   0.843
 7754SOL    HW224162   6.476   1.269   0.945
 7755SOL     OW24163   1.751   6.275   5.394
 7755SOL    HW124164   1.839   6.322   5.404
 7755SOL    HW224165   1.676   6.341   5.404
 7756SOL     OW24166   3.619   6.585   2.878
 7756SOL    HW124167   3.666   6.504   2.915
 7756SOL    HW224168   3.533   6.556   2.836
 7757SOL     OW24169   3.339   1.251   5.781
 7757SOL    HW124170   3.364   1.301   5.698
 7757SOL    HW224171   3.369   1.156   5.773
 7758SOL     OW24172   2.611   1.812   6.441
 7758SOL    HW124173   2.578   1.798   6.534
 7758SOL    HW224174   2.655   1.728   6.408
 7759SOL     OW24175   2.509   0.640   4.570
 7759SOL    HW124176   2.583   0.707   4.567
 7759SOL    HW224177   2.483   0.614   4.477
 7760SOL     OW24178   5.142   1.738   2.927
 7760SOL    HW124179   5.120   1.790   2.845
 7760SOL    HW224180   5.141   1.799   3.007
 7761SOL     OW24181   4.626   1.014   0.113
 7761SOL    HW124182   4.629   1.076   0.035
 7761SOL    HW224183   4.587   1.062   0.192
 7762SOL     OW24184   1.547   2.120   0.525
 7762SOL    HW124185   1.552   2.219   0.533
 7762SOL    HW224186   1.591   2.077   0.605
 7763SOL     OW24187   2.212   2.797   0.872
 7763SOL    HW124188   2.285   2.773   0.936
 7763SOL    HW224189   2.225   2.747   0.787
 7764SOL     OW24190   3.362   3.298   1.976
 7764SOL    HW124191   3.262   3.298   1.971
 7764SOL    HW224192   3.399   3.262   1.890
 7765SOL     OW24193   6.942   1.223   1.919
 7765SOL    HW124194   6.910   1.154   1.854
 7765SOL    HW224195   6.876   1.298   1.923
 7766SOL     OW24196   6.928   3.028   0.109
 7766SOL    HW124197   6.882   2.942   0.133
 7766SOL    HW224198   7.019   3.008   0.072
 7767SOL     OW24199   5.970   3.785   5.210
 7767SOL    HW124200   6.020   3.871   5.209
 7767SOL    HW224201   6.005   3.727   5.284
 7768SOL     OW24202   3.674   5.318   1.524
 7768SOL    HW124203   3.745   5.332   1.455
 7768SOL    HW224204   3.638   5.407   1.553
 7769SOL     OW24205   4.795   2.018   3.513
 7769SOL    HW124206   4.869   1.951   3.508
 7769SOL    HW224207   4.710   1.972   3.539
 7770SOL     OW24208   3.201   6.533   1.319
 7770SOL    HW124209   3.282   6.547   1.261
 7770SOL    HW224210   3.230   6.523   1.414
 7771SOL     OW24211   2.446   0.780   4.236
 7771SOL    HW124212   2.359   0.818   4.266
 7771SOL    HW224213   2.517   0.849   4.243
 7772SOL     OW24214   5.564   0.725   5.363
 7772SOL    HW124215   5.549   0.799   5.429
 7772SOL    HW224216   5.662   0.704   5.359
 7773SOL     OW24217   4.356   4.328   5.994
 7773SOL    HW124218   4.307   4.363   6.074
 7773SOL    HW224219   4.344   4.228   5.989
 7774SOL     OW24220   4.308   1.575   0.149
 7774SOL    HW124221   4.299   1.631   0.066
 7774SOL    HW224222   4.379   1.506   0.135
 7775SOL     OW24223   1.510   6.465   2.040
 7775SOL    HW124224   1.560   6.530   2.098
 7775SOL    HW224225   1.576   6.414   1.984
 7776SOL     OW24226   3.006   4.627   0.804
 7776SOL    HW124227   3.016   4.550   0.867
 7776SOL    HW224228   3.088   4.635   0.747
 7777SOL     OW24229   0.428   0.220   6.761
 7777SOL    HW124230   0.404   0.123   6.760
 7777SOL    HW224231   0.523   0.231   6.732
 7778SOL     OW24232   5.133   2.750   2.091
 7778SOL    HW124233   5.209   2.788   2.039
 7778SOL    HW224234   5.049   2.754   2.036
 7779SOL     OW24235   4.301   3.169   0.406
 7779SOL    HW124236   4.217   3.117   0.426
 7779SOL    HW224237   4.366   3.156   0.481
 7780SOL     OW24238   1.485   0.451   3.919
 7780SOL    HW124239   1.388   0.463   3.943
 7780SOL    HW224240   1.510   0.517   3.847
 7781SOL     OW24241   1.754   4.103   5.824
 7781SOL    HW124242   1.662   4.063   5.823
 7781SOL    HW224243   1.811   4.057   5.756
 7782SOL     OW24244   4.636   4.796   0.442
 7782SOL    HW124245   4.678   4.883   0.415
 7782SOL    HW224246   4.576   4.764   0.369
 7783SOL     OW24247   3.282   5.736   6.586
 7783SOL    HW124248   3.318   5.749   6.494
 7783SOL    HW224249   3.289   5.821   6.638
 7784SOL     OW24250   6.146   3.546   0.332
 7784SOL    HW124251   6.194   3.547   0.420
 7784SOL    HW224252   6.169   3.628   0.280
 7785SOL     OW24253   1.335   6.402   5.981
 7785SOL    HW124254   1.379   6.369   6.064
 7785SOL    HW224255   1.255   6.458   6.005
 7786SOL     OW24256   3.788   4.093   5.241
 7786SOL    HW124257   3.862   4.027   5.233
 7786SOL    HW224258   3.760   4.123   5.150
 7787SOL     OW24259   3.419   1.915   5.380
 7787SOL    HW124260   3.334   1.865   5.362
 7787SOL    HW224261   3.408   2.010   5.350
 7788SOL     OW24262   6.903   2.629   1.075
 7788SOL    HW124263   6.971   2.702   1.070
 7788SOL    HW224264   6.824   2.660   1.127
 7789SOL     OW24265   0.967   0.107   1.884
 7789SOL    HW124266   0.991   0.024   1.934
 7789SOL    HW224267   0.986   0.094   1.787
 7790SOL     OW24268   6.985   3.619   2.351
 7790SOL    HW124269   6.918   3.556   2.314
 7790SOL    HW224270   6.951   3.713   2.345
 7791SOL     OW24271   6.710   5.632   5.629
 7791SOL    HW124272   6.781   5.682   5.580
 7791SOL    HW224273   6.643   5.596   5.564
 7792SOL     OW24274   2.149   5.772   6.287
 7792SOL    HW124275   2.142   5.680   6.324
 7792SOL    HW224276   2.058   5.814   6.284
 7793SOL     OW24277   2.259   0.577   6.573
 7793SOL    HW124278   2.311   0.659   6.596
 7793SOL    HW224279   2.195   0.556   6.648
 7794SOL     OW24280   4.871   4.951   2.475
 7794SOL    HW124281   4.958   4.998   2.459
 7794SOL    HW224282   4.870   4.865   2.424
 7795SOL     OW24283   1.579   3.906   6.350
 7795SOL    HW124284   1.677   3.886   6.347
 7795SOL    HW224285   1.564   3.990   6.403
 7796SOL     OW24286   4.010   3.328   4.178
 7796SOL    HW124287   4.067   3.368   4.106
 7796SOL    HW224288   3.930   3.387   4.194
 7797SOL     OW24289   1.057   6.139   3.965
 7797SOL    HW124290   1.154   6.115   3.968
 7797SOL    HW224291   1.022   6.120   3.873
 7798SOL     OW24292   4.786   5.340   5.886
 7798SOL    HW124293   4.786   5.338   5.786
 7798SOL    HW224294   4.805   5.433   5.917
 7799SOL     OW24295   6.161   5.645   1.416
 7799SOL    HW124296   6.143   5.611   1.508
 7799SOL    HW224297   6.214   5.730   1.421
 7800SOL     OW24298   0.495   5.969   2.261
 7800SOL    HW124299   0.579   6.000   2.304
 7800SOL    HW224300   0.440   6.048   2.232
 7801SOL     OW24301   4.600   2.445   5.252
 7801SOL    HW124302   4.578   2.462   5.349
 7801SOL    HW224303   4.656   2.520   5.217
 7802SOL     OW24304   5.919   2.400   6.748
 7802SOL    HW124305   5.870   2.402   6.661
 7802SOL    HW224306   5.992   2.331   6.744
 7803SOL     OW24307   2.941   3.527   5.823
 7803SOL    HW124308   2.992   3.607   5.792
 7803SOL    HW224309   2.958   3.450   5.760
 7804SOL     OW24310   5.272   0.918   5.930
 7804SOL    HW124311   5.315   0.902   5.842
 7804SOL    HW224312   5.310   1.002   5.971
 7805SOL     OW24313   5.846   3.084   1.698
 7805SOL    HW124314   5.857   3.022   1.775
 7805SOL    HW224315   5.794   3.038   1.626
 7806SOL     OW24316   5.210   2.629   0.427
 7806SOL    HW124317   5.133   2.601   0.484
 7806SOL    HW224318   5.187   2.714   0.380
 7807SOL     OW24319   0.847   3.931   6.960
 7807SOL    HW124320   0.941   3.920   6.926
 7807SOL    HW224321   0.836   4.022   7.000
 7808SOL     OW24322   0.194   1.368   4.871
 7808SOL    HW124323   0.246   1.326   4.797
 7808SOL    HW224324   0.104   1.324   4.877
 7809SOL     OW24325   1.183   5.427   5.781
 7809SOL    HW124326   1.094   5.456   5.748
 7809SOL    HW224327   1.255   5.462   5.721
 7810SOL     OW24328   3.411   1.093   6.845
 7810SOL    HW124329   3.500   1.126   6.812
 7810SOL    HW224330   3.339   1.155   6.815
 7811SOL     OW24331   6.118   4.804   5.142
 7811SOL    HW124332   6.036   4.854   5.171
 7811SOL    HW224333   6.100   4.706   5.149
 7812SOL     OW24334   0.481   2.196   3.809
 7812SOL    HW124335   0.550   2.124   3.805
 7812SOL    HW224336   0.487   2.252   3.726
 7813SOL     OW24337   5.754   1.474   1.234
 7813SOL    HW124338   5.742   1.396   1.172
 7813SOL    HW224339   5.850   1.503   1.232
 7814SOL     OW24340   1.998   2.895   3.822
 7814SOL    HW124341   1.979   2.993   3.810
 7814SOL    HW224342   1.947   2.860   3.900
 7815SOL     OW24343   6.959   2.158   5.261
 7815SOL    HW124344   0.007   2.226   5.279
 7815SOL    HW224345   6.924   2.123   5.348
 7816SOL     OW24346   0.068   4.498   4.998
 7816SOL    HW124347   7.002   4.521   5.039
 7816SOL    HW224348   0.140   4.552   5.041
 7817SOL     OW24349   5.588   2.951   5.582
 7817SOL    HW124350   5.491   2.941   5.557
 7817SOL    HW224351   5.634   2.863   5.570
 7818SOL     OW24352   5.787   2.869   3.699
 7818SOL    HW124353   5.761   2.916   3.614
 7818SOL    HW224354   5.885   2.885   3.716
 7819SOL     OW24355   1.309   1.119   0.901
 7819SOL    HW124356   1.310   1.197   0.838
 7819SOL    HW224357   1.238   1.133   0.970
 7820SOL     OW24358   3.247   6.578   6.089
 7820SOL    HW124359   3.183   6.650   6.061
 7820SOL    HW224360   3.341   6.609   6.072
 7821SOL     OW24361   3.266   6.279   0.991
 7821SOL    HW124362   3.189   6.314   0.938
 7821SOL    HW224363   3.242   6.280   1.088
 7822SOL     OW24364   0.933   6.376   5.324
 7822SOL    HW124365   0.946   6.442   5.250
 7822SOL    HW224366   0.941   6.283   5.288
 7823SOL     OW24367   1.918   3.472   5.405
 7823SOL    HW124368   1.933   3.556   5.353
 7823SOL    HW224369   1.829   3.476   5.451
 7824SOL     OW24370   0.540   3.284   5.702
 7824SOL    HW124371   0.569   3.375   5.731
 7824SOL    HW224372   0.515   3.286   5.605
 7825SOL     OW24373   2.449   1.012   0.228
 7825SOL    HW124374   2.537   1.000   0.273
 7825SOL    HW224375   2.397   1.084   0.275
 7826SOL     OW24376   0.455   4.012   5.906
 7826SOL    HW124377   0.400   4.038   5.827
 7826SOL    HW224378   0.550   3.997   5.877
 7827SOL     OW24379   6.147   5.214   3.618
 7827SOL    HW124380   6.239   5.249   3.633
 7827SOL    HW224381   6.093   5.224   3.701
 7828SOL     OW24382   0.851   6.051   5.885
 7828SOL    HW124383   0.888   6.132   5.929
 7828SOL    HW224384   0.751   6.057   5.883
 7829SOL     OW24385   4.790   4.679   0.679
 7829SOL    HW124386   4.790   4.612   0.604
 7829SOL    HW224387   4.882   4.686   0.718
 7830SOL     OW24388   1.970   5.240   4.564
 7830SOL    HW124389   1.922   5.158   4.534
 7830SOL    HW224390   1.961   5.311   4.494
 7831SOL     OW24391   1.690   0.425   6.343
 7831SOL    HW124392   1.660   0.514   6.312
 7831SOL    HW224393   1.749   0.435   6.423
 7832SOL     OW24394   0.366   1.182   5.058
 7832SOL    HW124395   0.320   1.213   4.974
 7832SOL    HW224396   0.465   1.191   5.047
 7833SOL     OW24397   0.549   0.077   2.806
 7833SOL    HW124398   0.624   0.072   2.872
 7833SOL    HW224399   0.463   0.056   2.851
 7834SOL     OW24400   0.270   3.509   5.531
 7834SOL    HW124401   0.290   3.560   5.447
 7834SOL    HW224402   0.280   3.570   5.609
 7835SOL     OW24403   3.300   2.610   5.694
 7835SOL    HW124404   3.368   2.634   5.764
 7835SOL    HW224405   3.267   2.517   5.709
 7836SOL     OW24406   2.994   3.743   4.802
 7836SOL    HW124407   3.084   3.700   4.796
 7836SOL    HW224408   2.989   3.817   4.735
 7837SOL     OW24409   0.637   5.629   6.966
 7837SOL    HW124410   0.701   5.570   7.014
 7837SOL    HW224411   0.674   5.652   6.876
 7838SOL     OW24412   4.090   4.979   1.051
 7838SOL    HW124413   3.997   4.964   1.085
 7838SOL    HW224414   4.150   5.003   1.127
 7839SOL     OW24415   6.220   3.542   4.769
 7839SOL    HW124416   6.160   3.587   4.835
 7839SOL    HW224417   6.175   3.460   4.734
 7840SOL     OW24418   2.137   2.421   3.157
 7840SOL    HW124419   2.151   2.470   3.070
 7840SOL    HW224420   2.181   2.472   3.231
 7841SOL     OW24421   4.880   1.899   5.530
 7841SOL    HW124422   4.966   1.920   5.576
 7841SOL    HW224423   4.817   1.856   5.595
 7842SOL     OW24424   0.962   0.169   1.049
 7842SOL    HW124425   1.058   0.177   1.023
 7842SOL    HW224426   0.921   0.091   1.001
 7843SOL     OW24427   6.771   6.431   1.998
 7843SOL    HW124428   6.826   6.485   1.935
 7843SOL    HW224429   6.832   6.383   2.062
 7844SOL     OW24430   3.657   0.074   2.147
 7844SOL    HW124431   3.604   0.040   2.226
 7844SOL    HW224432   3.689   7.018   2.093
 7845SOL     OW24433   6.644   3.276   1.792
 7845SOL    HW124434   6.590   3.283   1.709
 7845SOL    HW224435   6.729   3.328   1.781
 7846SOL     OW24436   0.898   1.956   0.471
 7846SOL    HW124437   0.879   1.858   0.478
 7846SOL    HW224438   0.831   2.006   0.525
 7847SOL     OW24439   5.684   3.951   5.703
 7847SOL    HW124440   5.632   3.925   5.785
 7847SOL    HW224441   5.718   3.868   5.658
 7848SOL     OW24442   4.791   5.002   0.315
 7848SOL    HW124443   4.868   5.049   0.359
 7848SOL    HW224444   4.731   5.069   0.272
 7849SOL     OW24445   4.522   5.137   6.689
 7849SOL    HW124446   4.569   5.217   6.652
 7849SOL    HW224447   4.571   5.054   6.660
 7850SOL     OW24448   6.697   0.763   3.438
 7850SOL    HW124449   6.758   0.772   3.516
 7850SOL    HW224450   6.649   0.675   3.443
 7851SOL     OW24451   0.576   4.269   0.379
 7851SOL    HW124452   0.612   4.338   0.441
 7851SOL    HW224453   0.506   4.310   0.320
 7852SOL     OW24454   1.355   3.454   5.781
 7852SOL    HW124455   1.291   3.423   5.851
 7852SOL    HW224456   1.394   3.376   5.733
 7853SOL     OW24457   4.466   3.167   1.669
 7853SOL    HW124458   4.554   3.120   1.661
 7853SOL    HW224459   4.407   3.117   1.732
 7854SOL     OW24460   4.105   1.272   1.173
 7854SOL    HW124461   4.185   1.221   1.142
 7854SOL    HW224462   4.134   1.349   1.230
 7855SOL     OW24463   4.991   6.472   3.736
 7855SOL    HW124464   5.076   6.425   3.712
 7855SOL    HW224465   4.949   6.508   3.653
 7856SOL     OW24466   2.080   6.452   6.609
 7856SOL    HW124467   2.000   6.453   6.669
 7856SOL    HW224468   2.140   6.376   6.635
 7857SOL     OW24469   6.882   5.169   0.498
 7857SOL    HW124470   6.824   5.162   0.580
 7857SOL    HW224471   6.902   5.077   0.464
 7858SOL     OW24472   0.404   4.229   6.520
 7858SOL    HW124473   0.356   4.216   6.434
 7858SOL    HW224474   0.337   4.241   6.594
 7859SOL     OW24475   4.793   2.156   1.975
 7859SOL    HW124476   4.839   2.245   1.973
 7859SOL    HW224477   4.746   2.141   1.888
 7860SOL     OW24478   2.581   1.832   3.128
 7860SOL    HW124479   2.546   1.853   3.036
 7860SOL    HW224480   2.558   1.738   3.151
 7861SOL     OW24481   1.986   5.844   0.617
 7861SOL    HW124482   1.930   5.797   0.550
 7861SOL    HW224483   2.015   5.933   0.580
 7862SOL     OW24484   1.159   6.782   6.405
 7862SOL    HW124485   1.158   6.881   6.394
 7862SOL    HW224486   1.217   6.740   6.335
 7863SOL     OW24487   0.443   4.283   3.734
 7863SOL    HW124488   0.490   4.213   3.788
 7863SOL    HW224489   0.351   4.252   3.712
 7864SOL     OW24490   3.159   5.509   4.600
 7864SOL    HW124491   3.189   5.591   4.551
 7864SOL    HW224492   3.144   5.532   4.696
 7865SOL     OW24493   6.495   5.540   3.542
 7865SOL    HW124494   6.551   5.473   3.493
 7865SOL    HW224495   6.541   5.565   3.627
 7866SOL     OW24496   0.977   1.031   5.160
 7866SOL    HW124497   1.061   0.998   5.118
 7866SOL    HW224498   0.899   1.008   5.102
 7867SOL     OW24499   4.802   5.960   2.805
 7867SOL    HW124500   4.754   6.028   2.860
 7867SOL    HW224501   4.852   6.006   2.731
 7868SOL     OW24502   4.387   6.265   1.482
 7868SOL    HW124503   4.375   6.244   1.579
 7868SOL    HW224504   4.472   6.316   1.469
 7869SOL     OW24505   5.614   5.161   0.161
 7869SOL    HW124506   5.564   5.204   0.236
 7869SOL    HW224507   5.688   5.105   0.198
 7870SOL     OW24508   6.580   0.528   3.440
 7870SOL    HW124509   6.483   0.550   3.435
 7870SOL    HW224510   6.592   0.429   3.435
 7871SOL     OW24511   4.427   0.629   0.677
 7871SOL    HW124512   4.345   0.687   0.674
 7871SOL    HW224513   4.506   0.682   0.648
 7872SOL     OW24514   6.480   5.102   4.335
 7872SOL    HW124515   6.483   5.030   4.266
 7872SOL    HW224516   6.447   5.187   4.294
 7873SOL     OW24517   4.559   2.486   6.385
 7873SOL    HW124518   4.600   2.469   6.474
 7873SOL    HW224519   4.495   2.412   6.362
 7874SOL     OW24520   6.158   2.344   0.442
 7874SOL    HW124521   6.099   2.354   0.361
 7874SOL    HW224522   6.190   2.249   0.447
 7875SOL     OW24523   6.900   5.006   6.906
 7875SOL    HW124524   6.921   4.917   6.946
 7875SOL    HW224525   6.869   4.994   6.812
 7876SOL     OW24526   1.085   6.662   2.824
 7876SOL    HW124527   1.100   6.622   2.915
 7876SOL    HW224528   1.043   6.595   2.764
 7877SOL     OW24529   0.899   3.083   1.850
 7877SOL    HW124530   0.981   3.050   1.804
 7877SOL    HW224531   0.847   3.141   1.788
 7878SOL     OW24532   3.881   0.292   2.472
 7878SOL    HW124533   3.944   0.370   2.474
 7878SOL    HW224534   3.808   0.306   2.539
 7879SOL     OW24535   2.430   5.886   1.849
 7879SOL    HW124536   2.405   5.947   1.774
 7879SOL    HW224537   2.525   5.901   1.874
 7880SOL     OW24538   1.378   4.984   2.823
 7880SOL    HW124539   1.368   5.058   2.756
 7880SOL    HW224540   1.449   4.921   2.791
 7881SOL     OW24541   4.850   2.916   3.092
 7881SOL    HW124542   4.750   2.921   3.095
 7881SOL    HW224543   4.880   2.832   3.137
 7882SOL     OW24544   0.100   2.432   0.260
 7882SOL    HW124545   0.139   2.340   0.252
 7882SOL    HW224546   0.043   2.451   0.180
 7883SOL     OW24547   0.317   6.940   4.751
 7883SOL    HW124548   0.327   0.017   4.738
 7883SOL    HW224549   0.306   6.896   4.663
 7884SOL     OW24550   1.457   2.968   4.186
 7884SOL    HW124551   1.362   2.978   4.157
 7884SOL    HW224552   1.502   3.057   4.184
 7885SOL     OW24553   6.406   6.202   6.623
 7885SOL    HW124554   6.500   6.169   6.636
 7885SOL    HW224555   6.399   6.297   6.655
 7886SOL     OW24556   4.888   4.117   0.415
 7886SOL    HW124557   4.878   4.024   0.380
 7886SOL    HW224558   4.903   4.114   0.514
 7887SOL     OW24559   4.545   2.117   6.546
 7887SOL    HW124560   4.471   2.166   6.499
 7887SOL    HW224561   4.506   2.046   6.604
 7888SOL     OW24562   4.249   5.621   3.915
 7888SOL    HW124563   4.203   5.704   3.881
 7888SOL    HW224564   4.329   5.602   3.859
 7889SOL     OW24565   6.295   4.421   3.946
 7889SOL    HW124566   6.383   4.451   3.908
 7889SOL    HW224567   6.273   4.477   4.026
 7890SOL     OW24568   2.059   3.760   3.045
 7890SOL    HW124569   1.963   3.758   3.019
 7890SOL    HW224570   2.116   3.734   2.968
 7891SOL     OW24571   0.090   4.162   2.989
 7891SOL    HW124572   0.014   4.142   2.927
 7891SOL    HW224573   0.058   4.224   3.062
 7892SOL     OW24574   2.268   2.364   4.408
 7892SOL    HW124575   2.353   2.315   4.429
 7892SOL    HW224576   2.207   2.304   4.356
 7893SOL     OW24577   5.226   6.356   1.443
 7893SOL    HW124578   5.172   6.272   1.450
 7893SOL    HW224579   5.323   6.331   1.438
 7894SOL     OW24580   2.900   0.483   1.278
 7894SOL    HW124581   2.955   0.448   1.354
 7894SOL    HW224582   2.803   0.469   1.298
 7895SOL     OW24583   1.000   1.696   4.091
 7895SOL    HW124584   1.048   1.686   4.178
 7895SOL    HW224585   0.907   1.659   4.100
 7896SOL     OW24586   3.735   2.647   6.417
 7896SOL    HW124587   3.730   2.549   6.397
 7896SOL    HW224588   3.820   2.684   6.382
 7897SOL     OW24589   3.217   3.384   0.646
 7897SOL    HW124590   3.182   3.318   0.712
 7897SOL    HW224591   3.279   3.338   0.582
 7898SOL     OW24592   5.024   0.964   4.501
 7898SOL    HW124593   4.963   0.984   4.424
 7898SOL    HW224594   5.085   1.041   4.516
 7899SOL     OW24595   4.629   0.708   1.582
 7899SOL    HW124596   4.534   0.711   1.552
 7899SOL    HW224597   4.664   0.802   1.591
 7900SOL     OW24598   0.085   5.866   1.270
 7900SOL    HW124599   0.061   5.962   1.285
 7900SOL    HW224600   0.119   5.826   1.356
 7901SOL     OW24601   5.936   4.917   1.047
 7901SOL    HW124602   6.010   4.850   1.049
 7901SOL    HW224603   5.966   4.999   0.999
 7902SOL     OW24604   4.787   4.853   6.250
 7902SOL    HW124605   4.754   4.765   6.286
 7902SOL    HW224606   4.733   4.878   6.169
 7903SOL     OW24607   0.486   2.614   2.156
 7903SOL    HW124608   0.538   2.603   2.241
 7903SOL    HW224609   0.442   2.704   2.155
 7904SOL     OW24610   5.328   2.033   3.061
 7904SOL    HW124611   5.355   2.087   2.982
 7904SOL    HW224612   5.369   1.942   3.055
 7905SOL     OW24613   2.169   2.054   1.789
 7905SOL    HW124614   2.205   2.076   1.698
 7905SOL    HW224615   2.230   1.989   1.834
 7906SOL     OW24616   1.772   4.497   6.996
 7906SOL    HW124617   1.720   4.487   6.911
 7906SOL    HW224618   1.756   4.417   0.031
 7907SOL     OW24619   0.561   2.590   2.626
 7907SOL    HW124620   0.587   2.612   2.532
 7907SOL    HW224621   0.643   2.566   2.679
 7908SOL     OW24622   0.432   1.699   3.066
 7908SOL    HW124623   0.414   1.602   3.052
 7908SOL    HW224624   0.390   1.751   2.992
 7909SOL     OW24625   4.095   6.422   5.227
 7909SOL    HW124626   4.003   6.437   5.263
 7909SOL    HW224627   4.145   6.508   5.225
 7910SOL     OW24628   6.177   3.067   6.323
 7910SOL    HW124629   6.171   3.027   6.415
 7910SOL    HW224630   6.243   3.142   6.324
 7911SOL     OW24631   6.930   6.002   6.168
 7911SOL    HW124632   6.845   6.048   6.144
 7911SOL    HW224633   6.955   5.938   6.094
 7912SOL     OW24634   0.254   5.701   4.962
 7912SOL    HW124635   0.290   5.770   4.899
 7912SOL    HW224636   0.162   5.727   4.991
 7913SOL     OW24637   1.700   6.254   6.466
 7913SOL    HW124638   1.727   6.194   6.540
 7913SOL    HW224639   1.742   6.224   6.381
 7914SOL     OW24640   5.965   4.606   0.543
 7914SOL    HW124641   5.981   4.704   0.532
 7914SOL    HW224642   5.992   4.579   0.636
 7915SOL     OW24643   2.934   1.616   2.866
 7915SOL    HW124644   2.837   1.614   2.845
 7915SOL    HW224645   2.947   1.648   2.959
 7916SOL     OW24646   4.072   3.634   4.928
 7916SOL    HW124647   4.047   3.728   4.904
 7916SOL    HW224648   4.127   3.634   5.011
 7917SOL     OW24649   3.810   3.950   3.417
 7917SOL    HW124650   3.883   3.990   3.472
 7917SOL    HW224651   3.732   4.013   3.413
 7918SOL     OW24652   6.077   1.951   1.885
 7918SOL    HW124653   6.009   1.885   1.917
 7918SOL    HW224654   6.043   2.044   1.898
 7919SOL     OW24655   5.540   3.989   2.612
 7919SOL    HW124656   5.491   3.950   2.690
 7919SOL    HW224657   5.494   4.072   2.581
 7920SOL     OW24658   6.835   6.565   0.775
 7920SOL    HW124659   6.809   6.547   0.680
 7920SOL    HW224660   6.872   6.482   0.816
 7921SOL     OW24661   3.452   4.946   2.095
 7921SOL    HW124662   3.362   4.903   2.088
 7921SOL    HW224663   3.521   4.886   2.054
 7922SOL     OW24664   0.782   3.994   4.534
 7922SOL    HW124665   0.751   4.000   4.439
 7922SOL    HW224666   0.809   3.900   4.554
 7923SOL     OW24667   1.694   2.897   2.976
 7923SOL    HW124668   1.739   2.971   3.026
 7923SOL    HW224669   1.602   2.925   2.951
 7924SOL     OW24670   2.442   1.638   3.428
 7924SOL    HW124671   2.431   1.725   3.476
 7924SOL    HW224672   2.513   1.583   3.474
 7925SOL     OW24673   1.469   1.338   0.201
 7925SOL    HW124674   1.506   1.424   0.237
 7925SOL    HW224675   1.370   1.337   0.215
 7926SOL     OW24676   3.237   1.006   1.895
 7926SOL    HW124677   3.229   0.906   1.887
 7926SOL    HW224678   3.302   1.040   1.827
 7927SOL     OW24679   4.567   5.505   4.559
 7927SOL    HW124680   4.636   5.564   4.517
 7927SOL    HW224681   4.542   5.432   4.495
 7928SOL     OW24682   0.587   3.839   0.786
 7928SOL    HW124683   0.494   3.871   0.804
 7928SOL    HW224684   0.652   3.895   0.837
 7929SOL     OW24685   3.738   4.113   4.948
 7929SOL    HW124686   3.757   4.204   4.912
 7929SOL    HW224687   3.710   4.053   4.874
 7930SOL     OW24688   3.571   6.954   1.901
 7930SOL    HW124689   3.663   6.978   1.868
 7930SOL    HW224690   3.517   6.917   1.826
 7931SOL     OW24691   2.939   3.235   5.556
 7931SOL    HW124692   2.967   3.172   5.484
 7931SOL    HW224693   2.968   3.199   5.645
 7932SOL     OW24694   3.159   1.535   0.698
 7932SOL    HW124695   3.076   1.588   0.680
 7932SOL    HW224696   3.136   1.454   0.753
 7933SOL     OW24697   1.885   1.110   6.197
 7933SOL    HW124698   1.970   1.058   6.188
 7933SOL    HW224699   1.900   1.187   6.260
 7934SOL     OW24700   4.395   2.248   6.065
 7934SOL    HW124701   4.489   2.215   6.052
 7934SOL    HW224702   4.380   2.329   6.008
 7935SOL     OW24703   5.053   5.454   2.255
 7935SOL    HW124704   5.136   5.429   2.205
 7935SOL    HW224705   4.975   5.406   2.217
 7936SOL     OW24706   4.421   5.833   2.028
 7936SOL    HW124707   4.453   5.793   2.114
 7936SOL    HW224708   4.341   5.782   1.995
 7937SOL     OW24709   5.698   1.734   6.021
 7937SOL    HW124710   5.742   1.752   5.933
 7937SOL    HW224711   5.676   1.637   6.028
 7938SOL     OW24712   6.318   4.894   4.093
 7938SOL    HW124713   6.340   4.897   3.995
 7938SOL    HW224714   6.249   4.964   4.113
 7939SOL     OW24715   6.515   6.290   3.529
 7939SOL    HW124716   6.598   6.250   3.567
 7939SOL    HW224717   6.440   6.224   3.537
 7940SOL     OW24718   1.837   6.204   0.439
 7940SOL    HW124719   1.801   6.223   0.347
 7940SOL    HW224720   1.783   6.131   0.481
 7941SOL     OW24721   1.369   0.641   1.044
 7941SOL    HW124722   1.352   0.735   1.076
 7941SOL    HW224723   1.442   0.642   0.976
 7942SOL     OW24724   0.807   6.642   1.407
 7942SOL    HW124725   0.730   6.640   1.471
 7942SOL    HW224726   0.838   6.736   1.395
 7943SOL     OW24727   6.206   1.952   6.255
 7943SOL    HW124728   6.205   1.991   6.162
 7943SOL    HW224729   6.204   2.027   6.322
 7944SOL     OW24730   6.843   4.299   2.301
 7944SOL    HW124731   6.923   4.357   2.319
 7944SOL    HW224732   6.767   4.355   2.269
 7945SOL     OW24733   5.701   6.364   0.736
 7945SOL    HW124734   5.773   6.421   0.775
 7945SOL    HW224735   5.710   6.361   0.637
 7946SOL     OW24736   2.320   1.725   5.319
 7946SOL    HW124737   2.298   1.753   5.226
 7946SOL    HW224738   2.303   1.801   5.382
 7947SOL     OW24739   4.530   5.480   6.515
 7947SOL    HW124740   4.554   5.570   6.552
 7947SOL    HW224741   4.439   5.454   6.549
 7948SOL     OW24742   1.203   5.068   4.973
 7948SOL    HW124743   1.143   5.118   5.036
 7948SOL    HW224744   1.297   5.075   5.004
 7949SOL     OW24745   6.658   3.230   4.415
 7949SOL    HW124746   6.708   3.314   4.436
 7949SOL    HW224747   6.562   3.242   4.440
 7950SOL     OW24748   2.634   5.711   3.581
 7950SOL    HW124749   2.689   5.779   3.629
 7950SOL    HW224750   2.631   5.627   3.635
 7951SOL     OW24751   2.504   3.449   0.709
 7951SOL    HW124752   2.543   3.448   0.617
 7951SOL    HW224753   2.477   3.542   0.734
 7952SOL     OW24754   6.373   4.076   0.609
 7952SOL    HW124755   6.327   4.163   0.626
 7952SOL    HW224756   6.319   4.001   0.649
 7953SOL     OW24757   1.765   3.930   1.444
 7953SOL    HW124758   1.831   3.862   1.411
 7953SOL    HW224759   1.803   3.977   1.523
 7954SOL     OW24760   5.779   5.750   4.208
 7954SOL    HW124761   5.766   5.651   4.209
 7954SOL    HW224762   5.773   5.784   4.114
 7955SOL     OW24763   1.869   6.419   6.239
 7955SOL    HW124764   1.969   6.416   6.241
 7955SOL    HW224765   1.836   6.473   6.316
 7956SOL     OW24766   5.331   6.031   3.467
 7956SOL    HW124767   5.379   6.113   3.497
 7956SOL    HW224768   5.321   6.033   3.368
 7957SOL     OW24769   1.345   2.954   0.875
 7957SOL    HW124770   1.429   2.900   0.871
 7957SOL    HW224771   1.277   2.915   0.813
 7958SOL     OW24772   2.060   5.684   3.182
 7958SOL    HW124773   2.003   5.758   3.217
 7958SOL    HW224774   2.039   5.599   3.231
 7959SOL     OW24775   4.619   5.031   1.455
 7959SOL    HW124776   4.583   5.080   1.534
 7959SOL    HW224777   4.553   4.962   1.426
 7960SOL     OW24778   1.719   2.527   1.387
 7960SOL    HW124779   1.707   2.496   1.292
 7960SOL    HW224780   1.761   2.454   1.440
 7961SOL     OW24781   1.560   6.362   0.206
 7961SOL    HW124782   1.538   6.447   0.254
 7961SOL    HW224783   1.541   6.373   0.109
 7962SOL     OW24784   1.846   6.672   2.456
 7962SOL    HW124785   1.920   6.739   2.464
 7962SOL    HW224786   1.832   6.629   2.545
 7963SOL     OW24787   0.145   6.111   6.260
 7963SOL    HW124788   0.060   6.062   6.240
 7963SOL    HW224789   0.136   6.207   6.235
 7964SOL     OW24790   5.969   5.869   3.300
 7964SOL    HW124791   5.886   5.815   3.283
 7964SOL    HW224792   6.018   5.830   3.378
 7965SOL     OW24793   3.949   1.921   1.201
 7965SOL    HW124794   3.934   1.973   1.285
 7965SOL    HW224795   3.889   1.955   1.129
 7966SOL     OW24796   0.000   1.360   4.380
 7966SOL    HW124797   0.058   1.280   4.362
 7966SOL    HW224798   6.928   1.337   4.358
 7967SOL     OW24799   2.119   0.580   3.774
 7967SOL    HW124800   2.202   0.593   3.719
 7967SOL    HW224801   2.130   0.499   3.832
 7968SOL     OW24802   2.013   1.039   0.290
 7968SOL    HW124803   2.038   1.136   0.287
 7968SOL    HW224804   1.916   1.028   0.269
 7969SOL     OW24805   3.873   1.923   3.412
 7969SOL    HW124806   3.903   2.018   3.401
 7969SOL    HW224807   3.919   1.866   3.345
 7970SOL     OW24808   0.504   4.571   3.366
 7970SOL    HW124809   0.496   4.657   3.417
 7970SOL    HW224810   0.444   4.575   3.286
 7971SOL     OW24811   3.521   2.122   2.618
 7971SOL    HW124812   3.487   2.157   2.530
 7971SOL    HW224813   3.445   2.079   2.667
 7972SOL     OW24814   5.339   5.886   1.382
 7972SOL    HW124815   5.415   5.892   1.446
 7972SOL    HW224816   5.300   5.977   1.367
 7973SOL     OW24817   5.541   1.822   2.811
 7973SOL    HW124818   5.590   1.775   2.737
 7973SOL    HW224819   5.536   1.919   2.791
 7974SOL     OW24820   4.423   5.759   4.668
 7974SOL    HW124821   4.375   5.800   4.590
 7974SOL    HW224822   4.458   5.669   4.642
 7975SOL     OW24823   1.862   1.409   2.199
 7975SOL    HW124824   1.840   1.444   2.109
 7975SOL    HW224825   1.961   1.414   2.214
 7976SOL     OW24826   0.428   7.014   6.095
 7976SOL    HW124827   0.486   0.044   6.157
 7976SOL    HW224828   0.337   0.034   6.091
 7977SOL     OW24829   5.286   5.785   1.128
 7977SOL    HW124830   5.300   5.686   1.136
 7977SOL    HW224831   5.321   5.830   1.210
 7978SOL     OW24832   3.151   2.169   6.158
 7978SOL    HW124833   3.130   2.262   6.188
 7978SOL    HW224834   3.084   2.139   6.090
 7979SOL     OW24835   4.607   5.592   4.163
 7979SOL    HW124836   4.653   5.549   4.084
 7979SOL    HW224837   4.620   5.691   4.158
 7980SOL     OW24838   2.958   1.287   1.437
 7980SOL    HW124839   2.936   1.272   1.340
 7980SOL    HW224840   2.949   1.200   1.486
 7981SOL     OW24841   0.087   6.207   2.169
 7981SOL    HW124842   0.026   6.281   2.198
 7981SOL    HW224843   0.180   6.225   2.202
 7982SOL     OW24844   0.523   3.314   1.157
 7982SOL    HW124845   0.468   3.283   1.235
 7982SOL    HW224846   0.493   3.267   1.074
 7983SOL     OW24847   5.366   1.962   0.497
 7983SOL    HW124848   5.401   2.005   0.414
 7983SOL    HW224849   5.313   2.028   0.550
 7984SOL     OW24850   6.136   1.024   0.552
 7984SOL    HW124851   6.174   0.933   0.534
 7984SOL    HW224852   6.038   1.024   0.530
 7985SOL     OW24853   1.010   1.269   0.597
 7985SOL    HW124854   1.039   1.173   0.591
 7985SOL    HW224855   0.922   1.274   0.644
 7986SOL     OW24856   5.044   3.558   0.871
 7986SOL    HW124857   4.971   3.622   0.893
 7986SOL    HW224858   5.051   3.547   0.772
 7987SOL     OW24859   1.184   3.670   5.443
 7987SOL    HW124860   1.189   3.592   5.506
 7987SOL    HW224861   1.213   3.642   5.352
 7988SOL     OW24862   2.445   0.990   5.401
 7988SOL    HW124863   2.526   1.047   5.417
 7988SOL    HW224864   2.474   0.896   5.382
 7989SOL     OW24865   3.141   3.966   0.160
 7989SOL    HW124866   3.172   3.886   0.211
 7989SOL    HW224867   3.101   4.033   0.223
 7990SOL     OW24868   2.134   2.907   4.480
 7990SOL    HW124869   2.093   2.819   4.457
 7990SOL    HW224870   2.119   2.927   4.576
 7991SOL     OW24871   2.312   3.276   5.783
 7991SOL    HW124872   2.342   3.201   5.724
 7991SOL    HW224873   2.217   3.263   5.809
 7992SOL     OW24874   3.168   1.359   0.089
 7992SOL    HW124875   3.148   1.316   0.177
 7992SOL    HW224876   3.090   1.347   0.027
 7993SOL     OW24877   2.803   5.376   6.510
 7993SOL    HW124878   2.887   5.367   6.565
 7993SOL    HW224879   2.740   5.302   6.533
 7994SOL     OW24880   5.789   0.340   4.878
 7994SOL    HW124881   5.706   0.322   4.931
 7994SOL    HW224882   5.764   0.384   4.792
 7995SOL     OW24883   4.239   4.975   2.368
 7995SOL    HW124884   4.294   4.987   2.285
 7995SOL    HW224885   4.297   4.939   2.441
 7996SOL     OW24886   4.527   1.586   5.490
 7996SOL    HW124887   4.579   1.559   5.409
 7996SOL    HW224888   4.434   1.612   5.464
 7997SOL     OW24889   5.248   3.098   0.924
 7997SOL    HW124890   5.254   3.098   1.024
 7997SOL    HW224891   5.337   3.077   0.885
 7998SOL     OW24892   6.818   5.519   6.108
 7998SOL    HW124893   6.807   5.469   6.022
 7998SOL    HW224894   6.729   5.557   6.135
 7999SOL     OW24895   2.894   2.669   5.762
 7999SOL    HW124896   2.912   2.573   5.740
 7999SOL    HW224897   2.934   2.691   5.851
 8000SOL     OW24898   5.124   0.793   5.670
 8000SOL    HW124899   5.138   0.728   5.595
 8000SOL    HW224900   5.210   0.805   5.720
 8001SOL     OW24901   2.364   5.026   1.077
 8001SOL    HW124902   2.310   5.094   1.028
 8001SOL    HW224903   2.442   5.071   1.121
 8002SOL     OW24904   4.516   2.036   5.440
 8002SOL    HW124905   4.464   2.107   5.488
 8002SOL    HW224906   4.593   2.079   5.392
 8003SOL     OW24907   5.089   5.362   2.881
 8003SOL    HW124908   5.031   5.323   2.953
 8003SOL    HW224909   5.113   5.456   2.905
 8004SOL     OW24910   1.283   4.855   3.483
 8004SOL    HW124911   1.356   4.787   3.488
 8004SOL    HW224912   1.252   4.877   3.576
 8005SOL     OW24913   1.907   1.128   2.602
 8005SOL    HW124914   1.970   1.058   2.638
 8005SOL    HW224915   1.960   1.207   2.571
 8006SOL     OW24916   4.746   5.627   2.632
 8006SOL    HW124917   4.750   5.598   2.536
 8006SOL    HW224918   4.833   5.670   2.657
 8007SOL     OW24919   0.634   1.006   3.743
 8007SOL    HW124920   0.563   1.037   3.679
 8007SOL    HW224921   0.595   0.938   3.805
 8008SOL     OW24922   5.981   4.924   1.872
 8008SOL    HW124923   5.939   4.834   1.879
 8008SOL    HW224924   5.962   4.976   1.955
 8009SOL     OW24925   6.943   6.204   2.837
 8009SOL    HW124926   6.881   6.243   2.770
 8009SOL    HW224927   6.900   6.125   2.881
 8010SOL     OW24928   2.233   2.040   6.804
 8010SOL    HW124929   2.189   1.984   6.733
 8010SOL    HW224930   2.180   2.124   6.818
 8011SOL     OW24931   2.088   3.048   0.386
 8011SOL    HW124932   2.066   3.053   0.289
 8011SOL    HW224933   2.003   3.042   0.439
 8012SOL     OW24934   2.174   6.002   3.241
 8012SOL    HW124935   2.157   6.101   3.234
 8012SOL    HW224936   2.195   5.978   3.335
 8013SOL     OW24937   6.324   5.556   4.432
 8013SOL    HW124938   6.417   5.520   4.430
 8013SOL    HW224939   6.282   5.544   4.342
 8014SOL     OW24940   2.940   0.679   6.431
 8014SOL    HW124941   2.950   0.749   6.502
 8014SOL    HW224942   2.962   0.718   6.342
 8015SOL     OW24943   1.869   1.927   0.392
 8015SOL    HW124944   1.957   1.973   0.392
 8015SOL    HW224945   1.879   1.837   0.349
 8016SOL     OW24946   4.551   5.482   2.064
 8016SOL    HW124947   4.609   5.557   2.034
 8016SOL    HW224948   4.456   5.513   2.071
 8017SOL     OW24949   6.409   3.771   5.046
 8017SOL    HW124950   6.474   3.737   4.978
 8017SOL    HW224951   6.345   3.834   5.002
 8018SOL     OW24952   4.802   2.971   4.063
 8018SOL    HW124953   4.764   2.895   4.115
 8018SOL    HW224954   4.764   2.970   3.970
 8019SOL     OW24955   3.305   5.295   1.036
 8019SOL    HW124956   3.386   5.325   1.086
 8019SOL    HW224957   3.298   5.195   1.038
 8020SOL     OW24958   5.232   6.709   6.613
 8020SOL    HW124959   5.242   6.755   6.524
 8020SOL    HW224960   5.233   6.610   6.599
 8021SOL     OW24961   6.727   1.281   1.578
 8021SOL    HW124962   6.795   1.354   1.582
 8021SOL    HW224963   6.743   1.226   1.496
 8022SOL     OW24964   5.550   5.046   4.076
 8022SOL    HW124965   5.604   5.009   4.152
 8022SOL    HW224966   5.459   5.070   4.108
 8023SOL     OW24967   0.018   5.883   3.691
 8023SOL    HW124968   0.061   5.805   3.647
 8023SOL    HW224969   0.034   5.880   3.789
 8024SOL     OW24970   4.431   5.649   3.733
 8024SOL    HW124971   4.527   5.665   3.755
 8024SOL    HW224972   4.425   5.585   3.656
 8025SOL     OW24973   2.974   6.071   0.253
 8025SOL    HW124974   2.948   6.000   0.318
 8025SOL    HW224975   2.903   6.141   0.249
 8026SOL     OW24976   2.620   2.105   6.642
 8026SOL    HW124977   2.590   2.165   6.567
 8026SOL    HW224978   2.701   2.054   6.614
 8027SOL     OW24979   4.561   3.249   5.690
 8027SOL    HW124980   4.542   3.278   5.784
 8027SOL    HW224981   4.512   3.164   5.670
 8028SOL     OW24982   6.020   5.146   0.909
 8028SOL    HW124983   6.051   5.142   1.004
 8028SOL    HW224984   5.984   5.237   0.889
 8029SOL     OW24985   3.485   4.232   5.784
 8029SOL    HW124986   3.505   4.300   5.713
 8029SOL    HW224987   3.415   4.169   5.751
 8030SOL     OW24988   7.007   3.660   1.640
 8030SOL    HW124989   0.078   3.694   1.627
 8030SOL    HW224990   6.948   3.697   1.568
 8031SOL     OW24991   3.754   6.548   0.421
 8031SOL    HW124992   3.838   6.557   0.475
 8031SOL    HW224993   3.747   6.454   0.385
 8032SOL     OW24994   4.605   3.287   5.413
 8032SOL    HW124995   4.634   3.260   5.505
 8032SOL    HW224996   4.685   3.306   5.357
 8033SOL     OW24997   6.502   0.843   1.975
 8033SOL    HW124998   6.513   0.833   2.074
 8033SOL    HW224999   6.478   0.755   1.935
 8034SOL     OW25000   6.371   2.371   5.545
 8034SOL    HW125001   6.287   2.421   5.565
 8034SOL    HW225002   6.449   2.425   5.575
 8035SOL     OW25003   5.418   5.616   5.567
 8035SOL    HW125004   5.427   5.595   5.665
 8035SOL    HW225005   5.351   5.554   5.526
 8036SOL     OW25006   0.993   4.005   1.780
 8036SOL    HW125007   0.910   4.054   1.807
 8036SOL    HW225008   1.031   3.959   1.860
 8037SOL     OW25009   2.246   3.034   1.730
 8037SOL    HW125010   2.219   2.959   1.790
 8037SOL    HW225011   2.195   3.117   1.755
 8038SOL     OW25012   5.935   1.089   4.198
 8038SOL    HW125013   5.842   1.095   4.232
 8038SOL    HW225014   5.999   1.126   4.266
 8039SOL     OW25015   2.312   5.721   3.347
 8039SOL    HW125016   2.386   5.754   3.288
 8039SOL    HW225017   2.251   5.662   3.294
 8040SOL     OW25018   5.748   6.258   6.672
 8040SOL    HW125019   5.776   6.163   6.690
 8040SOL    HW225020   5.805   6.297   6.600
 8041SOL     OW25021   3.355   2.521   1.338
 8041SOL    HW125022   3.308   2.434   1.325
 8041SOL    HW225023   3.444   2.505   1.380
 8042SOL     OW25024   1.476   4.810   0.090
 8042SOL    HW125025   1.463   4.840   7.018
 8042SOL    HW225026   1.401   4.750   0.116
 8043SOL     OW25027   3.426   0.570   0.871
 8043SOL    HW125028   3.514   0.547   0.828
 8043SOL    HW225029   3.419   0.525   0.959
 8044SOL     OW25030   3.074   2.879   1.904
 8044SOL    HW125031   3.035   2.787   1.891
 8044SOL    HW225032   3.172   2.871   1.924
 8045SOL     OW25033   5.884   2.756   3.981
 8045SOL    HW125034   5.835   2.771   4.067
 8045SOL    HW225035   5.819   2.761   3.905
 8046SOL     OW25036   6.588   5.060   5.021
 8046SOL    HW125037   6.501   5.028   5.058
 8046SOL    HW225038   6.658   5.057   5.093
 8047SOL     OW25039   2.483   0.087   4.215
 8047SOL    HW125040   2.496   7.017   4.252
 8047SOL    HW225041   2.552   0.148   4.252
 8048SOL     OW25042   5.127   0.228   5.359
 8048SOL    HW125043   5.046   0.284   5.373
 8048SOL    HW225044   5.202   0.286   5.325
 8049SOL     OW25045   2.334   6.875   6.717
 8049SOL    HW125046   2.259   6.840   6.773
 8049SOL    HW225047   2.404   6.915   6.776
 8050SOL     OW25048   0.300   3.605   1.903
 8050SOL    HW125049   0.358   3.526   1.886
 8050SOL    HW225050   0.311   3.671   1.828
 8051SOL     OW25051   2.634   2.450   3.922
 8051SOL    HW125052   2.648   2.542   3.885
 8051SOL    HW225053   2.563   2.403   3.868
 8052SOL     OW25054   4.161   1.644   2.729
 8052SOL    HW125055   4.153   1.600   2.639
 8052SOL    HW225056   4.213   1.585   2.790
 8053SOL     OW25057   4.544   3.653   1.662
 8053SOL    HW125058   4.564   3.564   1.703
 8053SOL    HW225059   4.446   3.673   1.672
 8054SOL     OW25060   4.514   6.145   4.394
 8054SOL    HW125061   4.451   6.067   4.387
 8054SOL    HW225062   4.513   6.179   4.488
 8055SOL     OW25063   1.413   6.886   4.841
 8055SOL    HW125064   1.382   6.852   4.930
 8055SOL    HW225065   1.451   6.977   4.851
 8056SOL     OW25066   4.588   1.305   2.894
 8056SOL    HW125067   4.664   1.272   2.837
 8056SOL    HW225068   4.561   1.233   2.958
 8057SOL     OW25069   3.667   6.858   4.118
 8057SOL    HW125070   3.605   6.926   4.079
 8057SOL    HW225071   3.711   6.806   4.045
 8058SOL     OW25072   1.851   0.181   2.983
 8058SOL    HW125073   1.934   0.237   2.983
 8058SOL    HW225074   1.776   0.231   3.025
 8059SOL     OW25075   1.514   1.684   4.216
 8059SOL    HW125076   1.544   1.645   4.129
 8059SOL    HW225077   1.421   1.720   4.205
 8060SOL     OW25078   0.381   2.583   5.623
 8060SOL    HW125079   0.368   2.516   5.551
 8060SOL    HW225080   0.334   2.668   5.599
 8061SOL     OW25081   5.563   6.802   3.364
 8061SOL    HW125082   5.519   6.719   3.397
 8061SOL    HW225083   5.565   6.870   3.437
 8062SOL     OW25084   1.695   2.009   1.291
 8062SOL    HW125085   1.657   2.085   1.344
 8062SOL    HW225086   1.739   1.944   1.353
 8063SOL     OW25087   2.249   2.808   5.792
 8063SOL    HW125088   2.220   2.853   5.707
 8063SOL    HW225089   2.344   2.834   5.812
 8064SOL     OW25090   5.607   2.136   5.488
 8064SOL    HW125091   5.602   2.077   5.568
 8064SOL    HW225092   5.700   2.133   5.450
 8065SOL     OW25093   4.188   0.525   6.501
 8065SOL    HW125094   4.158   0.507   6.595
 8065SOL    HW225095   4.285   0.504   6.492
 8066SOL     OW25096   1.405   0.398   1.534
 8066SOL    HW125097   1.347   0.317   1.526
 8066SOL    HW225098   1.497   0.377   1.500
 8067SOL     OW25099   4.471   2.007   2.855
 8067SOL    HW125100   4.388   2.062   2.851
 8067SOL    HW225101   4.508   1.996   2.762
 8068SOL     OW25102   0.001   4.342   3.900
 8068SOL    HW125103   0.056   4.289   3.963
 8068SOL    HW225104   0.054   4.421   3.868
 8069SOL     OW25105   0.305   6.186   2.536
 8069SOL    HW125106   0.264   6.260   2.482
 8069SOL    HW225107   0.275   6.193   2.631
 8070SOL     OW25108   3.714   0.254   2.691
 8070SOL    HW125109   3.674   0.332   2.740
 8070SOL    HW225110   3.670   0.170   2.720
 8071SOL     OW25111   5.071   4.697   6.859
 8071SOL    HW125112   5.145   4.705   6.792
 8071SOL    HW225113   5.104   4.647   6.939
 8072SOL     OW25114   3.871   0.193   3.705
 8072SOL    HW125115   3.828   0.260   3.765
 8072SOL    HW225116   3.803   0.156   3.642
 8073SOL     OW25117   5.243   0.315   6.703
 8073SOL    HW125118   5.240   0.343   6.799
 8073SOL    HW225119   5.153   0.331   6.661
 8074SOL     OW25120   3.204   4.353   0.393
 8074SOL    HW125121   3.271   4.365   0.466
 8074SOL    HW225122   3.138   4.428   0.396
 8075SOL     OW25123   6.294   1.676   4.203
 8075SOL    HW125124   6.384   1.659   4.243
 8075SOL    HW225125   6.223   1.659   4.271
 8076SOL     OW25126   4.922   3.039   6.654
 8076SOL    HW125127   4.879   2.973   6.592
 8076SOL    HW225128   4.868   3.045   6.738
 8077SOL     OW25129   1.094   0.655   6.968
 8077SOL    HW125130   1.005   0.613   6.954
 8077SOL    HW225131   1.164   0.583   6.978
 8078SOL     OW25132   6.289   3.852   1.414
 8078SOL    HW125133   6.376   3.869   1.366
 8078SOL    HW225134   6.225   3.927   1.394
 8079SOL     OW25135   1.442   2.903   0.223
 8079SOL    HW125136   1.367   2.970   0.223
 8079SOL    HW225137   1.523   2.944   0.181
 8080SOL     OW25138   3.754   4.874   0.438
 8080SOL    HW125139   3.710   4.963   0.441
 8080SOL    HW225140   3.718   4.822   0.360
 8081SOL     OW25141   5.350   2.349   4.151
 8081SOL    HW125142   5.375   2.425   4.090
 8081SOL    HW225143   5.380   2.371   4.244
 8082SOL     OW25144   6.711   3.341   5.002
 8082SOL    HW125145   6.729   3.278   5.078
 8082SOL    HW225146   6.758   3.308   4.920
 8083SOL     OW25147   5.952   1.704   4.877
 8083SOL    HW125148   5.929   1.791   4.835
 8083SOL    HW225149   5.977   1.718   4.973
 8084SOL     OW25150   5.805   0.123   6.923
 8084SOL    HW125151   5.832   0.196   6.987
 8084SOL    HW225152   5.752   0.163   6.848
 8085SOL     OW25153   4.853   2.096   1.606
 8085SOL    HW125154   4.854   2.132   1.513
 8085SOL    HW225155   4.824   2.000   1.604
 8086SOL     OW25156   3.396   4.940   6.297
 8086SOL    HW125157   3.392   4.888   6.383
 8086SOL    HW225158   3.483   4.987   6.291
 8087SOL     OW25159   2.139   3.766   0.796
 8087SOL    HW125160   2.100   3.858   0.803
 8087SOL    HW225161   2.178   3.753   0.705
 8088SOL     OW25162   4.622   0.563   3.216
 8088SOL    HW125163   4.616   0.480   3.272
 8088SOL    HW225164   4.708   0.563   3.166
 8089SOL     OW25165   7.014   2.779   0.266
 8089SOL    HW125166   6.945   2.739   0.206
 8089SOL    HW225167   0.022   2.710   0.332
 8090SOL     OW25168   4.949   1.484   5.159
 8090SOL    HW125169   4.985   1.577   5.146
 8090SOL    HW225170   4.865   1.488   5.212
 8091SOL     OW25171   1.912   3.706   5.275
 8091SOL    HW125172   1.895   3.779   5.342
 8091SOL    HW225173   1.919   3.746   5.184
 8092SOL     OW25174   6.212   2.045   3.871
 8092SOL    HW125175   6.254   1.969   3.919
 8092SOL    HW225176   6.118   2.022   3.846
 8093SOL     OW25177   5.923   4.876   0.489
 8093SOL    HW125178   5.838   4.928   0.504
 8093SOL    HW225179   6.001   4.933   0.514
 8094SOL     OW25180   0.660   3.265   4.217
 8094SOL    HW125181   0.589   3.305   4.276
 8094SOL    HW225182   0.668   3.167   4.236
 8095SOL     OW25183   6.346   3.336   5.442
 8095SOL    HW125184   6.339   3.395   5.361
 8095SOL    HW225185   6.347   3.393   5.524
 8096SOL     OW25186   4.299   0.269   0.620
 8096SOL    HW125187   4.217   0.244   0.570
 8096SOL    HW225188   4.276   0.336   0.691
 8097SOL     OW25189   4.915   2.171   3.709
 8097SOL    HW125190   4.875   2.125   3.630
 8097SOL    HW225191   4.848   2.234   3.748
 8098SOL     OW25192   2.641   2.493   4.264
 8098SOL    HW125193   2.653   2.496   4.165
 8098SOL    HW225194   2.555   2.538   4.288
 8099SOL     OW25195   3.957   6.862   4.214
 8099SOL    HW125196   3.867   6.905   4.228
 8099SOL    HW225197   3.953   6.804   4.132
 8100SOL     OW25198   6.676   6.167   1.725
 8100SOL    HW125199   6.643   6.256   1.693
 8100SOL    HW225200   6.767   6.178   1.766
 8101SOL     OW25201   1.157   4.842   2.386
 8101SOL    HW125202   1.223   4.787   2.335
 8101SOL    HW225203   1.153   4.934   2.347
 8102SOL     OW25204   6.769   0.244   5.439
 8102SOL    HW125205   6.786   0.315   5.507
 8102SOL    HW225206   6.832   0.255   5.362
 8103SOL     OW25207   2.564   2.449   2.311
 8103SOL    HW125208   2.641   2.385   2.320
 8103SOL    HW225209   2.570   2.494   2.222
 8104SOL     OW25210   3.076   0.070   5.828
 8104SOL    HW125211   3.170   0.075   5.863
 8104SOL    HW225212   3.021   0.142   5.871
 8105SOL     OW25213   2.511   2.142   2.554
 8105SOL    HW125214   2.546   2.092   2.475
 8105SOL    HW225215   2.585   2.195   2.595
 8106SOL     OW25216   0.263   4.291   5.850
 8106SOL    HW125217   0.208   4.374   5.862
 8106SOL    HW225218   0.218   4.215   5.895
 8107SOL     OW25219   0.961   5.061   6.989
 8107SOL    HW125220   0.884   5.095   0.021
 8107SOL    HW225221   0.931   5.048   6.894
 8108SOL     OW25222   2.097   2.309   6.255
 8108SOL    HW125223   2.135   2.233   6.307
 8108SOL    HW225224   2.159   2.388   6.261
 8109SOL     OW25225   0.481   5.777   5.294
 8109SOL    HW125226   0.426   5.709   5.247
 8109SOL    HW225227   0.469   5.867   5.251
 8110SOL     OW25228   1.223   5.038   0.496
 8110SOL    HW125229   1.154   4.969   0.521
 8110SOL    HW225230   1.280   5.002   0.422
 8111SOL     OW25231   3.249   6.188   4.047
 8111SOL    HW125232   3.308   6.223   4.120
 8111SOL    HW225233   3.290   6.106   4.008
 8112SOL     OW25234   4.212   1.462   4.112
 8112SOL    HW125235   4.130   1.501   4.071
 8112SOL    HW225236   4.187   1.410   4.194
 8113SOL     OW25237   3.174   2.388   5.854
 8113SOL    HW125238   3.193   2.348   5.764
 8113SOL    HW225239   3.109   2.330   5.903
 8114SOL     OW25240   2.964   3.786   0.950
 8114SOL    HW125241   3.011   3.700   0.931
 8114SOL    HW225242   2.999   3.826   1.035
 8115SOL     OW25243   3.964   2.959   1.193
 8115SOL    HW125244   3.950   3.054   1.222
 8115SOL    HW225245   4.062   2.940   1.187
 8116SOL     OW25246   5.832   1.711   5.654
 8116SOL    HW125247   5.767   1.651   5.608
 8116SOL    HW225248   5.899   1.656   5.704
 8117SOL     OW25249   3.010   2.815   5.327
 8117SOL    HW125250   3.076   2.868   5.379
 8117SOL    HW225251   2.923   2.865   5.322
 8118SOL     OW25252   1.063   1.989   3.951
 8118SOL    HW125253   1.074   2.014   4.047
 8118SOL    HW225254   1.023   1.898   3.943
 8119SOL     OW25255   1.550   7.016   2.416
 8119SOL    HW125256   1.581   6.923   2.398
 8119SOL    HW225257   1.470   0.014   2.360
 8120SOL     OW25258   4.912   4.078   2.407
 8120SOL    HW125259   4.971   4.142   2.357
 8120SOL    HW225260   4.828   4.126   2.435
 8121SOL     OW25261   0.408   6.091   3.700
 8121SOL    HW125262   0.367   6.180   3.717
 8121SOL    HW225263   0.508   6.098   3.704
 8122SOL     OW25264   0.230   4.981   2.052
 8122SOL    HW125265   0.314   5.001   2.104
 8122SOL    HW225266   0.248   4.907   1.987
 8123SOL     OW25267   1.545   5.165   6.288
 8123SOL    HW125268   1.591   5.084   6.253
 8123SOL    HW225269   1.561   5.242   6.226
 8124SOL     OW25270   1.901   5.868   2.383
 8124SOL    HW125271   1.872   5.778   2.414
 8124SOL    HW225272   1.882   5.878   2.285
 8125SOL     OW25273   5.398   5.302   3.683
 8125SOL    HW125274   5.446   5.231   3.733
 8125SOL    HW225275   5.356   5.262   3.601
 8126SOL     OW25276   0.385   4.470   2.103
 8126SOL    HW125277   0.344   4.380   2.093
 8126SOL    HW225278   0.479   4.468   2.070
 8127SOL     OW25279   4.113   5.299   0.924
 8127SOL    HW125280   4.132   5.201   0.934
 8127SOL    HW225281   4.199   5.350   0.927
 8128SOL     OW25282   3.812   2.144   5.244
 8128SOL    HW125283   3.892   2.156   5.304
 8128SOL    HW225284   3.758   2.066   5.274
 8129SOL     OW25285   4.772   5.260   6.600
 8129SOL    HW125286   4.730   5.348   6.578
 8129SOL    HW225287   4.798   5.214   6.515
 8130SOL     OW25288   0.269   0.454   6.182
 8130SOL    HW125289   0.320   0.498   6.256
 8130SOL    HW225290   0.324   0.454   6.099
 8131SOL     OW25291   2.205   2.162   1.156
 8131SOL    HW125292   2.223   2.230   1.227
 8131SOL    HW225293   2.170   2.078   1.198
 8132SOL     OW25294   5.910   4.458   3.490
 8132SOL    HW125295   5.988   4.444   3.552
 8132SOL    HW225296   5.943   4.456   3.395
 8133SOL     OW25297   0.411   5.314   2.641
 8133SOL    HW125298   0.359   5.366   2.708
 8133SOL    HW225299   0.428   5.370   2.560
 8134SOL     OW25300   3.447   3.466   1.396
 8134SOL    HW125301   3.358   3.510   1.388
 8134SOL    HW225302   3.519   3.533   1.378
 8135SOL     OW25303   4.096   6.163   2.630
 8135SOL    HW125304   4.173   6.191   2.687
 8135SOL    HW225305   4.128   6.098   2.560
 8136SOL     OW25306   2.698   5.591   1.639
 8136SOL    HW125307   2.612   5.568   1.594
 8136SOL    HW225308   2.700   5.548   1.730
 8137SOL     OW25309   3.613   4.575   5.543
 8137SOL    HW125310   3.523   4.533   5.553
 8137SOL    HW225311   3.606   4.673   5.561
 8138SOL     OW25312   4.156   0.632   3.363
 8138SOL    HW125313   4.236   0.595   3.315
 8138SOL    HW225314   4.170   0.729   3.380
 8139SOL     OW25315   1.835   3.055   5.458
 8139SOL    HW125316   1.770   3.130   5.466
 8139SOL    HW225317   1.844   3.029   5.361
 8140SOL     OW25318   5.133   1.645   1.150
 8140SOL    HW125319   5.186   1.605   1.076
 8140SOL    HW225320   5.080   1.722   1.115
 8141SOL     OW25321   5.789   1.611   5.263
 8141SOL    HW125322   5.824   1.517   5.264
 8141SOL    HW225323   5.738   1.628   5.347
 8142SOL     OW25324   3.753   5.731   0.627
 8142SOL    HW125325   3.745   5.811   0.568
 8142SOL    HW225326   3.663   5.691   0.643
 8143SOL     OW25327   5.690   5.082   0.442
 8143SOL    HW125328   5.673   5.061   0.539
 8143SOL    HW225329   5.769   5.143   0.435
 8144SOL     OW25330   2.086   5.563   6.438
 8144SOL    HW125331   2.086   5.614   6.524
 8144SOL    HW225332   2.110   5.468   6.456
 8145SOL     OW25333   4.778   5.378   5.059
 8145SOL    HW125334   4.872   5.345   5.043
 8145SOL    HW225335   4.774   5.426   5.146
 8146SOL     OW25336   6.825   6.113   4.935
 8146SOL    HW125337   6.844   6.212   4.931
 8146SOL    HW225338   6.730   6.099   4.963
 8147SOL     OW25339   1.983   6.541   4.601
 8147SOL    HW125340   2.018   6.513   4.691
 8147SOL    HW225341   1.947   6.461   4.554
 8148SOL     OW25342   5.521   4.922   0.892
 8148SOL    HW125343   5.532   4.823   0.888
 8148SOL    HW225344   5.610   4.965   0.907
 8149SOL     OW25345   1.645   6.493   5.050
 8149SOL    HW125346   1.556   6.472   5.091
 8149SOL    HW225347   1.631   6.526   4.957
 8150SOL     OW25348   0.261   4.528   0.533
 8150SOL    HW125349   0.320   4.580   0.472
 8150SOL    HW225350   0.166   4.533   0.500
 8151SOL     OW25351   6.162   4.199   2.285
 8151SOL    HW125352   6.077   4.218   2.334
 8151SOL    HW225353   6.169   4.100   2.269
 8152SOL     OW25354   4.889   1.830   4.209
 8152SOL    HW125355   4.842   1.869   4.288
 8152SOL    HW225356   4.967   1.887   4.184
 8153SOL     OW25357   0.282   1.868   0.951
 8153SOL    HW125358   0.367   1.844   0.903
 8153SOL    HW225359   0.301   1.940   1.017
 8154SOL     OW25360   0.001   0.413   4.501
 8154SOL    HW125361   6.930   0.443   4.525
 8154SOL    HW225362   0.031   0.345   4.567
 8155SOL     OW25363   0.984   4.690   4.595
 8155SOL    HW125364   0.892   4.650   4.602
 8155SOL    HW225365   1.002   4.747   4.675
 8156SOL     OW25366   1.099   3.947   0.679
 8156SOL    HW125367   1.067   3.981   0.590
 8156SOL    HW225368   1.158   3.868   0.665
 8157SOL     OW25369   6.347   4.751   5.257
 8157SOL    HW125370   6.392   4.682   5.200
 8157SOL    HW225371   6.265   4.784   5.211
 8158SOL     OW25372   6.152   5.104   6.053
 8158SOL    HW125373   6.091   5.026   6.036
 8158SOL    HW225374   6.222   5.107   5.982
 8159SOL     OW25375   2.453   6.295   5.474
 8159SOL    HW125376   2.380   6.226   5.472
 8159SOL    HW225377   2.540   6.250   5.492
 8160SOL     OW25378   5.229   3.186   2.693
 8160SOL    HW125379   5.261   3.255   2.757
 8160SOL    HW225380   5.277   3.196   2.606
 8161SOL     OW25381   0.243   2.368   1.066
 8161SOL    HW125382   0.157   2.361   1.117
 8161SOL    HW225383   0.297   2.444   1.103
 8162SOL     OW25384   0.226   6.358   5.481
 8162SOL    HW125385   0.310   6.407   5.503
 8162SOL    HW225386   0.207   6.291   5.553
 8163SOL     OW25387   3.922   5.251   5.849
 8163SOL    HW125388   3.977   5.169   5.865
 8163SOL    HW225389   3.977   5.332   5.869
 8164SOL     OW25390   5.692   2.083   0.140
 8164SOL    HW125391   5.758   2.055   0.209
 8164SOL    HW225392   5.706   2.031   0.056
 8165SOL     OW25393   1.111   2.756   5.747
 8165SOL    HW125394   1.202   2.769   5.707
 8165SOL    HW225395   1.078   2.664   5.725
 8166SOL     OW25396   3.328   2.127   4.187
 8166SOL    HW125397   3.326   2.114   4.088
 8166SOL    HW225398   3.319   2.039   4.232
 8167SOL     OW25399   1.782   2.228   2.019
 8167SOL    HW125400   1.738   2.287   1.951
 8167SOL    HW225401   1.878   2.254   2.028
 8168SOL     OW25402   1.053   5.695   3.000
 8168SOL    HW125403   1.123   5.625   3.016
 8168SOL    HW225404   1.096   5.776   2.960
 8169SOL     OW25405   5.153   4.720   6.555
 8169SOL    HW125406   5.128   4.752   6.464
 8169SOL    HW225407   5.234   4.771   6.586
 8170SOL     OW25408   0.316   4.946   3.302
 8170SOL    HW125409   0.260   5.022   3.270
 8170SOL    HW225410   0.267   4.860   3.289
 8171SOL     OW25411   1.666   1.740   1.661
 8171SOL    HW125412   1.631   1.648   1.676
 8171SOL    HW225413   1.591   1.806   1.674
 8172SOL     OW25414   1.697   5.198   0.556
 8172SOL    HW125415   1.601   5.179   0.580
 8172SOL    HW225416   1.725   5.139   0.480
 8173SOL     OW25417   5.612   0.389   1.428
 8173SOL    HW125418   5.692   0.450   1.422
 8173SOL    HW225419   5.588   0.358   1.336
 8174SOL     OW25420   2.405   6.728   3.984
 8174SOL    HW125421   2.504   6.719   3.990
 8174SOL    HW225422   2.382   6.821   3.955
 8175SOL     OW25423   0.773   2.127   6.335
 8175SOL    HW125424   0.687   2.136   6.285
 8175SOL    HW225425   0.834   2.202   6.310
 8176SOL     OW25426   2.719   4.374   0.454
 8176SOL    HW125427   2.720   4.343   0.549
 8176SOL    HW225428   2.634   4.423   0.435
 8177SOL     OW25429   3.466   1.066   2.432
 8177SOL    HW125430   3.427   1.107   2.349
 8177SOL    HW225431   3.565   1.074   2.430
 8178SOL     OW25432   2.640   6.574   1.142
 8178SOL    HW125433   2.609   6.508   1.074
 8178SOL    HW225434   2.560   6.620   1.182
 8179SOL     OW25435   6.126   6.828   4.313
 8179SOL    HW125436   6.113   6.732   4.336
 8179SOL    HW225437   6.076   6.850   4.230
 8180SOL     OW25438   4.402   5.635   1.143
 8180SOL    HW125439   4.484   5.589   1.176
 8180SOL    HW225440   4.427   5.696   1.067
 8181SOL     OW25441   6.699   0.490   6.333
 8181SOL    HW125442   6.636   0.416   6.353
 8181SOL    HW225443   6.721   0.539   6.418
 8182SOL     OW25444   3.445   3.476   3.142
 8182SOL    HW125445   3.444   3.376   3.142
 8182SOL    HW225446   3.356   3.510   3.171
 8183SOL     OW25447   0.286   0.122   5.165
 8183SOL    HW125448   0.363   0.069   5.201
 8183SOL    HW225449   0.312   0.163   5.078
 8184SOL     OW25450   0.118   6.034   4.745
 8184SOL    HW125451   0.034   6.000   4.787
 8184SOL    HW225452   0.136   6.127   4.776
 8185SOL     OW25453   0.115   6.274   4.893
 8185SOL    HW125454   0.049   6.323   4.950
 8185SOL    HW225455   0.204   6.274   4.938
 8186SOL     OW25456   1.186   5.746   6.644
 8186SOL    HW125457   1.098   5.777   6.680
 8186SOL    HW225458   1.179   5.735   6.545
 8187SOL     OW25459   1.475   6.054   4.740
 8187SOL    HW125460   1.559   6.047   4.794
 8187SOL    HW225461   1.420   5.971   4.752
 8188SOL     OW25462   1.438   2.763   2.536
 8188SOL    HW125463   1.476   2.852   2.512
 8188SOL    HW225464   1.508   2.710   2.585
 8189SOL     OW25465   6.679   5.540   4.036
 8189SOL    HW125466   6.720   5.451   4.057
 8189SOL    HW225467   6.683   5.599   4.117
 8190SOL     OW25468   5.594   3.642   2.821
 8190SOL    HW125469   5.690   3.664   2.810
 8190SOL    HW225470   5.541   3.727   2.830
 8191SOL     OW25471   4.971   5.042   0.674
 8191SOL    HW125472   4.888   4.987   0.679
 8191SOL    HW225473   4.959   5.115   0.606
 8192SOL     OW25474   6.726   5.803   2.613
 8192SOL    HW125475   6.716   5.828   2.517
 8192SOL    HW225476   6.730   5.886   2.669
 8193SOL     OW25477   0.944   4.996   4.620
 8193SOL    HW125478   1.022   5.017   4.560
 8193SOL    HW225479   0.863   4.979   4.564
 8194SOL     OW25480   5.228   6.986   2.552
 8194SOL    HW125481   5.190   6.917   2.490
 8194SOL    HW225482   5.327   6.992   2.538
 8195SOL     OW25483   6.530   6.837   3.435
 8195SOL    HW125484   6.559   6.889   3.515
 8195SOL    HW225485   6.471   6.762   3.464
 8196SOL     OW25486   4.998   6.875   2.743
 8196SOL    HW125487   5.011   6.974   2.745
 8196SOL    HW225488   4.954   6.845   2.828
 8197SOL     OW25489   4.071   1.044   3.180
 8197SOL    HW125490   3.983   1.028   3.224
 8197SOL    HW225491   4.119   1.117   3.228
 8198SOL     OW25492   2.012   5.514   0.031
 8198SOL    HW125493   2.101   5.560   0.024
 8198SOL    HW225494   1.977   5.495   6.962
 8199SOL     OW25495   5.906   2.950   0.256
 8199SOL    HW125496   5.876   3.042   0.229
 8199SOL    HW225497   5.841   2.912   0.322
 8200SOL     OW25498   5.938   4.463   6.821
 8200SOL    HW125499   5.904   4.527   6.752
 8200SOL    HW225500   5.944   4.510   6.909
 8201SOL     OW25501   5.627   1.204   5.577
 8201SOL    HW125502   5.604   1.253   5.493
 8201SOL    HW225503   5.550   1.213   5.642
 8202SOL     OW25504   0.281   5.767   2.381
 8202SOL    HW125505   0.278   5.737   2.476
 8202SOL    HW225506   0.371   5.805   2.361
 8203SOL     OW25507   1.013   3.002   0.400
 8203SOL    HW125508   0.937   3.046   0.351
 8203SOL    HW225509   1.024   3.043   0.490
 8204SOL     OW25510   1.658   3.569   0.731
 8204SOL    HW125511   1.623   3.484   0.693
 8204SOL    HW225512   1.756   3.576   0.712
 8205SOL     OW25513   6.971   4.126   6.388
 8205SOL    HW125514   6.889   4.127   6.331
 8205SOL    HW225515   7.021   4.041   6.372
 8206SOL     OW25516   3.108   1.121   1.073
 8206SOL    HW125517   3.019   1.163   1.091
 8206SOL    HW225518   3.166   1.131   1.154
 8207SOL     OW25519   4.115   3.646   4.053
 8207SOL    HW125520   4.118   3.632   4.152
 8207SOL    HW225521   4.147   3.563   4.007
 8208SOL     OW25522   3.353   0.297   5.736
 8208SOL    HW125523   3.361   0.259   5.644
 8208SOL    HW225524   3.430   0.358   5.755
 8209SOL     OW25525   5.557   2.422   3.740
 8209SOL    HW125526   5.505   2.377   3.667
 8209SOL    HW225527   5.575   2.517   3.715
 8210SOL     OW25528   1.781   1.756   6.128
 8210SOL    HW125529   1.794   1.740   6.030
 8210SOL    HW225530   1.741   1.846   6.142
 8211SOL     OW25531   3.691   4.643   1.243
 8211SOL    HW125532   3.775   4.596   1.269
 8211SOL    HW225533   3.688   4.734   1.284
 8212SOL     OW25534   1.621   3.336   3.008
 8212SOL    HW125535   1.610   3.260   3.073
 8212SOL    HW225536   1.562   3.320   2.929
 8213SOL     OW25537   6.445   4.748   0.892
 8213SOL    HW125538   6.541   4.774   0.886
 8213SOL    HW225539   6.407   4.780   0.978
 8214SOL     OW25540   4.721   2.854   3.793
 8214SOL    HW125541   4.788   2.785   3.769
 8214SOL    HW225542   4.681   2.893   3.710
 8215SOL     OW25543   3.380   4.713   1.409
 8215SOL    HW125544   3.382   4.760   1.497
 8215SOL    HW225545   3.427   4.624   1.418
 8216SOL     OW25546   5.524   3.166   4.361
 8216SOL    HW125547   5.554   3.165   4.456
 8216SOL    HW225548   5.594   3.126   4.302
 8217SOL     OW25549   2.247   5.868   0.165
 8217SOL    HW125550   2.312   5.887   0.239
 8217SOL    HW225551   2.187   5.793   0.192
 8218SOL     OW25552   4.683   1.848   0.233
 8218SOL    HW125553   4.653   1.870   0.326
 8218SOL    HW225554   4.769   1.896   0.214
 8219SOL     OW25555   5.375   2.721   0.031
 8219SOL    HW125556   5.471   2.727   0.060
 8219SOL    HW225557   5.323   2.796   0.071
 8220SOL     OW25558   3.944   3.650   1.429
 8220SOL    HW125559   3.984   3.585   1.494
 8220SOL    HW225560   3.856   3.681   1.464
 8221SOL     OW25561   5.330   3.850   3.811
 8221SOL    HW125562   5.264   3.785   3.774
 8221SOL    HW225563   5.334   3.931   3.751
 8222SOL     OW25564   5.909   0.893   2.829
 8222SOL    HW125565   5.814   0.862   2.823
 8222SOL    HW225566   5.918   0.982   2.785
 8223SOL     OW25567   0.981   3.751   0.460
 8223SOL    HW125568   0.970   3.849   0.448
 8223SOL    HW225569   1.061   3.720   0.409
 8224SOL     OW25570   0.706   3.740   2.524
 8224SOL    HW125571   0.784   3.677   2.517
 8224SOL    HW225572   0.630   3.706   2.469
 8225SOL     OW25573   4.657   0.837   0.918
 8225SOL    HW125574   4.581   0.773   0.908
 8225SOL    HW225575   4.692   0.835   1.011
 8226SOL     OW25576   3.760   0.403   6.973
 8226SOL    HW125577   3.804   0.360   6.895
 8226SOL    HW225578   3.770   0.502   6.968
 8227SOL     OW25579   5.874   4.185   3.365
 8227SOL    HW125580   5.927   4.265   3.336
 8227SOL    HW225581   5.807   4.213   3.434
 8228SOL     OW25582   0.222   1.600   3.696
 8228SOL    HW125583   0.315   1.634   3.680
 8228SOL    HW225584   0.227   1.505   3.727
 8229SOL     OW25585   5.776   5.696   6.776
 8229SOL    HW125586   5.778   5.774   6.838
 8229SOL    HW225587   5.780   5.728   6.682
 8230SOL     OW25588   4.899   7.022   3.871
 8230SOL    HW125589   4.810   0.024   3.833
 8230SOL    HW225590   4.972   0.028   3.809
 8231SOL     OW25591   3.846   5.921   1.591
 8231SOL    HW125592   3.888   5.950   1.505
 8231SOL    HW225593   3.747   5.913   1.578
 8232SOL     OW25594   2.598   1.628   0.317
 8232SOL    HW125595   2.545   1.706   0.350
 8232SOL    HW225596   2.546   1.580   0.246
 8233SOL     OW25597   1.005   5.683   6.083
 8233SOL    HW125598   0.972   5.626   6.158
 8233SOL    HW225599   0.928   5.732   6.042
 8234SOL     OW25600   2.158   3.267   6.715
 8234SOL    HW125601   2.138   3.228   6.625
 8234SOL    HW225602   2.127   3.362   6.718
 8235SOL     OW25603   4.493   2.772   6.640
 8235SOL    HW125604   4.421   2.747   6.705
 8235SOL    HW225605   4.569   2.708   6.646
 8236SOL     OW25606   6.184   1.904   1.638
 8236SOL    HW125607   6.237   1.825   1.668
 8236SOL    HW225608   6.142   1.948   1.717
 8237SOL     OW25609   3.566   6.036   5.349
 8237SOL    HW125610   3.528   6.121   5.311
 8237SOL    HW225611   3.666   6.045   5.355
 8238SOL     OW25612   0.744   0.852   5.886
 8238SOL    HW125613   0.780   0.867   5.978
 8238SOL    HW225614   0.820   0.840   5.822
 8239SOL     OW25615   5.069   1.485   6.671
 8239SOL    HW125616   5.022   1.428   6.604
 8239SOL    HW225617   5.116   1.427   6.737
 8240SOL     OW25618   3.566   3.175   3.131
 8240SOL    HW125619   3.527   3.156   3.041
 8240SOL    HW225620   3.666   3.178   3.125
 8241SOL     OW25621   4.594   6.061   1.067
 8241SOL    HW125622   4.609   6.160   1.059
 8241SOL    HW225623   4.623   6.016   0.983
 8242SOL     OW25624   1.569   4.344   5.161
 8242SOL    HW125625   1.606   4.257   5.191
 8242SOL    HW225626   1.502   4.328   5.088
 8243SOL     OW25627   0.216   3.586   4.799
 8243SOL    HW125628   0.252   3.663   4.747
 8243SOL    HW225629   0.157   3.620   4.872
 8244SOL     OW25630   3.143   5.288   5.483
 8244SOL    HW125631   3.217   5.331   5.535
 8244SOL    HW225632   3.142   5.326   5.390
 8245SOL     OW25633   4.562   4.162   1.059
 8245SOL    HW125634   4.580   4.208   1.145
 8245SOL    HW225635   4.635   4.182   0.994
 8246SOL     OW25636   5.376   3.273   4.990
 8246SOL    HW125637   5.297   3.215   4.970
 8246SOL    HW225638   5.363   3.319   5.078
 8247SOL     OW25639   1.253   6.189   6.792
 8247SOL    HW125640   1.252   6.286   6.815
 8247SOL    HW225641   1.276   6.178   6.695
 8248SOL     OW25642   6.879   4.488   3.398
 8248SOL    HW125643   6.899   4.551   3.323
 8248SOL    HW225644   6.884   4.394   3.365
 8249SOL     OW25645   0.596   5.247   3.007
 8249SOL    HW125646   0.635   5.245   3.099
 8249SOL    HW225647   0.576   5.341   2.981
 8250SOL     OW25648   3.029   3.104   2.654
 8250SOL    HW125649   2.971   3.155   2.719
 8250SOL    HW225650   3.017   3.142   2.563
 8251SOL     OW25651   5.772   0.976   4.455
 8251SOL    HW125652   5.790   0.889   4.500
 8251SOL    HW225653   5.676   0.979   4.427
 8252SOL     OW25654   0.906   4.014   4.008
 8252SOL    HW125655   0.943   4.099   4.046
 8252SOL    HW225656   0.946   3.936   4.056
 8253SOL     OW25657   3.137   3.286   5.754
 8253SOL    HW125658   3.170   3.200   5.714
 8253SOL    HW225659   3.173   3.363   5.703
 8254SOL     OW25660   5.020   4.984   3.016
 8254SOL    HW125661   5.066   5.015   3.099
 8254SOL    HW225662   4.943   5.044   2.997
 8255SOL     OW25663   3.757   5.178   3.549
 8255SOL    HW125664   3.744   5.219   3.639
 8255SOL    HW225665   3.672   5.185   3.496
 8256SOL     OW25666   5.102   2.321   3.014
 8256SOL    HW125667   5.074   2.290   3.105
 8256SOL    HW225668   5.040   2.394   2.983
 8257SOL     OW25669   6.143   4.365   4.297
 8257SOL    HW125670   6.162   4.429   4.223
 8257SOL    HW225671   6.100   4.283   4.260
 8258SOL     OW25672   5.195   1.975   0.094
 8258SOL    HW125673   5.226   2.051   0.037
 8258SOL    HW225674   5.271   1.912   0.109
 8259SOL     OW25675   4.837   0.487   0.860
 8259SOL    HW125676   4.866   0.576   0.893
 8259SOL    HW225677   4.865   0.476   0.764
 8260SOL     OW25678   3.044   5.579   6.655
 8260SOL    HW125679   3.031   5.558   6.558
 8260SOL    HW225680   3.138   5.610   6.670
 8261SOL     OW25681   4.795   1.241   1.782
 8261SOL    HW125682   4.749   1.268   1.867
 8261SOL    HW225683   4.824   1.323   1.733
 8262SOL     OW25684   6.407   2.645   1.557
 8262SOL    HW125685   6.446   2.705   1.626
 8262SOL    HW225686   6.313   2.622   1.582
 8263SOL     OW25687   6.036   1.405   0.453
 8263SOL    HW125688   6.025   1.348   0.535
 8263SOL    HW225689   5.954   1.461   0.441
 8264SOL     OW25690   1.261   4.272   1.452
 8264SOL    HW125691   1.281   4.335   1.377
 8264SOL    HW225692   1.267   4.178   1.420
 8265SOL     OW25693   2.039   0.928   2.765
 8265SOL    HW125694   2.105   0.862   2.729
 8265SOL    HW225695   2.075   0.968   2.849
 8266SOL     OW25696   2.909   0.744   2.673
 8266SOL    HW125697   2.840   0.788   2.731
 8266SOL    HW225698   2.952   0.812   2.615
 8267SOL     OW25699   6.900   3.405   1.658
 8267SOL    HW125700   6.810   3.430   1.622
 8267SOL    HW225701   6.963   3.482   1.646
 8268SOL     OW25702   2.455   4.753   6.990
 8268SOL    HW125703   2.497   4.829   6.940
 8268SOL    HW225704   2.515   4.672   6.983
 8269SOL     OW25705   5.576   2.194   6.894
 8269SOL    HW125706   5.479   2.185   6.916
 8269SOL    HW225707   5.621   2.106   6.910
 8270SOL     OW25708   2.428   6.163   4.476
 8270SOL    HW125709   2.513   6.201   4.513
 8270SOL    HW225710   2.352   6.188   4.535
 8271SOL     OW25711   0.400   2.069   2.639
 8271SOL    HW125712   0.356   2.143   2.587
 8271SOL    HW225713   0.497   2.089   2.650
 8272SOL     OW25714   3.328   1.049   3.895
 8272SOL    HW125715   3.256   1.117   3.898
 8272SOL    HW225716   3.406   1.085   3.843
 8273SOL     OW25717   1.861   6.306   2.137
 8273SOL    HW125718   1.812   6.313   2.224
 8273SOL    HW225719   1.958   6.325   2.151
 8274SOL     OW25720   5.138   3.687   3.689
 8274SOL    HW125721   5.142   3.588   3.696
 8274SOL    HW225722   5.067   3.722   3.750
 8275SOL     OW25723   6.027   2.341   0.207
 8275SOL    HW125724   6.081   2.418   0.172
 8275SOL    HW225725   5.931   2.354   0.181
 8276SOL     OW25726   0.766   1.987   3.033
 8276SOL    HW125727   0.856   1.998   3.077
 8276SOL    HW225728   0.775   2.002   2.935
 8277SOL     OW25729   0.258   1.258   0.487
 8277SOL    HW125730   0.182   1.240   0.424
 8277SOL    HW225731   0.224   1.252   0.581
 8278SOL     OW25732   0.908   2.755   0.239
 8278SOL    HW125733   0.952   2.815   0.306
 8278SOL    HW225734   0.836   2.806   0.191
 8279SOL     OW25735   0.332   5.872   3.851
 8279SOL    HW125736   0.366   5.779   3.842
 8279SOL    HW225737   0.378   5.932   3.786
 8280SOL     OW25738   2.979   2.728   6.016
 8280SOL    HW125739   3.040   2.674   6.075
 8280SOL    HW225740   3.017   2.820   6.005
 8281SOL     OW25741   4.008   5.259   2.378
 8281SOL    HW125742   4.005   5.213   2.289
 8281SOL    HW225743   3.955   5.207   2.444
 8282SOL     OW25744   6.281   2.855   6.183
 8282SOL    HW125745   6.375   2.849   6.217
 8282SOL    HW225746   6.237   2.935   6.224
 8283SOL     OW25747   2.151   2.796   6.290
 8283SOL    HW125748   2.175   2.700   6.275
 8283SOL    HW225749   2.156   2.846   6.203
 8284SOL     OW25750   6.487   4.555   1.823
 8284SOL    HW125751   6.470   4.617   1.900
 8284SOL    HW225752   6.534   4.473   1.856
 8285SOL     OW25753   3.349   2.889   3.526
 8285SOL    HW125754   3.349   2.851   3.434
 8285SOL    HW225755   3.443   2.914   3.552
 8286SOL     OW25756   0.212   3.303   6.929
 8286SOL    HW125757   0.130   3.350   6.898
 8286SOL    HW225758   0.277   3.294   6.854
 8287SOL     OW25759   1.565   6.981   4.319
 8287SOL    HW125760   1.527   6.959   4.409
 8287SOL    HW225761   1.659   6.945   4.313
 8288SOL     OW25762   2.533   1.562   3.041
 8288SOL    HW125763   2.608   1.496   3.041
 8288SOL    HW225764   2.529   1.607   2.952
 8289SOL     OW25765   0.787   6.693   6.992
 8289SOL    HW125766   0.822   6.752   6.920
 8289SOL    HW225767   0.694   6.721   7.017
 8290SOL     OW25768   6.436   1.958   0.817
 8290SOL    HW125769   6.431   2.050   0.854
 8290SOL    HW225770   6.531   1.929   0.810
 8291SOL     OW25771   3.714   0.351   1.061
 8291SOL    HW125772   3.732   0.261   1.102
 8291SOL    HW225773   3.618   0.375   1.077
 8292SOL     OW25774   2.451   0.854   6.258
 8292SOL    HW125775   2.429   0.842   6.162
 8292SOL    HW225776   2.520   0.788   6.285
 8293SOL     OW25777   6.234   5.389   5.436
 8293SOL    HW125778   6.141   5.388   5.472
 8293SOL    HW225779   6.244   5.463   5.370
 8294SOL     OW25780   6.181   2.862   0.277
 8294SOL    HW125781   6.095   2.908   0.256
 8294SOL    HW225782   6.214   2.893   0.366
 8295SOL     OW25783   5.694   2.438   6.936
 8295SOL    HW125784   5.674   2.342   6.916
 8295SOL    HW225785   5.785   2.461   6.899
 8296SOL     OW25786   6.931   5.151   5.297
 8296SOL    HW125787   6.909   5.248   5.291
 8296SOL    HW225788   7.021   5.139   5.339
 8297SOL     OW25789   1.218   3.603   4.102
 8297SOL    HW125790   1.293   3.642   4.048
 8297SOL    HW225791   1.254   3.567   4.188
 8298SOL     OW25792   4.432   1.946   2.167
 8298SOL    HW125793   4.401   1.892   2.245
 8298SOL    HW225794   4.506   2.008   2.196
 8299SOL     OW25795   6.036   1.654   1.786
 8299SOL    HW125796   5.994   1.708   1.859
 8299SOL    HW225797   6.116   1.606   1.822
 8300SOL     OW25798   1.870   5.218   2.989
 8300SOL    HW125799   1.823   5.306   2.992
 8300SOL    HW225800   1.960   5.226   3.032
 8301SOL     OW25801   2.783   1.459   5.859
 8301SOL    HW125802   2.818   1.533   5.801
 8301SOL    HW225803   2.683   1.459   5.857
 8302SOL     OW25804   5.769   5.539   6.202
 8302SOL    HW125805   5.837   5.466   6.198
 8302SOL    HW225806   5.724   5.538   6.292
 8303SOL     OW25807   0.467   6.858   6.783
 8303SOL    HW125808   0.465   6.919   6.862
 8303SOL    HW225809   0.442   6.909   6.701
 8304SOL     OW25810   6.971   2.984   0.492
 8304SOL    HW125811   6.964   2.915   0.419
 8304SOL    HW225812   0.044   3.004   0.509
 8305SOL     OW25813   3.021   5.158   2.437
 8305SOL    HW125814   2.928   5.122   2.440
 8305SOL    HW225815   3.046   5.178   2.342
 8306SOL     OW25816   1.744   2.810   3.732
 8306SOL    HW125817   1.675   2.851   3.792
 8306SOL    HW225818   1.834   2.849   3.754
 8307SOL     OW25819   3.795   6.177   0.905
 8307SOL    HW125820   3.698   6.182   0.929
 8307SOL    HW225821   3.827   6.083   0.917
 8308SOL     OW25822   2.537   1.046   2.414
 8308SOL    HW125823   2.447   1.007   2.395
 8308SOL    HW225824   2.597   0.975   2.449
 8309SOL     OW25825   5.689   6.551   2.083
 8309SOL    HW125826   5.768   6.490   2.079
 8309SOL    HW225827   5.611   6.509   2.036
 8310SOL     OW25828   5.861   5.046   6.893
 8310SOL    HW125829   5.798   5.118   6.864
 8310SOL    HW225830   5.822   4.996   6.970
 8311SOL     OW25831   6.488   0.439   6.600
 8311SOL    HW125832   6.488   0.412   6.503
 8311SOL    HW225833   6.580   0.429   6.637
 8312SOL     OW25834   4.700   5.998   1.586
 8312SOL    HW125835   4.729   6.067   1.652
 8312SOL    HW225836   4.710   6.034   1.493
 8313SOL     OW25837   3.823   1.596   2.700
 8313SOL    HW125838   3.879   1.581   2.782
 8313SOL    HW225839   3.729   1.566   2.719
 8314SOL     OW25840   0.288   0.117   3.795
 8314SOL    HW125841   0.292   0.126   3.894
 8314SOL    HW225842   0.259   0.024   3.771
 8315SOL     OW25843   4.823   4.604   0.016
 8315SOL    HW125844   4.858   4.676   0.076
 8315SOL    HW225845   4.856   4.619   6.945
 8316SOL     OW25846   3.082   5.310   6.670
 8316SOL    HW125847   3.023   5.270   6.741
 8316SOL    HW225848   3.067   5.409   6.666
 8317SOL     OW25849   2.418   5.142   1.439
 8317SOL    HW125850   2.334   5.154   1.386
 8317SOL    HW225851   2.478   5.077   1.393
 8318SOL     OW25852   3.018   1.704   5.532
 8318SOL    HW125853   3.026   1.761   5.450
 8318SOL    HW225854   3.106   1.705   5.581
 8319SOL     OW25855   2.257   0.577   5.292
 8319SOL    HW125856   2.210   0.500   5.336
 8319SOL    HW225857   2.279   0.553   5.197
 8320SOL     OW25858   3.582   5.209   1.045
 8320SOL    HW125859   3.672   5.240   1.074
 8320SOL    HW225860   3.591   5.151   0.964
 8321SOL     OW25861   6.539   1.096   1.260
 8321SOL    HW125862   6.469   1.025   1.263
 8321SOL    HW225863   6.625   1.060   1.297
 8322SOL     OW25864   5.187   6.361   0.894
 8322SOL    HW125865   5.246   6.339   0.971
 8322SOL    HW225866   5.218   6.446   0.851
 8323SOL     OW25867   1.319   0.445   1.803
 8323SOL    HW125868   1.306   0.543   1.819
 8323SOL    HW225869   1.335   0.429   1.705
 8324SOL     OW25870   6.962   0.893   2.590
 8324SOL    HW125871   6.963   0.860   2.685
 8324SOL    HW225872   0.030   0.927   2.566
 8325SOL     OW25873   3.720   3.905   4.779
 8325SOL    HW125874   3.755   3.840   4.846
 8325SOL    HW225875   3.788   3.916   4.705
 8326SOL     OW25876   4.198   3.154   6.159
 8326SOL    HW125877   4.098   3.148   6.156
 8326SOL    HW225878   4.229   3.157   6.254
 8327SOL     OW25879   4.655   2.176   6.000
 8327SOL    HW125880   4.710   2.189   6.082
 8327SOL    HW225881   4.711   2.134   5.929
 8328SOL     OW25882   1.872   2.562   3.869
 8328SOL    HW125883   1.820   2.605   3.795
 8328SOL    HW225884   1.819   2.487   3.908
 8329SOL     OW25885   0.788   3.057   4.884
 8329SOL    HW125886   0.873   3.083   4.839
 8329SOL    HW225887   0.721   3.027   4.816
 8330SOL     OW25888   2.623   0.067   0.356
 8330SOL    HW125889   2.713   0.024   0.359
 8330SOL    HW225890   2.596   0.096   0.448
 8331SOL     OW25891   2.285   0.216   0.862
 8331SOL    HW125892   2.203   0.198   0.807
 8331SOL    HW225893   2.319   0.308   0.841
 8332SOL     OW25894   4.799   6.214   3.320
 8332SOL    HW125895   4.854   6.271   3.259
 8332SOL    HW225896   4.799   6.120   3.287
 8333SOL     OW25897   2.028   4.857   5.312
 8333SOL    HW125898   2.075   4.786   5.365
 8333SOL    HW225899   2.044   4.841   5.215
 8334SOL     OW25900   6.593   0.232   3.451
 8334SOL    HW125901   6.627   0.187   3.534
 8334SOL    HW225902   6.620   0.179   3.371
 8335SOL     OW25903   6.398   6.160   5.141
 8335SOL    HW125904   6.343   6.220   5.082
 8335SOL    HW225905   6.341   6.122   5.213
 8336SOL     OW25906   1.044   1.716   2.776
 8336SOL    HW125907   1.013   1.643   2.715
 8336SOL    HW225908   1.107   1.679   2.843
 8337SOL     OW25909   6.427   6.613   2.407
 8337SOL    HW125910   6.387   6.659   2.486
 8337SOL    HW225911   6.401   6.517   2.408
 8338SOL     OW25912   2.419   5.687   0.529
 8338SOL    HW125913   2.339   5.660   0.583
 8338SOL    HW225914   2.498   5.633   0.558
 8339SOL     OW25915   4.849   1.073   3.144
 8339SOL    HW125916   4.908   1.150   3.165
 8339SOL    HW225917   4.777   1.066   3.213
 8340SOL     OW25918   4.926   3.881   1.684
 8340SOL    HW125919   4.838   3.857   1.725
 8340SOL    HW225920   4.989   3.912   1.756
 8341SOL     OW25921   2.075   0.332   0.491
 8341SOL    HW125922   2.132   0.268   0.439
 8341SOL    HW225923   2.082   0.311   0.589
 8342SOL     OW25924   5.445   0.010   1.230
 8342SOL    HW125925   5.376   7.020   1.159
 8342SOL    HW225926   5.400   0.036   1.316
 8343SOL     OW25927   6.970   4.575   5.324
 8343SOL    HW125928   6.885   4.604   5.368
 8343SOL    HW225929   0.021   4.638   5.347
 8344SOL     OW25930   3.512   6.862   5.106
 8344SOL    HW125931   3.547   6.808   5.182
 8344SOL    HW225932   3.450   6.806   5.052
 8345SOL     OW25933   5.697   1.524   3.340
 8345SOL    HW125934   5.662   1.494   3.251
 8345SOL    HW225935   5.755   1.604   3.328
 8346SOL     OW25936   4.285   5.430   2.219
 8346SOL    HW125937   4.355   5.483   2.267
 8346SOL    HW225938   4.207   5.416   2.279
 8347SOL     OW25939   3.106   5.141   4.753
 8347SOL    HW125940   3.144   5.084   4.827
 8347SOL    HW225941   3.181   5.180   4.700
 8348SOL     OW25942   2.292   0.183   0.362
 8348SOL    HW125943   2.250   0.115   0.422
 8348SOL    HW225944   2.341   0.137   0.288
 8349SOL     OW25945   5.749   4.770   2.438
 8349SOL    HW125946   5.719   4.865   2.446
 8349SOL    HW225947   5.675   4.715   2.400
 8350SOL     OW25948   6.412   0.919   5.147
 8350SOL    HW125949   6.448   0.887   5.059
 8350SOL    HW225950   6.333   0.864   5.173
 8351SOL     OW25951   3.134   6.835   2.564
 8351SOL    HW125952   3.147   6.765   2.493
 8351SOL    HW225953   3.222   6.853   2.609
 8352SOL     OW25954   6.330   6.275   1.530
 8352SOL    HW125955   6.277   6.261   1.447
 8352SOL    HW225956   6.364   6.186   1.563
 8353SOL     OW25957   2.095   3.659   2.158
 8353SOL    HW125958   2.165   3.605   2.111
 8353SOL    HW225959   2.094   3.636   2.255
 8354SOL     OW25960   3.125   0.429   0.879
 8354SOL    HW125961   3.094   0.512   0.926
 8354SOL    HW225962   3.223   0.416   0.896
 8355SOL     OW25963   3.100   1.995   0.815
 8355SOL    HW125964   3.197   1.992   0.837
 8355SOL    HW225965   3.076   1.916   0.758
 8356SOL     OW25966   3.047   5.121   0.393
 8356SOL    HW125967   2.964   5.146   0.444
 8356SOL    HW225968   3.049   5.172   0.307
 8357SOL     OW25969   4.201   5.952   3.013
 8357SOL    HW125970   4.290   5.946   2.967
 8357SOL    HW225971   4.202   5.896   3.096
 8358SOL     OW25972   3.121   1.874   4.802
 8358SOL    HW125973   3.070   1.845   4.883
 8358SOL    HW225974   3.127   1.974   4.801
 8359SOL     OW25975   3.636   4.983   4.198
 8359SOL    HW125976   3.653   5.002   4.295
 8359SOL    HW225977   3.543   4.947   4.187
 8360SOL     OW25978   4.504   0.692   3.441
 8360SOL    HW125979   4.479   0.760   3.372
 8360SOL    HW225980   4.559   0.620   3.399
 8361SOL     OW25981   1.411   0.474   3.059
 8361SOL    HW125982   1.428   0.498   2.964
 8361SOL    HW225983   1.352   0.543   3.101
 8362SOL     OW25984   2.853   3.149   0.656
 8362SOL    HW125985   2.921   3.161   0.728
 8362SOL    HW225986   2.764   3.181   0.688
 8363SOL     OW25987   0.687   3.536   1.850
 8363SOL    HW125988   0.652   3.624   1.818
 8363SOL    HW225989   0.787   3.536   1.845
 8364SOL     OW25990   6.725   4.901   5.566
 8364SOL    HW125991   6.785   4.966   5.613
 8364SOL    HW225992   6.710   4.931   5.472
 8365SOL     OW25993   1.497   3.681   5.704
 8365SOL    HW125994   1.435   3.608   5.735
 8365SOL    HW225995   1.580   3.679   5.759
 8366SOL     OW25996   2.520   0.171   2.069
 8366SOL    HW125997   2.564   0.252   2.030
 8366SOL    HW225998   2.570   0.089   2.042
 8367SOL     OW25999   5.162   5.681   3.800
 8367SOL    HW126000   5.139   5.720   3.711
 8367SOL    HW226001   5.167   5.581   3.792
 8368SOL     OW26002   3.180   5.555   5.995
 8368SOL    HW126003   3.240   5.492   6.044
 8368SOL    HW226004   3.086   5.540   6.024
 8369SOL     OW26005   2.251   1.315   1.110
 8369SOL    HW126006   2.231   1.338   1.205
 8369SOL    HW226007   2.347   1.336   1.090
 8370SOL     OW26008   2.333   1.253   0.614
 8370SOL    HW126009   2.295   1.344   0.632
 8370SOL    HW226010   2.259   1.187   0.603
 8371SOL     OW26011   1.157   2.407   0.353
 8371SOL    HW126012   1.062   2.392   0.381
 8371SOL    HW226013   1.205   2.319   0.349
 8372SOL     OW26014   6.103   0.735   0.374
 8372SOL    HW126015   6.017   0.759   0.329
 8372SOL    HW226016   6.098   0.641   0.407
 8373SOL     OW26017   1.583   6.823   4.056
 8373SOL    HW126018   1.582   6.877   4.140
 8373SOL    HW226019   1.497   6.774   4.046
 8374SOL     OW26020   6.824   1.265   5.851
 8374SOL    HW126021   6.922   1.250   5.862
 8374SOL    HW226022   6.801   1.260   5.753
 8375SOL     OW26023   4.232   0.944   6.326
 8375SOL    HW126024   4.209   0.910   6.418
 8375SOL    HW226025   4.300   0.883   6.284
 8376SOL     OW26026   4.342   0.564   4.159
 8376SOL    HW126027   4.312   0.480   4.114
 8376SOL    HW226028   4.359   0.547   4.256
 8377SOL     OW26029   5.260   5.173   0.716
 8377SOL    HW126030   5.179   5.221   0.683
 8377SOL    HW226031   5.255   5.077   0.690
 8378SOL     OW26032   5.020   2.747   3.581
 8378SOL    HW126033   4.968   2.817   3.533
 8378SOL    HW226034   5.089   2.709   3.520
 8379SOL     OW26035   5.466   2.833   2.507
 8379SOL    HW126036   5.389   2.846   2.444
 8379SOL    HW226037   5.537   2.779   2.463
 8380SOL     OW26038   5.903   1.607   3.885
 8380SOL    HW126039   5.816   1.569   3.918
 8380SOL    HW226040   5.888   1.701   3.854
 8381SOL     OW26041   2.079   5.631   4.381
 8381SOL    HW126042   2.062   5.703   4.314
 8381SOL    HW226043   2.145   5.566   4.344
 8382SOL     OW26044   0.511   4.454   2.547
 8382SOL    HW126045   0.504   4.491   2.454
 8382SOL    HW226046   0.568   4.372   2.546
 8383SOL     OW26047   3.364   1.477   5.582
 8383SOL    HW126048   3.451   1.434   5.558
 8383SOL    HW226049   3.290   1.428   5.536
 8384SOL     OW26050   0.599   0.067   1.355
 8384SOL    HW126051   0.539   0.124   1.299
 8384SOL    HW226052   0.667   0.124   1.400
 8385SOL     OW26053   4.208   1.503   1.278
 8385SOL    HW126054   4.151   1.583   1.300
 8385SOL    HW226055   4.297   1.535   1.243
 8386SOL     OW26056   0.421   2.928   2.051
 8386SOL    HW126057   0.403   3.026   2.046
 8386SOL    HW226058   0.463   2.898   1.965
 8387SOL     OW26059   0.499   1.540   1.798
 8387SOL    HW126060   0.480   1.638   1.787
 8387SOL    HW226061   0.431   1.499   1.858
 8388SOL     OW26062   1.288   6.820   2.712
 8388SOL    HW126063   1.331   6.754   2.651
 8388SOL    HW226064   1.209   6.778   2.756
 8389SOL     OW26065   6.270   3.354   3.578
 8389SOL    HW126066   6.193   3.400   3.535
 8389SOL    HW226067   6.250   3.256   3.587
 8390SOL     OW26068   6.120   2.226   6.690
 8390SOL    HW126069   6.122   2.151   6.756
 8390SOL    HW226070   6.196   2.288   6.708
 8391SOL     OW26071   6.253   0.419   0.974
 8391SOL    HW126072   6.288   0.459   0.889
 8391SOL    HW226073   6.155   0.401   0.964
 8392SOL     OW26074   3.728   2.924   5.068
 8392SOL    HW126075   3.629   2.935   5.081
 8392SOL    HW226076   3.749   2.929   4.971
 8393SOL     OW26077   5.794   7.001   0.978
 8393SOL    HW126078   5.760   0.005   0.888
 8393SOL    HW226079   5.882   6.954   0.967
 8394SOL     OW26080   5.614   2.869   2.868
 8394SOL    HW126081   5.569   2.808   2.803
 8394SOL    HW226082   5.670   2.815   2.931
 8395SOL     OW26083   2.150   0.816   5.196
 8395SOL    HW126084   2.233   0.843   5.148
 8395SOL    HW226085   2.158   0.721   5.226
 8396SOL     OW26086   4.983   5.434   4.090
 8396SOL    HW126087   4.912   5.493   4.052
 8396SOL    HW226088   4.956   5.338   4.078
 8397SOL     OW26089   5.850   6.583   2.795
 8397SOL    HW126090   5.897   6.524   2.860
 8397SOL    HW226091   5.807   6.527   2.724
 8398SOL     OW26092   6.081   1.694   6.261
 8398SOL    HW126093   5.981   1.688   6.254
 8398SOL    HW226094   6.109   1.790   6.259
 8399SOL     OW26095   0.533   3.965   2.480
 8399SOL    HW126096   0.575   3.888   2.528
 8399SOL    HW226097   0.435   3.950   2.471
 8400SOL     OW26098   1.355   0.791   4.568
 8400SOL    HW126099   1.338   0.889   4.554
 8400SOL    HW226100   1.302   0.738   4.502
 8401SOL     OW26101   1.755   0.021   5.948
 8401SOL    HW126102   1.810   7.012   5.871
 8401SOL    HW226103   1.803   0.094   5.996
 8402SOL     OW26104   3.013   0.732   6.142
 8402SOL    HW126105   2.953   0.780   6.077
 8402SOL    HW226106   3.022   0.637   6.114
 8403SOL     OW26107   5.832   4.972   5.742
 8403SOL    HW126108   5.753   4.915   5.718
 8403SOL    HW226109   5.833   5.054   5.685
 8404SOL     OW26110   1.206   1.315   0.224
 8404SOL    HW126111   1.158   1.231   0.199
 8404SOL    HW226112   1.158   1.359   0.300
 8405SOL     OW26113   3.933   6.698   5.866
 8405SOL    HW126114   3.933   6.647   5.780
 8405SOL    HW226115   4.017   6.751   5.873
 8406SOL     OW26116   6.469   0.875   6.220
 8406SOL    HW126117   6.411   0.809   6.174
 8406SOL    HW226118   6.505   0.941   6.154
 8407SOL     OW26119   4.788   0.558   5.123
 8407SOL    HW126120   4.769   0.641   5.176
 8407SOL    HW226121   4.778   0.577   5.026
 8408SOL     OW26122   3.902   2.257   1.470
 8408SOL    HW126123   3.945   2.168   1.459
 8408SOL    HW226124   3.883   2.273   1.567
 8409SOL     OW26125   4.619   2.560   1.897
 8409SOL    HW126126   4.574   2.638   1.854
 8409SOL    HW226127   4.557   2.519   1.965
 8410SOL     OW26128   0.058   1.877   1.388
 8410SOL    HW126129   7.005   1.941   1.407
 8410SOL    HW226130   0.023   1.801   1.334
 8411SOL     OW26131   0.609   5.736   1.056
 8411SOL    HW126132   0.525   5.757   1.006
 8411SOL    HW226133   0.644   5.647   1.027
 8412SOL     OW26134   2.835   2.390   0.239
 8412SOL    HW126135   2.906   2.460   0.252
 8412SOL    HW226136   2.756   2.411   0.296
 8413SOL     OW26137   4.095   5.940   4.874
 8413SOL    HW126138   4.146   5.910   4.793
 8413SOL    HW226139   3.997   5.929   4.858
 8414SOL     OW26140   2.040   0.202   0.763
 8414SOL    HW126141   1.987   0.126   0.724
 8414SOL    HW226142   2.022   0.209   0.861
 8415SOL     OW26143   3.657   1.416   6.225
 8415SOL    HW126144   3.603   1.332   6.220
 8415SOL    HW226145   3.599   1.491   6.257
 8416SOL     OW26146   0.200   2.171   4.792
 8416SOL    HW126147   0.283   2.221   4.819
 8416SOL    HW226148   0.158   2.216   4.713
 8417SOL     OW26149   2.178   3.246   6.189
 8417SOL    HW126150   2.149   3.178   6.121
 8417SOL    HW226151   2.184   3.336   6.146
 8418SOL     OW26152   6.607   6.273   2.495
 8418SOL    HW126153   6.619   6.250   2.399
 8418SOL    HW226154   6.509   6.274   2.517
 8419SOL     OW26155   3.481   1.585   4.220
 8419SOL    HW126156   3.499   1.555   4.126
 8419SOL    HW226157   3.539   1.663   4.241
 8420SOL     OW26158   3.905   1.201   2.047
 8420SOL    HW126159   3.918   1.117   1.995
 8420SOL    HW226160   3.817   1.242   2.022
 8421SOL     OW26161   4.955   0.232   6.434
 8421SOL    HW126162   4.987   0.306   6.493
 8421SOL    HW226163   4.887   0.178   6.483
 8422SOL     OW26164   5.147   1.891   4.339
 8422SOL    HW126165   5.237   1.927   4.366
 8422SOL    HW226166   5.131   1.910   4.242
 8423SOL     OW26167   6.523   5.656   0.404
 8423SOL    HW126168   6.486   5.665   0.312
 8423SOL    HW226169   6.456   5.691   0.470
 8424SOL     OW26170   2.744   0.049   5.445
 8424SOL    HW126171   2.710   0.112   5.376
 8424SOL    HW226172   2.831   0.083   5.482
 8425SOL     OW26173   3.776   3.230   2.171
 8425SOL    HW126174   3.729   3.318   2.185
 8425SOL    HW226175   3.721   3.173   2.110
 8426SOL     OW26176   3.793   3.016   1.497
 8426SOL    HW126177   3.837   3.102   1.473
 8426SOL    HW226178   3.786   3.008   1.597
 8427SOL     OW26179   4.097   3.605   2.675
 8427SOL    HW126180   4.192   3.579   2.696
 8427SOL    HW226181   4.079   3.589   2.578
 8428SOL     OW26182   5.427   0.674   1.719
 8428SOL    HW126183   5.429   0.582   1.679
 8428SOL    HW226184   5.474   0.738   1.659
 8429SOL     OW26185   3.256   5.925   5.516
 8429SOL    HW126186   3.266   6.024   5.530
 8429SOL    HW226187   3.173   5.908   5.462
 8430SOL     OW26188   5.358   6.912   5.326
 8430SOL    HW126189   5.335   6.957   5.412
 8430SOL    HW226190   5.289   6.842   5.306
 8431SOL     OW26191   2.580   3.427   6.167
 8431SOL    HW126192   2.669   3.456   6.202
 8431SOL    HW226193   2.590   3.398   6.071
 8432SOL     OW26194   6.476   5.047   5.371
 8432SOL    HW126195   6.447   5.103   5.448
 8432SOL    HW226196   6.431   4.958   5.375
 8433SOL     OW26197   4.729   1.973   1.150
 8433SOL    HW126198   4.765   1.973   1.056
 8433SOL    HW226199   4.631   1.991   1.148
 8434SOL     OW26200   2.658   6.319   4.526
 8434SOL    HW126201   2.646   6.328   4.625
 8434SOL    HW226202   2.756   6.314   4.505
 8435SOL     OW26203   6.366   1.413   3.022
 8435SOL    HW126204   6.449   1.425   3.077
 8435SOL    HW226205   6.336   1.502   2.987
 8436SOL     OW26206   2.175   5.066   2.785
 8436SOL    HW126207   2.237   5.065   2.707
 8436SOL    HW226208   2.144   5.160   2.803
 8437SOL     OW26209   1.738   5.804   0.209
 8437SOL    HW126210   1.700   5.806   0.117
 8437SOL    HW226211   1.748   5.897   0.244
 8438SOL     OW26212   0.889   4.167   2.429
 8438SOL    HW126213   0.861   4.072   2.439
 8438SOL    HW226214   0.978   4.181   2.473
 8439SOL     OW26215   5.861   4.293   2.452
 8439SOL    HW126216   5.778   4.348   2.446
 8439SOL    HW226217   5.851   4.225   2.525
 8440SOL     OW26218   1.501   1.816   2.559
 8440SOL    HW126219   1.410   1.838   2.524
 8440SOL    HW226220   1.568   1.879   2.520
 8441SOL     OW26221   0.100   2.758   6.767
 8441SOL    HW126222   0.101   2.843   6.821
 8441SOL    HW226223   0.159   2.769   6.687
 8442SOL     OW26224   3.936   2.885   6.634
 8442SOL    HW126225   4.016   2.864   6.577
 8442SOL    HW226226   3.855   2.889   6.577
 8443SOL     OW26227   1.863   3.901   3.231
 8443SOL    HW126228   1.951   3.928   3.269
 8443SOL    HW226229   1.831   3.971   3.167
 8444SOL     OW26230   5.348   5.323   4.966
 8444SOL    HW126231   5.348   5.357   4.872
 8444SOL    HW226232   5.264   5.353   5.012
 8445SOL     OW26233   4.585   6.490   6.443
 8445SOL    HW126234   4.585   6.587   6.422
 8445SOL    HW226235   4.673   6.465   6.485
 8446SOL     OW26236   6.794   6.387   4.658
 8446SOL    HW126237   6.802   6.347   4.567
 8446SOL    HW226238   6.710   6.441   4.663
 8447SOL     OW26239   3.345   1.818   4.376
 8447SOL    HW126240   3.334   1.748   4.306
 8447SOL    HW226241   3.260   1.871   4.383
 8448SOL     OW26242   3.387   6.923   2.690
 8448SOL    HW126243   3.456   6.975   2.741
 8448SOL    HW226244   3.396   6.826   2.711
 8449SOL     OW26245   1.103   2.839   4.037
 8449SOL    HW126246   1.020   2.785   4.018
 8449SOL    HW226247   1.151   2.857   3.951
 8450SOL     OW26248   6.597   1.178   0.730
 8450SOL    HW126249   6.664   1.151   0.800
 8450SOL    HW226250   6.539   1.099   0.707
 8451SOL     OW26251   4.211   2.558   0.685
 8451SOL    HW126252   4.133   2.534   0.626
 8451SOL    HW226253   4.296   2.549   0.632
 8452SOL     OW26254   5.409   0.864   5.722
 8452SOL    HW126255   5.445   0.885   5.631
 8452SOL    HW226256   5.480   0.820   5.777
 8453SOL     OW26257   0.238   0.655   0.273
 8453SOL    HW126258   0.221   0.557   0.267
 8453SOL    HW226259   0.326   0.677   0.230
 8454SOL     OW26260   6.416   5.723   0.156
 8454SOL    HW126261   6.448   5.666   0.080
 8454SOL    HW226262   6.395   5.815   0.122
 8455SOL     OW26263   6.146   0.788   2.912
 8455SOL    HW126264   6.187   0.847   2.981
 8455SOL    HW226265   6.060   0.827   2.880
 8456SOL     OW26266   6.829   0.509   2.175
 8456SOL    HW126267   6.924   0.485   2.156
 8456SOL    HW226268   6.777   0.426   2.197
 8457SOL     OW26269   6.116   7.017   5.019
 8457SOL    HW126270   6.150   6.980   4.933
 8457SOL    HW226271   6.192   0.024   5.076
 8458SOL     OW26272   1.424   6.604   0.291
 8458SOL    HW126273   1.451   6.671   0.360
 8458SOL    HW226274   1.329   6.578   0.306
 8459SOL     OW26275   0.716   5.893   2.969
 8459SOL    HW126276   0.702   5.826   3.042
 8459SOL    HW226277   0.814   5.913   2.960
 8460SOL     OW26278   3.952   3.231   3.746
 8460SOL    HW126279   3.953   3.132   3.756
 8460SOL    HW226280   3.921   3.273   3.831
 8461SOL     OW26281   6.471   3.502   3.764
 8461SOL    HW126282   6.389   3.445   3.768
 8461SOL    HW226283   6.457   3.584   3.818
 8462SOL     OW26284   2.486   2.653   1.798
 8462SOL    HW126285   2.490   2.590   1.876
 8462SOL    HW226286   2.572   2.647   1.747
 8463SOL     OW26287   6.893   0.283   1.944
 8463SOL    HW126288   6.880   0.303   1.847
 8463SOL    HW226289   6.991   0.276   1.964
 8464SOL     OW26290   6.698   1.004   4.500
 8464SOL    HW126291   6.668   0.911   4.523
 8464SOL    HW226292   6.618   1.063   4.488
 8465SOL     OW26293   2.162   1.052   0.591
 8465SOL    HW126294   2.119   1.007   0.669
 8465SOL    HW226295   2.110   1.031   0.508
 8466SOL     OW26296   0.861   6.861   4.217
 8466SOL    HW126297   0.916   6.865   4.133
 8466SOL    HW226298   0.900   6.793   4.279
 8467SOL     OW26299   3.956   5.547   1.015
 8467SOL    HW126300   4.015   5.492   0.956
 8467SOL    HW226301   4.001   5.563   1.103
 8468SOL     OW26302   4.557   3.116   0.165
 8468SOL    HW126303   4.531   3.156   0.253
 8468SOL    HW226304   4.633   3.053   0.178
 8469SOL     OW26305   4.984   2.452   5.400
 8469SOL    HW126306   4.936   2.370   5.431
 8469SOL    HW226307   5.079   2.430   5.380
 8470SOL     OW26308   1.924   2.882   0.122
 8470SOL    HW126309   1.970   2.799   0.153
 8470SOL    HW226310   1.989   2.958   0.123
 8471SOL     OW26311   3.926   1.406   5.199
 8471SOL    HW126312   3.868   1.397   5.117
 8471SOL    HW226313   3.935   1.503   5.222
 8472SOL     OW26314   1.481   6.241   2.839
 8472SOL    HW126315   1.565   6.286   2.867
 8472SOL    HW226316   1.501   6.146   2.813
 8473SOL     OW26317   6.525   5.713   6.743
 8473SOL    HW126318   6.567   5.751   6.660
 8473SOL    HW226319   6.463   5.781   6.782
 8474SOL     OW26320   4.308   5.753   0.189
 8474SOL    HW126321   4.251   5.676   0.217
 8474SOL    HW226322   4.360   5.727   0.107
 8475SOL     OW26323   4.990   1.378   3.104
 8475SOL    HW126324   4.906   1.411   3.060
 8475SOL    HW226325   5.054   1.345   3.034
 8476SOL     OW26326   4.656   0.310   2.888
 8476SOL    HW126327   4.751   0.338   2.899
 8476SOL    HW226328   4.645   0.215   2.918
 8477SOL     OW26329   3.108   0.592   3.341
 8477SOL    HW126330   3.119   0.495   3.362
 8477SOL    HW226331   3.108   0.644   3.426
 8478SOL     OW26332   1.215   1.033   6.059
 8478SOL    HW126333   1.305   1.059   6.026
 8478SOL    HW226334   1.221   1.007   6.155
 8479SOL     OW26335   5.185   0.413   2.522
 8479SOL    HW126336   5.246   0.464   2.460
 8479SOL    HW226337   5.203   0.315   2.514
 8480SOL     OW26338   1.864   1.061   1.906
 8480SOL    HW126339   1.829   1.145   1.865
 8480SOL    HW226340   1.904   1.082   1.996
 8481SOL     OW26341   3.811   0.258   5.769
 8481SOL    HW126342   3.761   0.207   5.699
 8481SOL    HW226343   3.825   0.199   5.849
 8482SOL     OW26344   6.890   0.557   1.461
 8482SOL    HW126345   6.968   0.549   1.399
 8482SOL    HW226346   6.844   0.469   1.469
 8483SOL     OW26347   4.834   6.180   1.754
 8483SOL    HW126348   4.814   6.184   1.852
 8483SOL    HW226349   4.796   6.261   1.709
 8484SOL     OW26350   6.494   4.702   5.478
 8484SOL    HW126351   6.443   4.715   5.393
 8484SOL    HW226352   6.431   4.705   5.555
 8485SOL     OW26353   2.444   3.199   6.276
 8485SOL    HW126354   2.361   3.235   6.235
 8485SOL    HW226355   2.514   3.270   6.278
 8486SOL     OW26356   4.485   0.479   2.412
 8486SOL    HW126357   4.544   0.430   2.476
 8486SOL    HW226358   4.506   0.577   2.416
 8487SOL     OW26359   4.254   0.428   0.835
 8487SOL    HW126360   4.198   0.466   0.909
 8487SOL    HW226361   4.323   0.495   0.808
 8488SOL     OW26362   6.977   3.697   5.595
 8488SOL    HW126363   6.949   3.627   5.529
 8488SOL    HW226364   6.897   3.730   5.645
 8489SOL     OW26365   3.376   6.973   3.385
 8489SOL    HW126366   3.346   6.935   3.473
 8489SOL    HW226367   3.474   6.990   3.388
 8490SOL     OW26368   3.702   4.880   2.736
 8490SOL    HW126369   3.794   4.861   2.700
 8490SOL    HW226370   3.639   4.895   2.660
 8491SOL     OW26371   0.804   0.748   1.434
 8491SOL    HW126372   0.715   0.706   1.451
 8491SOL    HW226373   0.809   0.777   1.338
 8492SOL     OW26374   5.731   4.066   4.838
 8492SOL    HW126375   5.812   4.078   4.781
 8492SOL    HW226376   5.655   4.121   4.801
 8493SOL     OW26377   3.851   3.176   0.747
 8493SOL    HW126378   3.756   3.149   0.733
 8493SOL    HW226379   3.900   3.102   0.793
 8494SOL     OW26380   3.601   6.147   6.563
 8494SOL    HW126381   3.551   6.098   6.491
 8494SOL    HW226382   3.535   6.193   6.622
 8495SOL     OW26383   0.584   2.965   6.287
 8495SOL    HW126384   0.535   2.893   6.239
 8495SOL    HW226385   0.648   2.925   6.352
 8496SOL     OW26386   1.288   2.283   3.760
 8496SOL    HW126387   1.244   2.372   3.774
 8496SOL    HW226388   1.217   2.213   3.748
 8497SOL     OW26389   5.512   3.827   4.012
 8497SOL    HW126390   5.438   3.833   3.946
 8497SOL    HW226391   5.546   3.733   4.016
 8498SOL     OW26392   6.727   0.804   1.439
 8498SOL    HW126393   6.788   0.728   1.460
 8498SOL    HW226394   6.677   0.831   1.522
 8499SOL     OW26395   0.003   4.528   0.604
 8499SOL    HW126396   0.016   4.611   0.658
 8499SOL    HW226397   0.054   4.452   0.646
 8500SOL     OW26398   2.269   0.576   5.000
 8500SOL    HW126399   2.297   0.517   4.925
 8500SOL    HW226400   2.170   0.592   4.995
 8501SOL     OW26401   3.022   3.875   6.126
 8501SOL    HW126402   3.003   3.909   6.034
 8501SOL    HW226403   3.005   3.776   6.129
 8502SOL     OW26404   0.661   6.406   1.050
 8502SOL    HW126405   0.702   6.330   1.101
 8502SOL    HW226406   0.601   6.458   1.110
 8503SOL     OW26407   3.917   5.570   3.389
 8503SOL    HW126408   3.964   5.579   3.477
 8503SOL    HW226409   3.907   5.473   3.366
 8504SOL     OW26410   1.933   4.762   3.064
 8504SOL    HW126411   1.879   4.815   3.129
 8504SOL    HW226412   1.933   4.808   2.975
 8505SOL     OW26413   4.241   1.876   2.959
 8505SOL    HW126414   4.325   1.863   2.906
 8505SOL    HW226415   4.163   1.882   2.897
 8506SOL     OW26416   0.741   5.212   0.057
 8506SOL    HW126417   0.646   5.242   0.052
 8506SOL    HW226418   0.800   5.277   0.009
 8507SOL     OW26419   1.914   0.453   4.439
 8507SOL    HW126420   2.008   0.455   4.473
 8507SOL    HW226421   1.905   0.379   4.372
 8508SOL     OW26422   0.484   3.610   5.967
 8508SOL    HW126423   0.492   3.657   5.879
 8508SOL    HW226424   0.389   3.615   5.999
 8509SOL     OW26425   6.515   2.151   4.818
 8509SOL    HW126426   6.594   2.211   4.805
 8509SOL    HW226427   6.541   2.057   4.797
 8510SOL     OW26428   5.252   6.873   3.093
 8510SOL    HW126429   5.254   6.913   3.001
 8510SOL    HW226430   5.194   6.792   3.094
 8511SOL     OW26431   6.661   5.444   1.501
 8511SOL    HW126432   6.655   5.451   1.600
 8511SOL    HW226433   6.757   5.435   1.474
 8512SOL     OW26434   4.284   2.836   1.020
 8512SOL    HW126435   4.359   2.840   0.954
 8512SOL    HW226436   4.303   2.898   1.097
 8513SOL     OW26437   0.647   3.349   0.782
 8513SOL    HW126438   0.551   3.342   0.810
 8513SOL    HW226439   0.666   3.279   0.713
 8514SOL     OW26440   2.127   3.144   4.886
 8514SOL    HW126441   2.154   3.058   4.930
 8514SOL    HW226442   2.161   3.221   4.939
 8515SOL     OW26443   3.146   1.251   0.329
 8515SOL    HW126444   3.204   1.324   0.364
 8515SOL    HW226445   3.202   1.172   0.304
 8516SOL     OW26446   6.749   3.467   5.264
 8516SOL    HW126447   6.761   3.448   5.166
 8516SOL    HW226448   6.780   3.389   5.317
 8517SOL     OW26449   1.066   2.004   5.638
 8517SOL    HW126450   1.026   1.921   5.676
 8517SOL    HW226451   1.040   2.082   5.695
 8518SOL     OW26452   5.334   5.067   0.321
 8518SOL    HW126453   5.339   5.034   0.227
 8518SOL    HW226454   5.365   4.995   0.383
 8519SOL     OW26455   0.892   3.780   0.988
 8519SOL    HW126456   0.819   3.714   0.973
 8519SOL    HW226457   0.883   3.855   0.923
 8520SOL     OW26458   3.509   3.719   6.273
 8520SOL    HW126459   3.441   3.773   6.223
 8520SOL    HW226460   3.563   3.779   6.331
 8521SOL     OW26461   2.253   6.922   4.523
 8521SOL    HW126462   2.257   7.022   4.525
 8521SOL    HW226463   2.208   6.892   4.439
 8522SOL     OW26464   0.664   0.447   0.081
 8522SOL    HW126465   0.758   0.439   0.113
 8522SOL    HW226466   0.602   0.408   0.150
 8523SOL     OW26467   4.072   2.021   1.442
 8523SOL    HW126468   4.067   1.954   1.516
 8523SOL    HW226469   4.159   2.071   1.447
 8524SOL     OW26470   2.920   6.165   5.398
 8524SOL    HW126471   2.945   6.258   5.367
 8524SOL    HW226472   2.957   6.150   5.490
 8525SOL     OW26473   6.322   2.588   3.080
 8525SOL    HW126474   6.322   2.529   2.999
 8525SOL    HW226475   6.228   2.614   3.102
 8526SOL     OW26476   0.599   4.543   6.679
 8526SOL    HW126477   0.623   4.454   6.639
 8526SOL    HW226478   0.623   4.543   6.776
 8527SOL     OW26479   2.577   1.120   6.206
 8527SOL    HW126480   2.543   1.028   6.223
 8527SOL    HW226481   2.645   1.118   6.133
 8528SOL     OW26482   5.329   0.300   0.453
 8528SOL    HW126483   5.298   0.224   0.396
 8528SOL    HW226484   5.274   0.303   0.537
 8529SOL     OW26485   0.834   6.352   6.716
 8529SOL    HW126486   0.872   6.268   6.677
 8529SOL    HW226487   0.778   6.398   6.647
 8530SOL     OW26488   3.740   4.031   3.112
 8530SOL    HW126489   3.838   4.011   3.104
 8530SOL    HW226490   3.725   4.096   3.187
 8531SOL     OW26491   6.477   5.913   3.043
 8531SOL    HW126492   6.465   6.002   2.999
 8531SOL    HW226493   6.456   5.840   2.978
 8532SOL     OW26494   3.640   5.485   0.427
 8532SOL    HW126495   3.587   5.533   0.357
 8532SOL    HW226496   3.590   5.487   0.514
 8533SOL     OW26497   2.749   5.698   5.190
 8533SOL    HW126498   2.663   5.698   5.138
 8533SOL    HW226499   2.773   5.791   5.216
 8534SOL     OW26500   1.816   3.759   1.781
 8534SOL    HW126501   1.721   3.739   1.756
 8534SOL    HW226502   1.865   3.674   1.795
 8535SOL     OW26503   6.516   0.042   2.119
 8535SOL    HW126504   6.557   6.974   2.108
 8535SOL    HW226505   6.438   0.052   2.056
 8536SOL     OW26506   1.811   0.947   4.003
 8536SOL    HW126507   1.807   0.858   3.958
 8536SOL    HW226508   1.863   0.939   4.088
 8537SOL     OW26509   5.888   1.140   2.722
 8537SOL    HW126510   5.794   1.145   2.688
 8537SOL    HW226511   5.925   1.232   2.732
 8538SOL     OW26512   0.569   2.287   6.529
 8538SOL    HW126513   0.538   2.382   6.526
 8538SOL    HW226514   0.669   2.285   6.533
 8539SOL     OW26515   5.219   3.518   2.199
 8539SOL    HW126516   5.229   3.561   2.288
 8539SOL    HW226517   5.122   3.514   2.174
 8540SOL     OW26518   4.185   0.008   0.951
 8540SOL    HW126519   4.280   6.999   0.948
 8540SOL    HW226520   4.171   0.063   1.033
 8541SOL     OW26521   1.402   3.368   3.556
 8541SOL    HW126522   1.427   3.461   3.583
 8541SOL    HW226523   1.339   3.329   3.624
 8542SOL     OW26524   3.083   4.685   6.414
 8542SOL    HW126525   3.033   4.730   6.339
 8542SOL    HW226526   3.096   4.589   6.393
 8543SOL     OW26527   4.067   2.439   6.684
 8543SOL    HW126528   4.121   2.516   6.649
 8543SOL    HW226529   4.066   2.441   6.784
 8544SOL     OW26530   5.513   2.110   4.197
 8544SOL    HW126531   5.430   2.153   4.162
 8544SOL    HW226532   5.592   2.169   4.179
 8545SOL     OW26533   4.301   6.945   5.491
 8545SOL    HW126534   4.359   7.012   5.537
 8545SOL    HW226535   4.205   6.971   5.501
 8546SOL     OW26536   4.177   2.210   6.528
 8546SOL    HW126537   4.111   2.200   6.453
 8546SOL    HW226538   4.141   2.274   6.595
 8547SOL     OW26539   1.301   4.495   2.387
 8547SOL    HW126540   1.241   4.481   2.308
 8547SOL    HW226541   1.364   4.570   2.368
 8548SOL     OW26542   6.039   2.471   5.396
 8548SOL    HW126543   6.122   2.430   5.358
 8548SOL    HW226544   6.052   2.487   5.493
 8549SOL     OW26545   5.194   2.816   4.969
 8549SOL    HW126546   5.290   2.838   4.987
 8549SOL    HW226547   5.185   2.781   4.875
 8550SOL     OW26548   1.886   4.578   5.551
 8550SOL    HW126549   1.885   4.676   5.571
 8550SOL    HW226550   1.919   4.528   5.631
 8551SOL     OW26551   2.293   4.759   1.123
 8551SOL    HW126552   2.314   4.855   1.107
 8551SOL    HW226553   2.377   4.710   1.148
 8552SOL     OW26554   3.082   6.900   4.123
 8552SOL    HW126555   3.098   6.968   4.195
 8552SOL    HW226556   3.170   6.867   4.090
 8553SOL     OW26557   6.167   5.435   0.410
 8553SOL    HW126558   6.245   5.393   0.457
 8553SOL    HW226559   6.151   5.526   0.447
 8554SOL     OW26560   5.672   3.734   0.455
 8554SOL    HW126561   5.677   3.735   0.356
 8554SOL    HW226562   5.690   3.641   0.488
 8555SOL     OW26563   1.836   6.322   4.176
 8555SOL    HW126564   1.821   6.231   4.217
 8555SOL    HW226565   1.801   6.322   4.082
 8556SOL     OW26566   5.407   0.444   5.019
 8556SOL    HW126567   5.481   0.501   5.056
 8556SOL    HW226568   5.359   0.495   4.947
 8557SOL     OW26569   6.588   1.524   1.103
 8557SOL    HW126570   6.527   1.464   1.051
 8557SOL    HW226571   6.539   1.607   1.130
 8558SOL     OW26572   1.939   4.570   2.726
 8558SOL    HW126573   1.977   4.657   2.757
 8558SOL    HW226574   1.872   4.587   2.654
 8559SOL     OW26575   1.175   1.235   4.855
 8559SOL    HW126576   1.261   1.251   4.806
 8559SOL    HW226577   1.108   1.305   4.830
 8560SOL     OW26578   6.660   2.982   6.806
 8560SOL    HW126579   6.565   2.982   6.773
 8560SOL    HW226580   6.706   2.899   6.775
 8561SOL     OW26581   4.997   6.215   6.242
 8561SOL    HW126582   4.957   6.197   6.152
 8561SOL    HW226583   5.005   6.129   6.293
 8562SOL     OW26584   3.674   0.493   4.367
 8562SOL    HW126585   3.617   0.562   4.413
 8562SOL    HW226586   3.717   0.534   4.287
 8563SOL     OW26587   2.742   2.943   6.352
 8563SOL    HW126588   2.769   3.039   6.361
 8563SOL    HW226589   2.823   2.887   6.335
 8564SOL     OW26590   0.561   5.485   3.478
 8564SOL    HW126591   0.476   5.508   3.431
 8564SOL    HW226592   0.556   5.391   3.512
 8565SOL     OW26593   3.571   0.918   1.155
 8565SOL    HW126594   3.508   0.897   1.230
 8565SOL    HW226595   3.528   0.898   1.068
 8566SOL     OW26596   1.603   4.596   4.515
 8566SOL    HW126597   1.599   4.544   4.429
 8566SOL    HW226598   1.690   4.578   4.561
 8567SOL     OW26599   5.417   6.629   6.134
 8567SOL    HW126600   5.441   6.703   6.071
 8567SOL    HW226601   5.357   6.663   6.206
 8568SOL     OW26602   5.403   6.816   0.522
 8568SOL    HW126603   5.314   6.787   0.556
 8568SOL    HW226604   5.403   6.815   0.422
 8569SOL     OW26605   2.859   0.698   5.345
 8569SOL    HW126606   2.948   0.699   5.392
 8569SOL    HW226607   2.827   0.604   5.335
 8570SOL     OW26608   6.712   3.387   6.389
 8570SOL    HW126609   6.667   3.325   6.452
 8570SOL    HW226610   6.653   3.402   6.309
 8571SOL     OW26611   6.563   4.791   5.987
 8571SOL    HW126612   6.499   4.779   6.063
 8571SOL    HW226613   6.653   4.758   6.014
 8572SOL     OW26614   2.829   4.972   6.441
 8572SOL    HW126615   2.881   4.954   6.357
 8572SOL    HW226616   2.891   4.972   6.519
 8573SOL     OW26617   3.596   6.202   4.391
 8573SOL    HW126618   3.671   6.178   4.330
 8573SOL    HW226619   3.513   6.219   4.338
 8574SOL     OW26620   1.250   4.125   4.455
 8574SOL    HW126621   1.230   4.029   4.473
 8574SOL    HW226622   1.171   4.168   4.411
 8575SOL     OW26623   2.769   3.575   6.286
 8575SOL    HW126624   2.803   3.634   6.359
 8575SOL    HW226625   2.789   3.618   6.197
 8576SOL     OW26626   2.039   0.627   0.571
 8576SOL    HW126627   2.066   0.533   0.554
 8576SOL    HW226628   2.120   0.684   0.583
 8577SOL     OW26629   6.382   5.884   4.807
 8577SOL    HW126630   6.300   5.868   4.861
 8577SOL    HW226631   6.369   5.847   4.715
 8578SOL     OW26632   4.460   0.847   4.233
 8578SOL    HW126633   4.488   0.942   4.220
 8578SOL    HW226634   4.368   0.845   4.274
 8579SOL     OW26635   0.300   4.388   2.734
 8579SOL    HW126636   0.368   4.423   2.670
 8579SOL    HW226637   0.209   4.392   2.693
 8580SOL     OW26638   2.271   5.480   6.075
 8580SOL    HW126639   2.293   5.413   6.146
 8580SOL    HW226640   2.290   5.440   5.985
 8581SOL     OW26641   3.595   3.768   0.246
 8581SOL    HW126642   3.571   3.725   0.159
 8581SOL    HW226643   3.523   3.749   0.313
 8582SOL     OW26644   3.489   5.071   0.034
 8582SOL    HW126645   3.416   5.034   0.092
 8582SOL    HW226646   3.570   5.014   0.041
 8583SOL     OW26647   5.316   6.935   4.419
 8583SOL    HW126648   5.347   0.005   4.399
 8583SOL    HW226649   5.218   6.928   4.400
 8584SOL     OW26650   0.524   5.725   6.080
 8584SOL    HW126651   0.495   5.777   6.160
 8584SOL    HW226652   0.454   5.658   6.056
 8585SOL     OW26653   1.441   1.279   0.679
 8585SOL    HW126654   1.457   1.206   0.614
 8585SOL    HW226655   1.459   1.367   0.635
 8586SOL     OW26656   3.673   5.226   3.866
 8586SOL    HW126657   3.577   5.200   3.867
 8586SOL    HW226658   3.697   5.273   3.951
 8587SOL     OW26659   6.732   1.827   1.086
 8587SOL    HW126660   6.779   1.740   1.101
 8587SOL    HW226661   6.655   1.835   1.149
 8588SOL     OW26662   3.999   3.171   6.668
 8588SOL    HW126663   4.035   3.082   6.642
 8588SOL    HW226664   3.918   3.192   6.613
 8589SOL     OW26665   2.747   1.764   3.730
 8589SOL    HW126666   2.784   1.798   3.644
 8589SOL    HW226667   2.817   1.709   3.777
 8590SOL     OW26668   5.427   4.323   5.172
 8590SOL    HW126669   5.501   4.258   5.189
 8590SOL    HW226670   5.402   4.369   5.257
 8591SOL     OW26671   0.295   2.844   0.764
 8591SOL    HW126672   0.351   2.900   0.825
 8591SOL    HW226673   0.259   2.766   0.814
 8592SOL     OW26674   6.350   6.401   6.925
 8592SOL    HW126675   6.316   6.463   6.855
 8592SOL    HW226676   6.441   6.368   6.899
 8593SOL     OW26677   0.613   4.920   3.371
 8593SOL    HW126678   0.513   4.929   3.365
 8593SOL    HW226679   0.640   4.831   3.336
 8594SOL     OW26680   4.089   3.660   2.403
 8594SOL    HW126681   4.061   3.722   2.476
 8594SOL    HW226682   4.065   3.701   2.314
 8595SOL     OW26683   1.809   3.011   2.256
 8595SOL    HW126684   1.832   3.096   2.303
 8595SOL    HW226685   1.829   3.019   2.159
 8596SOL     OW26686   6.843   4.100   2.880
 8596SOL    HW126687   6.784   4.041   2.934
 8596SOL    HW226688   6.788   4.171   2.836
 8597SOL     OW26689   1.944   1.967   1.007
 8597SOL    HW126690   2.012   2.008   0.946
 8597SOL    HW226691   1.984   1.885   1.050
 8598SOL     OW26692   6.190   2.678   1.931
 8598SOL    HW126693   6.167   2.773   1.913
 8598SOL    HW226694   6.134   2.618   1.873
 8599SOL     OW26695   0.918   2.295   0.462
 8599SOL    HW126696   0.946   2.270   0.554
 8599SOL    HW226697   0.891   2.213   0.411
 8600SOL     OW26698   0.327   2.711   5.920
 8600SOL    HW126699   0.392   2.752   5.856
 8600SOL    HW226700   0.253   2.667   5.869
 8601SOL     OW26701   0.742   0.482   4.973
 8601SOL    HW126702   0.676   0.412   4.945
 8601SOL    HW226703   0.693   0.562   5.008
 8602SOL     OW26704   0.764   6.274   2.545
 8602SOL    HW126705   0.698   6.270   2.620
 8602SOL    HW226706   0.716   6.294   2.460
 8603SOL     OW26707   4.905   3.629   1.918
 8603SOL    HW126708   4.918   3.725   1.940
 8603SOL    HW226709   4.914   3.575   2.002
 8604SOL     OW26710   5.986   1.813   3.494
 8604SOL    HW126711   6.057   1.765   3.545
 8604SOL    HW226712   5.986   1.781   3.399
 8605SOL     OW26713   2.409   5.444   1.820
 8605SOL    HW126714   2.503   5.418   1.799
 8605SOL    HW226715   2.370   5.492   1.741
 8606SOL     OW26716   3.869   5.262   4.445
 8606SOL    HW126717   3.861   5.182   4.505
 8606SOL    HW226718   3.852   5.233   4.350
 8607SOL     OW26719   2.899   5.989   0.004
 8607SOL    HW126720   2.939   6.018   0.091
 8607SOL    HW226721   2.826   5.923   0.021
 8608SOL     OW26722   5.682   6.426   2.624
 8608SOL    HW126723   5.676   6.327   2.640
 8608SOL    HW226724   5.711   6.443   2.530
 8609SOL     OW26725   5.903   0.331   5.774
 8609SOL    HW126726   5.879   0.396   5.846
 8609SOL    HW226727   5.836   0.337   5.700
 8610SOL     OW26728   6.580   6.427   5.030
 8610SOL    HW126729   6.491   6.459   5.063
 8610SOL    HW226730   6.629   6.381   5.104
 8611SOL     OW26731   1.710   1.827   2.851
 8611SOL    HW126732   1.728   1.739   2.896
 8611SOL    HW226733   1.751   1.826   2.759
 8612SOL     OW26734   5.023   3.229   4.445
 8612SOL    HW126735   4.991   3.274   4.528
 8612SOL    HW226736   4.958   3.157   4.419
 8613SOL     OW26737   1.441   0.650   0.544
 8613SOL    HW126738   1.379   0.629   0.620
 8613SOL    HW226739   1.397   0.625   0.458
 8614SOL     OW26740   1.569   3.130   3.471
 8614SOL    HW126741   1.528   3.040   3.464
 8614SOL    HW226742   1.505   3.193   3.515
 8615SOL     OW26743   5.049   1.891   6.383
 8615SOL    HW126744   4.975   1.946   6.421
 8615SOL    HW226745   5.076   1.821   6.449
 8616SOL     OW26746   1.236   3.368   0.944
 8616SOL    HW126747   1.180   3.449   0.965
 8616SOL    HW226748   1.247   3.313   1.026
 8617SOL     OW26749   6.484   3.179   0.487
 8617SOL    HW126750   6.553   3.202   0.556
 8617SOL    HW226751   6.526   3.122   0.417
 8618SOL     OW26752   3.310   1.482   3.024
 8618SOL    HW126753   3.314   1.565   3.081
 8618SOL    HW226754   3.356   1.407   3.071
 8619SOL     OW26755   3.893   6.423   0.868
 8619SOL    HW126756   3.835   6.494   0.908
 8619SOL    HW226757   3.857   6.333   0.892
 8620SOL     OW26758   6.079   6.275   4.061
 8620SOL    HW126759   6.091   6.373   4.041
 8620SOL    HW226760   5.986   6.247   4.040
 8621SOL     OW26761   4.734   1.234   4.079
 8621SOL    HW126762   4.693   1.143   4.071
 8621SOL    HW226763   4.698   1.294   4.007
 8622SOL     OW26764   5.415   5.127   6.400
 8622SOL    HW126765   5.405   5.064   6.323
 8622SOL    HW226766   5.474   5.087   6.469
 8623SOL     OW26767   5.670   1.542   3.611
 8623SOL    HW126768   5.677   1.541   3.511
 8623SOL    HW226769   5.753   1.581   3.650
 8624SOL     OW26770   6.428   2.899   3.632
 8624SOL    HW126771   6.386   2.941   3.551
 8624SOL    HW226772   6.527   2.913   3.629
 8625SOL     OW26773   3.656   1.154   6.735
 8625SOL    HW126774   3.621   1.100   6.659
 8625SOL    HW226775   3.735   1.207   6.705
 8626SOL     OW26776   3.255   3.761   1.621
 8626SOL    HW126777   3.224   3.693   1.688
 8626SOL    HW226778   3.199   3.843   1.629
 8627SOL     OW26779   2.981   0.380   6.743
 8627SOL    HW126780   3.043   0.341   6.811
 8627SOL    HW226781   2.976   0.479   6.754
 8628SOL     OW26782   6.333   1.050   1.742
 8628SOL    HW126783   6.377   1.071   1.829
 8628SOL    HW226784   6.354   1.122   1.675
 8629SOL     OW26785   1.368   5.743   3.183
 8629SOL    HW126786   1.404   5.758   3.091
 8629SOL    HW226787   1.336   5.830   3.221
 8630SOL     OW26788   5.212   4.765   4.224
 8630SOL    HW126789   5.183   4.669   4.223
 8630SOL    HW226790   5.139   4.821   4.263
 8631SOL     OW26791   4.079   6.643   3.492
 8631SOL    HW126792   4.084   6.598   3.580
 8631SOL    HW226793   4.016   6.721   3.498
 8632SOL     OW26794   3.143   0.738   3.112
 8632SOL    HW126795   3.141   0.681   3.194
 8632SOL    HW226796   3.164   0.682   3.032
 8633SOL     OW26797   6.497   6.475   2.876
 8633SOL    HW126798   6.561   6.503   2.948
 8633SOL    HW226799   6.443   6.553   2.846
 8634SOL     OW26800   6.057   6.624   1.817
 8634SOL    HW126801   6.112   6.707   1.813
 8634SOL    HW226802   6.074   6.569   1.735
 8635SOL     OW26803   6.054   3.907   5.968
 8635SOL    HW126804   6.083   3.856   5.886
 8635SOL    HW226805   6.130   3.962   6.001
 8636SOL     OW26806   5.872   4.879   1.318
 8636SOL    HW126807   5.902   4.909   1.227
 8636SOL    HW226808   5.866   4.958   1.379
 8637SOL     OW26809   0.831   0.493   2.155
 8637SOL    HW126810   0.911   0.478   2.097
 8637SOL    HW226811   0.770   0.558   2.111
 8638SOL     OW26812   6.400   4.508   1.313
 8638SOL    HW126813   6.371   4.558   1.394
 8638SOL    HW226814   6.450   4.569   1.252
 8639SOL     OW26815   6.094   2.491   3.306
 8639SOL    HW126816   6.182   2.532   3.330
 8639SOL    HW226817   6.030   2.502   3.383
 8640SOL     OW26818   4.925   5.895   1.421
 8640SOL    HW126819   4.956   5.801   1.404
 8640SOL    HW226820   4.866   5.924   1.346
 8641SOL     OW26821   5.158   5.090   3.810
 8641SOL    HW126822   5.214   5.156   3.860
 8641SOL    HW226823   5.209   5.005   3.797
 8642SOL     OW26824   4.350   1.445   0.933
 8642SOL    HW126825   4.293   1.518   0.896
 8642SOL    HW226826   4.347   1.367   0.871
 8643SOL     OW26827   4.810   6.959   0.103
 8643SOL    HW126828   4.852   7.013   0.176
 8643SOL    HW226829   4.711   6.963   0.111
 8644SOL     OW26830   6.204   3.091   5.519
 8644SOL    HW126831   6.261   3.168   5.490
 8644SOL    HW226832   6.128   3.125   5.575
 8645SOL     OW26833   6.325   3.679   1.869
 8645SOL    HW126834   6.343   3.767   1.914
 8645SOL    HW226835   6.251   3.690   1.803
 8646SOL     OW26836   4.398   6.362   0.365
 8646SOL    HW126837   4.472   6.423   0.393
 8646SOL    HW226838   4.418   6.323   0.275
 8647SOL     OW26839   5.160   5.200   1.880
 8647SOL    HW126840   5.188   5.184   1.974
 8647SOL    HW226841   5.214   5.143   1.818
 8648SOL     OW26842   6.430   0.541   4.155
 8648SOL    HW126843   6.514   0.489   4.173
 8648SOL    HW226844   6.440   0.593   4.070
 8649SOL     OW26845   6.605   3.572   5.925
 8649SOL    HW126846   6.604   3.672   5.929
 8649SOL    HW226847   6.560   3.535   6.006
 8650SOL     OW26848   0.605   5.630   1.803
 8650SOL    HW126849   0.670   5.682   1.747
 8650SOL    HW226850   0.633   5.534   1.805
 8651SOL     OW26851   4.309   3.566   1.052
 8651SOL    HW126852   4.232   3.565   1.115
 8651SOL    HW226853   4.371   3.641   1.076
 8652SOL     OW26854   0.796   2.477   4.574
 8652SOL    HW126855   0.873   2.413   4.582
 8652SOL    HW226856   0.781   2.498   4.477
 8653SOL     OW26857   5.131   3.324   6.272
 8653SOL    HW126858   5.090   3.325   6.363
 8653SOL    HW226859   5.230   3.319   6.280
 8654SOL     OW26860   1.719   4.446   1.709
 8654SOL    HW126861   1.650   4.517   1.727
 8654SOL    HW226862   1.806   4.472   1.752
 8655SOL     OW26863   5.650   5.858   2.828
 8655SOL    HW126864   5.700   5.793   2.884
 8655SOL    HW226865   5.577   5.900   2.882
 8656SOL     OW26866   6.458   2.025   1.745
 8656SOL    HW126867   6.497   2.115   1.764
 8656SOL    HW226868   6.407   1.993   1.825
 8657SOL     OW26869   2.638   4.918   0.767
 8657SOL    HW126870   2.692   4.843   0.805
 8657SOL    HW226871   2.609   4.980   0.840
 8658SOL     OW26872   1.238   5.796   5.698
 8658SOL    HW126873   1.168   5.814   5.767
 8658SOL    HW226874   1.194   5.785   5.609
 8659SOL     OW26875   3.534   0.059   4.689
 8659SOL    HW126876   3.552   0.155   4.709
 8659SOL    HW226877   3.619   0.014   4.661
 8660SOL     OW26878   4.662   4.294   0.399
 8660SOL    HW126879   4.732   4.223   0.404
 8660SOL    HW226880   4.705   4.384   0.404
 8661SOL     OW26881   6.719   2.773   1.931
 8661SOL    HW126882   6.733   2.865   1.895
 8661SOL    HW226883   6.662   2.778   2.014
 8662SOL     OW26884   0.351   1.287   6.945
 8662SOL    HW126885   0.316   1.225   6.876
 8662SOL    HW226886   0.426   1.342   6.907
 8663SOL     OW26887   2.708   5.825   1.043
 8663SOL    HW126888   2.663   5.900   0.995
 8663SOL    HW226889   2.740   5.857   1.133
 8664SOL     OW26890   4.502   4.393   1.248
 8664SOL    HW126891   4.458   4.395   1.159
 8664SOL    HW226892   4.439   4.427   1.318
 8665SOL     OW26893   5.301   5.334   4.328
 8665SOL    HW126894   5.366   5.392   4.378
 8665SOL    HW226895   5.246   5.392   4.267
 8666SOL     OW26896   6.730   4.743   4.546
 8666SOL    HW126897   6.672   4.786   4.477
 8666SOL    HW226898   6.735   4.803   4.627
 8667SOL     OW26899   5.693   2.705   3.273
 8667SOL    HW126900   5.622   2.643   3.305
 8667SOL    HW226901   5.783   2.668   3.296
 8668SOL     OW26902   3.344   0.800   5.003
 8668SOL    HW126903   3.441   0.798   5.024
 8668SOL    HW226904   3.291   0.786   5.087
 8669SOL     OW26905   3.841   6.218   6.458
 8669SOL    HW126906   3.757   6.175   6.490
 8669SOL    HW226907   3.899   6.241   6.536
 8670SOL     OW26908   4.420   4.600   2.654
 8670SOL    HW126909   4.499   4.611   2.594
 8670SOL    HW226910   4.338   4.634   2.608
 8671SOL     OW26911   6.166   5.595   1.726
 8671SOL    HW126912   6.201   5.686   1.749
 8671SOL    HW226913   6.093   5.570   1.790
 8672SOL     OW26914   3.839   4.999   4.642
 8672SOL    HW126915   3.820   4.945   4.724
 8672SOL    HW226916   3.933   5.034   4.646
 8673SOL     OW26917   4.776   2.216   6.668
 8673SOL    HW126918   4.704   2.168   6.619
 8673SOL    HW226919   4.843   2.151   6.702
 8674SOL     OW26920   0.517   6.713   2.524
 8674SOL    HW126921   0.597   6.693   2.468
 8674SOL    HW226922   0.546   6.752   2.611
 8675SOL     OW26923   2.462   1.687   2.230
 8675SOL    HW126924   2.385   1.735   2.190
 8675SOL    HW226925   2.429   1.613   2.289
 8676SOL     OW26926   4.890   1.444   4.176
 8676SOL    HW126927   4.891   1.490   4.087
 8676SOL    HW226928   4.817   1.376   4.178
 8677SOL     OW26929   1.905   3.848   5.735
 8677SOL    HW126930   1.989   3.812   5.694
 8677SOL    HW226931   1.839   3.774   5.746
 8678SOL     OW26932   1.053   0.742   6.130
 8678SOL    HW126933   0.970   0.797   6.137
 8678SOL    HW226934   1.117   0.786   6.067
 8679SOL     OW26935   6.106   2.165   4.568
 8679SOL    HW126936   6.017   2.205   4.591
 8679SOL    HW226937   6.177   2.212   4.620
 8680SOL     OW26938   0.682   3.167   6.820
 8680SOL    HW126939   0.707   3.125   6.733
 8680SOL    HW226940   0.652   3.261   6.805
 8681SOL     OW26941   4.255   4.162   1.296
 8681SOL    HW126942   4.343   4.123   1.322
 8681SOL    HW226943   4.205   4.189   1.379
 8682SOL     OW26944   1.509   5.771   2.944
 8682SOL    HW126945   1.474   5.804   2.856
 8682SOL    HW226946   1.602   5.805   2.957
 8683SOL     OW26947   4.872   3.423   0.116
 8683SOL    HW126948   4.953   3.469   0.079
 8683SOL    HW226949   4.877   3.325   0.095
 8684SOL     OW26950   6.349   2.321   3.646
 8684SOL    HW126951   6.378   2.370   3.728
 8684SOL    HW226952   6.256   2.346   3.622
 8685SOL     OW26953   6.996   1.981   5.477
 8685SOL    HW126954   0.057   1.952   5.430
 8685SOL    HW226955   6.941   1.900   5.499
 8686SOL     OW26956   6.376   1.332   4.313
 8686SOL    HW126957   6.279   1.310   4.322
 8686SOL    HW226958   6.395   1.421   4.353
 8687SOL     OW26959   3.666   1.268   2.693
 8687SOL    HW126960   3.690   1.263   2.596
 8687SOL    HW226961   3.706   1.190   2.742
 8688SOL     OW26962   0.516   6.491   1.979
 8688SOL    HW126963   0.503   6.393   1.970
 8688SOL    HW226964   0.608   6.516   1.949
 8689SOL     OW26965   4.990   4.434   1.684
 8689SOL    HW126966   5.073   4.409   1.734
 8689SOL    HW226967   4.914   4.375   1.713
 8690SOL     OW26968   1.814   0.766   1.915
 8690SOL    HW126969   1.822   0.694   1.983
 8690SOL    HW226970   1.839   0.854   1.957
 8691SOL     OW26971   5.860   1.412   6.966
 8691SOL    HW126972   5.813   1.344   0.000
 8691SOL    HW226973   5.879   1.373   6.876
 8692SOL     OW26974   1.497   1.523   3.981
 8692SOL    HW126975   1.539   1.475   3.903
 8692SOL    HW226976   1.473   1.456   4.051
 8693SOL     OW26977   5.442   2.561   6.604
 8693SOL    HW126978   5.507   2.490   6.631
 8693SOL    HW226979   5.423   2.553   6.506
 8694SOL     OW26980   4.053   0.127   6.602
 8694SOL    HW126981   4.022   0.094   6.513
 8694SOL    HW226982   3.992   0.199   6.635
 8695SOL     OW26983   4.346   3.839   5.318
 8695SOL    HW126984   4.286   3.893   5.377
 8695SOL    HW226985   4.416   3.898   5.279
 8696SOL     OW26986   2.327   5.497   0.308
 8696SOL    HW126987   2.247   5.541   0.267
 8696SOL    HW226988   2.345   5.538   0.398
 8697SOL     OW26989   5.273   5.295   6.612
 8697SOL    HW126990   5.295   5.208   6.566
 8697SOL    HW226991   5.188   5.331   6.574
 8698SOL     OW26992   5.526   5.592   5.210
 8698SOL    HW126993   5.536   5.646   5.294
 8698SOL    HW226994   5.513   5.654   5.133
 8699SOL     OW26995   1.820   1.151   4.456
 8699SOL    HW126996   1.887   1.224   4.466
 8699SOL    HW226997   1.861   1.073   4.408
 8700SOL     OW26998   2.537   1.736   5.852
 8700SOL    HW126999   2.619   1.742   5.795
 8700SOL    HW227000   2.555   1.774   5.942
 8701SOL     OW27001   1.110   0.928   3.244
 8701SOL    HW127002   1.083   1.009   3.192
 8701SOL    HW227003   1.060   0.926   3.331
 8702SOL     OW27004   5.192   0.105   6.349
 8702SOL    HW127005   5.274   0.111   6.405
 8702SOL    HW227006   5.123   0.169   6.383
 8703SOL     OW27007   1.444   4.631   1.706
 8703SOL    HW127008   1.419   4.707   1.765
 8703SOL    HW227009   1.362   4.599   1.657
 8704SOL     OW27010   0.911   4.467   2.397
 8704SOL    HW127011   0.978   4.467   2.323
 8704SOL    HW227012   0.858   4.382   2.395
 8705SOL     OW27013   4.730   6.211   4.229
 8705SOL    HW127014   4.648   6.174   4.271
 8705SOL    HW227015   4.714   6.306   4.202
 8706SOL     OW27016   4.851   0.497   6.292
 8706SOL    HW127017   4.857   0.417   6.351
 8706SOL    HW227018   4.893   0.476   6.203
 8707SOL     OW27019   4.073   1.843   5.828
 8707SOL    HW127020   4.120   1.850   5.916
 8707SOL    HW227021   3.974   1.832   5.844
 8708SOL     OW27022   4.085   1.712   1.358
 8708SOL    HW127023   4.082   1.782   1.287
 8708SOL    HW227024   4.098   1.756   1.447
 8709SOL     OW27025   5.274   3.452   0.189
 8709SOL    HW127026   5.236   3.375   0.241
 8709SOL    HW227027   5.201   3.517   0.168
 8710SOL     OW27028   6.261   3.906   4.287
 8710SOL    HW127029   6.161   3.918   4.289
 8710SOL    HW227030   6.289   3.876   4.195
 8711SOL     OW27031   1.720   1.548   4.418
 8711SOL    HW127032   1.783   1.564   4.342
 8711SOL    HW227033   1.626   1.545   4.384
 8712SOL     OW27034   3.219   0.304   6.914
 8712SOL    HW127035   3.195   0.345   7.002
 8712SOL    HW227036   3.309   0.338   6.885
 8713SOL     OW27037   5.972   4.431   3.220
 8713SOL    HW127038   5.909   4.485   3.165
 8713SOL    HW227039   6.059   4.479   3.228
 8714SOL     OW27040   1.943   1.285   3.649
 8714SOL    HW127041   1.975   1.253   3.559
 8714SOL    HW227042   1.943   1.385   3.651
 8715SOL     OW27043   5.336   0.771   2.646
 8715SOL    HW127044   5.268   0.831   2.689
 8715SOL    HW227045   5.407   0.827   2.602
 8716SOL     OW27046   0.556   0.689   2.948
 8716SOL    HW127047   0.477   0.647   2.993
 8716SOL    HW227048   0.573   0.644   2.860
 8717SOL     OW27049   4.451   3.903   1.009
 8717SOL    HW127050   4.502   3.837   0.954
 8717SOL    HW227051   4.475   3.996   0.980
 8718SOL     OW27052   6.625   2.786   5.783
 8718SOL    HW127053   6.713   2.750   5.815
 8718SOL    HW227054   6.640   2.864   5.722
 8719SOL     OW27055   6.509   1.143   5.917
 8719SOL    HW127056   6.441   1.204   5.959
 8719SOL    HW227057   6.597   1.189   5.912
 8720SOL     OW27058   4.996   3.268   5.098
 8720SOL    HW127059   5.070   3.301   5.156
 8720SOL    HW227060   5.029   3.194   5.039
 8721SOL     OW27061   6.814   0.750   5.205
 8721SOL    HW127062   6.911   0.759   5.182
 8721SOL    HW227063   6.778   0.666   5.163
 8722SOL     OW27064   3.315   2.562   0.785
 8722SOL    HW127065   3.303   2.518   0.874
 8722SOL    HW227066   3.231   2.610   0.760
 8723SOL     OW27067   0.557   6.255   0.560
 8723SOL    HW127068   0.552   6.226   0.656
 8723SOL    HW227069   0.652   6.275   0.537
 8724SOL     OW27070   4.917   5.682   6.480
 8724SOL    HW127071   4.919   5.603   6.419
 8724SOL    HW227072   4.992   5.676   6.545
 8725SOL     OW27073   2.784   6.799   1.073
 8725SOL    HW127074   2.882   6.794   1.056
 8725SOL    HW227075   2.751   6.709   1.103
 8726SOL     OW27076   0.233   0.363   1.000
 8726SOL    HW127077   0.177   0.434   0.957
 8726SOL    HW227078   0.189   0.274   0.987
 8727SOL     OW27079   5.482   6.294   1.410
 8727SOL    HW127080   5.560   6.356   1.424
 8727SOL    HW227081   5.510   6.216   1.354
 8728SOL     OW27082   2.509   5.591   5.454
 8728SOL    HW127083   2.436   5.535   5.493
 8728SOL    HW227084   2.574   5.532   5.405
 8729SOL     OW27085   4.937   6.130   4.011
 8729SOL    HW127086   4.950   6.227   3.991
 8729SOL    HW227087   4.863   6.120   4.077
 8730SOL     OW27088   6.360   6.128   0.996
 8730SOL    HW127089   6.368   6.101   0.900
 8730SOL    HW227090   6.280   6.085   1.037
 8731SOL     OW27091   0.694   2.052   2.648
 8731SOL    HW127092   0.683   1.955   2.667
 8731SOL    HW227093   0.652   2.075   2.560
 8732SOL     OW27094   6.515   6.455   1.914
 8732SOL    HW127095   6.524   6.429   1.818
 8732SOL    HW227096   6.596   6.425   1.964
 8733SOL     OW27097   6.839   0.795   0.703
 8733SOL    HW127098   6.846   0.880   0.650
 8733SOL    HW227099   6.773   0.734   0.659
 8734SOL     OW27100   6.421   6.682   0.604
 8734SOL    HW127101   6.399   6.718   0.694
 8734SOL    HW227102   6.518   6.697   0.585
 8735SOL     OW27103   0.771   2.843   6.046
 8735SOL    HW127104   0.821   2.841   5.959
 8735SOL    HW227105   0.713   2.925   6.049
 8736SOL     OW27106   0.184   4.984   5.987
 8736SOL    HW127107   0.228   4.916   5.928
 8736SOL    HW227108   0.142   4.937   6.065
 8737SOL     OW27109   4.342   5.871   6.730
 8737SOL    HW127110   4.382   5.934   6.796
 8737SOL    HW227111   4.290   5.800   6.778
 8738SOL     OW27112   1.097   4.353   5.397
 8738SOL    HW127113   1.195   4.373   5.386
 8738SOL    HW227114   1.079   4.326   5.492
 8739SOL     OW27115   1.413   3.451   5.267
 8739SOL    HW127116   1.497   3.470   5.217
 8739SOL    HW227117   1.342   3.516   5.240
 8740SOL     OW27118   1.615   6.102   0.204
 8740SOL    HW127119   1.700   6.091   0.153
 8740SOL    HW227120   1.587   6.198   0.204
 8741SOL     OW27121   1.479   3.677   2.014
 8741SOL    HW127122   1.538   3.677   2.094
 8741SOL    HW227123   1.486   3.764   1.967
 8742SOL     OW27124   4.900   5.258   1.894
 8742SOL    HW127125   4.881   5.249   1.992
 8742SOL    HW227126   4.992   5.225   1.875
 8743SOL     OW27127   2.770   5.107   2.516
 8743SOL    HW127128   2.704   5.046   2.560
 8743SOL    HW227129   2.744   5.202   2.533
 8744SOL     OW27130   3.122   3.487   5.315
 8744SOL    HW127131   3.045   3.437   5.353
 8744SOL    HW227132   3.088   3.558   5.253
 8745SOL     OW27133   5.324   1.988   6.240
 8745SOL    HW127134   5.400   1.924   6.226
 8745SOL    HW227135   5.251   1.942   6.292
 8746SOL     OW27136   5.265   3.428   4.312
 8746SOL    HW127137   5.261   3.466   4.220
 8746SOL    HW227138   5.295   3.498   4.377
 8747SOL     OW27139   0.744   1.568   4.126
 8747SOL    HW127140   0.683   1.524   4.060
 8747SOL    HW227141   0.751   1.512   4.208
 8748SOL     OW27142   3.328   0.178   6.509
 8748SOL    HW127143   3.396   0.129   6.455
 8748SOL    HW227144   3.288   0.116   6.577
 8749SOL     OW27145   3.936   1.663   3.304
 8749SOL    HW127146   3.840   1.636   3.301
 8749SOL    HW227147   3.985   1.622   3.227
 8750SOL     OW27148   1.939   6.949   4.648
 8750SOL    HW127149   1.970   6.863   4.687
 8750SOL    HW227150   2.006   7.021   4.667
 8751SOL     OW27151   2.080   6.168   2.734
 8751SOL    HW127152   2.069   6.229   2.812
 8751SOL    HW227153   2.173   6.131   2.732
 8752SOL     OW27154   2.167   0.913   6.409
 8752SOL    HW127155   2.257   0.927   6.366
 8752SOL    HW227156   2.121   0.837   6.365
 8753SOL     OW27157   5.094   1.721   5.163
 8753SOL    HW127158   5.187   1.747   5.189
 8753SOL    HW227159   5.029   1.761   5.227
 8754SOL     OW27160   1.574   1.069   5.739
 8754SOL    HW127161   1.575   1.145   5.674
 8754SOL    HW227162   1.668   1.040   5.758
 8755SOL     OW27163   2.079   2.102   0.345
 8755SOL    HW127164   2.039   2.187   0.312
 8755SOL    HW227165   2.163   2.083   0.295
 8756SOL     OW27166   2.805   5.135   4.802
 8756SOL    HW127167   2.770   5.163   4.892
 8756SOL    HW227168   2.901   5.109   4.811
 8757SOL     OW27169   2.966   5.189   3.332
 8757SOL    HW127170   3.054   5.171   3.288
 8757SOL    HW227171   2.981   5.235   3.419
 8758SOL     OW27172   5.186   6.639   2.643
 8758SOL    HW127173   5.129   6.716   2.670
 8758SOL    HW227174   5.236   6.604   2.723
 8759SOL     OW27175   5.570   0.429   6.045
 8759SOL    HW127176   5.560   0.456   5.949
 8759SOL    HW227177   5.500   0.475   6.100
 8760SOL     OW27178   1.863   2.772   3.475
 8760SOL    HW127179   1.947   2.820   3.502
 8760SOL    HW227180   1.790   2.793   3.540
 8761SOL     OW27181   5.140   6.039   1.797
 8761SOL    HW127182   5.229   5.994   1.788
 8761SOL    HW227183   5.119   6.052   1.894
 8762SOL     OW27184   1.241   4.869   1.390
 8762SOL    HW127185   1.268   4.819   1.308
 8762SOL    HW227186   1.215   4.804   1.462
 8763SOL     OW27187   6.971   5.934   6.644
 8763SOL    HW127188   0.036   5.889   6.657
 8763SOL    HW227189   6.979   6.031   6.668
 8764SOL     OW27190   2.892   2.168   6.325
 8764SOL    HW127191   2.972   2.228   6.332
 8764SOL    HW227192   2.813   2.221   6.293
 8765SOL     OW27193   5.959   0.684   4.951
 8765SOL    HW127194   5.991   0.686   4.857
 8765SOL    HW227195   5.950   0.778   4.985
 8766SOL     OW27196   2.325   4.389   2.289
 8766SOL    HW127197   2.356   4.465   2.348
 8766SOL    HW227198   2.381   4.387   2.206
 8767SOL     OW27199   4.323   0.338   5.056
 8767SOL    HW127200   4.401   0.391   5.022
 8767SOL    HW227201   4.309   0.359   5.153
 8768SOL     OW27202   0.545   4.161   0.773
 8768SOL    HW127203   0.478   4.232   0.749
 8768SOL    HW227204   0.533   4.136   0.869
 8769SOL     OW27205   1.693   0.922   6.152
 8769SOL    HW127206   1.653   1.005   6.189
 8769SOL    HW227207   1.791   0.922   6.169
 8770SOL     OW27208   5.753   1.621   2.682
 8770SOL    HW127209   5.818   1.693   2.657
 8770SOL    HW227210   5.753   1.609   2.781
 8771SOL     OW27211   2.877   3.339   5.035
 8771SOL    HW127212   2.948   3.278   5.002
 8771SOL    HW227213   2.794   3.326   4.980
 8772SOL     OW27214   6.694   6.590   6.708
 8772SOL    HW127215   6.726   6.663   6.770
 8772SOL    HW227216   6.631   6.629   6.641
 8773SOL     OW27217   2.734   1.835   3.346
 8773SOL    HW127218   2.686   1.844   3.259
 8773SOL    HW227219   2.699   1.903   3.411
 8774SOL     OW27220   1.621   1.212   0.367
 8774SOL    HW127221   1.555   1.236   0.296
 8774SOL    HW227222   1.582   1.142   0.427
 8775SOL     OW27223   6.407   6.336   4.192
 8775SOL    HW127224   6.349   6.262   4.157
 8775SOL    HW227225   6.417   6.407   4.123
 8776SOL     OW27226   3.188   3.771   5.530
 8776SOL    HW127227   3.240   3.694   5.567
 8776SOL    HW227228   3.221   3.793   5.438
 8777SOL     OW27229   6.171   5.641   3.061
 8777SOL    HW127230   6.093   5.679   3.011
 8777SOL    HW227231   6.139   5.596   3.145
 8778SOL     OW27232   1.092   3.078   2.985
 8778SOL    HW127233   1.079   3.098   2.888
 8778SOL    HW227234   1.031   3.003   3.013
 8779SOL     OW27235   1.935   4.666   1.220
 8779SOL    HW127236   1.999   4.741   1.235
 8779SOL    HW227237   1.971   4.583   1.262
 8780SOL     OW27238   1.711   5.656   5.330
 8780SOL    HW127239   1.677   5.749   5.315
 8780SOL    HW227240   1.798   5.645   5.283
 8781SOL     OW27241   1.476   2.369   2.150
 8781SOL    HW127242   1.541   2.334   2.083
 8781SOL    HW227243   1.410   2.428   2.105
 8782SOL     OW27244   5.677   1.286   4.153
 8782SOL    HW127245   5.592   1.308   4.202
 8782SOL    HW227246   5.661   1.209   4.091
 8783SOL     OW27247   5.993   2.314   6.011
 8783SOL    HW127248   6.081   2.356   5.988
 8783SOL    HW227249   6.007   2.218   6.037
 8784SOL     OW27250   5.180   3.880   5.934
 8784SOL    HW127251   5.248   3.838   5.994
 8784SOL    HW227252   5.137   3.956   5.981
 8785SOL     OW27253   5.228   3.800   6.397
 8785SOL    HW127254   5.144   3.794   6.343
 8785SOL    HW227255   5.205   3.793   6.494
 8786SOL     OW27256   1.943   5.872   6.510
 8786SOL    HW127257   1.943   5.779   6.547
 8786SOL    HW227258   1.900   5.872   6.419
 8787SOL     OW27259   1.304   2.664   6.623
 8787SOL    HW127260   1.210   2.649   6.651
 8787SOL    HW227261   1.308   2.673   6.523
 8788SOL     OW27262   1.503   1.785   5.265
 8788SOL    HW127263   1.543   1.697   5.240
 8788SOL    HW227264   1.573   1.856   5.260
 8789SOL     OW27265   6.429   1.245   0.218
 8789SOL    HW127266   6.489   1.316   0.254
 8789SOL    HW227267   6.334   1.270   0.236
 8790SOL     OW27268   3.874   1.599   6.545
 8790SOL    HW127269   3.910   1.593   6.452
 8790SOL    HW227270   3.910   1.680   6.590
 8791SOL     OW27271   5.574   6.091   4.890
 8791SOL    HW127272   5.569   6.132   4.981
 8791SOL    HW227273   5.522   6.147   4.825
 8792SOL     OW27274   5.289   6.952   2.822
 8792SOL    HW127275   5.248   6.966   2.732
 8792SOL    HW227276   5.371   7.009   2.830
 8793SOL     OW27277   1.141   4.770   3.199
 8793SOL    HW127278   1.201   4.712   3.255
 8793SOL    HW227279   1.194   4.844   3.159
 8794SOL     OW27280   2.736   6.986   2.317
 8794SOL    HW127281   2.692   7.001   2.406
 8794SOL    HW227282   2.823   0.012   2.315
 8795SOL     OW27283   3.098   6.557   4.622
 8795SOL    HW127284   3.131   6.585   4.532
 8795SOL    HW227285   3.176   6.551   4.685
 8796SOL     OW27286   4.556   2.290   4.345
 8796SOL    HW127287   4.647   2.267   4.309
 8796SOL    HW227288   4.495   2.311   4.270
 8797SOL     OW27289   6.975   5.562   6.568
 8797SOL    HW127290   6.995   5.567   6.470
 8797SOL    HW227291   0.036   5.584   6.619
 8798SOL     OW27292   3.374   3.478   5.124
 8798SOL    HW127293   3.328   3.492   5.036
 8798SOL    HW227294   3.309   3.495   5.198
 8799SOL     OW27295   3.690   0.766   1.844
 8799SOL    HW127296   3.759   0.793   1.776
 8799SOL    HW227297   3.695   0.828   1.922
 8800SOL     OW27298   3.903   3.902   0.586
 8800SOL    HW127299   3.930   3.997   0.597
 8800SOL    HW227300   3.866   3.888   0.494
 8801SOL     OW27301   3.188   6.244   5.563
 8801SOL    HW127302   3.265   6.262   5.625
 8801SOL    HW227303   3.108   6.294   5.594
 8802SOL     OW27304   1.555   6.417   1.565
 8802SOL    HW127305   1.503   6.420   1.651
 8802SOL    HW227306   1.493   6.434   1.489
 8803SOL     OW27307   3.703   5.861   2.294
 8803SOL    HW127308   3.643   5.889   2.220
 8803SOL    HW227309   3.738   5.768   2.276
 8804SOL     OW27310   3.047   0.810   1.724
 8804SOL    HW127311   3.131   0.766   1.693
 8804SOL    HW227312   3.011   0.761   1.803
 8805SOL     OW27313   0.379   0.368   3.821
 8805SOL    HW127314   0.343   0.275   3.819
 8805SOL    HW227315   0.365   0.408   3.912
 8806SOL     OW27316   2.028   4.924   6.656
 8806SOL    HW127317   2.083   4.952   6.735
 8806SOL    HW227318   1.955   4.863   6.686
 8807SOL     OW27319   1.879   4.699   6.758
 8807SOL    HW127320   1.903   4.650   6.841
 8807SOL    HW227321   1.781   4.720   6.758
 8808SOL     OW27322   6.209   2.696   0.836
 8808SOL    HW127323   6.141   2.728   0.903
 8808SOL    HW227324   6.300   2.722   0.867
 8809SOL     OW27325   6.222   4.559   6.847
 8809SOL    HW127326   6.171   4.473   6.841
 8809SOL    HW227327   6.158   4.636   6.845
 8810SOL     OW27328   5.028   1.586   4.358
 8810SOL    HW127329   5.059   1.677   4.330
 8810SOL    HW227330   4.990   1.538   4.279
 8811SOL     OW27331   0.629   0.946   3.288
 8811SOL    HW127332   0.600   1.029   3.335
 8811SOL    HW227333   0.685   0.970   3.209
 8812SOL     OW27334   2.945   1.087   0.421
 8812SOL    HW127335   3.013   1.150   0.382
 8812SOL    HW227336   2.872   1.140   0.464
 8813SOL     OW27337   0.785   5.426   0.900
 8813SOL    HW127338   0.834   5.360   0.957
 8813SOL    HW227339   0.851   5.475   0.843
 8814SOL     OW27340   5.625   0.013   6.016
 8814SOL    HW127341   5.527   0.005   6.033
 8814SOL    HW227342   5.642   0.007   5.917
 8815SOL     OW27343   6.251   4.543   3.556
 8815SOL    HW127344   6.198   4.492   3.625
 8815SOL    HW227345   6.281   4.630   3.595
 8816SOL     OW27346   0.839   5.711   2.380
 8816SOL    HW127347   0.834   5.626   2.434
 8816SOL    HW227348   0.922   5.761   2.404
 8817SOL     OW27349   2.164   3.954   5.286
 8817SOL    HW127350   2.254   3.962   5.245
 8817SOL    HW227351   2.095   3.991   5.223
 8818SOL     OW27352   6.716   4.980   5.266
 8818SOL    HW127353   6.779   5.053   5.294
 8818SOL    HW227354   6.629   4.990   5.315
 8819SOL     OW27355   0.353   1.026   4.790
 8819SOL    HW127356   0.258   1.018   4.820
 8819SOL    HW227357   0.364   1.111   4.739
 8820SOL     OW27358   1.063   2.509   3.114
 8820SOL    HW127359   1.082   2.604   3.140
 8820SOL    HW227360   1.134   2.476   3.052
 8821SOL     OW27361   1.351   6.749   6.780
 8821SOL    HW127362   1.263   6.719   6.743
 8821SOL    HW227363   1.363   6.712   6.872
 8822SOL     OW27364   1.162   2.521   3.781
 8822SOL    HW127365   1.118   2.537   3.870
 8822SOL    HW227366   1.126   2.587   3.715
 8823SOL     OW27367   2.775   5.422   0.786
 8823SOL    HW127368   2.757   5.333   0.827
 8823SOL    HW227369   2.797   5.488   0.858
 8824SOL     OW27370   5.180   4.158   1.548
 8824SOL    HW127371   5.175   4.096   1.626
 8824SOL    HW227372   5.099   4.146   1.491
 8825SOL     OW27373   2.490   2.090   6.916
 8825SOL    HW127374   2.395   2.066   6.895
 8825SOL    HW227375   2.536   2.115   6.831
 8826SOL     OW27376   5.269   0.200   1.372
 8826SOL    HW127377   5.205   0.132   1.335
 8826SOL    HW227378   5.219   0.284   1.393
 8827SOL     OW27379   6.440   1.397   3.852
 8827SOL    HW127380   6.471   1.358   3.938
 8827SOL    HW227381   6.384   1.478   3.870
 8828SOL     OW27382   1.751   5.756   3.249
 8828SOL    HW127383   1.729   5.853   3.256
 8828SOL    HW227384   1.668   5.702   3.259
 8829SOL     OW27385   0.671   0.422   1.262
 8829SOL    HW127386   0.642   0.504   1.310
 8829SOL    HW227387   0.706   0.355   1.328
 8830SOL     OW27388   1.346   1.498   0.972
 8830SOL    HW127389   1.407   1.552   0.915
 8830SOL    HW227390   1.281   1.449   0.914
 8831SOL     OW27391   0.367   0.412   1.464
 8831SOL    HW127392   0.338   0.508   1.457
 8831SOL    HW227393   0.291   0.352   1.439
 8832SOL     OW27394   6.778   0.717   1.723
 8832SOL    HW127395   6.755   0.684   1.815
 8832SOL    HW227396   6.870   0.756   1.723
 8833SOL     OW27397   0.523   5.385   1.525
 8833SOL    HW127398   0.553   5.480   1.517
 8833SOL    HW227399   0.549   5.349   1.614
 8834SOL     OW27400   6.594   4.446   4.377
 8834SOL    HW127401   6.609   4.465   4.474
 8834SOL    HW227402   6.615   4.350   4.359
 8835SOL     OW27403   0.621   1.547   0.745
 8835SOL    HW127404   0.542   1.538   0.684
 8835SOL    HW227405   0.689   1.477   0.722
 8836SOL     OW27406   4.734   1.847   1.622
 8836SOL    HW127407   4.723   1.823   1.525
 8836SOL    HW227408   4.761   1.767   1.674
 8837SOL     OW27409   0.642   2.657   2.381
 8837SOL    HW127410   0.738   2.630   2.391
 8837SOL    HW227411   0.637   2.756   2.366
 8838SOL     OW27412   1.375   0.016   3.472
 8838SOL    HW127413   1.446   0.024   3.403
 8838SOL    HW227414   1.337   0.107   3.492
 8839SOL     OW27415   5.971   5.199   4.836
 8839SOL    HW127416   6.052   5.239   4.879
 8839SOL    HW227417   5.902   5.270   4.823
 8840SOL     OW27418   4.435   0.316   1.789
 8840SOL    HW127419   4.489   0.256   1.848
 8840SOL    HW227420   4.443   0.284   1.694
 8841SOL     OW27421   4.140   6.756   3.234
 8841SOL    HW127422   4.170   6.709   3.317
 8841SOL    HW227423   4.043   6.780   3.243
 8842SOL     OW27424   1.742   1.327   1.846
 8842SOL    HW127425   1.759   1.417   1.886
 8842SOL    HW227426   1.725   1.337   1.748
 8843SOL     OW27427   6.750   2.856   4.235
 8843SOL    HW127428   6.820   2.789   4.259
 8843SOL    HW227429   6.721   2.841   4.140
 8844SOL     OW27430   5.725   1.957   6.930
 8844SOL    HW127431   5.802   1.897   6.953
 8844SOL    HW227432   5.653   1.903   6.886
 8845SOL     OW27433   5.155   2.557   6.983
 8845SOL    HW127434   5.177   2.471   0.008
 8845SOL    HW227435   5.233   2.619   6.989
 8846SOL     OW27436   3.112   4.908   4.291
 8846SOL    HW127437   3.107   4.899   4.391
 8846SOL    HW227438   3.056   4.837   4.249
 8847SOL     OW27439   1.004   1.673   3.558
 8847SOL    HW127440   0.916   1.626   3.561
 8847SOL    HW227441   1.024   1.712   3.648
 8848SOL     OW27442   0.448   1.435   3.730
 8848SOL    HW127443   0.370   1.374   3.740
 8848SOL    HW227444   0.468   1.448   3.633
 8849SOL     OW27445   3.339   6.936   1.263
 8849SOL    HW127446   3.290   6.857   1.301
 8849SOL    HW227447   3.294   7.020   1.294
 8850SOL     OW27448   3.330   1.570   7.017
 8850SOL    HW127449   3.334   1.570   6.917
 8850SOL    HW227450   3.261   1.504   0.026
 8851SOL     OW27451   2.229   3.636   1.489
 8851SOL    HW127452   2.271   3.545   1.486
 8851SOL    HW227453   2.246   3.683   1.402
 8852SOL     OW27454   0.877   2.585   4.860
 8852SOL    HW127455   0.856   2.566   4.764
 8852SOL    HW227456   0.811   2.538   4.918
 8853SOL     OW27457   4.756   0.363   1.922
 8853SOL    HW127458   4.831   0.422   1.892
 8853SOL    HW227459   4.670   0.394   1.881
 8854SOL     OW27460   6.959   2.314   4.789
 8854SOL    HW127461   7.013   2.345   4.711
 8854SOL    HW227462   7.013   2.251   4.846
 8855SOL     OW27463   5.063   4.934   1.243
 8855SOL    HW127464   5.046   4.837   1.258
 8855SOL    HW227465   5.073   4.952   1.146
 8856SOL     OW27466   6.428   1.005   5.671
 8856SOL    HW127467   6.357   1.063   5.633
 8856SOL    HW227468   6.458   1.042   5.759
 8857SOL     OW27469   0.136   2.480   6.251
 8857SOL    HW127470   0.184   2.564   6.275
 8857SOL    HW227471   0.203   2.408   6.229
 8858SOL     OW27472   6.768   5.520   4.982
 8858SOL    HW127473   6.844   5.495   5.042
 8858SOL    HW227474   6.696   5.451   4.989
 8859SOL     OW27475   0.245   5.681   3.086
 8859SOL    HW127476   0.306   5.686   3.008
 8859SOL    HW227477   0.156   5.720   3.061
 8860SOL     OW27478   6.350   2.380   2.887
 8860SOL    HW127479   6.251   2.380   2.874
 8860SOL    HW227480   6.394   2.396   2.799
 8861SOL     OW27481   3.121   2.684   1.537
 8861SOL    HW127482   3.092   2.776   1.560
 8861SOL    HW227483   3.182   2.649   1.609
 8862SOL     OW27484   4.343   4.683   4.678
 8862SOL    HW127485   4.430   4.722   4.708
 8862SOL    HW227486   4.305   4.626   4.751
 8863SOL     OW27487   1.581   3.659   1.686
 8863SOL    HW127488   1.482   3.653   1.699
 8863SOL    HW227489   1.623   3.570   1.704
 8864SOL     OW27490   6.728   1.771   4.492
 8864SOL    HW127491   6.754   1.852   4.441
 8864SOL    HW227492   6.692   1.702   4.429
 8865SOL     OW27493   2.876   1.533   0.351
 8865SOL    HW127494   2.885   1.495   0.259
 8865SOL    HW227495   2.790   1.584   0.358
 8866SOL     OW27496   6.619   0.127   1.718
 8866SOL    HW127497   6.714   0.124   1.685
 8866SOL    HW227498   6.587   0.222   1.718
 8867SOL     OW27499   5.757   2.339   3.251
 8867SOL    HW127500   5.700   2.259   3.233
 8867SOL    HW227501   5.792   2.375   3.164
 8868SOL     OW27502   0.647   3.056   3.616
 8868SOL    HW127503   0.634   3.149   3.650
 8868SOL    HW227504   0.637   3.056   3.516
 8869SOL     OW27505   4.337   0.351   3.296
 8869SOL    HW127506   4.312   0.276   3.234
 8869SOL    HW227507   4.421   0.326   3.345
 8870SOL     OW27508   0.966   0.539   1.767
 8870SOL    HW127509   0.920   0.625   1.747
 8870SOL    HW227510   1.005   0.542   1.859
 8871SOL     OW27511   0.084   6.724   0.788
 8871SOL    HW127512   0.005   6.664   0.802
 8871SOL    HW227513   0.059   6.796   0.722
 8872SOL     OW27514   6.731   4.905   3.832
 8872SOL    HW127515   6.793   4.835   3.866
 8872SOL    HW227516   6.691   4.874   3.745
 8873SOL     OW27517   1.778   1.428   3.362
 8873SOL    HW127518   1.842   1.361   3.399
 8873SOL    HW227519   1.709   1.382   3.306
 8874SOL     OW27520   2.613   6.068   0.446
 8874SOL    HW127521   2.633   6.125   0.526
 8874SOL    HW227522   2.689   6.005   0.430
 8875SOL     OW27523   6.610   2.553   4.141
 8875SOL    HW127524   6.583   2.482   4.076
 8875SOL    HW227525   6.570   2.534   4.231
 8876SOL     OW27526   5.053   0.038   0.526
 8876SOL    HW127527   5.028   0.040   0.623
 8876SOL    HW227528   5.148   0.009   0.517
 8877SOL     OW27529   1.181   4.465   1.785
 8877SOL    HW127530   1.263   4.456   1.842
 8877SOL    HW227531   1.150   4.374   1.757
 8878SOL     OW27532   5.076   3.646   2.477
 8878SOL    HW127533   5.032   3.562   2.507
 8878SOL    HW227534   5.175   3.637   2.485
 8879SOL     OW27535   6.751   4.528   4.172
 8879SOL    HW127536   6.733   4.619   4.134
 8879SOL    HW227537   6.689   4.512   4.249
 8880SOL     OW27538   3.962   1.882   2.506
 8880SOL    HW127539   3.917   1.968   2.486
 8880SOL    HW227540   3.976   1.873   2.605
 8881SOL     OW27541   3.911   5.522   2.987
 8881SOL    HW127542   3.843   5.595   2.986
 8881SOL    HW227543   3.962   5.521   2.901
 8882SOL     OW27544   4.038   1.602   0.210
 8882SOL    HW127545   4.019   1.570   0.303
 8882SOL    HW227546   4.135   1.592   0.191
 8883SOL     OW27547   0.790   6.536   3.011
 8883SOL    HW127548   0.768   6.617   2.956
 8883SOL    HW227549   0.736   6.458   2.979
 8884SOL     OW27550   4.593   1.813   6.154
 8884SOL    HW127551   4.626   1.719   6.148
 8884SOL    HW227552   4.561   1.844   6.065
 8885SOL     OW27553   5.743   5.067   0.709
 8885SOL    HW127554   5.815   5.068   0.779
 8885SOL    HW227555   5.675   5.137   0.730
 8886SOL     OW27556   4.587   6.539   0.479
 8886SOL    HW127557   4.573   6.632   0.445
 8886SOL    HW227558   4.685   6.524   0.494
 8887SOL     OW27559   4.038   0.673   2.226
 8887SOL    HW127560   4.121   0.730   2.229
 8887SOL    HW227561   4.032   0.627   2.137
 8888SOL     OW27562   3.821   1.812   1.996
 8888SOL    HW127563   3.756   1.846   1.927
 8888SOL    HW227564   3.771   1.781   2.077
 8889SOL     OW27565   1.677   4.389   6.781
 8889SOL    HW127566   1.754   4.332   6.752
 8889SOL    HW227567   1.631   4.426   6.700
 8890SOL     OW27568   1.777   5.778   6.802
 8890SOL    HW127569   1.766   5.716   6.724
 8890SOL    HW227570   1.867   5.822   6.797
 8891SOL     OW27571   5.741   3.628   5.329
 8891SOL    HW127572   5.742   3.529   5.320
 8891SOL    HW227573   5.793   3.669   5.255
 8892SOL     OW27574   2.484   5.212   5.296
 8892SOL    HW127575   2.581   5.191   5.294
 8892SOL    HW227576   2.433   5.135   5.336
 8893SOL     OW27577   0.645   4.523   5.587
 8893SOL    HW127578   0.595   4.572   5.516
 8893SOL    HW227579   0.743   4.545   5.580
 8894SOL     OW27580   5.631   2.068   1.380
 8894SOL    HW127581   5.612   2.102   1.288
 8894SOL    HW227582   5.707   2.003   1.377
 8895SOL     OW27583   0.042   3.644   2.024
 8895SOL    HW127584   6.997   3.606   1.961
 8895SOL    HW227585   0.132   3.647   1.980
 8896SOL     OW27586   0.674   0.614   3.581
 8896SOL    HW127587   0.647   0.706   3.611
 8896SOL    HW227588   0.603   0.549   3.606
 8897SOL     OW27589   1.235   5.075   4.655
 8897SOL    HW127590   1.243   5.073   4.755
 8897SOL    HW227591   1.312   5.027   4.614
 8898SOL     OW27592   5.906   5.163   2.935
 8898SOL    HW127593   5.968   5.087   2.918
 8898SOL    HW227594   5.925   5.202   3.025
 8899SOL     OW27595   2.365   4.779   1.666
 8899SOL    HW127596   2.286   4.830   1.632
 8899SOL    HW227597   2.334   4.708   1.729
 8900SOL     OW27598   4.652   1.696   4.909
 8900SOL    HW127599   4.664   1.610   4.859
 8900SOL    HW227600   4.676   1.773   4.850
 8901SOL     OW27601   1.296   4.800   6.081
 8901SOL    HW127602   1.348   4.853   6.015
 8901SOL    HW227603   1.341   4.712   6.096
 8902SOL     OW27604   1.283   4.154   6.635
 8902SOL    HW127605   1.236   4.066   6.633
 8902SOL    HW227606   1.240   4.217   6.570
 8903SOL     OW27607   0.623   0.813   4.283
 8903SOL    HW127608   0.621   0.713   4.287
 8903SOL    HW227609   0.529   0.848   4.288
 8904SOL     OW27610   6.642   1.221   2.738
 8904SOL    HW127611   6.687   1.143   2.694
 8904SOL    HW227612   6.558   1.242   2.688
 8905SOL     OW27613   1.612   5.091   1.241
 8905SOL    HW127614   1.634   5.117   1.147
 8905SOL    HW227615   1.677   5.022   1.272
 8906SOL     OW27616   6.495   0.791   6.480
 8906SOL    HW127617   6.534   0.806   6.390
 8906SOL    HW227618   6.562   0.817   6.550
 8907SOL     OW27619   2.770   2.942   5.336
 8907SOL    HW127620   2.694   2.981   5.283
 8907SOL    HW227621   2.733   2.886   5.410
 8908SOL     OW27622   1.526   5.487   5.405
 8908SOL    HW127623   1.603   5.542   5.373
 8908SOL    HW227624   1.559   5.399   5.438
 8909SOL     OW27625   2.411   6.401   1.868
 8909SOL    HW127626   2.336   6.395   1.933
 8909SOL    HW227627   2.396   6.477   1.805
 8910SOL     OW27628   1.127   0.872   3.982
 8910SOL    HW127629   1.202   0.852   4.044
 8910SOL    HW227630   1.131   0.810   3.903
 8911SOL     OW27631   4.708   2.742   4.186
 8911SOL    HW127632   4.666   2.696   4.265
 8911SOL    HW227633   4.648   2.731   4.107
 8912SOL     OW27634   3.537   3.121   3.434
 8912SOL    HW127635   3.597   3.157   3.505
 8912SOL    HW227636   3.583   3.127   3.345
 8913SOL     OW27637   4.635   5.418   0.470
 8913SOL    HW127638   4.624   5.423   0.569
 8913SOL    HW227639   4.549   5.442   0.425
 8914SOL     OW27640   5.115   4.890   5.015
 8914SOL    HW127641   5.121   4.974   5.069
 8914SOL    HW227642   5.206   4.861   4.986
 8915SOL     OW27643   2.774   1.068   3.108
 8915SOL    HW127644   2.694   1.017   3.139
 8915SOL    HW227645   2.853   1.006   3.101
 8916SOL     OW27646   6.301   7.001   2.529
 8916SOL    HW127647   6.378   6.955   2.573
 8916SOL    HW227648   6.330   0.067   2.493
 8917SOL     OW27649   5.729   2.544   0.376
 8917SOL    HW127650   5.728   2.466   0.312
 8917SOL    HW227651   5.637   2.558   0.412
 8918SOL     OW27652   1.593   3.159   3.198
 8918SOL    HW127653   1.581   3.167   3.297
 8918SOL    HW227654   1.511   3.118   3.158
 8919SOL     OW27655   6.547   2.194   3.065
 8919SOL    HW127656   6.609   2.121   3.094
 8919SOL    HW227657   6.501   2.168   2.981
 8920SOL     OW27658   1.073   1.644   0.502
 8920SOL    HW127659   1.058   1.564   0.444
 8920SOL    HW227660   1.143   1.702   0.461
 8921SOL     OW27661   0.913   2.291   1.461
 8921SOL    HW127662   0.829   2.284   1.516
 8921SOL    HW227663   0.923   2.209   1.405
 8922SOL     OW27664   2.891   5.397   3.133
 8922SOL    HW127665   2.909   5.348   3.218
 8922SOL    HW227666   2.810   5.455   3.144
 8923SOL     OW27667   2.457   2.074   3.431
 8923SOL    HW127668   2.498   2.126   3.356
 8923SOL    HW227669   2.405   2.136   3.490
 8924SOL     OW27670   6.224   5.262   4.995
 8924SOL    HW127671   6.288   5.224   4.928
 8924SOL    HW227672   6.219   5.361   4.985
 8925SOL     OW27673   0.477   6.448   3.881
 8925SOL    HW127674   0.402   6.396   3.838
 8925SOL    HW227675   0.463   6.450   3.980
 8926SOL     OW27676   6.040   2.632   6.868
 8926SOL    HW127677   6.015   2.542   6.832
 8926SOL    HW227678   6.003   2.643   6.960
 8927SOL     OW27679   1.038   1.713   6.410
 8927SOL    HW127680   1.010   1.700   6.315
 8927SOL    HW227681   1.137   1.714   6.415
 8928SOL     OW27682   0.442   6.535   4.900
 8928SOL    HW127683   0.431   6.445   4.942
 8928SOL    HW227684   0.540   6.556   4.892
 8929SOL     OW27685   6.611   1.262   3.327
 8929SOL    HW127686   6.568   1.313   3.402
 8929SOL    HW227687   6.642   1.173   3.360
 8930SOL     OW27688   2.189   5.511   2.417
 8930SOL    HW127689   2.262   5.448   2.443
 8930SOL    HW227690   2.138   5.473   2.340
 8931SOL     OW27691   4.922   3.142   0.075
 8931SOL    HW127692   4.886   3.061   0.122
 8931SOL    HW227693   5.019   3.128   0.056
 8932SOL     OW27694   0.471   3.663   2.390
 8932SOL    HW127695   0.393   3.701   2.439
 8932SOL    HW227696   0.451   3.569   2.362
 8933SOL     OW27697   4.910   2.466   5.956
 8933SOL    HW127698   4.830   2.508   5.999
 8933SOL    HW227699   4.884   2.430   5.866
 8934SOL     OW27700   2.735   5.838   2.507
 8934SOL    HW127701   2.773   5.747   2.524
 8934SOL    HW227702   2.640   5.829   2.479
 8935SOL     OW27703   0.010   5.618   6.288
 8935SOL    HW127704   6.961   5.608   6.219
 8935SOL    HW227705   0.073   5.691   6.260
 8936SOL     OW27706   4.238   3.349   0.642
 8936SOL    HW127707   4.186   3.423   0.685
 8936SOL    HW227708   4.240   3.270   0.703
 8937SOL     OW27709   6.990   1.447   6.344
 8937SOL    HW127710   0.013   1.525   6.385
 8937SOL    HW227711   0.005   1.431   6.252
 8938SOL     OW27712   5.164   5.504   1.825
 8938SOL    HW127713   5.098   5.528   1.753
 8938SOL    HW227714   5.234   5.444   1.787
 8939SOL     OW27715   5.610   1.853   4.063
 8939SOL    HW127716   5.572   1.900   4.142
 8939SOL    HW227717   5.680   1.789   4.092
 8940SOL     OW27718   5.525   6.786   2.212
 8940SOL    HW127719   5.583   6.716   2.170
 8940SOL    HW227720   5.430   6.756   2.211
 8941SOL     OW27721   3.980   2.282   0.114
 8941SOL    HW127722   3.943   2.193   0.140
 8941SOL    HW227723   4.079   2.274   0.100
 8942SOL     OW27724   1.374   2.223   5.899
 8942SOL    HW127725   1.458   2.169   5.895
 8942SOL    HW227726   1.332   2.227   5.808
 8943SOL     OW27727   4.753   3.429   0.991
 8943SOL    HW127728   4.818   3.352   0.992
 8943SOL    HW227729   4.691   3.419   0.913
 8944SOL     OW27730   4.894   5.356   0.810
 8944SOL    HW127731   4.915   5.452   0.790
 8944SOL    HW227732   4.843   5.317   0.733
 8945SOL     OW27733   2.297   1.313   3.447
 8945SOL    HW127734   2.384   1.311   3.496
 8945SOL    HW227735   2.301   1.382   3.374
 8946SOL     OW27736   3.526   0.344   5.205
 8946SOL    HW127737   3.594   0.287   5.160
 8946SOL    HW227738   3.440   0.342   5.153
 8947SOL     OW27739   3.521   3.526   5.715
 8947SOL    HW127740   3.612   3.497   5.684
 8947SOL    HW227741   3.530   3.608   5.772
 8948SOL     OW27742   5.307   4.863   3.729
 8948SOL    HW127743   5.287   4.810   3.812
 8948SOL    HW227744   5.284   4.808   3.649
 8949SOL     OW27745   1.817   5.566   6.314
 8949SOL    HW127746   1.805   5.557   6.215
 8949SOL    HW227747   1.914   5.558   6.336
 8950SOL     OW27748   4.820   2.996   4.921
 8950SOL    HW127749   4.757   2.933   4.968
 8950SOL    HW227750   4.826   2.971   4.825
 8951SOL     OW27751   3.115   1.908   5.363
 8951SOL    HW127752   3.124   1.898   5.264
 8951SOL    HW227753   3.078   1.998   5.384
 8952SOL     OW27754   5.641   6.642   3.704
 8952SOL    HW127755   5.580   6.720   3.688
 8952SOL    HW227756   5.724   6.653   3.649
 8953SOL     OW27757   1.274   5.128   6.078
 8953SOL    HW127758   1.339   5.102   6.007
 8953SOL    HW227759   1.275   5.227   6.089
 8954SOL     OW27760   2.425   6.627   6.258
 8954SOL    HW127761   2.407   6.680   6.175
 8954SOL    HW227762   2.378   6.669   6.335
 8955SOL     OW27763   6.724   3.672   4.183
 8955SOL    HW127764   6.786   3.738   4.226
 8955SOL    HW227765   6.713   3.593   4.244
 8956SOL     OW27766   1.209   0.449   4.011
 8956SOL    HW127767   1.206   0.360   4.058
 8956SOL    HW227768   1.135   0.507   4.046
 8957SOL     OW27769   3.319   6.258   1.719
 8957SOL    HW127770   3.233   6.248   1.770
 8957SOL    HW227771   3.368   6.171   1.720
 8958SOL     OW27772   3.048   0.640   4.924
 8958SOL    HW127773   3.000   0.648   4.837
 8958SOL    HW227774   3.035   0.724   4.977
 8959SOL     OW27775   3.756   4.730   6.666
 8959SOL    HW127776   3.716   4.713   6.576
 8959SOL    HW227777   3.695   4.787   6.720
 8960SOL     OW27778   4.302   5.499   0.925
 8960SOL    HW127779   4.347   5.522   1.012
 8960SOL    HW227780   4.279   5.584   0.877
 8961SOL     OW27781   0.626   2.784   4.571
 8961SOL    HW127782   0.681   2.844   4.514
 8961SOL    HW227783   0.619   2.694   4.528
 8962SOL     OW27784   4.336   0.371   3.949
 8962SOL    HW127785   4.435   0.368   3.957
 8962SOL    HW227786   4.309   0.346   3.855
 8963SOL     OW27787   1.526   0.917   4.251
 8963SOL    HW127788   1.596   0.857   4.212
 8963SOL    HW227789   1.566   0.973   4.324
 8964SOL     OW27790   0.744   2.576   3.069
 8964SOL    HW127791   0.839   2.549   3.052
 8964SOL    HW227792   0.705   2.518   3.141
 8965SOL     OW27793   1.861   5.086   1.497
 8965SOL    HW127794   1.841   5.020   1.425
 8965SOL    HW227795   1.777   5.135   1.521
 8966SOL     OW27796   3.675   2.122   4.978
 8966SOL    HW127797   3.711   2.031   4.955
 8966SOL    HW227798   3.709   2.151   5.067
 8967SOL     OW27799   5.312   6.521   0.681
 8967SOL    HW127800   5.317   6.445   0.617
 8967SOL    HW227801   5.233   6.579   0.660
 8968SOL     OW27802   6.283   3.905   4.000
 8968SOL    HW127803   6.309   4.000   4.017
 8968SOL    HW227804   6.365   3.853   3.973
 8969SOL     OW27805   6.462   6.742   4.149
 8969SOL    HW127806   6.439   6.832   4.187
 8969SOL    HW227807   6.560   6.727   4.158
 8970SOL     OW27808   3.090   2.920   1.626
 8970SOL    HW127809   3.028   2.998   1.615
 8970SOL    HW227810   3.119   2.914   1.722
 8971SOL     OW27811   3.327   6.644   2.706
 8971SOL    HW127812   3.262   6.589   2.759
 8971SOL    HW227813   3.302   6.641   2.609
 8972SOL     OW27814   5.316   0.444   5.291
 8972SOL    HW127815   5.390   0.459   5.226
 8972SOL    HW227816   5.231   0.482   5.255
 8973SOL     OW27817   2.227   4.566   6.907
 8973SOL    HW127818   2.149   4.589   6.966
 8973SOL    HW227819   2.305   4.624   6.931
 8974SOL     OW27820   0.652   2.502   4.313
 8974SOL    HW127821   0.557   2.481   4.337
 8974SOL    HW227822   0.692   2.424   4.265
 8975SOL     OW27823   3.367   0.950   6.091
 8975SOL    HW127824   3.439   0.911   6.148
 8975SOL    HW227825   3.392   0.944   5.995
 8976SOL     OW27826   1.819   5.765   4.018
 8976SOL    HW127827   1.750   5.837   4.004
 8976SOL    HW227828   1.773   5.680   4.043
 8977SOL     OW27829   5.356   1.565   6.870
 8977SOL    HW127830   5.316   1.506   6.941
 8977SOL    HW227831   5.377   1.510   6.789
 8978SOL     OW27832   5.627   4.923   1.934
 8978SOL    HW127833   5.642   4.831   1.897
 8978SOL    HW227834   5.710   4.955   1.978
 8979SOL     OW27835   1.012   4.639   4.961
 8979SOL    HW127836   1.058   4.710   4.909
 8979SOL    HW227837   1.076   4.597   5.025
 8980SOL     OW27838   2.958   3.373   3.590
 8980SOL    HW127839   3.031   3.439   3.611
 8980SOL    HW227840   2.924   3.334   3.676
 8981SOL     OW27841   2.935   2.105   5.367
 8981SOL    HW127842   2.841   2.072   5.368
 8981SOL    HW227843   2.961   2.128   5.273
 8982SOL     OW27844   3.207   5.311   0.749
 8982SOL    HW127845   3.168   5.403   0.753
 8982SOL    HW227846   3.250   5.290   0.837
 8983SOL     OW27847   5.171   4.362   0.734
 8983SOL    HW127848   5.260   4.357   0.780
 8983SOL    HW227849   5.112   4.427   0.782
 8984SOL     OW27850   1.482   6.557   3.508
 8984SOL    HW127851   1.581   6.574   3.509
 8984SOL    HW227852   1.435   6.635   3.549
 8985SOL     OW27853   2.881   3.164   6.289
 8985SOL    HW127854   2.970   3.208   6.276
 8985SOL    HW227855   2.816   3.199   6.220
 8986SOL     OW27856   2.676   5.927   1.948
 8986SOL    HW127857   2.679   5.995   2.021
 8986SOL    HW227858   2.752   5.863   1.958
 8987SOL     OW27859   5.260   6.670   2.355
 8987SOL    HW127860   5.238   6.585   2.306
 8987SOL    HW227861   5.269   6.651   2.453
 8988SOL     OW27862   0.571   4.520   5.156
 8988SOL    HW127863   0.596   4.427   5.182
 8988SOL    HW227864   0.641   4.583   5.187
 8989SOL     OW27865   2.419   2.347   6.860
 8989SOL    HW127866   2.434   2.251   6.883
 8989SOL    HW227867   2.501   2.400   6.882
 8990SOL     OW27868   0.254   5.081   4.568
 8990SOL    HW127869   0.165   5.126   4.576
 8990SOL    HW227870   0.258   5.029   4.482
 8991SOL     OW27871   1.078   2.738   4.967
 8991SOL    HW127872   1.009   2.677   4.928
 8991SOL    HW227873   1.166   2.721   4.924
 8992SOL     OW27874   6.464   1.386   1.396
 8992SOL    HW127875   6.449   1.302   1.344
 8992SOL    HW227876   6.552   1.379   1.445
 8993SOL     OW27877   4.418   2.207   1.220
 8993SOL    HW127878   4.433   2.206   1.121
 8993SOL    HW227879   4.444   2.296   1.257
 8994SOL     OW27880   1.758   5.627   2.510
 8994SOL    HW127881   1.844   5.588   2.543
 8994SOL    HW227882   1.683   5.597   2.569
 8995SOL     OW27883   0.423   0.244   1.173
 8995SOL    HW127884   0.370   0.310   1.120
 8995SOL    HW227885   0.466   0.290   1.250
 8996SOL     OW27886   4.431   5.344   5.373
 8996SOL    HW127887   4.341   5.378   5.401
 8996SOL    HW227888   4.478   5.414   5.320
 8997SOL     OW27889   5.585   0.241   5.038
 8997SOL    HW127890   5.544   0.150   5.030
 8997SOL    HW227891   5.513   0.310   5.045
 8998SOL     OW27892   6.704   3.761   5.150
 8998SOL    HW127893   6.694   3.858   5.170
 8998SOL    HW227894   6.745   3.715   5.229
 8999SOL     OW27895   4.368   5.736   6.159
 8999SOL    HW127896   4.382   5.830   6.129
 8999SOL    HW227897   4.292   5.733   6.224
 9000SOL     OW27898   0.801   4.150   1.036
 9000SOL    HW127899   0.884   4.202   1.059
 9000SOL    HW227900   0.809   4.113   0.943
 9001SOL     OW27901   1.289   5.742   0.774
 9001SOL    HW127902   1.298   5.733   0.675
 9001SOL    HW227903   1.269   5.652   0.813
 9002SOL     OW27904   6.364   6.079   6.127
 9002SOL    HW127905   6.370   5.982   6.104
 9002SOL    HW227906   6.374   6.091   6.226
 9003SOL     OW27907   4.928   6.480   0.830
 9003SOL    HW127908   5.006   6.421   0.855
 9003SOL    HW227909   4.914   6.476   0.731
 9004SOL     OW27910   6.426   4.793   2.479
 9004SOL    HW127911   6.482   4.845   2.415
 9004SOL    HW227912   6.475   4.710   2.507
 9005SOL     OW27913   4.871   0.948   4.773
 9005SOL    HW127914   4.957   0.962   4.822
 9005SOL    HW227915   4.890   0.928   4.677
 9006SOL     OW27916   3.719   6.240   0.359
 9006SOL    HW127917   3.746   6.208   0.450
 9006SOL    HW227918   3.742   6.170   0.291
 9007SOL     OW27919   0.243   0.680   3.330
 9007SOL    HW127920   0.204   0.589   3.316
 9007SOL    HW227921   0.169   0.748   3.331
 9008SOL     OW27922   6.856   5.154   2.103
 9008SOL    HW127923   6.910   5.214   2.045
 9008SOL    HW227924   6.901   5.065   2.111
 9009SOL     OW27925   3.314   6.725   2.141
 9009SOL    HW127926   3.223   6.719   2.182
 9009SOL    HW227927   3.367   6.644   2.166
 9010SOL     OW27928   1.975   5.062   4.968
 9010SOL    HW127929   2.049   5.106   4.917
 9010SOL    HW227930   1.998   4.966   4.985
 9011SOL     OW27931   2.419   2.042   2.126
 9011SOL    HW127932   2.396   1.988   2.208
 9011SOL    HW227933   2.430   2.138   2.151
 9012SOL     OW27934   2.179   6.199   0.005
 9012SOL    HW127935   2.127   6.126   6.983
 9012SOL    HW227936   2.206   6.170   0.097
 9013SOL     OW27937   2.212   0.436   4.433
 9013SOL    HW127938   2.295   0.473   4.391
 9013SOL    HW227939   2.215   0.336   4.431
 9014SOL     OW27940   5.420   3.366   3.560
 9014SOL    HW127941   5.362   3.354   3.479
 9014SOL    HW227942   5.490   3.434   3.541
 9015SOL     OW27943   3.901   6.411   6.048
 9015SOL    HW127944   3.875   6.417   6.144
 9015SOL    HW227945   3.854   6.483   5.996
 9016SOL     OW27946   4.920   4.184   6.407
 9016SOL    HW127947   4.891   4.125   6.332
 9016SOL    HW227948   4.885   4.148   6.493
 9017SOL     OW27949   2.632   6.970   5.696
 9017SOL    HW127950   2.569   6.893   5.683
 9017SOL    HW227951   2.654   7.010   5.607
 9018SOL     OW27952   3.543   5.060   0.595
 9018SOL    HW127953   3.562   5.120   0.517
 9018SOL    HW227954   3.444   5.054   0.609
 9019SOL     OW27955   0.524   3.802   4.690
 9019SOL    HW127956   0.500   3.865   4.616
 9019SOL    HW227957   0.451   3.803   4.759
 9020SOL     OW27958   5.818   5.115   3.284
 9020SOL    HW127959   5.843   5.024   3.250
 9020SOL    HW227960   5.719   5.124   3.285
 9021SOL     OW27961   0.178   1.130   4.439
 9021SOL    HW127962   0.105   1.066   4.413
 9021SOL    HW227963   0.261   1.108   4.389
 9022SOL     OW27964   4.663   3.402   6.741
 9022SOL    HW127965   4.689   3.380   6.835
 9022SOL    HW227966   4.745   3.406   6.684
 9023SOL     OW27967   0.234   4.704   0.975
 9023SOL    HW127968   0.259   4.720   1.070
 9023SOL    HW227969   0.178   4.781   0.941
 9024SOL     OW27970   2.200   4.723   6.254
 9024SOL    HW127971   2.291   4.763   6.241
 9024SOL    HW227972   2.132   4.776   6.203
 9025SOL     OW27973   0.483   5.910   1.652
 9025SOL    HW127974   0.394   5.921   1.609
 9025SOL    HW227975   0.472   5.904   1.752
 9026SOL     OW27976   5.868   1.269   6.749
 9026SOL    HW127977   5.962   1.286   6.720
 9026SOL    HW227978   5.825   1.204   6.686
 9027SOL     OW27979   0.115   4.041   3.390
 9027SOL    HW127980   0.141   3.950   3.423
 9027SOL    HW227981   0.186   4.075   3.328
 9028SOL     OW27982   3.242   5.050   6.916
 9028SOL    HW127983   3.307   5.126   6.924
 9028SOL    HW227984   3.240   4.999   7.002
 9029SOL     OW27985   4.520   6.292   4.914
 9029SOL    HW127986   4.468   6.374   4.936
 9029SOL    HW227987   4.464   6.211   4.932
 9030SOL     OW27988   2.780   2.293   2.309
 9030SOL    HW127989   2.816   2.201   2.323
 9030SOL    HW227990   2.796   2.322   2.214
 9031SOL     OW27991   5.302   6.614   4.953
 9031SOL    HW127992   5.375   6.621   4.885
 9031SOL    HW227993   5.340   6.626   5.044
 9032SOL     OW27994   4.880   3.202   1.077
 9032SOL    HW127995   4.915   3.171   1.165
 9032SOL    HW227996   4.789   3.163   1.062
 9033SOL     OW27997   1.357   5.767   2.644
 9033SOL    HW127998   1.344   5.735   2.550
 9033SOL    HW227999   1.271   5.803   2.680
 9034SOL     OW28000   3.981   6.699   5.169
 9034SOL    HW128001   3.928   6.712   5.085
 9034SOL    HW228002   4.076   6.680   5.146
 9035SOL     OW28003   2.786   5.247   6.024
 9035SOL    HW128004   2.837   5.333   6.029
 9035SOL    HW228005   2.776   5.209   6.116
 9036SOL     OW28006   0.210   5.304   5.187
 9036SOL    HW128007   0.190   5.259   5.274
 9036SOL    HW228008   0.278   5.250   5.136
 9037SOL     OW28009   6.983   0.765   2.352
 9037SOL    HW128010   6.948   0.781   2.444
 9037SOL    HW228011   0.045   0.816   2.338
 9038SOL     OW28012   3.725   3.358   5.534
 9038SOL    HW128013   3.678   3.390   5.451
 9038SOL    HW228014   3.674   3.281   5.573
 9039SOL     OW28015   4.571   6.359   6.195
 9039SOL    HW128016   4.485   6.320   6.162
 9039SOL    HW228017   4.564   6.378   6.293
 9040SOL     OW28018   2.264   2.362   1.373
 9040SOL    HW128019   2.306   2.295   1.434
 9040SOL    HW228020   2.335   2.419   1.331
 9041SOL     OW28021   6.139   2.140   2.911
 9041SOL    HW128022   6.154   2.161   3.008
 9041SOL    HW228023   6.115   2.224   2.863
 9042SOL     OW28024   5.991   5.602   6.472
 9042SOL    HW128025   6.044   5.670   6.523
 9042SOL    HW228026   6.018   5.510   6.500
 9043SOL     OW28027   2.917   3.159   1.581
 9043SOL    HW128028   2.847   3.149   1.652
 9043SOL    HW228029   2.873   3.173   1.492
 9044SOL     OW28030   2.189   0.617   6.994
 9044SOL    HW128031   2.101   0.616   0.019
 9044SOL    HW228032   2.240   0.699   7.021
 9045SOL     OW28033   3.504   0.495   3.922
 9045SOL    HW128034   3.475   0.484   4.017
 9045SOL    HW228035   3.450   0.435   3.864
 9046SOL     OW28036   3.982   3.535   2.129
 9046SOL    HW128037   4.060   3.502   2.183
 9046SOL    HW228038   3.905   3.554   2.190
 9047SOL     OW28039   0.785   4.669   5.835
 9047SOL    HW128040   0.707   4.613   5.807
 9047SOL    HW228041   0.759   4.725   5.915
 9048SOL     OW28042   0.512   2.181   5.299
 9048SOL    HW128043   0.419   2.144   5.292
 9048SOL    HW228044   0.577   2.117   5.256
 9049SOL     OW28045   0.863   6.611   5.195
 9049SOL    HW128046   0.830   6.686   5.138
 9049SOL    HW228047   0.785   6.564   5.237
 9050SOL     OW28048   1.137   4.470   0.278
 9050SOL    HW128049   1.187   4.532   0.338
 9050SOL    HW228050   1.201   4.407   0.234
 9051SOL     OW28051   2.092   0.656   1.530
 9051SOL    HW128052   2.051   0.722   1.593
 9051SOL    HW228053   2.046   0.568   1.540
 9052SOL     OW28054   2.072   2.723   6.522
 9052SOL    HW128055   2.109   2.778   6.597
 9052SOL    HW228056   2.114   2.751   6.436
 9053SOL     OW28057   0.698   1.464   0.391
 9053SOL    HW128058   0.637   1.467   0.471
 9053SOL    HW228059   0.644   1.465   0.307
 9054SOL     OW28060   1.495   5.529   3.415
 9054SOL    HW128061   1.533   5.499   3.328
 9054SOL    HW228062   1.396   5.528   3.411
 9055SOL     OW28063   0.722   2.363   5.997
 9055SOL    HW128064   0.821   2.356   6.010
 9055SOL    HW228065   0.693   2.458   6.009
 9056SOL     OW28066   4.733   1.142   4.495
 9056SOL    HW128067   4.684   1.107   4.575
 9056SOL    HW228068   4.790   1.220   4.522
 9057SOL     OW28069   4.797   1.435   3.730
 9057SOL    HW128070   4.751   1.459   3.815
 9057SOL    HW228071   4.782   1.507   3.663
 9058SOL     OW28072   2.176   6.978   6.211
 9058SOL    HW128073   2.103   0.013   6.249
 9058SOL    HW228074   2.159   6.882   6.233
 9059SOL     OW28075   1.653   2.295   3.651
 9059SOL    HW128076   1.660   2.310   3.750
 9059SOL    HW228077   1.619   2.378   3.607
 9060SOL     OW28078   5.422   2.487   5.204
 9060SOL    HW128079   5.422   2.565   5.266
 9060SOL    HW228080   5.374   2.411   5.246
 9061SOL     OW28081   2.120   4.744   3.756
 9061SOL    HW128082   2.121   4.653   3.714
 9061SOL    HW228083   2.115   4.734   3.855
 9062SOL     OW28084   1.690   6.253   1.931
 9062SOL    HW128085   1.676   6.154   1.933
 9062SOL    HW228086   1.755   6.278   2.003
 9063SOL     OW28087   3.244   1.629   1.628
 9063SOL    HW128088   3.256   1.725   1.602
 9063SOL    HW228089   3.173   1.588   1.570
 9064SOL     OW28090   4.422   3.852   6.777
 9064SOL    HW128091   4.467   3.893   6.857
 9064SOL    HW228092   4.429   3.752   6.783
 9065SOL     OW28093   2.863   1.229   1.077
 9065SOL    HW128094   2.765   1.223   1.099
 9065SOL    HW228095   2.875   1.220   0.978
 9066SOL     OW28096   5.049   6.785   0.139
 9066SOL    HW128097   4.982   6.856   0.162
 9066SOL    HW228098   5.058   6.779   0.040
 9067SOL     OW28099   0.647   0.167   1.819
 9067SOL    HW128100   0.590   0.244   1.791
 9067SOL    HW228101   0.736   0.174   1.775
 9068SOL     OW28102   1.134   6.009   6.278
 9068SOL    HW128103   1.172   6.056   6.198
 9068SOL    HW228104   1.099   6.077   6.343
 9069SOL     OW28105   1.322   2.540   5.553
 9069SOL    HW128106   1.295   2.513   5.646
 9069SOL    HW228107   1.289   2.632   5.534
 9070SOL     OW28108   1.024   4.298   4.410
 9070SOL    HW128109   0.932   4.271   4.381
 9070SOL    HW228110   1.021   4.325   4.506
 9071SOL     OW28111   5.101   5.454   6.885
 9071SOL    HW128112   5.062   5.525   6.826
 9071SOL    HW228113   5.176   5.409   6.836
 9072SOL     OW28114   5.033   4.536   0.502
 9072SOL    HW128115   5.071   4.484   0.426
 9072SOL    HW228116   5.060   4.493   0.588
 9073SOL     OW28117   1.975   0.128   1.017
 9073SOL    HW128118   1.917   0.198   1.060
 9073SOL    HW228119   2.043   0.096   1.083
 9074SOL     OW28120   0.520   0.682   1.378
 9074SOL    HW128121   0.437   0.671   1.432
 9074SOL    HW228122   0.507   0.637   1.289
 9075SOL     OW28123   6.952   0.159   1.317
 9075SOL    HW128124   6.953   0.222   1.240
 9075SOL    HW228125   6.871   0.101   1.312
 9076SOL     OW28126   0.923   2.836   5.179
 9076SOL    HW128127   0.984   2.813   5.103
 9076SOL    HW228128   0.953   2.788   5.261
 9077SOL     OW28129   5.925   5.934   1.796
 9077SOL    HW128130   5.885   6.022   1.825
 9077SOL    HW228131   6.007   5.951   1.742
 9078SOL     OW28132   4.787   3.059   5.187
 9078SOL    HW128133   4.860   3.033   5.250
 9078SOL    HW228134   4.821   3.056   5.093
 9079SOL     OW28135   2.073   6.920   5.422
 9079SOL    HW128136   2.032   7.008   5.446
 9079SOL    HW228137   2.067   6.858   5.501
 9080SOL     OW28138   4.563   0.747   0.221
 9080SOL    HW128139   4.534   0.686   0.148
 9080SOL    HW228140   4.612   0.694   0.291
 9081SOL     OW28141   5.403   6.978   3.869
 9081SOL    HW128142   5.413   6.890   3.915
 9081SOL    HW228143   5.351   0.018   3.928
 9082SOL     OW28144   2.222   0.683   1.969
 9082SOL    HW128145   2.193   0.682   2.064
 9082SOL    HW228146   2.320   0.705   1.965
 9083SOL     OW28147   4.116   5.173   3.476
 9083SOL    HW128148   4.189   5.212   3.419
 9083SOL    HW228149   4.027   5.193   3.436
 9084SOL     OW28150   3.846   3.790   2.293
 9084SOL    HW128151   3.839   3.784   2.193
 9084SOL    HW228152   3.801   3.874   2.324
 9085SOL     OW28153   1.403   1.790   0.580
 9085SOL    HW128154   1.330   1.841   0.625
 9085SOL    HW228155   1.419   1.828   0.489
 9086SOL     OW28156   0.007   3.597   0.787
 9086SOL    HW128157   0.057   3.624   0.870
 9086SOL    HW228158   6.947   3.652   0.778
 9087SOL     OW28159   5.270   3.715   2.020
 9087SOL    HW128160   5.250   3.630   2.069
 9087SOL    HW228161   5.187   3.769   2.011
 9088SOL     OW28162   6.326   4.694   2.787
 9088SOL    HW128163   6.307   4.718   2.882
 9088SOL    HW228164   6.386   4.762   2.746
 9089SOL     OW28165   3.852   1.082   5.690
 9089SOL    HW128166   3.943   1.101   5.726
 9089SOL    HW228167   3.792   1.159   5.709
 9090SOL     OW28168   6.866   2.034   3.915
 9090SOL    HW128169   6.819   1.960   3.868
 9090SOL    HW228170   6.850   2.120   3.867
 9091SOL     OW28171   4.439   2.848   5.783
 9091SOL    HW128172   4.418   2.920   5.717
 9091SOL    HW228173   4.412   2.877   5.874
 9092SOL     OW28174   6.955   3.987   5.801
 9092SOL    HW128175   6.913   4.070   5.764
 9092SOL    HW228176   6.901   3.907   5.773
 9093SOL     OW28177   2.538   6.400   4.828
 9093SOL    HW128178   2.492   6.326   4.779
 9093SOL    HW228179   2.521   6.390   4.926
 9094SOL     OW28180   1.861   4.002   0.701
 9094SOL    HW128181   1.792   3.929   0.707
 9094SOL    HW228182   1.901   4.018   0.791
 9095SOL     OW28183   0.209   0.188   6.075
 9095SOL    HW128184   0.228   0.278   6.114
 9095SOL    HW228185   0.167   0.130   6.145
 9096SOL     OW28186   6.650   5.548   3.774
 9096SOL    HW128187   6.746   5.542   3.747
 9096SOL    HW228188   6.644   5.554   3.874
 9097SOL     OW28189   0.629   3.789   0.520
 9097SOL    HW128190   0.616   3.823   0.613
 9097SOL    HW228191   0.681   3.703   0.522
 9098SOL     OW28192   2.006   5.495   4.998
 9098SOL    HW128193   2.094   5.515   5.041
 9098SOL    HW228194   2.020   5.443   4.914
 9099SOL     OW28195   2.522   1.466   5.946
 9099SOL    HW128196   2.521   1.423   6.036
 9099SOL    HW228197   2.475   1.553   5.949
 9100SOL     OW28198   1.648   4.855   4.568
 9100SOL    HW128199   1.612   4.850   4.661
 9100SOL    HW228200   1.641   4.764   4.525
 9101SOL     OW28201   6.715   1.714   1.441
 9101SOL    HW128202   6.729   1.766   1.525
 9101SOL    HW228203   6.630   1.744   1.397
 9102SOL     OW28204   3.731   1.051   2.840
 9102SOL    HW128205   3.664   0.995   2.890
 9102SOL    HW228206   3.816   1.054   2.892
 9103SOL     OW28207   6.122   0.610   1.168
 9103SOL    HW128208   6.173   0.626   1.252
 9103SOL    HW228209   6.153   0.525   1.126
 9104SOL     OW28210   5.192   2.440   6.002
 9104SOL    HW128211   5.233   2.479   6.085
 9104SOL    HW228212   5.094   2.426   6.016
 9105SOL     OW28213   2.933   0.824   0.469
 9105SOL    HW128214   2.954   0.811   0.566
 9105SOL    HW228215   2.931   0.922   0.448
 9106SOL     OW28216   2.500   2.952   6.204
 9106SOL    HW128217   2.471   3.043   6.233
 9106SOL    HW228218   2.585   2.928   6.252
 9107SOL     OW28219   3.913   0.525   1.051
 9107SOL    HW128220   4.002   0.486   1.072
 9107SOL    HW228221   3.843   0.454   1.055
 9108SOL     OW28222   5.977   6.744   5.414
 9108SOL    HW128223   6.007   6.814   5.478
 9108SOL    HW228224   6.035   6.663   5.424
 9109SOL     OW28225   5.349   3.746   3.060
 9109SOL    HW128226   5.364   3.676   3.130
 9109SOL    HW228227   5.357   3.837   3.102
 9110SOL     OW28228   1.007   6.310   2.263
 9110SOL    HW128229   0.920   6.331   2.219
 9110SOL    HW228230   1.033   6.216   2.244
 9111SOL     OW28231   4.755   2.812   5.958
 9111SOL    HW128232   4.836   2.765   5.992
 9111SOL    HW228233   4.767   2.831   5.860
 9112SOL     OW28234   0.866   4.681   1.682
 9112SOL    HW128235   0.881   4.681   1.583
 9112SOL    HW228236   0.773   4.712   1.701
 9113SOL     OW28237   5.772   0.682   4.608
 9113SOL    HW128238   5.736   0.681   4.701
 9113SOL    HW228239   5.701   0.652   4.544
 9114SOL     OW28240   0.013   1.072   6.031
 9114SOL    HW128241   0.085   1.034   6.089
 9114SOL    HW228242   0.055   1.127   5.959
 9115SOL     OW28243   5.086   3.893   4.340
 9115SOL    HW128244   5.075   3.798   4.370
 9115SOL    HW228245   5.111   3.895   4.243
 9116SOL     OW28246   0.497   5.349   3.764
 9116SOL    HW128247   0.551   5.322   3.844
 9116SOL    HW228248   0.511   5.283   3.691
 9117SOL     OW28249   2.205   6.816   6.996
 9117SOL    HW128250   2.143   6.851   0.044
 9117SOL    HW228251   2.298   6.815   0.010
 9118SOL     OW28252   0.073   4.934   0.928
 9118SOL    HW128253   0.124   4.979   1.002
 9118SOL    HW228254   0.029   5.004   0.871
 9119SOL     OW28255   3.759   2.022   0.606
 9119SOL    HW128256   3.805   2.104   0.572
 9119SOL    HW228257   3.815   1.942   0.589
 9120SOL     OW28258   6.490   4.553   5.098
 9120SOL    HW128259   6.573   4.607   5.104
 9120SOL    HW228260   6.497   4.474   5.159
 9121SOL     OW28261   4.733   1.167   4.879
 9121SOL    HW128262   4.766   1.076   4.853
 9121SOL    HW228263   4.756   1.233   4.807
 9122SOL     OW28264   0.164   1.431   2.155
 9122SOL    HW128265   0.083   1.376   2.177
 9122SOL    HW228266   0.215   1.449   2.239
 9123SOL     OW28267   0.510   6.143   4.595
 9123SOL    HW128268   0.498   6.050   4.629
 9123SOL    HW228269   0.432   6.199   4.625
 9124SOL     OW28270   3.253   5.761   1.103
 9124SOL    HW128271   3.176   5.822   1.124
 9124SOL    HW228272   3.230   5.668   1.129
 9125SOL     OW28273   4.801   6.421   1.998
 9125SOL    HW128274   4.811   6.491   2.070
 9125SOL    HW228275   4.865   6.441   1.924
 9126SOL     OW28276   3.681   5.086   0.283
 9126SOL    HW128277   3.700   5.026   0.205
 9126SOL    HW228278   3.757   5.151   0.293
 9127SOL     OW28279   6.214   4.462   5.955
 9127SOL    HW128280   6.148   4.419   6.016
 9127SOL    HW228281   6.200   4.561   5.953
 9128SOL     OW28282   5.418   3.647   6.849
 9128SOL    HW128283   5.449   3.721   6.790
 9128SOL    HW228284   5.320   3.633   6.835
 9129SOL     OW28285   0.708   2.608   1.777
 9129SOL    HW128286   0.741   2.573   1.865
 9129SOL    HW228287   0.748   2.698   1.760
 9130SOL     OW28288   2.784   4.238   6.064
 9130SOL    HW128289   2.814   4.148   6.031
 9130SOL    HW228290   2.716   4.226   6.137
 9131SOL     OW28291   6.156   3.215   0.819
 9131SOL    HW128292   6.201   3.131   0.848
 9131SOL    HW228293   6.082   3.193   0.755
 9132SOL     OW28294   1.039   4.302   4.084
 9132SOL    HW128295   0.959   4.354   4.058
 9132SOL    HW228296   1.058   4.315   4.182
 9133SOL     OW28297   5.153   6.396   0.299
 9133SOL    HW128298   5.109   6.307   0.283
 9133SOL    HW228299   5.228   6.385   0.364
 9134SOL     OW28300   5.038   4.450   0.077
 9134SOL    HW128301   5.116   4.509   0.055
 9134SOL    HW228302   4.955   4.505   0.079
 9135SOL     OW28303   6.505   5.424   2.575
 9135SOL    HW128304   6.557   5.503   2.608
 9135SOL    HW228305   6.536   5.342   2.622
 9136SOL     OW28306   0.721   4.799   6.901
 9136SOL    HW128307   0.661   4.869   6.862
 9136SOL    HW228308   0.801   4.787   6.842
 9137SOL     OW28309   5.446   5.368   5.820
 9137SOL    HW128310   5.348   5.353   5.819
 9137SOL    HW228311   5.494   5.281   5.810
 9138SOL     OW28312   1.494   3.915   6.051
 9138SOL    HW128313   1.437   3.864   6.116
 9138SOL    HW228314   1.589   3.889   6.063
 9139SOL     OW28315   0.531   6.948   0.835
 9139SOL    HW128316   0.470   6.906   0.902
 9139SOL    HW228317   0.491   6.941   0.744
 9140SOL     OW28318   0.273   4.159   3.177
 9140SOL    HW128319   0.219   4.134   3.097
 9140SOL    HW228320   0.369   4.168   3.152
 9141SOL     OW28321   0.137   5.607   4.138
 9141SOL    HW128322   0.172   5.568   4.053
 9141SOL    HW228323   0.214   5.629   4.198
 9142SOL     OW28324   1.718   5.130   3.211
 9142SOL    HW128325   1.743   5.187   3.290
 9142SOL    HW228326   1.780   5.149   3.135
 9143SOL     OW28327   5.347   3.293   2.451
 9143SOL    HW128328   5.340   3.264   2.355
 9143SOL    HW228329   5.403   3.228   2.502
 9144SOL     OW28330   2.405   4.784   5.294
 9144SOL    HW128331   2.481   4.730   5.258
 9144SOL    HW228332   2.329   4.724   5.318
 9145SOL     OW28333   2.430   5.612   6.659
 9145SOL    HW128334   2.377   5.688   6.621
 9145SOL    HW228335   2.527   5.635   6.657
 9146SOL     OW28336   5.539   1.614   4.342
 9146SOL    HW128337   5.507   1.594   4.249
 9146SOL    HW228338   5.501   1.548   4.405
 9147SOL     OW28339   4.123   7.005   6.252
 9147SOL    HW128340   4.087   6.926   6.302
 9147SOL    HW228341   4.073   0.065   6.280
 9148SOL     OW28342   3.519   5.529   2.316
 9148SOL    HW128343   3.593   5.517   2.250
 9148SOL    HW228344   3.527   5.618   2.361
 9149SOL     OW28345   1.073   3.733   1.603
 9149SOL    HW128346   1.093   3.809   1.665
 9149SOL    HW228347   1.009   3.670   1.647
 9150SOL     OW28348   4.010   3.602   6.816
 9150SOL    HW128349   3.988   3.679   6.757
 9150SOL    HW228350   4.068   3.633   6.891
 9151SOL     OW28351   2.191   3.875   3.667
 9151SOL    HW128352   2.286   3.902   3.678
 9151SOL    HW228353   2.132   3.951   3.696
 9152SOL     OW28354   1.782   5.481   1.705
 9152SOL    HW128355   1.715   5.445   1.640
 9152SOL    HW228356   1.824   5.406   1.755
 9153SOL     OW28357   0.713   3.597   0.902
 9153SOL    HW128358   0.626   3.645   0.904
 9153SOL    HW228359   0.699   3.504   0.868
 9154SOL     OW28360   4.466   5.543   3.208
 9154SOL    HW128361   4.474   5.530   3.109
 9154SOL    HW228362   4.371   5.532   3.236
 9155SOL     OW28363   0.689   6.626   2.338
 9155SOL    HW128364   0.688   6.698   2.269
 9155SOL    HW228365   0.783   6.605   2.363
 9156SOL     OW28366   6.702   4.607   5.623
 9156SOL    HW128367   6.627   4.665   5.591
 9156SOL    HW228368   6.785   4.663   5.634
 9157SOL     OW28369   2.034   4.802   5.023
 9157SOL    HW128370   1.957   4.742   5.001
 9157SOL    HW228371   2.120   4.756   5.000
 9158SOL     OW28372   6.918   2.411   3.999
 9158SOL    HW128373   7.017   2.404   4.006
 9158SOL    HW228374   6.892   2.426   3.904
 9159SOL     OW28375   2.411   1.070   3.381
 9159SOL    HW128376   2.371   1.151   3.425
 9159SOL    HW228377   2.439   1.005   3.451
 9160SOL     OW28378   0.423   3.655   6.507
 9160SOL    HW128379   0.398   3.639   6.603
 9160SOL    HW228380   0.505   3.602   6.485
 9161SOL     OW28381   5.810   3.064   2.994
 9161SOL    HW128382   5.894   3.080   2.943
 9161SOL    HW228383   5.752   3.000   2.942
 9162SOL     OW28384   5.529   2.283   1.526
 9162SOL    HW128385   5.506   2.207   1.588
 9162SOL    HW228386   5.544   2.249   1.434
 9163SOL     OW28387   1.184   3.584   3.169
 9163SOL    HW128388   1.279   3.580   3.136
 9163SOL    HW228389   1.175   3.527   3.250
 9164SOL     OW28390   4.340   0.982   0.796
 9164SOL    HW128391   4.284   0.938   0.726
 9164SOL    HW228392   4.306   0.956   0.886
 9165SOL     OW28393   6.734   0.285   6.714
 9165SOL    HW128394   6.811   0.340   6.682
 9165SOL    HW228395   6.729   0.289   6.814
 9166SOL     OW28396   4.261   5.608   1.972
 9166SOL    HW128397   4.176   5.661   1.979
 9166SOL    HW228398   4.250   5.522   2.022
 9167SOL     OW28399   0.507   2.359   5.072
 9167SOL    HW128400   0.534   2.312   5.156
 9167SOL    HW228401   0.586   2.405   5.032
 9168SOL     OW28402   5.984   6.106   4.970
 9168SOL    HW128403   6.007   6.189   4.919
 9168SOL    HW228404   5.985   6.028   4.907
 9169SOL     OW28405   5.567   5.887   0.292
 9169SOL    HW128406   5.587   5.795   0.259
 9169SOL    HW228407   5.568   5.951   0.215
 9170SOL     OW28408   1.313   6.788   5.121
 9170SOL    HW128409   1.337   6.862   5.183
 9170SOL    HW228410   1.356   6.703   5.152
 9171SOL     OW28411   4.784   5.770   6.705
 9171SOL    HW128412   4.780   5.869   6.688
 9171SOL    HW228413   4.833   5.726   6.631
 9172SOL     OW28414   5.535   0.597   5.840
 9172SOL    HW128415   5.438   0.602   5.863
 9172SOL    HW228416   5.545   0.557   5.749
 9173SOL     OW28417   6.179   3.907   6.746
 9173SOL    HW128418   6.113   3.859   6.803
 9173SOL    HW228419   6.236   3.966   6.804
 9174SOL     OW28420   5.531   4.967   0.001
 9174SOL    HW128421   5.550   5.051   0.052
 9174SOL    HW228422   5.599   4.897   0.026
 9175SOL     OW28423   2.055   1.099   1.666
 9175SOL    HW128424   2.085   1.116   1.760
 9175SOL    HW228425   2.133   1.067   1.612
 9176SOL     OW28426   1.226   6.705   2.205
 9176SOL    HW128427   1.220   6.687   2.106
 9176SOL    HW228428   1.235   6.803   2.220
 9177SOL     OW28429   0.182   5.681   3.614
 9177SOL    HW128430   0.189   5.583   3.593
 9177SOL    HW228431   0.262   5.709   3.667
 9178SOL     OW28432   0.823   3.186   0.929
 9178SOL    HW128433   0.765   3.253   0.882
 9178SOL    HW228434   0.772   3.146   1.005
 9179SOL     OW28435   3.702   5.864   2.653
 9179SOL    HW128436   3.611   5.874   2.693
 9179SOL    HW228437   3.721   5.942   2.593
 9180SOL     OW28438   0.638   1.152   4.506
 9180SOL    HW128439   0.586   1.185   4.427
 9180SOL    HW228440   0.585   1.082   4.554
 9181SOL     OW28441   2.979   1.865   2.712
 9181SOL    HW128442   3.049   1.848   2.644
 9181SOL    HW228443   2.977   1.790   2.778
 9182SOL     OW28444   6.673   1.364   2.970
 9182SOL    HW128445   6.644   1.459   2.961
 9182SOL    HW228446   6.650   1.313   2.888
 9183SOL     OW28447   3.252   1.711   5.658
 9183SOL    HW128448   3.306   1.633   5.625
 9183SOL    HW228449   3.313   1.779   5.698
 9184SOL     OW28450   2.834   6.208   0.554
 9184SOL    HW128451   2.903   6.154   0.602
 9184SOL    HW228452   2.852   6.207   0.456
 9185SOL     OW28453   0.771   1.214   4.983
 9185SOL    HW128454   0.694   1.168   5.026
 9185SOL    HW228455   0.830   1.254   5.053
 9186SOL     OW28456   5.142   6.666   5.949
 9186SOL    HW128457   5.121   6.589   6.009
 9186SOL    HW228458   5.217   6.642   5.887
 9187SOL     OW28459   5.218   3.588   1.227
 9187SOL    HW128460   5.168   3.507   1.195
 9187SOL    HW228461   5.170   3.670   1.195
 9188SOL     OW28462   1.290   0.890   2.617
 9188SOL    HW128463   1.198   0.851   2.611
 9188SOL    HW228464   1.357   0.821   2.590
 9189SOL     OW28465   3.074   0.636   6.863
 9189SOL    HW128466   3.135   0.659   6.788
 9189SOL    HW228467   3.119   0.656   6.950
 9190SOL     OW28468   3.494   0.978   5.794
 9190SOL    HW128469   3.556   1.031   5.853
 9190SOL    HW228470   3.547   0.933   5.722
 9191SOL     OW28471   5.088   6.988   1.861
 9191SOL    HW128472   4.998   7.020   1.891
 9191SOL    HW228473   5.094   6.997   1.761
 9192SOL     OW28474   4.096   4.775   3.631
 9192SOL    HW128475   4.173   4.831   3.662
 9192SOL    HW228476   4.011   4.811   3.670
 9193SOL     OW28477   3.823   4.069   2.176
 9193SOL    HW128478   3.793   4.070   2.271
 9193SOL    HW228479   3.919   4.095   2.171
 9194SOL     OW28480   2.696   5.527   3.404
 9194SOL    HW128481   2.695   5.612   3.457
 9194SOL    HW228482   2.627   5.464   3.440
 9195SOL     OW28483   0.290   3.255   3.392
 9195SOL    HW128484   0.221   3.231   3.460
 9195SOL    HW228485   0.356   3.318   3.432
 9196SOL     OW28486   5.759   5.408   3.090
 9196SOL    HW128487   5.854   5.391   3.114
 9196SOL    HW228488   5.712   5.450   3.168
 9197SOL     OW28489   4.393   2.265   6.332
 9197SOL    HW128490   4.390   2.276   6.232
 9197SOL    HW228491   4.300   2.256   6.367
 9198SOL     OW28492   6.489   2.437   4.521
 9198SOL    HW128493   6.545   2.360   4.493
 9198SOL    HW228494   6.546   2.507   4.563
 9199SOL     OW28495   0.953   3.726   0.169
 9199SOL    HW128496   0.875   3.772   0.126
 9199SOL    HW228497   1.022   3.794   0.195
 9200SOL     OW28498   4.767   5.859   2.177
 9200SOL    HW128499   4.795   5.866   2.273
 9200SOL    HW228500   4.708   5.936   2.153
 9201SOL     OW28501   0.265   2.889   2.573
 9201SOL    HW128502   0.356   2.901   2.613
 9201SOL    HW228503   0.222   2.808   2.611
 9202SOL     OW28504   2.286   6.036   3.481
 9202SOL    HW128505   2.204   6.082   3.514
 9202SOL    HW228506   2.306   5.957   3.538
 9203SOL     OW28507   5.079   2.168   0.267
 9203SOL    HW128508   5.112   2.165   0.361
 9203SOL    HW228509   5.124   2.097   0.214
 9204SOL     OW28510   4.988   4.220   1.338
 9204SOL    HW128511   5.017   4.156   1.267
 9204SOL    HW228512   4.925   4.287   1.299
 9205SOL     OW28513   4.538   2.758   0.934
 9205SOL    HW128514   4.496   2.668   0.935
 9205SOL    HW228515   4.582   2.774   0.846
 9206SOL     OW28516   6.711   0.526   5.121
 9206SOL    HW128517   6.770   0.453   5.089
 9206SOL    HW228518   6.616   0.506   5.096
 9207SOL     OW28519   5.970   6.134   0.870
 9207SOL    HW128520   5.880   6.104   0.839
 9207SOL    HW228521   6.009   6.199   0.804
 9208SOL     OW28522   6.258   4.109   1.814
 9208SOL    HW128523   6.163   4.082   1.802
 9208SOL    HW228524   6.318   4.035   1.782
 9209SOL     OW28525   5.131   0.720   4.434
 9209SOL    HW128526   5.176   0.733   4.345
 9209SOL    HW228527   5.098   0.808   4.467
 9210SOL     OW28528   1.708   6.782   0.472
 9210SOL    HW128529   1.796   6.749   0.507
 9210SOL    HW228530   1.723   6.827   0.384
 9211SOL     OW28531   5.438   1.198   6.199
 9211SOL    HW128532   5.488   1.144   6.132
 9211SOL    HW228533   5.367   1.252   6.153
 9212SOL     OW28534   5.981   3.777   6.575
 9212SOL    HW128535   5.960   3.772   6.478
 9212SOL    HW228536   6.050   3.847   6.591
 9213SOL     OW28537   0.341   5.506   3.266
 9213SOL    HW128538   0.315   5.556   3.184
 9213SOL    HW228539   0.362   5.411   3.243
 9214SOL     OW28540   1.652   1.293   5.572
 9214SOL    HW128541   1.581   1.291   5.502
 9214SOL    HW228542   1.739   1.319   5.530
 9215SOL     OW28543   6.776   4.392   3.810
 9215SOL    HW128544   6.865   4.358   3.841
 9215SOL    HW228545   6.712   4.314   3.802
 9216SOL     OW28546   1.566   0.047   3.268
 9216SOL    HW128547   1.662   0.045   3.296
 9216SOL    HW228548   1.555   7.015   3.185
 9217SOL     OW28549   3.663   2.657   0.254
 9217SOL    HW128550   3.629   2.656   0.347
 9217SOL    HW228551   3.679   2.751   0.225
 9218SOL     OW28552   5.111   5.680   5.760
 9218SOL    HW128553   5.035   5.631   5.718
 9218SOL    HW228554   5.119   5.771   5.717
 9219SOL     OW28555   3.919   3.152   5.894
 9219SOL    HW128556   3.831   3.147   5.848
 9219SOL    HW228557   3.921   3.087   5.970
 9220SOL     OW28558   0.778   6.489   3.527
 9220SOL    HW128559   0.823   6.481   3.616
 9220SOL    HW228560   0.780   6.584   3.497
 9221SOL     OW28561   2.717   1.609   2.141
 9221SOL    HW128562   2.631   1.649   2.173
 9221SOL    HW228563   2.714   1.510   2.151
 9222SOL     OW28564   2.641   5.861   3.330
 9222SOL    HW128565   2.624   5.822   3.420
 9222SOL    HW228566   2.622   5.959   3.332
 9223SOL     OW28567   5.975   2.044   4.910
 9223SOL    HW128568   5.985   2.138   4.878
 9223SOL    HW228569   6.065   2.007   4.933
 9224SOL     OW28570   1.657   6.026   2.766
 9224SOL    HW128571   1.726   6.067   2.707
 9224SOL    HW228572   1.688   6.029   2.861
 9225SOL     OW28573   0.240   5.973   5.488
 9225SOL    HW128574   0.212   6.022   5.406
 9225SOL    HW228575   0.160   5.957   5.546
 9226SOL     OW28576   0.687   6.686   4.898
 9226SOL    HW128577   0.702   6.747   4.976
 9226SOL    HW228578   0.663   6.739   4.817
 9227SOL     OW28579   4.219   2.953   0.717
 9227SOL    HW128580   4.182   2.898   0.792
 9227SOL    HW228581   4.229   3.048   0.748
 9228SOL     OW28582   3.334   3.725   4.183
 9228SOL    HW128583   3.238   3.711   4.210
 9228SOL    HW228584   3.339   3.800   4.118
 9229SOL     OW28585   0.425   6.068   1.377
 9229SOL    HW128586   0.428   6.118   1.290
 9229SOL    HW228587   0.425   5.970   1.359
 9230SOL     OW28588   3.628   0.006   5.717
 9230SOL    HW128589   3.634   7.004   5.621
 9230SOL    HW228590   3.533   0.004   5.746
 9231SOL     OW28591   5.235   6.360   1.837
 9231SOL    HW128592   5.178   6.279   1.821
 9231SOL    HW228593   5.186   6.441   1.805
 9232SOL     OW28594   1.005   5.081   1.842
 9232SOL    HW128595   0.929   5.070   1.777
 9232SOL    HW228596   1.077   5.136   1.801
 9233SOL     OW28597   0.970   0.443   6.074
 9233SOL    HW128598   1.045   0.388   6.038
 9233SOL    HW228599   0.994   0.540   6.069
 9234SOL     OW28600   3.026   4.176   0.292
 9234SOL    HW128601   3.091   4.227   0.348
 9234SOL    HW228602   2.998   4.232   0.214
 9235SOL     OW28603   1.420   2.163   2.349
 9235SOL    HW128604   1.451   2.250   2.311
 9235SOL    HW228605   1.320   2.162   2.354
 9236SOL     OW28606   1.856   3.911   6.312
 9236SOL    HW128607   1.929   3.845   6.296
 9236SOL    HW228608   1.896   4.000   6.336
 9237SOL     OW28609   6.800   6.221   3.694
 9237SOL    HW128610   6.722   6.252   3.748
 9237SOL    HW228611   6.852   6.153   3.746
 9238SOL     OW28612   1.805   2.969   5.185
 9238SOL    HW128613   1.787   2.871   5.183
 9238SOL    HW228614   1.843   2.998   5.097
 9239SOL     OW28615   2.112   6.097   6.447
 9239SOL    HW128616   2.117   6.006   6.487
 9239SOL    HW228617   2.176   6.104   6.371
 9240SOL     OW28618   3.790   1.400   4.970
 9240SOL    HW128619   3.775   1.475   4.905
 9240SOL    HW228620   3.859   1.338   4.933
 9241SOL     OW28621   5.063   6.326   6.866
 9241SOL    HW128622   5.077   6.416   6.823
 9241SOL    HW228623   5.141   6.305   6.925
 9242SOL     OW28624   2.400   2.718   0.052
 9242SOL    HW128625   2.307   2.683   0.046
 9242SOL    HW228626   2.398   2.816   0.073
 9243SOL     OW28627   2.464   6.861   0.095
 9243SOL    HW128628   2.486   6.947   0.143
 9243SOL    HW228629   2.507   6.862   0.005
 9244SOL     OW28630   3.216   6.463   6.312
 9244SOL    HW128631   3.231   6.491   6.217
 9244SOL    HW228632   3.292   6.406   6.343
 9245SOL     OW28633   0.563   3.997   3.653
 9245SOL    HW128634   0.492   3.937   3.690
 9245SOL    HW228635   0.617   4.035   3.728
 9246SOL     OW28636   4.906   1.892   6.674
 9246SOL    HW128637   4.879   1.873   6.769
 9246SOL    HW228638   4.992   1.845   6.654
 9247SOL     OW28639   3.037   6.422   2.435
 9247SOL    HW128640   2.983   6.463   2.507
 9247SOL    HW228641   3.042   6.323   2.448
 9248SOL     OW28642   3.134   0.323   6.323
 9248SOL    HW128643   3.054   0.360   6.371
 9248SOL    HW228644   3.180   0.256   6.381
 9249SOL     OW28645   2.950   1.681   0.606
 9249SOL    HW128646   2.909   1.770   0.625
 9249SOL    HW228647   2.934   1.656   0.510
 9250SOL     OW28648   0.953   3.582   1.804
 9250SOL    HW128649   0.966   3.509   1.737
 9250SOL    HW228650   1.036   3.591   1.859
 9251SOL     OW28651   4.150   1.645   0.838
 9251SOL    HW128652   4.072   1.648   0.900
 9251SOL    HW228653   4.192   1.736   0.834
 9252SOL     OW28654   5.701   1.555   4.763
 9252SOL    HW128655   5.784   1.609   4.779
 9252SOL    HW228656   5.638   1.608   4.705
 9253SOL     OW28657   2.607   5.214   3.672
 9253SOL    HW128658   2.674   5.139   3.664
 9253SOL    HW228659   2.656   5.300   3.689
 9254SOL     OW28660   6.266   5.577   2.145
 9254SOL    HW128661   6.270   5.662   2.197
 9254SOL    HW228662   6.270   5.597   2.048
 9255SOL     OW28663   0.435   3.367   1.892
 9255SOL    HW128664   0.526   3.409   1.898
 9255SOL    HW228665   0.428   3.294   1.960
 9256SOL     OW28666   1.564   6.375   0.633
 9256SOL    HW128667   1.474   6.388   0.590
 9256SOL    HW228668   1.596   6.282   0.613
 9257SOL     OW28669   6.404   6.747   5.499
 9257SOL    HW128670   6.367   6.827   5.546
 9257SOL    HW228671   6.494   6.770   5.462
 9258SOL     OW28672   5.020   3.468   2.975
 9258SOL    HW128673   5.068   3.509   2.898
 9258SOL    HW228674   5.007   3.370   2.958
 9259SOL     OW28675   0.872   3.253   6.138
 9259SOL    HW128676   0.854   3.212   6.049
 9259SOL    HW228677   0.792   3.240   6.197
 9260SOL     OW28678   5.063   4.790   5.316
 9260SOL    HW128679   5.121   4.865   5.283
 9260SOL    HW228680   5.051   4.723   5.242
 9261SOL     OW28681   1.539   2.776   0.887
 9261SOL    HW128682   1.521   2.686   0.927
 9261SOL    HW228683   1.596   2.765   0.806
 9262SOL     OW28684   6.283   6.421   5.697
 9262SOL    HW128685   6.232   6.451   5.615
 9262SOL    HW228686   6.219   6.382   5.763
 9263SOL     OW28687   2.179   4.606   2.567
 9263SOL    HW128688   2.210   4.536   2.631
 9263SOL    HW228689   2.136   4.563   2.488
 9264SOL     OW28690   5.887   3.774   5.560
 9264SOL    HW128691   5.834   3.707   5.508
 9264SOL    HW228692   5.901   3.856   5.504
 9265SOL     OW28693   4.140   0.544   1.963
 9265SOL    HW128694   4.212   0.492   2.010
 9265SOL    HW228695   4.181   0.625   1.920
 9266SOL     OW28696   6.725   4.597   1.299
 9266SOL    HW128697   6.702   4.538   1.377
 9266SOL    HW228698   6.681   4.686   1.312
 9267SOL     OW28699   6.609   1.087   3.039
 9267SOL    HW128700   6.520   1.101   2.996
 9267SOL    HW228701   6.657   1.174   3.046
 9268SOL     OW28702   0.384   0.279   0.737
 9268SOL    HW128703   0.388   0.331   0.822
 9268SOL    HW228704   0.462   0.217   0.732
 9269SOL     OW28705   3.777   6.360   1.446
 9269SOL    HW128706   3.765   6.420   1.525
 9269SOL    HW228707   3.708   6.381   1.377
 9270SOL     OW28708   1.901   1.033   5.514
 9270SOL    HW128709   1.985   0.980   5.530
 9270SOL    HW228710   1.913   1.126   5.550
 9271SOL     OW28711   1.332   4.757   5.584
 9271SOL    HW128712   1.328   4.850   5.621
 9271SOL    HW228713   1.428   4.727   5.580
 9272SOL     OW28714   6.424   6.570   6.338
 9272SOL    HW128715   6.480   6.527   6.268
 9272SOL    HW228716   6.368   6.642   6.296
 9273SOL     OW28717   6.417   3.926   3.366
 9273SOL    HW128718   6.479   3.992   3.408
 9273SOL    HW228719   6.376   3.966   3.284
 9274SOL     OW28720   7.001   3.153   1.560
 9274SOL    HW128721   0.060   3.200   1.524
 9274SOL    HW228722   6.940   3.221   1.602
 9275SOL     OW28723   4.584   1.873   0.509
 9275SOL    HW128724   4.592   1.881   0.609
 9275SOL    HW228725   4.557   1.780   0.486
 9276SOL     OW28726   1.135   4.218   0.839
 9276SOL    HW128727   1.229   4.200   0.868
 9276SOL    HW228728   1.096   4.136   0.796
 9277SOL     OW28729   3.236   6.381   3.244
 9277SOL    HW128730   3.333   6.377   3.217
 9277SOL    HW228731   3.188   6.302   3.207
 9278SOL     OW28732   1.289   6.572   4.502
 9278SOL    HW128733   1.336   6.484   4.509
 9278SOL    HW228734   1.355   6.643   4.477
 9279SOL     OW28735   4.009   5.886   2.202
 9279SOL    HW128736   4.020   5.836   2.116
 9279SOL    HW228737   3.989   5.822   2.276
 9280SOL     OW28738   1.315   4.283   1.944
 9280SOL    HW128739   1.371   4.280   1.861
 9280SOL    HW228740   1.331   4.200   1.997
 9281SOL     OW28741   1.326   5.726   0.507
 9281SOL    HW128742   1.249   5.691   0.455
 9281SOL    HW228743   1.411   5.695   0.466
 9282SOL     OW28744   2.091   0.920   3.708
 9282SOL    HW128745   2.042   0.904   3.794
 9282SOL    HW228746   2.042   0.876   3.633
 9283SOL     OW28747   5.613   4.888   6.479
 9283SOL    HW128748   5.638   4.904   6.574
 9283SOL    HW228749   5.583   4.793   6.468
 9284SOL     OW28750   3.943   6.232   1.730
 9284SOL    HW128751   3.935   6.309   1.793
 9284SOL    HW228752   4.005   6.257   1.655
 9285SOL     OW28753   6.876   5.660   3.269
 9285SOL    HW128754   6.965   5.689   3.304
 9285SOL    HW228755   6.833   5.735   3.221
 9286SOL     OW28756   5.560   5.904   1.540
 9286SOL    HW128757   5.551   5.943   1.632
 9286SOL    HW228758   5.584   5.807   1.546
 9287SOL     OW28759   4.291   4.028   0.672
 9287SOL    HW128760   4.278   4.077   0.759
 9287SOL    HW228761   4.240   3.942   0.674
 9288SOL     OW28762   3.330   0.921   3.414
 9288SOL    HW128763   3.294   0.958   3.329
 9288SOL    HW228764   3.295   0.973   3.492
 9289SOL     OW28765   4.518   5.724   2.299
 9289SOL    HW128766   4.546   5.812   2.337
 9289SOL    HW228767   4.490   5.662   2.372
 9290SOL     OW28768   5.249   0.515   3.906
 9290SOL    HW128769   5.266   0.430   3.856
 9290SOL    HW228770   5.296   0.591   3.861
 9291SOL     OW28771   0.173   5.184   5.438
 9291SOL    HW128772   0.229   5.102   5.453
 9291SOL    HW228773   0.200   5.255   5.504
 9292SOL     OW28774   1.839   1.986   7.016
 9292SOL    HW128775   1.846   1.889   6.993
 9292SOL    HW228776   1.753   2.003   0.042
 9293SOL     OW28777   3.820   1.204   6.031
 9293SOL    HW128778   3.780   1.292   6.005
 9293SOL    HW228779   3.918   1.214   6.044
 9294SOL     OW28780   5.159   6.446   6.124
 9294SOL    HW128781   5.088   6.379   6.144
 9294SOL    HW228782   5.237   6.431   6.186
 9295SOL     OW28783   6.027   0.527   2.981
 9295SOL    HW128784   6.071   0.459   2.921
 9295SOL    HW228785   6.050   0.619   2.948
 9296SOL     OW28786   2.499   3.139   5.615
 9296SOL    HW128787   2.453   3.136   5.526
 9296SOL    HW228788   2.561   3.217   5.619
 9297SOL     OW28789   6.973   5.295   1.884
 9297SOL    HW128790   6.960   5.394   1.888
 9297SOL    HW228791   0.003   5.271   1.803
 9298SOL     OW28792   6.416   4.789   6.972
 9298SOL    HW128793   6.456   4.703   7.003
 9298SOL    HW228794   6.405   4.786   6.872
 9299SOL     OW28795   3.608   2.135   4.169
 9299SOL    HW128796   3.510   2.154   4.158
 9299SOL    HW228797   3.634   2.145   4.265
 9300SOL     OW28798   2.572   5.934   6.197
 9300SOL    HW128799   2.524   6.021   6.211
 9300SOL    HW228800   2.506   5.865   6.166
 9301SOL     OW28801   0.211   3.293   3.877
 9301SOL    HW128802   0.303   3.313   3.911
 9301SOL    HW228803   0.154   3.260   3.952
 9302SOL     OW28804   2.930   6.095   4.154
 9302SOL    HW128805   2.945   6.095   4.253
 9302SOL    HW228806   2.834   6.076   4.135
 9303SOL     OW28807   2.935   4.356   0.095
 9303SOL    HW128808   2.846   4.314   0.076
 9303SOL    HW228809   2.981   4.378   0.009
 9304SOL     OW28810   6.144   5.718   6.803
 9304SOL    HW128811   6.159   5.660   6.884
 9304SOL    HW228812   6.178   5.670   6.722
 9305SOL     OW28813   2.216   1.727   0.873
 9305SOL    HW128814   2.192   1.823   0.887
 9305SOL    HW228815   2.161   1.689   0.799
 9306SOL     OW28816   6.573   6.314   3.825
 9306SOL    HW128817   6.481   6.342   3.797
 9306SOL    HW228818   6.568   6.228   3.876
 9307SOL     OW28819   1.735   4.261   0.704
 9307SOL    HW128820   1.766   4.331   0.769
 9307SOL    HW228821   1.810   4.197   0.687
 9308SOL     OW28822   2.410   3.047   0.958
 9308SOL    HW128823   2.312   3.045   0.941
 9308SOL    HW228824   2.427   3.072   1.053
 9309SOL     OW28825   3.645   5.085   6.268
 9309SOL    HW128826   3.705   5.151   6.224
 9309SOL    HW228827   3.693   4.998   6.279
 9310SOL     OW28828   6.327   6.749   5.936
 9310SOL    HW128829   6.417   6.775   5.971
 9310SOL    HW228830   6.286   6.827   5.888
 9311SOL     OW28831   5.235   4.633   0.100
 9311SOL    HW128832   5.203   4.670   0.187
 9311SOL    HW228833   5.330   4.661   0.085
 9312SOL     OW28834   6.353   3.500   4.112
 9312SOL    HW128835   6.280   3.444   4.072
 9312SOL    HW228836   6.434   3.443   4.125
 9313SOL     OW28837   0.425   0.313   1.710
 9313SOL    HW128838   0.434   0.354   1.620
 9313SOL    HW228839   0.347   0.354   1.758
 9314SOL     OW28840   5.748   4.712   1.841
 9314SOL    HW128841   5.705   4.657   1.769
 9314SOL    HW228842   5.790   4.651   1.908
 9315SOL     OW28843   5.277   5.511   5.138
 9315SOL    HW128844   5.221   5.588   5.169
 9315SOL    HW228845   5.373   5.530   5.156
 9316SOL     OW28846   5.877   5.728   0.028
 9316SOL    HW128847   5.882   5.827   0.015
 9316SOL    HW228848   5.932   5.682   6.981
 9317SOL     OW28849   2.687   6.690   2.950
 9317SOL    HW128850   2.737   6.733   3.026
 9317SOL    HW228851   2.608   6.748   2.927
 9318SOL     OW28852   3.470   0.058   3.752
 9318SOL    HW128853   3.533   0.059   3.830
 9318SOL    HW228854   3.470   6.990   3.710
 9319SOL     OW28855   3.966   2.376   0.746
 9319SOL    HW128856   3.905   2.390   0.824
 9319SOL    HW228857   4.018   2.460   0.728
 9320SOL     OW28858   6.556   6.994   7.014
 9320SOL    HW128859   6.552   0.066   6.980
 9320SOL    HW228860   6.640   6.980   0.043
 9321SOL     OW28861   1.224   2.636   4.188
 9321SOL    HW128862   1.163   2.568   4.230
 9321SOL    HW228863   1.169   2.711   4.150
 9322SOL     OW28864   5.176   3.907   0.946
 9322SOL    HW128865   5.227   3.845   0.886
 9322SOL    HW228866   5.148   3.857   1.028
 9323SOL     OW28867   0.550   2.737   4.918
 9323SOL    HW128868   0.459   2.759   4.954
 9323SOL    HW228869   0.615   2.731   4.994
 9324SOL     OW28870   1.051   4.219   1.620
 9324SOL    HW128871   1.066   4.134   1.671
 9324SOL    HW228872   1.127   4.234   1.557
 9325SOL     OW28873   0.230   4.130   2.746
 9325SOL    HW128874   0.227   4.096   2.840
 9325SOL    HW228875   0.258   4.226   2.746
 9326SOL     OW28876   3.710   4.945   1.352
 9326SOL    HW128877   3.787   5.005   1.375
 9326SOL    HW228878   3.628   4.978   1.398
 9327SOL     OW28879   1.802   2.002   3.287
 9327SOL    HW128880   1.789   1.976   3.383
 9327SOL    HW228881   1.890   2.049   3.276
 9328SOL     OW28882   0.607   0.188   3.557
 9328SOL    HW128883   0.578   0.256   3.490
 9328SOL    HW228884   0.620   0.232   3.646
 9329SOL     OW28885   1.558   4.917   6.152
 9329SOL    HW128886   1.526   4.877   6.067
 9329SOL    HW228887   1.484   4.969   6.195
 9330SOL     OW28888   0.594   6.202   0.842
 9330SOL    HW128889   0.690   6.176   0.836
 9330SOL    HW228890   0.580   6.257   0.925
 9331SOL     OW28891   2.649   5.211   5.017
 9331SOL    HW128892   2.570   5.270   4.999
 9331SOL    HW228893   2.618   5.119   5.039
 9332SOL     OW28894   6.443   6.081   0.326
 9332SOL    HW128895   6.528   6.055   0.279
 9332SOL    HW228896   6.379   6.004   0.322
 9333SOL     OW28897   1.223   5.584   1.008
 9333SOL    HW128898   1.255   5.499   1.050
 9333SOL    HW228899   1.255   5.661   1.063
 9334SOL     OW28900   0.245   6.529   0.312
 9334SOL    HW128901   0.226   6.445   0.362
 9334SOL    HW228902   0.337   6.561   0.335
 9335SOL     OW28903   0.108   3.588   1.067
 9335SOL    HW128904   0.204   3.565   1.081
 9335SOL    HW228905   0.100   3.683   1.035
 9336SOL     OW28906   4.374   5.660   5.558
 9336SOL    HW128907   4.417   5.717   5.488
 9336SOL    HW228908   4.328   5.583   5.515
 9337SOL     OW28909   3.021   1.896   4.540
 9337SOL    HW128910   3.024   1.993   4.518
 9337SOL    HW228911   3.047   1.883   4.636
 9338SOL     OW28912   4.167   0.032   1.651
 9338SOL    HW128913   4.124   0.019   1.740
 9338SOL    HW228914   4.262   0.060   1.665
 9339SOL     OW28915   0.146   3.742   4.396
 9339SOL    HW128916   0.233   3.724   4.442
 9339SOL    HW228917   0.107   3.827   4.430
 9340SOL     OW28918   2.750   4.732   2.161
 9340SOL    HW128919   2.812   4.677   2.105
 9340SOL    HW228920   2.671   4.759   2.106
 9341SOL     OW28921   5.363   5.876   1.839
 9341SOL    HW128922   5.336   5.829   1.923
 9341SOL    HW228923   5.457   5.909   1.848
 9342SOL     OW28924   2.995   0.346   4.917
 9342SOL    HW128925   3.026   0.436   4.950
 9342SOL    HW228926   3.013   0.338   4.819
 9343SOL     OW28927   5.693   3.984   1.215
 9343SOL    HW128928   5.709   4.047   1.139
 9343SOL    HW228929   5.730   4.024   1.299
 9344SOL     OW28930   5.339   6.333   4.934
 9344SOL    HW128931   5.330   6.323   4.835
 9344SOL    HW228932   5.278   6.406   4.966
 9345SOL     OW28933   0.064   4.901   6.215
 9345SOL    HW128934   7.022   4.841   6.262
 9345SOL    HW228935   0.098   4.970   6.280
 9346SOL     OW28936   4.927   0.843   2.300
 9346SOL    HW128937   4.960   0.828   2.393
 9346SOL    HW228938   4.828   0.829   2.297
 9347SOL     OW28939   4.553   6.631   2.324
 9347SOL    HW128940   4.487   6.677   2.266
 9347SOL    HW228941   4.523   6.537   2.340
 9348SOL     OW28942   2.408   5.077   2.033
 9348SOL    HW128943   2.457   5.018   1.970
 9348SOL    HW228944   2.464   5.093   2.114
 9349SOL     OW28945   0.602   4.541   1.480
 9349SOL    HW128946   0.611   4.557   1.578
 9349SOL    HW228947   0.673   4.477   1.450
 9350SOL     OW28948   6.392   0.613   6.924
 9350SOL    HW128949   6.491   0.628   6.924
 9350SOL    HW228950   6.355   0.638   6.835
 9351SOL     OW28951   4.552   3.902   6.392
 9351SOL    HW128952   4.462   3.865   6.370
 9351SOL    HW228953   4.584   3.863   6.478
 9352SOL     OW28954   2.843   1.692   0.076
 9352SOL    HW128955   2.885   1.740   7.022
 9352SOL    HW228956   2.794   1.758   0.134
 9353SOL     OW28957   1.080   3.241   2.192
 9353SOL    HW128958   1.027   3.161   2.165
 9353SOL    HW228959   1.167   3.241   2.143
 9354SOL     OW28960   5.775   2.016   2.219
 9354SOL    HW128961   5.841   1.950   2.256
 9354SOL    HW228962   5.821   2.104   2.204
 9355SOL     OW28963   0.502   2.044   1.974
 9355SOL    HW128964   0.474   2.019   2.066
 9355SOL    HW228965   0.434   2.104   1.933
 9356SOL     OW28966   4.433   2.447   2.054
 9356SOL    HW128967   4.347   2.396   2.060
 9356SOL    HW228968   4.485   2.433   2.138
 9357SOL     OW28969   2.144   4.220   6.871
 9357SOL    HW128970   2.185   4.299   6.827
 9357SOL    HW228971   2.188   4.205   6.960
 9358SOL     OW28972   5.421   4.420   3.384
 9358SOL    HW128973   5.396   4.326   3.362
 9358SOL    HW228974   5.451   4.467   3.301
 9359SOL     OW28975   4.137   5.286   5.211
 9359SOL    HW128976   4.193   5.326   5.138
 9359SOL    HW228977   4.185   5.207   5.251
 9360SOL     OW28978   0.938   0.260   5.365
 9360SOL    HW128979   0.913   0.357   5.356
 9360SOL    HW228980   0.933   0.233   5.461
 9361SOL     OW28981   1.233   1.503   2.328
 9361SOL    HW128982   1.191   1.494   2.418
 9361SOL    HW228983   1.177   1.562   2.271
 9362SOL     OW28984   1.324   1.632   3.056
 9362SOL    HW128985   1.400   1.689   3.023
 9362SOL    HW228986   1.264   1.688   3.113
 9363SOL     OW28987   1.020   6.129   2.595
 9363SOL    HW128988   1.098   6.181   2.630
 9363SOL    HW228989   0.938   6.186   2.596
 9364SOL     OW28990   5.711   4.172   0.732
 9364SOL    HW128991   5.649   4.097   0.709
 9364SOL    HW228992   5.745   4.215   0.648
 9365SOL     OW28993   2.402   1.245   4.264
 9365SOL    HW128994   2.470   1.185   4.221
 9365SOL    HW228995   2.441   1.286   4.346
 9366SOL     OW28996   2.706   1.602   1.459
 9366SOL    HW128997   2.721   1.539   1.382
 9366SOL    HW228998   2.638   1.562   1.521
 9367SOL     OW28999   5.218   6.601   4.552
 9367SOL    HW129000   5.244   6.685   4.505
 9367SOL    HW229001   5.163   6.544   4.490
 9368SOL     OW29002   5.539   3.062   1.006
 9368SOL    HW129003   5.638   3.053   1.018
 9368SOL    HW229004   5.500   3.108   1.085
 9369SOL     OW29005   0.470   2.313   5.553
 9369SOL    HW129006   0.512   2.275   5.470
 9369SOL    HW229007   0.500   2.261   5.633
 9370SOL     OW29008   5.765   5.595   2.157
 9370SOL    HW129009   5.718   5.558   2.077
 9370SOL    HW229010   5.820   5.674   2.131
 9371SOL     OW29011   2.042   6.833   0.490
 9371SOL    HW129012   2.028   6.829   0.391
 9371SOL    HW229013   2.023   6.743   0.530
 9372SOL     OW29014   5.530   5.539   0.621
 9372SOL    HW129015   5.450   5.537   0.680
 9372SOL    HW229016   5.513   5.600   0.543
 9373SOL     OW29017   4.807   2.674   4.555
 9373SOL    HW129018   4.888   2.651   4.501
 9373SOL    HW229019   4.725   2.643   4.507
 9374SOL     OW29020   5.416   3.973   6.886
 9374SOL    HW129021   5.503   3.941   6.924
 9374SOL    HW229022   5.429   4.002   6.792
 9375SOL     OW29023   6.460   6.702   4.468
 9375SOL    HW129024   6.553   6.686   4.501
 9375SOL    HW229025   6.462   6.770   4.394
 9376SOL     OW29026   2.789   3.703   1.669
 9376SOL    HW129027   2.811   3.673   1.761
 9376SOL    HW229028   2.692   3.687   1.651
 9377SOL     OW29029   6.886   4.632   3.728
 9377SOL    HW129030   6.840   4.551   3.764
 9377SOL    HW229031   6.826   4.678   3.662
 9378SOL     OW29032   4.305   5.837   1.624
 9378SOL    HW129033   4.317   5.854   1.526
 9378SOL    HW229034   4.213   5.800   1.640
 9379SOL     OW29035   4.528   4.648   5.168
 9379SOL    HW129036   4.453   4.615   5.111
 9379SOL    HW229037   4.614   4.640   5.117
 9380SOL     OW29038   0.063   5.489   5.542
 9380SOL    HW129039   0.013   5.464   5.459
 9380SOL    HW229040   0.144   5.542   5.517
 9381SOL     OW29041   0.839   0.581   6.893
 9381SOL    HW129042   0.809   0.648   6.826
 9381SOL    HW229043   0.759   0.537   6.934
 9382SOL     OW29044   5.941   2.302   2.107
 9382SOL    HW129045   5.970   2.273   2.198
 9382SOL    HW229046   5.916   2.399   2.110
 9383SOL     OW29047   6.971   5.633   6.949
 9383SOL    HW129048   7.004   5.540   6.934
 9383SOL    HW229049   6.986   5.687   6.866
 9384SOL     OW29050   3.525   0.005   2.440
 9384SOL    HW129051   3.599   6.996   2.500
 9384SOL    HW229052   3.455   6.956   2.433
 9385SOL     OW29053   3.852   6.046   3.715
 9385SOL    HW129054   3.893   6.024   3.804
 9385SOL    HW229055   3.781   5.979   3.694
 9386SOL     OW29056   3.321   6.742   4.938
 9386SOL    HW129057   3.390   6.675   4.911
 9386SOL    HW229058   3.241   6.695   4.976
 9387SOL     OW29059   4.681   6.059   0.762
 9387SOL    HW129060   4.705   6.025   0.671
 9387SOL    HW229061   4.669   6.159   0.757
 9388SOL     OW29062   6.507   0.068   1.418
 9388SOL    HW129063   6.534   0.100   1.509
 9388SOL    HW229064   6.589   0.046   1.365
 9389SOL     OW29065   3.119   1.267   0.817
 9389SOL    HW129066   3.201   1.227   0.776
 9389SOL    HW229067   3.114   1.239   0.913
 9390SOL     OW29068   3.521   6.185   1.029
 9390SOL    HW129069   3.428   6.216   1.007
 9390SOL    HW229070   3.529   6.170   1.127
 9391SOL     OW29071   5.592   0.536   4.006
 9391SOL    HW129072   5.662   0.515   4.074
 9391SOL    HW229073   5.541   0.453   3.984
 9392SOL     OW29074   0.788   6.857   5.104
 9392SOL    HW129075   0.742   6.901   5.181
 9392SOL    HW229076   0.856   6.920   5.066
 9393SOL     OW29077   4.904   1.555   5.608
 9393SOL    HW129078   4.867   1.554   5.515
 9393SOL    HW229079   4.832   1.530   5.673
 9394SOL     OW29080   6.242   1.707   2.315
 9394SOL    HW129081   6.321   1.654   2.345
 9394SOL    HW229082   6.259   1.742   2.223
 9395SOL     OW29083   1.896   2.973   6.864
 9395SOL    HW129084   1.798   2.986   6.849
 9395SOL    HW229085   1.910   2.917   6.946
 9396SOL     OW29086   0.591   1.121   5.487
 9396SOL    HW129087   0.659   1.063   5.443
 9396SOL    HW229088   0.597   1.214   5.450
 9397SOL     OW29089   1.579   2.292   1.191
 9397SOL    HW129090   1.579   2.250   1.282
 9397SOL    HW229091   1.486   2.320   1.167
 9398SOL     OW29092   2.404   1.856   1.498
 9398SOL    HW129093   2.390   1.788   1.425
 9398SOL    HW229094   2.501   1.862   1.520
 9399SOL     OW29095   0.113   0.660   5.378
 9399SOL    HW129096   0.166   0.725   5.432
 9399SOL    HW229097   0.113   0.571   5.424
 9400SOL     OW29098   4.054   1.457   3.671
 9400SOL    HW129099   3.988   1.408   3.727
 9400SOL    HW229100   4.081   1.542   3.717
 9401SOL     OW29101   3.974   6.731   3.960
 9401SOL    HW129102   4.035   6.758   3.885
 9401SOL    HW229103   3.973   6.631   3.968
 9402SOL     OW29104   2.511   4.844   6.015
 9402SOL    HW129105   2.508   4.786   6.097
 9402SOL    HW229106   2.606   4.863   5.992
 9403SOL     OW29107   6.147   0.340   4.379
 9403SOL    HW129108   6.078   0.269   4.393
 9403SOL    HW229109   6.104   0.430   4.390
 9404SOL     OW29110   1.820   4.669   4.963
 9404SOL    HW129111   1.794   4.623   5.048
 9404SOL    HW229112   1.746   4.729   4.933
 9405SOL     OW29113   0.552   0.704   1.030
 9405SOL    HW129114   0.531   0.756   0.947
 9405SOL    HW229115   0.477   0.642   1.052
 9406SOL     OW29116   6.177   1.562   4.837
 9406SOL    HW129117   6.154   1.470   4.804
 9406SOL    HW229118   6.093   1.615   4.847
 9407SOL     OW29119   3.450   5.460   3.508
 9407SOL    HW129120   3.396   5.530   3.460
 9407SOL    HW229121   3.542   5.495   3.524
 9408SOL     OW29122   3.391   2.135   6.743
 9408SOL    HW129123   3.451   2.104   6.818
 9408SOL    HW229124   3.324   2.200   6.779
 9409SOL     OW29125   6.198   4.192   3.505
 9409SOL    HW129126   6.271   4.212   3.570
 9409SOL    HW229127   6.117   4.161   3.554
 9410SOL     OW29128   4.286   6.780   1.728
 9410SOL    HW129129   4.346   6.743   1.799
 9410SOL    HW229130   4.318   6.750   1.639
 9411SOL     OW29131   5.497   4.505   2.025
 9411SOL    HW129132   5.571   4.439   2.035
 9411SOL    HW229133   5.414   4.468   2.066
 9412SOL     OW29134   6.692   1.836   3.354
 9412SOL    HW129135   6.662   1.897   3.280
 9412SOL    HW229136   6.686   1.884   3.441
 9413SOL     OW29137   3.694   5.546   3.538
 9413SOL    HW129138   3.756   5.574   3.465
 9413SOL    HW229139   3.747   5.516   3.618
 9414SOL     OW29140   2.241   0.185   2.070
 9414SOL    HW129141   2.189   0.125   2.009
 9414SOL    HW229142   2.339   0.173   2.052
 9415SOL     OW29143   1.023   6.871   1.969
 9415SOL    HW129144   0.974   6.804   1.914
 9415SOL    HW229145   1.043   6.831   2.059
 9416SOL     OW29146   1.226   2.068   1.414
 9416SOL    HW129147   1.308   2.041   1.465
 9416SOL    HW229148   1.251   2.138   1.346
 9417SOL     OW29149   1.117   0.427   4.575
 9417SOL    HW129150   1.209   0.389   4.582
 9417SOL    HW229151   1.051   0.353   4.562
 9418SOL     OW29152   3.956   4.300   0.814
 9418SOL    HW129153   3.976   4.397   0.798
 9418SOL    HW229154   4.034   4.256   0.858
 9419SOL     OW29155   2.309   5.866   4.140
 9419SOL    HW129156   2.295   5.919   4.057
 9419SOL    HW229157   2.363   5.919   4.205
 9420SOL     OW29158   1.648   0.320   3.079
 9420SOL    HW129159   1.578   0.387   3.104
 9420SOL    HW229160   1.605   0.242   3.035
 9421SOL     OW29161   1.762   4.551   5.197
 9421SOL    HW129162   1.822   4.500   5.259
 9421SOL    HW229163   1.698   4.488   5.153
 9422SOL     OW29164   3.714   1.356   3.068
 9422SOL    HW129165   3.724   1.387   2.973
 9422SOL    HW229166   3.632   1.300   3.077
 9423SOL     OW29167   4.414   6.933   5.148
 9423SOL    HW129168   4.482   6.893   5.210
 9423SOL    HW229169   4.322   6.903   5.175
 9424SOL     OW29170   3.146   5.513   3.171
 9424SOL    HW129171   3.052   5.478   3.170
 9424SOL    HW229172   3.208   5.440   3.198
 9425SOL     OW29173   0.326   5.548   2.156
 9425SOL    HW129174   0.424   5.527   2.156
 9425SOL    HW229175   0.295   5.561   2.251
 9426SOL     OW29176   3.342   6.034   0.601
 9426SOL    HW129177   3.329   6.133   0.604
 9426SOL    HW229178   3.350   5.998   0.694
 9427SOL     OW29179   2.751   5.231   4.002
 9427SOL    HW129180   2.764   5.264   4.095
 9427SOL    HW229181   2.667   5.176   3.997
 9428SOL     OW29182   4.650   6.348   2.425
 9428SOL    HW129183   4.595   6.272   2.459
 9428SOL    HW229184   4.688   6.324   2.335
 9429SOL     OW29185   0.330   3.844   2.759
 9429SOL    HW129186   0.252   3.792   2.795
 9429SOL    HW229187   0.296   3.924   2.708
 9430SOL     OW29188   6.456   6.956   1.778
 9430SOL    HW129189   6.504   6.885   1.830
 9430SOL    HW229190   6.522   7.022   1.742
 9431SOL     OW29191   6.618   4.682   0.531
 9431SOL    HW129192   6.637   4.726   0.443
 9431SOL    HW229193   6.644   4.743   0.605
 9432SOL     OW29194   6.363   6.603   3.754
 9432SOL    HW129195   6.351   6.595   3.655
 9432SOL    HW229196   6.396   6.695   3.776
 9433SOL     OW29197   2.388   5.250   4.475
 9433SOL    HW129198   2.373   5.295   4.387
 9433SOL    HW229199   2.405   5.153   4.461
 9434SOL     OW29200   6.140   4.745   3.738
 9434SOL    HW129201   6.110   4.693   3.818
 9434SOL    HW229202   6.199   4.821   3.768
 9435SOL     OW29203   2.594   2.469   6.015
 9435SOL    HW129204   2.508   2.511   5.988
 9435SOL    HW229205   2.656   2.540   6.049
 9436SOL     OW29206   3.729   2.094   5.661
 9436SOL    HW129207   3.713   2.192   5.669
 9436SOL    HW229208   3.642   2.045   5.668
 9437SOL     OW29209   0.446   5.788   4.494
 9437SOL    HW129210   0.511   5.713   4.482
 9437SOL    HW229211   0.405   5.810   4.406
 9438SOL     OW29212   0.269   6.270   1.495
 9438SOL    HW129213   0.306   6.184   1.460
 9438SOL    HW229214   0.169   6.264   1.499
 9439SOL     OW29215   1.924   3.305   1.275
 9439SOL    HW129216   1.945   3.208   1.285
 9439SOL    HW229217   1.951   3.336   1.184
 9440SOL     OW29218   3.208   6.055   3.709
 9440SOL    HW129219   3.134   6.100   3.759
 9440SOL    HW229220   3.178   5.964   3.679
 9441SOL     OW29221   1.088   5.181   5.694
 9441SOL    HW129222   1.138   5.264   5.720
 9441SOL    HW229223   1.006   5.172   5.750
 9442SOL     OW29224   0.985   2.918   1.272
 9442SOL    HW129225   1.018   2.829   1.302
 9442SOL    HW229226   0.953   2.912   1.178
 9443SOL     OW29227   1.373   2.075   0.915
 9443SOL    HW129228   1.356   2.143   0.986
 9443SOL    HW229229   1.314   1.995   0.930
 9444SOL     OW29230   1.493   4.106   5.447
 9444SOL    HW129231   1.424   4.088   5.377
 9444SOL    HW229232   1.575   4.144   5.403
 9445SOL     OW29233   5.752   2.028   1.677
 9445SOL    HW129234   5.788   1.976   1.600
 9445SOL    HW229235   5.675   1.979   1.718
 9446SOL     OW29236   5.436   4.815   0.414
 9446SOL    HW129237   5.449   4.772   0.503
 9446SOL    HW229238   5.474   4.756   0.343
 9447SOL     OW29239   5.859   0.906   1.758
 9447SOL    HW129240   5.766   0.912   1.796
 9447SOL    HW229241   5.875   0.813   1.725
 9448SOL     OW29242   5.930   6.311   0.199
 9448SOL    HW129243   5.865   6.280   0.130
 9448SOL    HW229244   6.018   6.266   0.184
 9449SOL     OW29245   5.842   5.539   5.078
 9449SOL    HW129246   5.839   5.481   4.997
 9449SOL    HW229247   5.779   5.616   5.067
 9450SOL     OW29248   2.050   6.213   3.951
 9450SOL    HW129249   2.117   6.286   3.937
 9450SOL    HW229250   2.040   6.194   4.049
 9451SOL     OW29251   4.149   3.649   5.174
 9451SOL    HW129252   4.076   3.650   5.242
 9451SOL    HW229253   4.227   3.702   5.207
 9452SOL     OW29254   3.777   4.716   0.640
 9452SOL    HW129255   3.792   4.770   0.557
 9452SOL    HW229256   3.708   4.760   0.697
 9453SOL     OW29257   3.872   6.079   1.359
 9453SOL    HW129258   3.873   6.168   1.404
 9453SOL    HW229259   3.929   6.082   1.277
 9454SOL     OW29260   2.179   2.070   5.846
 9454SOL    HW129261   2.180   2.025   5.936
 9454SOL    HW229262   2.138   2.009   5.779
 9455SOL     OW29263   1.715   2.452   1.882
 9455SOL    HW129264   1.815   2.448   1.880
 9455SOL    HW229265   1.684   2.538   1.842
 9456SOL     OW29266   1.353   3.299   0.316
 9456SOL    HW129267   1.387   3.240   0.389
 9456SOL    HW229268   1.292   3.246   0.256
 9457SOL     OW29269   5.858   4.180   0.346
 9457SOL    HW129270   5.865   4.253   0.414
 9457SOL    HW229271   5.871   4.092   0.391
 9458SOL     OW29272   0.910   5.783   3.744
 9458SOL    HW129273   0.917   5.882   3.757
 9458SOL    HW229274   1.002   5.743   3.741
 9459SOL     OW29275   3.948   6.442   0.600
 9459SOL    HW129276   3.935   6.476   0.694
 9459SOL    HW229277   3.891   6.361   0.586
 9460SOL     OW29278   1.570   3.803   5.480
 9460SOL    HW129279   1.554   3.902   5.477
 9460SOL    HW229280   1.522   3.764   5.558
 9461SOL     OW29281   1.612   0.407   2.705
 9461SOL    HW129282   1.597   0.344   2.781
 9461SOL    HW229283   1.541   0.392   2.635
 9462SOL     OW29284   0.601   3.307   3.719
 9462SOL    HW129285   0.631   3.402   3.727
 9462SOL    HW229286   0.538   3.285   3.792
 9463SOL     OW29287   5.181   2.230   6.393
 9463SOL    HW129288   5.232   2.309   6.357
 9463SOL    HW229289   5.195   2.152   6.332
 9464SOL     OW29290   4.031   6.512   6.541
 9464SOL    HW129291   4.013   6.478   6.634
 9464SOL    HW229292   4.102   6.456   6.498
 9465SOL     OW29293   4.252   6.304   4.331
 9465SOL    HW129294   4.345   6.273   4.315
 9465SOL    HW229295   4.211   6.251   4.405
 9466SOL     OW29296   3.388   1.919   6.585
 9466SOL    HW129297   3.334   1.929   6.502
 9466SOL    HW229298   3.379   2.001   6.642
 9467SOL     OW29299   1.401   3.222   2.350
 9467SOL    HW129300   1.341   3.203   2.272
 9467SOL    HW229301   1.472   3.286   2.322
 9468SOL     OW29302   0.615   2.115   6.099
 9468SOL    HW129303   0.528   2.132   6.145
 9468SOL    HW229304   0.642   2.196   6.047
 9469SOL     OW29305   0.624   4.203   2.616
 9469SOL    HW129306   0.563   4.127   2.591
 9469SOL    HW229307   0.718   4.179   2.592
 9470SOL     OW29308   6.467   3.890   2.015
 9470SOL    HW129309   6.550   3.837   2.028
 9470SOL    HW229310   6.487   3.988   2.023
 9471SOL     OW29311   6.818   2.360   5.786
 9471SOL    HW129312   6.815   2.406   5.875
 9471SOL    HW229313   6.872   2.414   5.722
 9472SOL     OW29314   6.786   2.194   5.020
 9472SOL    HW129315   6.858   2.186   5.089
 9472SOL    HW229316   6.826   2.227   4.934
 9473SOL     OW29317   2.704   4.860   5.738
 9473SOL    HW129318   2.623   4.915   5.719
 9473SOL    HW229319   2.786   4.917   5.728
 9474SOL     OW29320   3.985   5.662   4.274
 9474SOL    HW129321   4.043   5.740   4.296
 9474SOL    HW229322   4.016   5.582   4.325
 9475SOL     OW29323   2.485   3.511   1.446
 9475SOL    HW129324   2.489   3.589   1.508
 9475SOL    HW229325   2.448   3.431   1.494
 9476SOL     OW29326   2.569   3.557   5.685
 9476SOL    HW129327   2.487   3.562   5.628
 9476SOL    HW229328   2.635   3.494   5.644
 9477SOL     OW29329   1.309   2.722   0.357
 9477SOL    HW129330   1.381   2.785   0.329
 9477SOL    HW229331   1.277   2.670   0.278
 9478SOL     OW29332   5.599   3.732   6.337
 9478SOL    HW129333   5.575   3.763   6.244
 9478SOL    HW229334   5.694   3.753   6.356
 9479SOL     OW29335   5.463   4.740   4.960
 9479SOL    HW129336   5.377   4.689   4.961
 9479SOL    HW229337   5.508   4.727   4.871
 9480SOL     OW29338   6.932   3.265   6.285
 9480SOL    HW129339   6.905   3.174   6.316
 9480SOL    HW229340   6.868   3.333   6.319
 9481SOL     OW29341   0.457   2.468   2.873
 9481SOL    HW129342   0.539   2.423   2.910
 9481SOL    HW229343   0.481   2.514   2.788
 9482SOL     OW29344   4.623   1.313   1.992
 9482SOL    HW129345   4.614   1.340   2.088
 9482SOL    HW229346   4.534   1.290   1.955
 9483SOL     OW29347   1.839   0.829   0.612
 9483SOL    HW129348   1.754   0.847   0.562
 9483SOL    HW229349   1.895   0.764   0.560
 9484SOL     OW29350   6.084   0.189   3.556
 9484SOL    HW129351   6.178   0.204   3.586
 9484SOL    HW229352   6.032   0.274   3.564
 9485SOL     OW29353   0.161   6.775   3.260
 9485SOL    HW129354   0.152   6.698   3.323
 9485SOL    HW229355   0.199   6.854   3.309
 9486SOL     OW29356   3.208   0.170   2.119
 9486SOL    HW129357   3.251   0.084   2.090
 9486SOL    HW229358   3.116   0.176   2.081
 9487SOL     OW29359   3.346   2.953   3.210
 9487SOL    HW129360   3.386   3.021   3.271
 9487SOL    HW229361   3.419   2.901   3.166
 9488SOL     OW29362   1.869   0.452   1.637
 9488SOL    HW129363   1.932   0.439   1.714
 9488SOL    HW229364   1.790   0.504   1.668
 9489SOL     OW29365   2.478   4.609   0.748
 9489SOL    HW129366   2.403   4.672   0.765
 9489SOL    HW229367   2.538   4.646   0.677
 9490SOL     OW29368   4.784   1.504   0.414
 9490SOL    HW129369   4.725   1.513   0.494
 9490SOL    HW229370   4.731   1.521   0.331
 9491SOL     OW29371   5.498   6.260   6.086
 9491SOL    HW129372   5.530   6.166   6.083
 9491SOL    HW229373   5.409   6.267   6.041
 9492SOL     OW29374   2.452   5.464   0.962
 9492SOL    HW129375   2.399   5.545   0.988
 9492SOL    HW229376   2.493   5.479   0.872
 9493SOL     OW29377   5.283   6.238   2.548
 9493SOL    HW129378   5.321   6.192   2.628
 9493SOL    HW229379   5.243   6.325   2.577
 9494SOL     OW29380   3.648   3.621   6.588
 9494SOL    HW129381   3.668   3.553   6.517
 9494SOL    HW229382   3.673   3.584   6.678
 9495SOL     OW29383   5.460   2.713   4.533
 9495SOL    HW129384   5.403   2.775   4.587
 9495SOL    HW229385   5.552   2.711   4.571
 9496SOL     OW29386   6.542   4.461   6.829
 9496SOL    HW129387   6.599   4.384   6.857
 9496SOL    HW229388   6.446   4.440   6.850
 9497SOL     OW29389   1.335   6.018   5.990
 9497SOL    HW129390   1.368   6.078   5.918
 9497SOL    HW229391   1.243   5.986   5.967
 9498SOL     OW29392   4.352   6.833   6.528
 9498SOL    HW129393   4.263   6.840   6.483
 9498SOL    HW229394   4.370   6.918   6.578
 9499SOL     OW29395   4.940   4.168   5.647
 9499SOL    HW129396   4.955   4.186   5.744
 9499SOL    HW229397   4.991   4.235   5.593
 9500SOL     OW29398   4.420   5.798   0.887
 9500SOL    HW129399   4.387   5.790   0.793
 9500SOL    HW229400   4.518   5.777   0.889
 9501SOL     OW29401   3.239   1.632   4.796
 9501SOL    HW129402   3.197   1.602   4.882
 9501SOL    HW229403   3.206   1.724   4.774
 9502SOL     OW29404   3.648   3.251   6.059
 9502SOL    HW129405   3.603   3.339   6.077
 9502SOL    HW229406   3.650   3.236   5.960
 9503SOL     OW29407   1.069   6.823   1.546
 9503SOL    HW129408   1.169   6.819   1.542
 9503SOL    HW229409   1.033   6.844   1.455
 9504SOL     OW29410   0.205   3.000   0.522
 9504SOL    HW129411   0.248   2.948   0.448
 9504SOL    HW229412   0.236   2.964   0.610
 9505SOL     OW29413   4.861   3.210   3.277
 9505SOL    HW129414   4.922   3.205   3.197
 9505SOL    HW229415   4.881   3.293   3.329
 9506SOL     OW29416   6.449   2.230   1.415
 9506SOL    HW129417   6.515   2.291   1.459
 9506SOL    HW229418   6.363   2.279   1.399
 9507SOL     OW29419   1.362   3.146   5.372
 9507SOL    HW129420   1.389   3.236   5.339
 9507SOL    HW229421   1.370   3.080   5.297
 9508SOL     OW29422   4.535   1.106   5.195
 9508SOL    HW129423   4.511   1.021   5.148
 9508SOL    HW229424   4.507   1.184   5.139
 9509SOL     OW29425   3.811   7.005   6.190
 9509SOL    HW129426   3.812   6.994   6.091
 9509SOL    HW229427   3.767   6.926   6.232
 9510SOL     OW29428   6.857   4.419   2.982
 9510SOL    HW129429   6.812   4.473   2.911
 9510SOL    HW229430   6.796   4.346   3.012
 9511SOL     OW29431   2.122   1.950   1.290
 9511SOL    HW129432   2.034   1.905   1.282
 9511SOL    HW229433   2.156   1.942   1.383
 9512SOL     OW29434   1.834   3.856   5.467
 9512SOL    HW129435   1.838   3.855   5.567
 9512SOL    HW229436   1.742   3.831   5.436
 9513SOL     OW29437   2.719   4.709   4.385
 9513SOL    HW129438   2.638   4.693   4.328
 9513SOL    HW229439   2.696   4.692   4.481
 9514SOL     OW29440   3.108   2.788   5.618
 9514SOL    HW129441   3.188   2.730   5.632
 9514SOL    HW229442   3.029   2.748   5.664
 9515SOL     OW29443   2.301   5.389   5.803
 9515SOL    HW129444   2.205   5.392   5.777
 9515SOL    HW229445   2.352   5.331   5.740
 9516SOL     OW29446   6.188   4.177   4.745
 9516SOL    HW129447   6.092   4.153   4.739
 9516SOL    HW229448   6.210   4.245   4.675
 9517SOL     OW29449   0.733   5.525   2.534
 9517SOL    HW129450   0.749   5.508   2.631
 9517SOL    HW229451   0.658   5.467   2.502
 9518SOL     OW29452   0.868   3.245   5.640
 9518SOL    HW129453   0.873   3.343   5.656
 9518SOL    HW229454   0.946   3.216   5.584
 9519SOL     OW29455   3.325   3.590   3.454
 9519SOL    HW129456   3.371   3.671   3.490
 9519SOL    HW229457   3.357   3.509   3.504
 9520SOL     OW29458   4.993   1.188   6.340
 9520SOL    HW129459   4.989   1.287   6.354
 9520SOL    HW229460   4.902   1.154   6.319
 9521SOL     OW29461   3.885   1.299   1.362
 9521SOL    HW129462   3.946   1.293   1.283
 9521SOL    HW229463   3.794   1.267   1.336
 9522SOL     OW29464   3.905   6.956   1.195
 9522SOL    HW129465   3.937   6.889   1.128
 9522SOL    HW229466   3.926   6.922   1.287
 9523SOL     OW29467   2.665   4.633   4.659
 9523SOL    HW129468   2.740   4.697   4.676
 9523SOL    HW229469   2.619   4.612   4.745
 9524SOL     OW29470   1.689   3.612   0.330
 9524SOL    HW129471   1.787   3.595   0.315
 9524SOL    HW229472   1.635   3.541   0.285
 9525SOL     OW29473   2.367   2.822   6.637
 9525SOL    HW129474   2.398   2.914   6.611
 9525SOL    HW229475   2.292   2.829   6.703
 9526SOL     OW29476   5.276   4.944   6.239
 9526SOL    HW129477   5.331   4.909   6.163
 9526SOL    HW229478   5.191   4.891   6.246
 9527SOL     OW29479   3.891   5.977   4.480
 9527SOL    HW129480   3.812   5.922   4.454
 9527SOL    HW229481   3.861   6.055   4.534
 9528SOL     OW29482   5.006   2.274   1.069
 9528SOL    HW129483   5.052   2.187   1.054
 9528SOL    HW229484   4.972   2.278   1.163
 9529SOL     OW29485   5.943   0.190   2.343
 9529SOL    HW129486   5.928   0.204   2.245
 9529SOL    HW229487   5.855   0.177   2.389
 9530SOL     OW29488   1.100   5.622   3.555
 9530SOL    HW129489   1.151   5.578   3.481
 9530SOL    HW229490   1.025   5.676   3.517
 9531SOL     OW29491   3.676   6.182   1.730
 9531SOL    HW129492   3.669   6.155   1.634
 9531SOL    HW229493   3.768   6.218   1.747
 9532SOL     OW29494   7.021   5.194   4.527
 9532SOL    HW129495   0.052   5.203   4.443
 9532SOL    HW229496   6.926   5.174   4.504
 9533SOL     OW29497   0.878   4.004   3.742
 9533SOL    HW129498   0.915   3.929   3.686
 9533SOL    HW229499   0.933   4.013   3.825
 9534SOL     OW29500   4.976   5.766   4.034
 9534SOL    HW129501   5.048   5.712   3.990
 9534SOL    HW229502   4.932   5.824   3.966
 9535SOL     OW29503   0.276   1.644   4.200
 9535SOL    HW129504   0.369   1.645   4.238
 9535SOL    HW229505   0.210   1.649   4.274
 9536SOL     OW29506   3.500   3.690   5.513
 9536SOL    HW129507   3.479   3.613   5.573
 9536SOL    HW229508   3.433   3.763   5.528
 9537SOL     OW29509   0.312   0.777   3.953
 9537SOL    HW129510   0.275   0.689   3.981
 9537SOL    HW229511   0.271   0.804   3.866
 9538SOL     OW29512   5.366   0.776   5.189
 9538SOL    HW129513   5.422   0.764   5.271
 9538SOL    HW229514   5.407   0.847   5.131
 9539SOL     OW29515   3.741   4.008   2.460
 9539SOL    HW129516   3.693   4.070   2.523
 9539SOL    HW229517   3.815   3.962   2.509
 9540SOL     OW29518   4.531   4.647   3.025
 9540SOL    HW129519   4.499   4.581   2.957
 9540SOL    HW229520   4.453   4.680   3.079
 9541SOL     OW29521   1.545   5.514   5.982
 9541SOL    HW129522   1.498   5.602   5.990
 9541SOL    HW229523   1.574   5.500   5.887
 9542SOL     OW29524   6.118   3.537   3.410
 9542SOL    HW129525   6.098   3.449   3.367
 9542SOL    HW229526   6.127   3.607   3.339
 9543SOL     OW29527   2.520   0.528   5.609
 9543SOL    HW129528   2.433   0.578   5.612
 9543SOL    HW229529   2.504   0.437   5.570
 9544SOL     OW29530   6.228   2.716   4.787
 9544SOL    HW129531   6.180   2.766   4.859
 9544SOL    HW229532   6.163   2.660   4.736
 9545SOL     OW29533   6.582   4.320   1.900
 9545SOL    HW129534   6.564   4.291   1.994
 9545SOL    HW229535   6.579   4.241   1.840
 9546SOL     OW29536   3.147   2.878   1.027
 9546SOL    HW129537   3.239   2.876   1.066
 9546SOL    HW229538   3.096   2.798   1.059
 9547SOL     OW29539   4.357   0.569   3.135
 9547SOL    HW129540   4.332   0.486   3.184
 9547SOL    HW229541   4.456   0.581   3.136
 9548SOL     OW29542   0.860   4.791   5.606
 9548SOL    HW129543   0.954   4.803   5.576
 9548SOL    HW229544   0.859   4.740   5.692
 9549SOL     OW29545   4.718   0.990   1.687
 9549SOL    HW129546   4.755   1.082   1.696
 9549SOL    HW229547   4.653   0.973   1.762
 9550SOL     OW29548   6.815   2.274   1.688
 9550SOL    HW129549   6.849   2.248   1.597
 9550SOL    HW229550   6.785   2.369   1.687
 9551SOL     OW29551   6.425   3.012   6.704
 9551SOL    HW129552   6.381   2.922   6.703
 9551SOL    HW229553   6.371   3.075   6.760
 9552SOL     OW29554   2.934   1.855   6.903
 9552SOL    HW129555   2.973   1.835   6.813
 9552SOL    HW229556   2.934   1.954   6.918
 9553SOL     OW29557   5.510   1.231   6.854
 9553SOL    HW129558   5.558   1.288   6.788
 9553SOL    HW229559   5.514   1.136   6.825
 9554SOL     OW29560   2.604   0.987   4.252
 9554SOL    HW129561   2.601   1.004   4.351
 9554SOL    HW229562   2.696   1.005   4.218
 9555SOL     OW29563   0.617   6.405   2.841
 9555SOL    HW129564   0.596   6.439   2.750
 9555SOL    HW229565   0.538   6.357   2.878
 9556SOL     OW29566   2.379   4.569   6.552
 9556SOL    HW129567   2.279   4.574   6.547
 9556SOL    HW229568   2.418   4.587   6.461
 9557SOL     OW29569   5.984   0.792   0.857
 9557SOL    HW129570   5.950   0.781   0.950
 9557SOL    HW229571   6.054   0.864   0.856
 9558SOL     OW29572   5.078   5.994   5.311
 9558SOL    HW129573   5.122   6.064   5.367
 9558SOL    HW229574   5.003   6.034   5.259
 9559SOL     OW29575   2.476   4.357   0.162
 9559SOL    HW129576   2.456   4.440   0.213
 9559SOL    HW229577   2.557   4.313   0.201
 9560SOL     OW29578   2.562   0.704   1.926
 9560SOL    HW129579   2.607   0.701   2.015
 9560SOL    HW229580   2.608   0.771   1.867
 9561SOL     OW29581   0.124   1.060   0.336
 9561SOL    HW129582   0.210   1.060   0.388
 9561SOL    HW229583   0.137   1.013   0.249
 9562SOL     OW29584   1.711   5.992   3.046
 9562SOL    HW129585   1.691   6.038   3.133
 9562SOL    HW229586   1.809   5.969   3.043
 9563SOL     OW29587   0.368   5.427   6.708
 9563SOL    HW129588   0.453   5.431   6.759
 9563SOL    HW229589   0.386   5.396   6.614
 9564SOL     OW29590   1.206   1.392   0.771
 9564SOL    HW129591   1.284   1.353   0.722
 9564SOL    HW229592   1.122   1.349   0.739
 9565SOL     OW29593   1.805   2.208   4.413
 9565SOL    HW129594   1.860   2.248   4.340
 9565SOL    HW229595   1.853   2.219   4.500
 9566SOL     OW29596   2.847   0.387   7.006
 9566SOL    HW129597   2.917   0.457   0.000
 9566SOL    HW229598   2.806   0.361   0.071
 9567SOL     OW29599   6.995   4.500   0.990
 9567SOL    HW129600   0.004   4.595   0.990
 9567SOL    HW229601   6.899   4.496   1.017
 9568SOL     OW29602   4.463   1.854   5.915
 9568SOL    HW129603   4.369   1.837   5.945
 9568SOL    HW229604   4.465   1.862   5.815
 9569SOL     OW29605   6.052   0.401   1.952
 9569SOL    HW129606   6.037   0.463   2.029
 9569SOL    HW229607   5.984   0.327   1.955
 9570SOL     OW29608   0.931   3.567   2.421
 9570SOL    HW129609   0.859   3.507   2.387
 9570SOL    HW229610   1.014   3.514   2.437
 9571SOL     OW29611   1.857   1.330   6.355
 9571SOL    HW129612   1.885   1.274   6.433
 9571SOL    HW229613   1.910   1.415   6.355
 9572SOL     OW29614   2.358   4.759   4.320
 9572SOL    HW129615   2.352   4.689   4.249
 9572SOL    HW229616   2.287   4.744   4.388
 9573SOL     OW29617   5.712   0.109   4.475
 9573SOL    HW129618   5.692   0.016   4.505
 9573SOL    HW229619   5.801   0.110   4.428
 9574SOL     OW29620   4.431   2.549   0.488
 9574SOL    HW129621   4.432   2.539   0.389
 9574SOL    HW229622   4.521   2.579   0.520
 9575SOL     OW29623   5.396   0.244   1.788
 9575SOL    HW129624   5.390   0.331   1.739
 9575SOL    HW229625   5.325   0.240   1.858
 9576SOL     OW29626   1.285   1.156   5.295
 9576SOL    HW129627   1.211   1.194   5.350
 9576SOL    HW229628   1.248   1.115   5.212
 9577SOL     OW29629   0.078   5.292   3.090
 9577SOL    HW129630   0.167   5.246   3.098
 9577SOL    HW229631   0.052   5.330   3.179
 9578SOL     OW29632   2.128   3.338   3.185
 9578SOL    HW129633   2.115   3.356   3.088
 9578SOL    HW229634   2.186   3.257   3.198
 9579SOL     OW29635   5.424   5.013   2.399
 9579SOL    HW129636   5.330   5.045   2.404
 9579SOL    HW229637   5.447   4.963   2.483
 9580SOL     OW29638   4.912   3.778   3.834
 9580SOL    HW129639   4.883   3.819   3.920
 9580SOL    HW229640   4.884   3.682   3.831
 9581SOL     OW29641   5.165   2.197   6.656
 9581SOL    HW129642   5.172   2.182   6.557
 9581SOL    HW229643   5.162   2.295   6.675
 9582SOL     OW29644   4.250   6.649   5.164
 9582SOL    HW129645   4.307   6.666   5.244
 9582SOL    HW229646   4.304   6.605   5.093
 9583SOL     OW29647   2.969   5.435   1.292
 9583SOL    HW129648   2.984   5.368   1.365
 9583SOL    HW229649   2.915   5.511   1.328
 9584SOL     OW29650   2.191   4.996   4.443
 9584SOL    HW129651   2.233   5.024   4.529
 9584SOL    HW229652   2.139   4.911   4.458
 9585SOL     OW29653   4.569   6.692   0.923
 9585SOL    HW129654   4.644   6.635   0.956
 9585SOL    HW229655   4.606   6.777   0.885
 9586SOL     OW29656   3.185   5.149   3.199
 9586SOL    HW129657   3.275   5.169   3.161
 9586SOL    HW229658   3.163   5.052   3.187
 9587SOL     OW29659   3.711   6.494   7.012
 9587SOL    HW129660   3.778   6.524   6.944
 9587SOL    HW229661   3.751   6.422   0.046
 9588SOL     OW29662   6.719   5.860   0.473
 9588SOL    HW129663   6.674   5.782   0.429
 9588SOL    HW229664   6.818   5.843   0.478
 9589SOL     OW29665   1.536   1.625   6.166
 9589SOL    HW129666   1.469   1.688   6.127
 9589SOL    HW229667   1.628   1.655   6.141
 9590SOL     OW29668   5.936   0.800   1.146
 9590SOL    HW129669   5.929   0.860   1.226
 9590SOL    HW229670   6.000   0.726   1.164
 9591SOL     OW29671   5.139   0.516   6.931
 9591SOL    HW129672   5.099   0.608   6.936
 9591SOL    HW229673   5.208   0.507   7.003
 9592SOL     OW29674   2.017   5.561   5.815
 9592SOL    HW129675   2.007   5.520   5.724
 9592SOL    HW229676   2.109   5.601   5.823
 9593SOL     OW29677   2.086   2.357   3.900
 9593SOL    HW129678   2.028   2.435   3.878
 9593SOL    HW229679   2.082   2.290   3.826
 9594SOL     OW29680   0.170   6.549   3.422
 9594SOL    HW129681   0.212   6.477   3.366
 9594SOL    HW229682   0.115   6.507   3.494
 9595SOL     OW29683   0.462   3.453   3.487
 9595SOL    HW129684   0.502   3.434   3.398
 9595SOL    HW229685   0.534   3.476   3.552
 9596SOL     OW29686   1.731   6.789   0.816
 9596SOL    HW129687   1.638   6.810   0.846
 9596SOL    HW229688   1.795   6.851   0.863
 9597SOL     OW29689   1.263   3.605   2.178
 9597SOL    HW129690   1.222   3.670   2.242
 9597SOL    HW229691   1.346   3.645   2.139
 9598SOL     OW29692   2.377   4.449   3.865
 9598SOL    HW129693   2.278   4.451   3.857
 9598SOL    HW229694   2.404   4.387   3.938
 9599SOL     OW29695   4.843   0.248   4.878
 9599SOL    HW129696   4.878   0.241   4.971
 9599SOL    HW229697   4.789   0.166   4.857
 9600SOL     OW29698   4.006   0.938   0.485
 9600SOL    HW129699   3.996   0.963   0.389
 9600SOL    HW229700   3.933   0.980   0.538
 9601SOL     OW29701   0.465   3.548   0.591
 9601SOL    HW129702   0.507   3.638   0.595
 9601SOL    HW229703   0.492   3.502   0.506
 9602SOL     OW29704   4.176   4.466   5.686
 9602SOL    HW129705   4.230   4.518   5.620
 9602SOL    HW229706   4.138   4.529   5.754
 9603SOL     OW29707   5.396   7.011   5.743
 9603SOL    HW129708   5.372   0.048   5.820
 9603SOL    HW229709   5.387   0.040   5.657
 9604SOL     OW29710   4.841   6.574   1.387
 9604SOL    HW129711   4.773   6.647   1.394
 9604SOL    HW229712   4.830   6.512   1.464
 9605SOL     OW29713   5.003   4.837   1.558
 9605SOL    HW129714   5.015   4.772   1.483
 9605SOL    HW229715   4.992   4.929   1.521
 9606SOL     OW29716   1.600   1.979   6.567
 9606SOL    HW129717   1.616   2.013   6.660
 9606SOL    HW229718   1.506   1.944   6.560
 9607SOL     OW29719   1.545   2.517   6.816
 9607SOL    HW129720   1.639   2.526   6.850
 9607SOL    HW229721   1.523   2.595   6.757
 9608SOL     OW29722   6.306   2.280   4.352
 9608SOL    HW129723   6.238   2.245   4.416
 9608SOL    HW229724   6.369   2.341   4.400
 9609SOL     OW29725   4.974   3.075   0.856
 9609SOL    HW129726   5.072   3.080   0.870
 9609SOL    HW229727   4.926   3.116   0.934
 9610SOL     OW29728   1.099   4.892   2.880
 9610SOL    HW129729   1.043   4.974   2.867
 9610SOL    HW229730   1.195   4.917   2.888
 9611SOL     OW29731   2.664   0.680   0.623
 9611SOL    HW129732   2.656   0.740   0.544
 9611SOL    HW229733   2.671   0.585   0.593
 9612SOL     OW29734   0.102   1.815   3.543
 9612SOL    HW129735   0.124   1.779   3.452
 9612SOL    HW229736   0.116   1.743   3.611
 9613SOL     OW29737   5.989   4.885   4.358
 9613SOL    HW129738   5.903   4.912   4.403
 9613SOL    HW229739   5.996   4.932   4.270
 9614SOL     OW29740   3.962   2.043   3.141
 9614SOL    HW129741   4.040   2.097   3.108
 9614SOL    HW229742   3.963   1.953   3.098
 9615SOL     OW29743   1.567   4.208   1.328
 9615SOL    HW129744   1.576   4.139   1.256
 9615SOL    HW229745   1.501   4.177   1.396
 9616SOL     OW29746   4.477   3.859   5.991
 9616SOL    HW129747   4.513   3.795   6.058
 9616SOL    HW229748   4.551   3.888   5.930
 9617SOL     OW29749   1.444   3.289   2.798
 9617SOL    HW129750   1.509   3.255   2.731
 9617SOL    HW229751   1.354   3.299   2.756
 9618SOL     OW29752   2.340   2.377   0.577
 9618SOL    HW129753   2.286   2.296   0.599
 9618SOL    HW229754   2.430   2.349   0.545
 9619SOL     OW29755   2.546   6.972   6.879
 9619SOL    HW129756   2.552   0.045   6.908
 9619SOL    HW229757   2.620   6.952   6.814
 9620SOL     OW29758   5.367   1.072   5.174
 9620SOL    HW129759   5.448   1.131   5.176
 9620SOL    HW229760   5.312   1.088   5.256
 9621SOL     OW29761   1.862   3.628   3.317
 9621SOL    HW129762   1.780   3.625   3.374
 9621SOL    HW229763   1.873   3.720   3.279
 9622SOL     OW29764   4.250   0.063   0.064
 9622SOL    HW129765   4.178   0.092   0.127
 9622SOL    HW229766   4.240   6.988   0.044
 9623SOL     OW29767   1.355   3.159   6.787
 9623SOL    HW129768   1.267   3.141   6.743
 9623SOL    HW229769   1.343   3.226   6.860
 9624SOL     OW29770   6.660   3.194   3.698
 9624SOL    HW129771   6.748   3.147   3.706
 9624SOL    HW229772   6.586   3.128   3.712
 9625SOL     OW29773   5.766   6.035   1.372
 9625SOL    HW129774   5.702   5.987   1.432
 9625SOL    HW229775   5.829   5.970   1.332
 9626SOL     OW29776   4.105   0.552   0.541
 9626SOL    HW129777   4.080   0.595   0.454
 9626SOL    HW229778   4.139   0.622   0.604
 9627SOL     OW29779   0.960   0.458   0.468
 9627SOL    HW129780   0.947   0.377   0.526
 9627SOL    HW229781   1.057   0.472   0.452
 9628SOL     OW29782   3.789   6.824   2.057
 9628SOL    HW129783   3.741   6.743   2.021
 9628SOL    HW229784   3.827   6.876   1.981
 9629SOL     OW29785   2.436   0.472   0.776
 9629SOL    HW129786   2.399   0.565   0.779
 9629SOL    HW229787   2.433   0.438   0.682
 9630SOL     OW29788   0.301   2.317   6.103
 9630SOL    HW129789   0.215   2.268   6.089
 9630SOL    HW229790   0.330   2.359   6.017
 9631SOL     OW29791   6.986   5.749   0.475
 9631SOL    HW129792   6.985   5.727   0.377
 9631SOL    HW229793   6.968   5.666   0.528
 9632SOL     OW29794   1.608   5.934   2.502
 9632SOL    HW129795   1.628   5.979   2.589
 9632SOL    HW229796   1.622   5.835   2.512
 9633SOL     OW29797   0.326   5.106   6.716
 9633SOL    HW129798   0.278   5.190   6.688
 9633SOL    HW229799   0.262   5.045   6.761
 9634SOL     OW29800   0.048   5.887   5.698
 9634SOL    HW129801   7.001   5.869   5.629
 9634SOL    HW229802   0.019   5.847   5.785
 9635SOL     OW29803   6.986   6.222   5.334
 9635SOL    HW129804   0.055   6.181   5.323
 9635SOL    HW229805   6.917   6.156   5.302
 9636SOL     OW29806   4.277   1.495   0.581
 9636SOL    HW129807   4.262   1.416   0.522
 9636SOL    HW229808   4.285   1.464   0.676
 9637SOL     OW29809   2.558   0.583   6.785
 9637SOL    HW129810   2.643   0.635   6.774
 9637SOL    HW229811   2.573   0.488   6.759
 9638SOL     OW29812   6.739   2.543   6.944
 9638SOL    HW129813   6.767   2.479   6.872
 9638SOL    HW229814   6.650   2.516   6.981
 9639SOL     OW29815   3.392   0.703   2.821
 9639SOL    HW129816   3.306   0.653   2.819
 9639SOL    HW229817   3.415   0.732   2.728
 9640SOL     OW29818   1.535   1.804   3.116
 9640SOL    HW129819   1.562   1.896   3.088
 9640SOL    HW229820   1.616   1.745   3.118
 9641SOL     OW29821   5.216   5.648   6.243
 9641SOL    HW129822   5.262   5.729   6.281
 9641SOL    HW229823   5.274   5.568   6.258
 9642SOL     OW29824   3.176   6.593   3.100
 9642SOL    HW129825   3.183   6.503   3.143
 9642SOL    HW229826   3.177   6.582   3.000
 9643SOL     OW29827   3.925   4.903   2.589
 9643SOL    HW129828   3.954   4.858   2.505
 9643SOL    HW229829   4.003   4.910   2.651
 9644SOL     OW29830   2.433   0.965   0.741
 9644SOL    HW129831   2.390   1.050   0.769
 9644SOL    HW229832   2.529   0.981   0.719
 9645SOL     OW29833   2.770   5.152   5.312
 9645SOL    HW129834   2.780   5.054   5.328
 9645SOL    HW229835   2.834   5.202   5.370
 9646SOL     OW29836   3.353   5.246   3.903
 9646SOL    HW129837   3.357   5.151   3.873
 9646SOL    HW229838   3.327   5.250   3.999
 9647SOL     OW29839   6.536   3.089   6.059
 9647SOL    HW129840   6.626   3.102   6.018
 9647SOL    HW229841   6.514   2.991   6.061
 9648SOL     OW29842   4.147   3.777   0.689
 9648SOL    HW129843   4.117   3.687   0.720
 9648SOL    HW229844   4.070   3.826   0.649
 9649SOL     OW29845   2.190   4.987   1.606
 9649SOL    HW129846   2.182   4.993   1.706
 9649SOL    HW229847   2.176   5.078   1.567
 9650SOL     OW29848   1.587   0.636   1.274
 9650SOL    HW129849   1.604   0.731   1.301
 9650SOL    HW229850   1.490   0.624   1.254
 9651SOL     OW29851   0.736   1.732   0.053
 9651SOL    HW129852   0.753   1.689   6.987
 9651SOL    HW229853   0.820   1.730   0.107
 9652SOL     OW29854   1.527   4.765   1.454
 9652SOL    HW129855   1.484   4.737   1.540
 9652SOL    HW229856   1.534   4.685   1.394
 9653SOL     OW29857   6.082   6.020   4.689
 9653SOL    HW129858   6.178   6.027   4.664
 9653SOL    HW229859   6.029   6.088   4.638
 9654SOL     OW29860   2.151   2.879   2.113
 9654SOL    HW129861   2.179   2.974   2.106
 9654SOL    HW229862   2.231   2.821   2.128
 9655SOL     OW29863   6.337   1.808   0.001
 9655SOL    HW129864   6.265   1.874   0.023
 9655SOL    HW229865   6.367   1.823   6.929
 9656SOL     OW29866   2.308   1.756   2.722
 9656SOL    HW129867   2.237   1.691   2.694
 9656SOL    HW229868   2.295   1.842   2.673
 9657SOL     OW29869   0.101   0.470   4.771
 9657SOL    HW129870   0.173   0.472   4.702
 9657SOL    HW229871   0.088   0.562   4.808
 9658SOL     OW29872   5.820   0.985   2.374
 9658SOL    HW129873   5.800   0.913   2.441
 9658SOL    HW229874   5.759   0.975   2.295
 9659SOL     OW29875   1.614   5.009   6.748
 9659SOL    HW129876   1.656   4.921   6.727
 9659SOL    HW229877   1.560   5.001   6.832
 9660SOL     OW29878   1.043   4.838   0.634
 9660SOL    HW129879   1.096   4.827   0.718
 9660SOL    HW229880   1.011   4.749   0.603
 9661SOL     OW29881   4.171   0.794   0.653
 9661SOL    HW129882   4.123   0.848   0.584
 9661SOL    HW229883   4.111   0.779   0.731
 9662SOL     OW29884   5.238   2.479   3.795
 9662SOL    HW129885   5.297   2.545   3.840
 9662SOL    HW229886   5.273   2.387   3.810
 9663SOL     OW29887   3.005   5.421   2.540
 9663SOL    HW129888   3.049   5.451   2.625
 9663SOL    HW229889   3.028   5.326   2.522
 9664SOL     OW29890   2.960   6.077   1.536
 9664SOL    HW129891   2.906   6.080   1.620
 9664SOL    HW229892   3.057   6.083   1.559
 9665SOL     OW29893   5.640   4.295   3.503
 9665SOL    HW129894   5.713   4.358   3.527
 9665SOL    HW229895   5.553   4.344   3.497
 9666SOL     OW29896   5.915   4.794   4.798
 9666SOL    HW129897   5.996   4.851   4.787
 9666SOL    HW229898   5.838   4.850   4.829
 9667SOL     OW29899   2.916   3.601   3.002
 9667SOL    HW129900   2.897   3.515   3.051
 9667SOL    HW229901   2.935   3.673   3.069
 9668SOL     OW29902   0.411   1.742   5.022
 9668SOL    HW129903   0.375   1.666   5.077
 9668SOL    HW229904   0.350   1.821   5.030
 9669SOL     OW29905   2.007   6.875   6.835
 9669SOL    HW129906   1.968   6.964   6.856
 9669SOL    HW229907   2.084   6.857   6.897
 9670SOL     OW29908   6.532   4.066   6.936
 9670SOL    HW129909   6.583   3.983   6.959
 9670SOL    HW229910   6.434   4.048   6.946
 9671SOL     OW29911   6.696   1.358   0.049
 9671SOL    HW129912   6.789   1.373   0.014
 9671SOL    HW229913   6.669   1.435   0.108
 9672SOL     OW29914   0.631   6.743   5.434
 9672SOL    HW129915   0.630   6.652   5.393
 9672SOL    HW229916   0.562   6.748   5.506
 9673SOL     OW29917   1.943   2.653   6.052
 9673SOL    HW129918   1.950   2.555   6.034
 9673SOL    HW229919   1.872   2.670   6.120
 9674SOL     OW29920   2.504   6.201   2.060
 9674SOL    HW129921   2.601   6.197   2.084
 9674SOL    HW229922   2.493   6.254   1.976
 9675SOL     OW29923   6.753   2.114   2.237
 9675SOL    HW129924   6.799   2.027   2.222
 9675SOL    HW229925   6.682   2.103   2.306
 9676SOL     OW29926   6.793   2.845   4.517
 9676SOL    HW129927   6.802   2.852   4.417
 9676SOL    HW229928   6.869   2.894   4.560
 9677SOL     OW29929   1.678   3.524   5.522
 9677SOL    HW129930   1.603   3.546   5.460
 9677SOL    HW229931   1.678   3.588   5.599
 9678SOL     OW29932   3.800   3.460   2.904
 9678SOL    HW129933   3.828   3.529   2.837
 9678SOL    HW229934   3.736   3.396   2.862
 9679SOL     OW29935   0.642   3.692   1.416
 9679SOL    HW129936   0.679   3.617   1.361
 9679SOL    HW229937   0.714   3.760   1.432
 9680SOL     OW29938   4.496   5.465   2.959
 9680SOL    HW129939   4.431   5.418   2.899
 9680SOL    HW229940   4.571   5.502   2.904
 9681SOL     OW29941   0.857   0.728   3.928
 9681SOL    HW129942   0.759   0.744   3.918
 9681SOL    HW229943   0.908   0.807   3.893
 9682SOL     OW29944   0.850   4.145   2.157
 9682SOL    HW129945   0.870   4.163   2.253
 9682SOL    HW229946   0.753   4.126   2.146
 9683SOL     OW29947   4.149   6.966   5.220
 9683SOL    HW129948   4.102   6.879   5.234
 9683SOL    HW229949   4.111   0.013   5.282
 9684SOL     OW29950   0.823   4.057   3.237
 9684SOL    HW129951   0.765   4.008   3.302
 9684SOL    HW229952   0.769   4.126   3.189
 9685SOL     OW29953   1.768   1.753   6.414
 9685SOL    HW129954   1.799   1.761   6.320
 9685SOL    HW229955   1.722   1.838   6.441
 9686SOL     OW29956   5.918   2.561   2.039
 9686SOL    HW129957   5.893   2.620   1.963
 9686SOL    HW229958   6.000   2.596   2.084
 9687SOL     OW29959   3.093   1.270   4.539
 9687SOL    HW129960   3.116   1.368   4.533
 9687SOL    HW229961   3.169   1.216   4.503
 9688SOL     OW29962   5.332   1.657   4.136
 9688SOL    HW129963   5.275   1.707   4.201
 9688SOL    HW229964   5.314   1.690   4.044
 9689SOL     OW29965   2.891   5.289   5.611
 9689SOL    HW129966   2.972   5.287   5.552
 9689SOL    HW229967   2.894   5.211   5.673
 9690SOL     OW29968   6.445   3.373   0.177
 9690SOL    HW129969   6.499   3.421   0.246
 9690SOL    HW229970   6.415   3.439   0.107
 9691SOL     OW29971   1.468   4.917   0.884
 9691SOL    HW129972   1.368   4.913   0.881
 9691SOL    HW229973   1.504   4.825   0.897
 9692SOL     OW29974   2.992   5.539   0.633
 9692SOL    HW129975   2.924   5.489   0.687
 9692SOL    HW229976   3.062   5.577   0.693
 9693SOL     OW29977   5.998   5.363   1.344
 9693SOL    HW129978   6.045   5.436   1.393
 9693SOL    HW229979   5.918   5.400   1.297
 9694SOL     OW29980   1.051   1.097   0.133
 9694SOL    HW129981   0.966   1.126   0.089
 9694SOL    HW229982   1.038   1.005   0.171
 9695SOL     OW29983   6.347   4.905   0.174
 9695SOL    HW129984   6.363   4.870   0.081
 9695SOL    HW229985   6.303   4.833   0.229
 9696SOL     OW29986   4.124   4.169   6.960
 9696SOL    HW129987   4.163   4.261   6.954
 9696SOL    HW229988   4.052   4.159   6.892
 9697SOL     OW29989   0.230   5.898   6.640
 9697SOL    HW129990   0.282   5.874   6.722
 9697SOL    HW229991   0.259   5.988   6.607
 9698SOL     OW29992   4.718   1.401   5.732
 9698SOL    HW129993   4.743   1.337   5.805
 9698SOL    HW229994   4.643   1.361   5.678
 9699SOL     OW29995   1.379   2.392   6.284
 9699SOL    HW129996   1.328   2.325   6.230
 9699SOL    HW229997   1.417   2.348   6.366
 9700SOL     OW29998   3.839   2.944   3.561
 9700SOL    HW129999   3.850   3.043   3.568
 9700SOL    HW230000   3.842   2.917   3.464
 9701SOL     OW30001   4.210   4.888   3.982
 9701SOL    HW130002   4.225   4.814   4.047
 9701SOL    HW230003   4.297   4.912   3.938
 9702SOL     OW30004   5.315   0.477   0.249
 9702SOL    HW130005   5.263   0.561   0.264
 9702SOL    HW230006   5.311   0.420   0.332
 9703SOL     OW30007   2.738   5.870   4.409
 9703SOL    HW130008   2.754   5.800   4.479
 9703SOL    HW230009   2.810   5.938   4.413
 9704SOL     OW30010   2.650   1.510   3.987
 9704SOL    HW130011   2.551   1.522   3.997
 9704SOL    HW230012   2.669   1.463   3.901
 9705SOL     OW30013   3.684   4.440   0.603
 9705SOL    HW130014   3.736   4.524   0.616
 9705SOL    HW230015   3.684   4.388   0.689
 9706SOL     OW30016   0.031   2.214   3.305
 9706SOL    HW130017   0.006   2.127   3.261
 9706SOL    HW230018   6.972   2.256   3.344
 9707SOL     OW30019   3.341   5.401   1.444
 9707SOL    HW130020   3.395   5.378   1.525
 9707SOL    HW230021   3.384   5.360   1.364
 9708SOL     OW30022   1.737   1.727   1.397
 9708SOL    HW130023   1.706   1.740   1.491
 9708SOL    HW230024   1.673   1.667   1.349
 9709SOL     OW30025   1.768   6.326   3.699
 9709SOL    HW130026   1.677   6.301   3.669
 9709SOL    HW230027   1.820   6.244   3.723
 9710SOL     OW30028   1.320   0.241   3.619
 9710SOL    HW130029   1.405   0.282   3.589
 9710SOL    HW230030   1.251   0.312   3.634
 9711SOL     OW30031   2.107   3.136   5.965
 9711SOL    HW130032   2.100   3.036   5.956
 9711SOL    HW230033   2.033   3.179   5.915
 9712SOL     OW30034   4.878   3.687   4.745
 9712SOL    HW130035   4.783   3.716   4.758
 9712SOL    HW230036   4.901   3.619   4.814
 9713SOL     OW30037   0.214   5.398   3.627
 9713SOL    HW130038   0.311   5.383   3.609
 9713SOL    HW230039   0.165   5.311   3.626
 9714SOL     OW30040   2.603   1.915   2.364
 9714SOL    HW130041   2.676   1.933   2.298
 9714SOL    HW230042   2.543   1.842   2.329
 9715SOL     OW30043   5.540   5.749   6.055
 9715SOL    HW130044   5.442   5.743   6.041
 9715SOL    HW230045   5.579   5.657   6.062
 9716SOL     OW30046   3.228   0.822   6.281
 9716SOL    HW130047   3.147   0.816   6.222
 9716SOL    HW230048   3.287   0.896   6.250
 9717SOL     OW30049   6.090   5.526   3.297
 9717SOL    HW130050   6.171   5.560   3.345
 9717SOL    HW230051   6.009   5.544   3.353
 9718SOL     OW30052   5.819   2.679   1.804
 9718SOL    HW130053   5.726   2.641   1.807
 9718SOL    HW230054   5.858   2.663   1.713
 9719SOL     OW30055   0.163   1.427   0.081
 9719SOL    HW130056   0.228   1.358   0.050
 9719SOL    HW230057   0.210   1.498   0.132
 9720SOL     OW30058   0.934   0.822   0.769
 9720SOL    HW130059   1.012   0.880   0.793
 9720SOL    HW230060   0.933   0.742   0.829
 9721SOL     OW30061   0.263   2.446   3.649
 9721SOL    HW130062   0.227   2.381   3.716
 9721SOL    HW230063   0.284   2.398   3.564
 9722SOL     OW30064   7.014   0.202   4.798
 9722SOL    HW130065   0.028   0.161   4.715
 9722SOL    HW230066   0.023   0.297   4.805
 9723SOL     OW30067   6.614   0.336   4.179
 9723SOL    HW130068   6.626   0.239   4.155
 9723SOL    HW230069   6.617   0.346   4.279
 9724SOL     OW30070   3.920   2.655   1.608
 9724SOL    HW130071   3.883   2.674   1.517
 9724SOL    HW230072   3.847   2.618   1.666
 9725SOL     OW30073   4.067   2.831   5.942
 9725SOL    HW130074   4.151   2.886   5.943
 9725SOL    HW230075   4.019   2.843   6.029
 9726SOL     OW30076   4.768   6.175   4.737
 9726SOL    HW130077   4.806   6.206   4.650
 9726SOL    HW230078   4.689   6.116   4.720
 9727SOL     OW30079   0.544   0.642   6.694
 9727SOL    HW130080   0.519   0.589   6.774
 9727SOL    HW230081   0.473   0.634   6.624
 9728SOL     OW30082   3.173   5.971   6.323
 9728SOL    HW130083   3.188   6.062   6.362
 9728SOL    HW230084   3.098   5.926   6.372
 9729SOL     OW30085   3.407   5.302   2.716
 9729SOL    HW130086   3.389   5.272   2.623
 9729SOL    HW230087   3.458   5.231   2.765
 9730SOL     OW30088   5.133   3.859   2.733
 9730SOL    HW130089   5.047   3.837   2.778
 9730SOL    HW230090   5.124   3.945   2.683
 9731SOL     OW30091   5.023   4.594   0.824
 9731SOL    HW130092   5.102   4.651   0.845
 9731SOL    HW230093   4.978   4.567   0.909
 9732SOL     OW30094   5.013   6.591   4.740
 9732SOL    HW130095   5.026   6.538   4.824
 9732SOL    HW230096   5.101   6.599   4.692
 9733SOL     OW30097   5.111   4.512   4.239
 9733SOL    HW130098   5.074   4.458   4.164
 9733SOL    HW230099   5.087   4.468   4.326
 9734SOL     OW30100   6.501   2.420   5.944
 9734SOL    HW130101   6.581   2.479   5.958
 9734SOL    HW230102   6.525   2.345   5.883
 9735SOL     OW30103   3.026   4.980   0.916
 9735SOL    HW130104   3.027   5.076   0.945
 9735SOL    HW230105   3.110   4.959   0.866
 9736SOL     OW30106   3.696   1.935   1.779
 9736SOL    HW130107   3.664   1.858   1.724
 9736SOL    HW230108   3.670   2.021   1.736
 9737SOL     OW30109   4.126   1.634   4.739
 9737SOL    HW130110   4.072   1.677   4.812
 9737SOL    HW230111   4.131   1.696   4.661
 9738SOL     OW30112   2.437   0.518   2.167
 9738SOL    HW130113   2.338   0.513   2.164
 9738SOL    HW230114   2.476   0.458   2.097
 9739SOL     OW30115   4.991   4.622   2.497
 9739SOL    HW130116   4.966   4.661   2.408
 9739SOL    HW230117   4.918   4.640   2.563
 9740SOL     OW30118   6.803   2.984   3.004
 9740SOL    HW130119   6.861   2.906   3.025
 9740SOL    HW230120   6.707   2.958   3.010
 9741SOL     OW30121   3.820   2.102   2.498
 9741SOL    HW130122   3.733   2.111   2.545
 9741SOL    HW230123   3.806   2.110   2.399
 9742SOL     OW30124   3.673   1.487   3.297
 9742SOL    HW130125   3.650   1.411   3.358
 9742SOL    HW230126   3.689   1.452   3.205
 9743SOL     OW30127   1.074   1.260   5.459
 9743SOL    HW130128   1.043   1.205   5.537
 9743SOL    HW230129   1.122   1.341   5.492
 9744SOL     OW30130   2.674   0.468   1.415
 9744SOL    HW130131   2.685   0.373   1.387
 9744SOL    HW230132   2.635   0.471   1.508
 9745SOL     OW30133   0.820   0.680   4.593
 9745SOL    HW130134   0.790   0.675   4.688
 9745SOL    HW230135   0.875   0.762   4.579
 9746SOL     OW30136   6.015   6.897   4.693
 9746SOL    HW130137   6.044   6.802   4.690
 9746SOL    HW230138   6.094   6.957   4.702
 9747SOL     OW30139   6.724   6.990   6.206
 9747SOL    HW130140   6.720   6.949   6.297
 9747SOL    HW230141   6.639   0.019   6.189
 9748SOL     OW30142   2.053   4.422   4.826
 9748SOL    HW130143   2.034   4.373   4.741
 9748SOL    HW230144   1.970   4.425   4.882
 9749SOL     OW30145   0.436   5.002   4.757
 9749SOL    HW130146   0.404   4.914   4.793
 9749SOL    HW230147   0.367   5.039   4.695
 9750SOL     OW30148   2.514   5.406   2.148
 9750SOL    HW130149   2.609   5.403   2.117
 9750SOL    HW230150   2.456   5.440   2.075
 9751SOL     OW30151   1.172   1.960   0.550
 9751SOL    HW130152   1.204   2.050   0.578
 9751SOL    HW230153   1.072   1.958   0.551
 9752SOL     OW30154   3.504   6.677   6.002
 9752SOL    HW130155   3.476   6.725   5.919
 9752SOL    HW230156   3.600   6.697   6.021
 9753SOL     OW30157   0.093   0.069   0.017
 9753SOL    HW130158   0.079   7.011   6.981
 9753SOL    HW230159   0.104   0.039   0.112
 9754SOL     OW30160   0.057   3.520   6.580
 9754SOL    HW130161   6.996   3.572   6.562
 9754SOL    HW230162   0.125   3.580   6.623
 9755SOL     OW30163   4.170   5.572   4.811
 9755SOL    HW130164   4.078   5.613   4.814
 9755SOL    HW230165   4.236   5.638   4.847
 9756SOL     OW30166   4.694   3.047   6.221
 9756SOL    HW130167   4.749   3.062   6.139
 9756SOL    HW230168   4.643   3.131   6.243
 9757SOL     OW30169   6.136   0.918   4.079
 9757SOL    HW130170   6.146   0.984   4.005
 9757SOL    HW230171   6.039   0.910   4.104
 9758SOL     OW30172   3.412   0.835   0.252
 9758SOL    HW130173   3.510   0.837   0.234
 9758SOL    HW230174   3.396   0.837   0.351
 9759SOL     OW30175   2.852   6.078   1.788
 9759SOL    HW130176   2.788   6.051   1.860
 9759SOL    HW230177   2.920   6.142   1.826
 9760SOL     OW30178   5.118   3.820   6.661
 9760SOL    HW130179   5.187   3.857   6.723
 9760SOL    HW230180   5.041   3.786   6.715
 9761SOL     OW30181   5.163   5.622   2.942
 9761SOL    HW130182   5.260   5.616   2.919
 9761SOL    HW230183   5.145   5.710   2.985
 9762SOL     OW30184   3.308   1.098   2.213
 9762SOL    HW130185   3.238   1.165   2.186
 9762SOL    HW230186   3.275   1.006   2.194
 9763SOL     OW30187   1.903   1.998   1.803
 9763SOL    HW130188   1.993   2.041   1.800
 9763SOL    HW230189   1.879   1.978   1.898
 9764SOL     OW30190   0.369   2.645   4.063
 9764SOL    HW130191   0.418   2.559   4.050
 9764SOL    HW230192   0.382   2.704   3.984
 9765SOL     OW30193   0.552   1.000   5.739
 9765SOL    HW130194   0.645   0.985   5.772
 9765SOL    HW230195   0.555   1.058   5.658
 9766SOL     OW30196   2.744   0.860   2.124
 9766SOL    HW130197   2.698   0.946   2.146
 9766SOL    HW230198   2.822   0.879   2.064
 9767SOL     OW30199   4.029   0.218   5.286
 9767SOL    HW130200   4.090   0.297   5.290
 9767SOL    HW230201   3.979   0.219   5.199
 9768SOL     OW30202   4.367   2.222   3.200
 9768SOL    HW130203   4.374   2.320   3.218
 9768SOL    HW230204   4.448   2.191   3.151
 9769SOL     OW30205   0.131   2.203   0.420
 9769SOL    HW130206   0.228   2.224   0.432
 9769SOL    HW230207   0.083   2.284   0.387
 9770SOL     OW30208   0.680   3.069   5.340
 9770SOL    HW130209   0.633   3.050   5.253
 9770SOL    HW230210   0.698   3.167   5.347
 9771SOL     OW30211   1.749   6.430   3.947
 9771SOL    HW130212   1.758   6.383   3.859
 9771SOL    HW230213   1.766   6.528   3.934
 9772SOL     OW30214   5.917   6.671   1.432
 9772SOL    HW130215   5.913   6.764   1.395
 9772SOL    HW230216   5.825   6.641   1.457
 9773SOL     OW30217   5.312   5.075   4.205
 9773SOL    HW130218   5.225   5.032   4.232
 9773SOL    HW230219   5.323   5.162   4.254
 9774SOL     OW30220   6.622   5.550   4.421
 9774SOL    HW130221   6.669   5.620   4.368
 9774SOL    HW230222   6.684   5.511   4.489
 9775SOL     OW30223   2.587   1.806   4.562
 9775SOL    HW130224   2.563   1.894   4.604
 9775SOL    HW230225   2.583   1.814   4.463
 9776SOL     OW30226   0.572   4.755   4.355
 9776SOL    HW130227   0.595   4.737   4.259
 9776SOL    HW230228   0.501   4.691   4.384
 9777SOL     OW30229   4.701   5.841   5.952
 9777SOL    HW130230   4.693   5.784   5.870
 9777SOL    HW230231   4.793   5.879   5.957
 9778SOL     OW30232   3.191   0.931   4.798
 9778SOL    HW130233   3.195   1.031   4.796
 9778SOL    HW230234   3.246   0.898   4.875
 9779SOL     OW30235   3.366   2.337   6.539
 9779SOL    HW130236   3.407   2.259   6.587
 9779SOL    HW230237   3.399   2.422   6.579
 9780SOL     OW30238   1.439   3.566   1.157
 9780SOL    HW130239   1.442   3.473   1.119
 9780SOL    HW230240   1.505   3.573   1.232
 9781SOL     OW30241   0.541   7.020   4.250
 9781SOL    HW130242   0.533   6.920   4.254
 9781SOL    HW230243   0.625   0.026   4.296
 9782SOL     OW30244   5.918   0.303   1.185
 9782SOL    HW130245   5.868   0.219   1.207
 9782SOL    HW230246   5.958   0.295   1.094
 9783SOL     OW30247   6.128   6.790   3.549
 9783SOL    HW130248   6.112   6.879   3.505
 9783SOL    HW230249   6.128   6.802   3.648
 9784SOL     OW30250   4.726   0.701   4.910
 9784SOL    HW130251   4.716   0.646   4.827
 9784SOL    HW230252   4.767   0.789   4.886
 9785SOL     OW30253   1.219   1.856   1.004
 9785SOL    HW130254   1.176   1.785   0.948
 9785SOL    HW230255   1.239   1.818   1.095
 9786SOL     OW30256   1.829   0.387   3.413
 9786SOL    HW130257   1.865   0.450   3.344
 9786SOL    HW230258   1.837   0.293   3.379
 9787SOL     OW30259   5.887   4.175   1.455
 9787SOL    HW130260   5.933   4.252   1.500
 9787SOL    HW230261   5.864   4.200   1.361
 9788SOL     OW30262   0.112   0.082   6.547
 9788SOL    HW130263   0.022   0.060   6.582
 9788SOL    HW230264   0.114   0.071   6.448
 9789SOL     OW30265   1.830   4.565   4.642
 9789SOL    HW130266   1.805   4.483   4.693
 9789SOL    HW230267   1.875   4.630   4.703
 9790SOL     OW30268   0.381   1.073   3.641
 9790SOL    HW130269   0.317   1.015   3.591
 9790SOL    HW230270   0.329   1.137   3.698
 9791SOL     OW30271   1.147   2.601   0.584
 9791SOL    HW130272   1.241   2.630   0.567
 9791SOL    HW230273   1.096   2.601   0.497
 9792SOL     OW30274   4.753   5.592   2.376
 9792SOL    HW130275   4.815   5.530   2.329
 9792SOL    HW230276   4.682   5.623   2.313
 9793SOL     OW30277   5.548   6.212   2.097
 9793SOL    HW130278   5.483   6.207   2.022
 9793SOL    HW230279   5.499   6.216   2.184
 9794SOL     OW30280   3.427   4.001   6.972
 9794SOL    HW130281   3.349   3.940   6.960
 9794SOL    HW230282   3.400   4.095   6.952
 9795SOL     OW30283   2.256   4.720   2.864
 9795SOL    HW130284   2.315   4.766   2.799
 9795SOL    HW230285   2.160   4.735   2.838
 9796SOL     OW30286   4.151   5.172   6.353
 9796SOL    HW130287   4.094   5.245   6.314
 9796SOL    HW230288   4.095   5.111   6.409
 9797SOL     OW30289   6.243   3.118   5.205
 9797SOL    HW130290   6.327   3.169   5.190
 9797SOL    HW230291   6.265   3.027   5.240
 9798SOL     OW30292   3.383   1.401   2.016
 9798SOL    HW130293   3.299   1.348   2.023
 9798SOL    HW230294   3.362   1.492   1.980
 9799SOL     OW30295   4.104   3.522   3.317
 9799SOL    HW130296   4.095   3.618   3.341
 9799SOL    HW230297   4.067   3.466   3.392
 9800SOL     OW30298   4.120   6.907   0.490
 9800SOL    HW130299   4.119   6.863   0.580
 9800SOL    HW230300   4.161   6.844   0.423
 9801SOL     OW30301   6.099   5.001   1.642
 9801SOL    HW130302   6.066   4.980   1.734
 9801SOL    HW230303   6.138   5.093   1.641
 9802SOL     OW30304   0.650   5.775   2.185
 9802SOL    HW130305   0.582   5.834   2.228
 9802SOL    HW230306   0.731   5.769   2.242
 9803SOL     OW30307   5.566   0.251   6.405
 9803SOL    HW130308   5.502   0.204   6.465
 9803SOL    HW230309   5.533   0.343   6.385
 9804SOL     OW30310   4.606   5.885   4.102
 9804SOL    HW130311   4.535   5.920   4.164
 9804SOL    HW230312   4.572   5.886   4.008
 9805SOL     OW30313   3.667   4.288   0.837
 9805SOL    HW130314   3.764   4.275   0.857
 9805SOL    HW230315   3.613   4.222   0.889
 9806SOL     OW30316   6.885   1.379   2.666
 9806SOL    HW130317   6.803   1.343   2.712
 9806SOL    HW230318   6.866   1.471   2.633
 9807SOL     OW30319   2.326   3.729   1.258
 9807SOL    HW130320   2.421   3.730   1.229
 9807SOL    HW230321   2.268   3.704   1.180
 9808SOL     OW30322   2.441   2.233   2.961
 9808SOL    HW130323   2.368   2.278   3.012
 9808SOL    HW230324   2.402   2.160   2.904
 9809SOL     OW30325   0.747   7.018   4.427
 9809SOL    HW130326   0.825   6.986   4.371
 9809SOL    HW230327   0.713   6.942   4.483
 9810SOL     OW30328   4.783   1.742   2.875
 9810SOL    HW130329   4.725   1.768   2.797
 9810SOL    HW230330   4.731   1.682   2.936
 9811SOL     OW30331   1.222   0.722   3.136
 9811SOL    HW130332   1.189   0.807   3.178
 9811SOL    HW230333   1.276   0.745   3.055
 9812SOL     OW30334   5.846   2.659   6.605
 9812SOL    HW130335   5.763   2.714   6.605
 9812SOL    HW230336   5.892   2.668   6.693
 9813SOL     OW30337   6.233   4.726   0.316
 9813SOL    HW130338   6.151   4.671   0.303
 9813SOL    HW230339   6.228   4.772   0.404
 9814SOL     OW30340   6.544   1.419   6.119
 9814SOL    HW130341   6.461   1.468   6.148
 9814SOL    HW230342   6.586   1.468   6.043
 9815SOL     OW30343   6.885   5.036   2.376
 9815SOL    HW130344   6.951   5.013   2.448
 9815SOL    HW230345   6.894   5.133   2.353
 9816SOL     OW30346   6.959   1.867   5.188
 9816SOL    HW130347   6.869   1.857   5.147
 9816SOL    HW230348   6.970   1.961   5.223
 9817SOL     OW30349   2.434   1.846   0.369
 9817SOL    HW130350   2.352   1.790   0.371
 9817SOL    HW230351   2.426   1.914   0.296
 9818SOL     OW30352   0.273   6.759   2.725
 9818SOL    HW130353   0.314   6.842   2.762
 9818SOL    HW230354   0.210   6.783   2.651
 9819SOL     OW30355   5.844   1.287   4.986
 9819SOL    HW130356   5.937   1.317   4.965
 9819SOL    HW230357   5.789   1.288   4.903
 9820SOL     OW30358   3.531   0.531   6.428
 9820SOL    HW130359   3.586   0.473   6.488
 9820SOL    HW230360   3.500   0.477   6.350
 9821SOL     OW30361   5.067   4.209   6.786
 9821SOL    HW130362   4.977   4.249   6.803
 9821SOL    HW230363   5.079   4.127   6.841
 9822SOL     OW30364   3.594   6.476   3.801
 9822SOL    HW130365   3.518   6.430   3.755
 9822SOL    HW230366   3.660   6.507   3.732
 9823SOL     OW30367   4.190   5.577   3.289
 9823SOL    HW130368   4.090   5.577   3.295
 9823SOL    HW230369   4.221   5.665   3.255
 9824SOL     OW30370   1.449   5.982   5.651
 9824SOL    HW130371   1.427   6.074   5.684
 9824SOL    HW230372   1.371   5.921   5.669
 9825SOL     OW30373   0.713   6.372   4.645
 9825SOL    HW130374   0.755   6.301   4.589
 9825SOL    HW230375   0.763   6.381   4.731
 9826SOL     OW30376   1.869   5.832   5.800
 9826SOL    HW130377   1.861   5.883   5.714
 9826SOL    HW230378   1.911   5.743   5.782
 9827SOL     OW30379   1.244   4.882   1.701
 9827SOL    HW130380   1.168   4.947   1.704
 9827SOL    HW230381   1.209   4.791   1.679
 9828SOL     OW30382   4.840   2.319   4.363
 9828SOL    HW130383   4.924   2.365   4.334
 9828SOL    HW230384   4.852   2.281   4.454
 9829SOL     OW30385   5.363   3.785   5.463
 9829SOL    HW130386   5.308   3.822   5.537
 9829SOL    HW230387   5.449   3.836   5.456
 9830SOL     OW30388   5.798   1.046   3.313
 9830SOL    HW130389   5.807   1.131   3.365
 9830SOL    HW230390   5.751   0.977   3.369
 9831SOL     OW30391   0.786   4.923   1.339
 9831SOL    HW130392   0.772   4.871   1.254
 9831SOL    HW230393   0.770   5.020   1.321
 9832SOL     OW30394   5.318   5.946   5.166
 9832SOL    HW130395   5.299   6.044   5.163
 9832SOL    HW230396   5.250   5.900   5.223
 9833SOL     OW30397   3.622   3.045   4.226
 9833SOL    HW130398   3.546   3.110   4.232
 9833SOL    HW230399   3.649   3.017   4.318
 9834SOL     OW30400   3.377   5.739   6.209
 9834SOL    HW130401   3.450   5.759   6.144
 9834SOL    HW230402   3.307   5.811   6.203
 9835SOL     OW30403   3.620   2.930   3.726
 9835SOL    HW130404   3.700   2.894   3.677
 9835SOL    HW230405   3.638   2.929   3.825
 9836SOL     OW30406   6.877   3.078   6.546
 9836SOL    HW130407   6.914   3.167   6.573
 9836SOL    HW230408   6.808   3.049   6.613
 9837SOL     OW30409   6.166   0.770   4.735
 9837SOL    HW130410   6.208   0.750   4.824
 9837SOL    HW230411   6.195   0.700   4.669
 9838SOL     OW30412   0.568   5.932   0.745
 9838SOL    HW130413   0.573   6.023   0.786
 9838SOL    HW230414   0.498   5.878   0.792
 9839SOL     OW30415   4.013   6.428   3.985
 9839SOL    HW130416   4.039   6.435   4.081
 9839SOL    HW230417   3.956   6.347   3.972
 9840SOL     OW30418   6.181   2.146   6.443
 9840SOL    HW130419   6.220   2.225   6.395
 9840SOL    HW230420   6.157   2.172   6.536
 9841SOL     OW30421   7.006   5.561   2.141
 9841SOL    HW130422   0.077   5.537   2.170
 9841SOL    HW230423   6.948   5.572   2.222
 9842SOL     OW30424   4.072   0.239   0.197
 9842SOL    HW130425   4.050   0.335   0.213
 9842SOL    HW230426   3.991   0.192   0.160
 9843SOL     OW30427   0.669   0.078   0.523
 9843SOL    HW130428   0.677   0.155   0.459
 9843SOL    HW230429   0.690   0.109   0.615
 9844SOL     OW30430   5.728   1.301   4.725
 9844SOL    HW130431   5.648   1.270   4.673
 9844SOL    HW230432   5.721   1.400   4.740
 9845SOL     OW30433   1.172   3.435   2.400
 9845SOL    HW130434   1.136   3.353   2.356
 9845SOL    HW230435   1.207   3.498   2.329
 9846SOL     OW30436   6.078   2.354   2.791
 9846SOL    HW130437   5.982   2.328   2.804
 9846SOL    HW230438   6.084   2.439   2.739
 9847SOL     OW30439   3.883   4.065   6.824
 9847SOL    HW130440   3.940   3.992   6.788
 9847SOL    HW230441   3.813   4.025   6.883
 9848SOL     OW30442   3.078   3.783   5.800
 9848SOL    HW130443   3.161   3.789   5.856
 9848SOL    HW230444   3.091   3.833   5.715
 9849SOL     OW30445   1.442   1.731   2.195
 9849SOL    HW130446   1.376   1.775   2.256
 9849SOL    HW230447   1.472   1.645   2.235
 9850SOL     OW30448   2.075   0.724   4.047
 9850SOL    HW130449   2.077   0.684   3.955
 9850SOL    HW230450   2.126   0.810   4.046
 9851SOL     OW30451   3.243   5.814   4.013
 9851SOL    HW130452   3.234   5.718   4.037
 9851SOL    HW230453   3.153   5.850   3.987
 9852SOL     OW30454   2.512   0.319   6.694
 9852SOL    HW130455   2.453   0.307   6.774
 9852SOL    HW230456   2.601   0.276   6.712
 9853SOL     OW30457   0.124   4.225   4.112
 9853SOL    HW130458   0.092   4.130   4.115
 9853SOL    HW230459   0.057   4.284   4.156
 9854SOL     OW30460   6.259   3.715   0.162
 9854SOL    HW130461   6.210   3.799   0.183
 9854SOL    HW230462   6.352   3.737   0.133
 9855SOL     OW30463   0.610   6.552   0.659
 9855SOL    HW130464   0.580   6.474   0.605
 9855SOL    HW230465   0.574   6.544   0.752
 9856SOL     OW30466   4.721   4.676   3.214
 9856SOL    HW130467   4.677   4.731   3.285
 9856SOL    HW230468   4.655   4.655   3.142
 9857SOL     OW30469   4.804   6.785   5.531
 9857SOL    HW130470   4.904   6.783   5.524
 9857SOL    HW230471   4.773   6.879   5.544
 9858SOL     OW30472   6.670   5.617   2.870
 9858SOL    HW130473   6.680   5.659   2.780
 9858SOL    HW230474   6.578   5.636   2.906
 9859SOL     OW30475   0.415   6.223   2.949
 9859SOL    HW130476   0.325   6.241   2.910
 9859SOL    HW230477   0.413   6.137   3.000
 9860SOL     OW30478   1.257   3.342   3.312
 9860SOL    HW130479   1.257   3.245   3.288
 9860SOL    HW230480   1.300   3.355   3.401
 9861SOL     OW30481   4.041   2.179   4.349
 9861SOL    HW130482   4.048   2.240   4.271
 9861SOL    HW230483   4.060   2.085   4.320
 9862SOL     OW30484   1.490   2.817   6.742
 9862SOL    HW130485   1.411   2.773   6.699
 9862SOL    HW230486   1.543   2.864   6.673
 9863SOL     OW30487   3.688   5.856   1.929
 9863SOL    HW130488   3.781   5.880   1.900
 9863SOL    HW230489   3.655   5.925   1.994
 9864SOL     OW30490   3.032   5.906   5.319
 9864SOL    HW130491   2.969   5.975   5.282
 9864SOL    HW230492   2.987   5.857   5.393
 9865SOL     OW30493   2.729   5.239   6.288
 9865SOL    HW130494   2.790   5.282   6.354
 9865SOL    HW230495   2.645   5.208   6.333
 9866SOL     OW30496   0.663   5.661   5.475
 9866SOL    HW130497   0.659   5.568   5.440
 9866SOL    HW230498   0.618   5.723   5.411
 9867SOL     OW30499   4.962   1.542   2.860
 9867SOL    HW130500   4.886   1.606   2.872
 9867SOL    HW230501   5.042   1.576   2.909
 9868SOL     OW30502   2.273   4.857   3.088
 9868SOL    HW130503   2.332   4.934   3.065
 9868SOL    HW230504   2.280   4.788   3.016
 9869SOL     OW30505   5.448   1.495   2.727
 9869SOL    HW130506   5.543   1.507   2.697
 9869SOL    HW230507   5.386   1.536   2.660
 9870SOL     OW30508   2.229   2.933   2.784
 9870SOL    HW130509   2.215   2.974   2.873
 9870SOL    HW230510   2.145   2.889   2.753
 9871SOL     OW30511   6.032   5.295   3.160
 9871SOL    HW130512   6.067   5.369   3.216
 9871SOL    HW230513   5.992   5.224   3.218
 9872SOL     OW30514   0.823   6.444   4.874
 9872SOL    HW130515   0.772   6.527   4.898
 9872SOL    HW230516   0.904   6.470   4.821
 9873SOL     OW30517   0.643   0.741   5.027
 9873SOL    HW130518   0.674   0.728   5.121
 9873SOL    HW230519   0.694   0.816   4.986
 9874SOL     OW30520   6.747   1.789   3.760
 9874SOL    HW130521   6.690   1.710   3.738
 9874SOL    HW230522   6.709   1.871   3.717
 9875SOL     OW30523   6.039   5.736   0.817
 9875SOL    HW130524   5.942   5.739   0.794
 9875SOL    HW230525   6.061   5.648   0.859
 9876SOL     OW30526   0.429   0.178   3.284
 9876SOL    HW130527   0.372   0.206   3.207
 9876SOL    HW230528   0.463   0.260   3.330
 9877SOL     OW30529   1.455   5.604   5.107
 9877SOL    HW130530   1.414   5.517   5.079
 9877SOL    HW230531   1.467   5.605   5.206
 9878SOL     OW30532   4.580   4.029   0.665
 9878SOL    HW130533   4.606   4.114   0.711
 9878SOL    HW230534   4.480   4.025   0.657
 9879SOL     OW30535   5.493   5.703   4.305
 9879SOL    HW130536   5.439   5.775   4.260
 9879SOL    HW230537   5.582   5.694   4.260
 9880SOL     OW30538   2.567   1.275   0.765
 9880SOL    HW130539   2.644   1.292   0.703
 9880SOL    HW230540   2.481   1.283   0.715
 9881SOL     OW30541   6.415   0.203   3.009
 9881SOL    HW130542   6.332   0.200   2.953
 9881SOL    HW230543   6.391   0.187   3.105
 9882SOL     OW30544   3.177   4.099   4.229
 9882SOL    HW130545   3.172   4.165   4.304
 9882SOL    HW230546   3.126   4.017   4.252
 9883SOL     OW30547   1.427   5.214   3.174
 9883SOL    HW130548   1.370   5.133   3.189
 9883SOL    HW230549   1.521   5.193   3.198
 9884SOL     OW30550   3.357   2.539   5.412
 9884SOL    HW130551   3.307   2.528   5.498
 9884SOL    HW230552   3.304   2.500   5.337
 9885SOL     OW30553   5.088   2.135   5.261
 9885SOL    HW130554   5.010   2.131   5.323
 9885SOL    HW230555   5.089   2.053   5.203
 9886SOL     OW30556   2.465   6.336   1.574
 9886SOL    HW130557   2.379   6.384   1.564
 9886SOL    HW230558   2.532   6.373   1.510
 9887SOL     OW30559   3.778   1.616   0.169
 9887SOL    HW130560   3.875   1.608   0.193
 9887SOL    HW230561   3.738   1.525   0.162
 9888SOL     OW30562   6.278   6.523   4.377
 9888SOL    HW130563   6.345   6.586   4.416
 9888SOL    HW230564   6.325   6.450   4.328
 9889SOL     OW30565   6.684   5.963   2.025
 9889SOL    HW130566   6.641   6.029   1.964
 9889SOL    HW230567   6.783   5.965   2.011
 9890SOL     OW30568   2.001   3.037   3.338
 9890SOL    HW130569   2.029   3.110   3.400
 9890SOL    HW230570   1.927   3.070   3.279
 9891SOL     OW30571   3.715   0.350   1.989
 9891SOL    HW130572   3.639   0.286   1.970
 9891SOL    HW230573   3.715   0.373   2.086
 9892SOL     OW30574   2.417   5.920   3.127
 9892SOL    HW130575   2.332   5.931   3.179
 9892SOL    HW230576   2.485   5.985   3.161
 9893SOL     OW30577   5.748   4.902   4.552
 9893SOL    HW130578   5.709   4.989   4.581
 9893SOL    HW230579   5.744   4.836   4.627
 9894SOL     OW30580   4.139   3.641   5.667
 9894SOL    HW130581   4.196   3.563   5.642
 9894SOL    HW230582   4.189   3.726   5.648
 9895SOL     OW30583   5.055   2.781   6.000
 9895SOL    HW130584   5.070   2.683   5.991
 9895SOL    HW230585   5.083   2.812   6.091
 9896SOL     OW30586   4.059   3.925   0.052
 9896SOL    HW130587   4.073   4.004   7.015
 9896SOL    HW230588   3.965   3.893   0.043
 9897SOL     OW30589   1.058   1.038   2.737
 9897SOL    HW130590   1.001   0.960   2.761
 9897SOL    HW230591   1.155   1.011   2.741
 9898SOL     OW30592   0.479   5.319   7.006
 9898SOL    HW130593   0.398   5.281   6.962
 9898SOL    HW230594   0.476   5.419   7.000
 9899SOL     OW30595   3.704   5.081   0.828
 9899SOL    HW130596   3.637   5.076   0.754
 9899SOL    HW230597   3.783   5.134   0.798
 9900SOL     OW30598   2.539   5.399   3.035
 9900SOL    HW130599   2.515   5.354   3.120
 9900SOL    HW230600   2.463   5.392   2.970
 9901SOL     OW30601   3.107   1.567   6.225
 9901SOL    HW130602   3.069   1.646   6.178
 9901SOL    HW230603   3.155   1.508   6.160
 9902SOL     OW30604   4.016   4.733   7.010
 9902SOL    HW130605   4.010   4.792   0.068
 9902SOL    HW230606   4.049   4.643   0.014
 9903SOL     OW30607   2.849   1.150   0.807
 9903SOL    HW130608   2.808   1.059   0.796
 9903SOL    HW230609   2.933   1.155   0.753
 9904SOL     OW30610   6.380   6.146   1.777
 9904SOL    HW130611   6.300   6.181   1.825
 9904SOL    HW230612   6.459   6.205   1.794
 9905SOL     OW30613   2.470   6.690   0.295
 9905SOL    HW130614   2.481   6.748   0.215
 9905SOL    HW230615   2.513   6.732   0.374
 9906SOL     OW30616   3.327   3.624   6.526
 9906SOL    HW130617   3.387   3.679   6.468
 9906SOL    HW230618   3.247   3.678   6.552
 9907SOL     OW30619   0.933   6.913   3.316
 9907SOL    HW130620   1.029   6.911   3.289
 9907SOL    HW230621   0.913   6.999   3.363
 9908SOL     OW30622   6.590   2.804   6.108
 9908SOL    HW130623   6.635   2.717   6.087
 9908SOL    HW230624   6.575   2.811   6.206
 9909SOL     OW30625   2.456   6.260   2.980
 9909SOL    HW130626   2.441   6.286   3.075
 9909SOL    HW230627   2.368   6.234   2.938
 9910SOL     OW30628   1.013   5.602   0.811
 9910SOL    HW130629   1.090   5.605   0.875
 9910SOL    HW230630   0.940   5.661   0.845
 9911SOL     OW30631   3.039   4.829   1.919
 9911SOL    HW130632   2.982   4.747   1.918
 9911SOL    HW230633   3.119   4.815   1.861
 9912SOL     OW30634   5.810   6.295   0.472
 9912SOL    HW130635   5.874   6.278   0.547
 9912SOL    HW230636   5.861   6.302   0.386
 9913SOL     OW30637   6.485   1.605   2.335
 9913SOL    HW130638   6.557   1.659   2.379
 9913SOL    HW230639   6.508   1.508   2.341
 9914SOL     OW30640   2.143   5.876   3.670
 9914SOL    HW130641   2.214   5.808   3.652
 9914SOL    HW230642   2.060   5.832   3.703
 9915SOL     OW30643   6.212   5.511   3.627
 9915SOL    HW130644   6.299   5.475   3.592
 9915SOL    HW230645   6.211   5.610   3.617
 9916SOL     OW30646   1.765   3.258   0.843
 9916SOL    HW130647   1.813   3.247   0.756
 9916SOL    HW230648   1.672   3.221   0.835
 9917SOL     OW30649   1.859   4.097   4.385
 9917SOL    HW130650   1.829   4.165   4.318
 9917SOL    HW230651   1.955   4.075   4.369
 9918SOL     OW30652   1.899   2.071   3.756
 9918SOL    HW130653   1.850   2.026   3.682
 9918SOL    HW230654   1.834   2.096   3.828
 9919SOL     OW30655   0.687   5.936   1.453
 9919SOL    HW130656   0.656   5.969   1.364
 9919SOL    HW230657   0.611   5.940   1.518
 9920SOL     OW30658   3.250   0.982   3.173
 9920SOL    HW130659   3.245   1.052   3.102
 9920SOL    HW230660   3.211   0.897   3.137
 9921SOL     OW30661   4.736   0.439   2.190
 9921SOL    HW130662   4.748   0.420   2.092
 9921SOL    HW230663   4.663   0.382   2.226
 9922SOL     OW30664   6.568   2.825   2.145
 9922SOL    HW130665   6.481   2.865   2.116
 9922SOL    HW230666   6.560   2.794   2.240
 9923SOL     OW30667   5.555   6.862   6.504
 9923SOL    HW130668   5.617   6.785   6.516
 9923SOL    HW230669   5.605   6.939   6.465
 9924SOL     OW30670   5.679   0.082   3.782
 9924SOL    HW130671   5.639   0.153   3.725
 9924SOL    HW230672   5.626   7.020   3.773
 9925SOL     OW30673   4.086   2.153   5.103
 9925SOL    HW130674   4.099   2.251   5.094
 9925SOL    HW230675   3.993   2.134   5.133
 9926SOL     OW30676   1.602   1.392   6.069
 9926SOL    HW130677   1.566   1.384   5.976
 9926SOL    HW230678   1.574   1.480   6.109
 9927SOL     OW30679   2.299   4.292   4.135
 9927SOL    HW130680   2.208   4.317   4.166
 9927SOL    HW230681   2.367   4.344   4.186
 9928SOL     OW30682   6.838   3.314   2.967
 9928SOL    HW130683   6.853   3.228   3.017
 9928SOL    HW230684   6.782   3.296   2.886
 9929SOL     OW30685   1.089   5.001   5.227
 9929SOL    HW130686   1.009   4.952   5.193
 9929SOL    HW230687   1.162   4.935   5.248
 9930SOL     OW30688   6.654   6.347   6.863
 9930SOL    HW130689   6.681   6.267   6.809
 9930SOL    HW230690   6.692   6.429   6.821
 9931SOL     OW30691   1.374   4.044   0.240
 9931SOL    HW130692   1.398   3.963   0.187
 9931SOL    HW230693   1.436   4.054   0.317
 9932SOL     OW30694   1.575   1.628   1.152
 9932SOL    HW130695   1.596   1.722   1.128
 9932SOL    HW230696   1.501   1.594   1.094
 9933SOL     OW30697   1.775   1.918   3.578
 9933SOL    HW130698   1.781   1.832   3.527
 9933SOL    HW230699   1.680   1.934   3.605
 9934SOL     OW30700   5.008   0.440   5.752
 9934SOL    HW130701   4.953   0.458   5.834
 9934SOL    HW230702   5.037   0.344   5.752
 9935SOL     OW30703   3.415   2.947   0.101
 9935SOL    HW130704   3.493   2.921   0.045
 9935SOL    HW230705   3.337   2.969   0.042
 9936SOL     OW30706   4.570   6.112   0.458
 9936SOL    HW130707   4.492   6.173   0.463
 9936SOL    HW230708   4.539   6.017   0.451
 9937SOL     OW30709   1.476   0.145   5.074
 9937SOL    HW130710   1.428   0.148   4.987
 9937SOL    HW230711   1.569   0.110   5.061
 9938SOL     OW30712   0.877   1.876   3.366
 9938SOL    HW130713   0.934   1.866   3.447
 9938SOL    HW230714   0.932   1.909   3.289
 9939SOL     OW30715   3.166   3.942   0.640
 9939SOL    HW130716   3.256   3.932   0.598
 9939SOL    HW230717   3.106   3.867   0.612
 9940SOL     OW30718   6.555   0.885   2.702
 9940SOL    HW130719   6.590   0.905   2.793
 9940SOL    HW230720   6.622   0.912   2.633
 9941SOL     OW30721   5.746   3.428   0.560
 9941SOL    HW130722   5.811   3.447   0.487
 9941SOL    HW230723   5.792   3.381   0.635
 9942SOL     OW30724   5.197   4.816   2.891
 9942SOL    HW130725   5.164   4.791   2.800
 9942SOL    HW230726   5.131   4.876   2.935
 9943SOL     OW30727   1.209   4.479   5.079
 9943SOL    HW130728   1.253   4.418   5.014
 9943SOL    HW230729   1.248   4.463   5.170
 9944SOL     OW30730   1.947   5.346   6.831
 9944SOL    HW130731   2.015   5.278   6.855
 9944SOL    HW230732   1.871   5.302   6.783
 9945SOL     OW30733   6.058   3.425   5.675
 9945SOL    HW130734   6.050   3.325   5.667
 9945SOL    HW230735   5.990   3.458   5.741
 9946SOL     OW30736   5.946   1.693   0.759
 9946SOL    HW130737   5.942   1.773   0.819
 9946SOL    HW230738   6.031   1.694   0.707
 9947SOL     OW30739   6.864   0.298   3.193
 9947SOL    HW130740   6.914   0.376   3.230
 9947SOL    HW230741   6.832   0.321   3.101
 9948SOL     OW30742   4.840   1.214   5.500
 9948SOL    HW130743   4.922   1.208   5.557
 9948SOL    HW230744   4.818   1.123   5.464
 9949SOL     OW30745   6.790   3.082   2.501
 9949SOL    HW130746   6.826   3.017   2.568
 9949SOL    HW230747   6.807   3.046   2.409
 9950SOL     OW30748   5.614   4.083   6.508
 9950SOL    HW130749   5.517   4.078   6.483
 9950SOL    HW230750   5.624   4.141   6.589
 9951SOL     OW30751   6.373   2.301   2.589
 9951SOL    HW130752   6.449   2.355   2.553
 9951SOL    HW230753   6.298   2.300   2.523
 9952SOL     OW30754   1.665   4.579   1.251
 9952SOL    HW130755   1.686   4.514   1.324
 9952SOL    HW230756   1.748   4.628   1.224
 9953SOL     OW30757   6.132   4.256   5.077
 9953SOL    HW130758   6.039   4.264   5.041
 9953SOL    HW230759   6.162   4.346   5.111
 9954SOL     OW30760   4.466   2.269   1.849
 9954SOL    HW130761   4.458   2.331   1.927
 9954SOL    HW230762   4.435   2.177   1.876
 9955SOL     OW30763   6.178   4.758   2.410
 9955SOL    HW130764   6.136   4.679   2.454
 9955SOL    HW230765   6.261   4.784   2.459
 9956SOL     OW30766   1.111   4.548   3.574
 9956SOL    HW130767   1.184   4.551   3.642
 9956SOL    HW230768   1.150   4.538   3.483
 9957SOL     OW30769   5.723   6.793   0.779
 9957SOL    HW130770   5.687   6.880   0.744
 9957SOL    HW230771   5.650   6.742   0.822
 9958SOL     OW30772   6.446   6.500   5.438
 9958SOL    HW130773   6.425   6.597   5.452
 9958SOL    HW230774   6.453   6.454   5.526
 9959SOL     OW30775   6.209   5.298   0.004
 9959SOL    HW130776   6.278   5.296   0.076
 9959SOL    HW230777   6.177   5.392   7.014
 9960SOL     OW30778   6.489   6.997   6.475
 9960SOL    HW130779   6.579   0.015   6.490
 9960SOL    HW230780   6.442   6.987   6.563
 9961SOL     OW30781   2.906   0.023   0.314
 9961SOL    HW130782   2.980   0.051   0.375
 9961SOL    HW230783   2.935   6.965   0.262
 9962SOL     OW30784   3.943   1.008   1.330
 9962SOL    HW130785   4.006   0.974   1.260
 9962SOL    HW230786   3.931   1.107   1.318
 9963SOL     OW30787   0.367   7.001   6.576
 9963SOL    HW130788   0.385   0.056   6.515
 9963SOL    HW230789   0.275   7.010   6.615
 9964SOL     OW30790   4.547   5.497   4.901
 9964SOL    HW130791   4.453   5.469   4.881
 9964SOL    HW230792   4.608   5.419   4.890
 9965SOL     OW30793   2.231   5.146   4.890
 9965SOL    HW130794   2.201   5.228   4.842
 9965SOL    HW230795   2.283   5.088   4.827
 9966SOL     OW30796   1.863   4.326   2.080
 9966SOL    HW130797   1.956   4.296   2.099
 9966SOL    HW230798   1.852   4.421   2.111
 9967SOL     OW30799   6.810   0.470   2.562
 9967SOL    HW130800   6.753   0.542   2.524
 9967SOL    HW230801   6.770   0.381   2.540
 9968SOL     OW30802   4.046   6.047   0.488
 9968SOL    HW130803   4.061   6.035   0.390
 9968SOL    HW230804   4.129   6.021   0.538
 9969SOL     OW30805   0.808   6.788   3.104
 9969SOL    HW130806   0.826   6.690   3.103
 9969SOL    HW230807   0.847   6.828   3.187
 9970SOL     OW30808   0.984   3.052   1.528
 9970SOL    HW130809   0.975   3.014   1.436
 9970SOL    HW230810   1.041   3.134   1.525
 9971SOL     OW30811   0.324   5.556   6.043
 9971SOL    HW130812   0.334   5.565   5.944
 9971SOL    HW230813   0.360   5.467   6.073
 9972SOL     OW30814   3.240   4.630   5.786
 9972SOL    HW130815   3.169   4.559   5.789
 9972SOL    HW230816   3.226   4.695   5.860
 9973SOL     OW30817   3.134   2.153   2.561
 9973SOL    HW130818   3.217   2.172   2.509
 9973SOL    HW230819   3.158   2.109   2.647
 9974SOL     OW30820   0.504   3.591   3.052
 9974SOL    HW130821   0.468   3.499   3.034
 9974SOL    HW230822   0.467   3.655   2.985
 9975SOL     OW30823   1.466   4.380   6.967
 9975SOL    HW130824   1.553   4.363   6.922
 9975SOL    HW230825   1.404   4.426   6.904
 9976SOL     OW30826   4.351   5.744   4.922
 9976SOL    HW130827   4.387   5.770   4.832
 9976SOL    HW230828   4.392   5.802   4.992
 9977SOL     OW30829   3.861   0.498   5.902
 9977SOL    HW130830   3.904   0.523   5.815
 9977SOL    HW230831   3.882   0.403   5.924
 9978SOL     OW30832   6.404   3.104   0.076
 9978SOL    HW130833   6.443   3.173   0.138
 9978SOL    HW230834   6.365   3.149   7.019
 9979SOL     OW30835   3.513   4.076   3.592
 9979SOL    HW130836   3.556   4.100   3.679
 9979SOL    HW230837   3.415   4.095   3.597
 9980SOL     OW30838   0.106   6.673   6.725
 9980SOL    HW130839   0.206   6.671   6.727
 9980SOL    HW230840   0.070   6.579   6.727
 9981SOL     OW30841   5.216   0.824   1.021
 9981SOL    HW130842   5.177   0.862   1.105
 9981SOL    HW230843   5.281   0.889   0.983
 9982SOL     OW30844   2.899   1.875   5.046
 9982SOL    HW130845   2.966   1.937   5.086
 9982SOL    HW230846   2.855   1.919   4.968
 9983SOL     OW30847   0.761   2.618   2.040
 9983SOL    HW130848   0.795   2.704   2.002
 9983SOL    HW230849   0.670   2.631   2.078
 9984SOL     OW30850   1.336   4.741   1.164
 9984SOL    HW130851   1.315   4.655   1.210
 9984SOL    HW230852   1.422   4.732   1.113
 9985SOL     OW30853   5.412   4.860   6.018
 9985SOL    HW130854   5.354   4.866   5.937
 9985SOL    HW230855   5.494   4.807   5.996
 9986SOL     OW30856   5.934   4.197   6.850
 9986SOL    HW130857   5.943   4.294   6.827
 9986SOL    HW230858   5.850   4.161   6.808
 9987SOL     OW30859   4.966   1.701   0.526
 9987SOL    HW130860   4.958   1.800   0.516
 9987SOL    HW230861   4.878   1.659   0.505
 9988SOL     OW30862   5.395   6.736   3.996
 9988SOL    HW130863   5.347   6.659   3.954
 9988SOL    HW230864   5.392   6.727   4.096
 9989SOL     OW30865   6.344   5.113   2.195
 9989SOL    HW130866   6.420   5.107   2.130
 9989SOL    HW230867   6.354   5.196   2.250
 9990SOL     OW30868   0.228   5.937   2.844
 9990SOL    HW130869   0.140   5.904   2.876
 9990SOL    HW230870   0.220   6.033   2.817
 9991SOL     OW30871   1.983   3.553   1.866
 9991SOL    HW130872   2.029   3.621   1.809
 9991SOL    HW230873   2.013   3.562   1.961
 9992SOL     OW30874   2.048   4.047   0.512
 9992SOL    HW130875   2.130   4.090   0.549
 9992SOL    HW230876   1.983   4.031   0.586
 9993SOL     OW30877   3.678   6.975   4.362
 9993SOL    HW130878   3.630   6.965   4.275
 9993SOL    HW230879   3.702   0.049   4.376
 9994SOL     OW30880   5.943   4.671   5.451
 9994SOL    HW130881   5.937   4.733   5.372
 9994SOL    HW230882   5.917   4.579   5.423
 9995SOL     OW30883   4.391   1.985   6.219
 9995SOL    HW130884   4.398   2.076   6.179
 9995SOL    HW230885   4.472   1.931   6.194
 9996SOL     OW30886   2.539   4.663   1.222
 9996SOL    HW130887   2.505   4.596   1.289
 9996SOL    HW230888   2.636   4.646   1.205
 9997SOL     OW30889   5.407   0.272   3.114
 9997SOL    HW130890   5.405   0.301   3.018
 9997SOL    HW230891   5.444   0.346   3.170
 9998SOL     OW30892   5.571   3.734   2.387
 9998SOL    HW130893   5.522   3.781   2.314
 9998SOL    HW230894   5.554   3.782   2.474
 9999SOL     OW30895   0.760   0.402   4.592
 9999SOL    HW130896   0.661   0.414   4.583
 9999SOL    HW230897   0.805   0.490   4.577
10000SOL     OW30898   4.636   3.388   1.676
10000SOL    HW130899   4.572   3.334   1.622
10000SOL    HW230900   4.719   3.335   1.692
10001SOL     OW30901   4.016   6.744   1.351
10001SOL    HW130902   4.064   6.790   1.426
10001SOL    HW230903   4.039   6.646   1.352
10002SOL     OW30904   2.128   6.592   2.880
10002SOL    HW130905   2.108   6.502   2.917
10002SOL    HW230906   2.168   6.584   2.789
10003SOL     OW30907   0.326   1.409   2.783
10003SOL    HW130908   0.235   1.425   2.822
10003SOL    HW230909   0.394   1.404   2.856
10004SOL     OW30910   0.189   2.600   3.390
10004SOL    HW130911   0.228   2.559   3.472
10004SOL    HW230912   0.256   2.661   3.347
10005SOL     OW30913   2.859   6.033   2.358
10005SOL    HW130914   2.824   5.956   2.411
10005SOL    HW230915   2.824   6.119   2.397
10006SOL     OW30916   5.516   1.806   6.428
10006SOL    HW130917   5.524   1.846   6.519
10006SOL    HW230918   5.420   1.787   6.409
10007SOL     OW30919   1.805   4.849   3.285
10007SOL    HW130920   1.883   4.872   3.342
10007SOL    HW230921   1.749   4.930   3.269
10008SOL     OW30922   4.145   0.735   6.076
10008SOL    HW130923   4.209   0.749   6.000
10008SOL    HW230924   4.052   0.742   6.042
10009SOL     OW30925   1.358   5.407   1.969
10009SOL    HW130926   1.293   5.401   2.045
10009SOL    HW230927   1.346   5.329   1.908
10010SOL     OW30928   2.032   4.943   0.751
10010SOL    HW130929   1.978   4.925   0.834
10010SOL    HW230930   2.016   5.036   0.720
10011SOL     OW30931   3.178   3.417   0.036
10011SOL    HW130932   3.205   3.478   0.111
10011SOL    HW230933   3.250   3.417   6.989
10012SOL     OW30934   5.754   1.965   2.988
10012SOL    HW130935   5.741   1.932   2.895
10012SOL    HW230936   5.720   1.898   3.053
10013SOL     OW30937   0.187   6.207   5.767
10013SOL    HW130938   0.104   6.173   5.725
10013SOL    HW230939   0.242   6.131   5.800
10014SOL     OW30940   1.076   1.190   3.091
10014SOL    HW130941   1.033   1.241   3.165
10014SOL    HW230942   1.006   1.141   3.038
10015SOL     OW30943   4.225   0.691   6.887
10015SOL    HW130944   4.311   0.665   6.932
10015SOL    HW230945   4.165   0.736   6.953
10016SOL     OW30946   2.678   1.228   4.684
10016SOL    HW130947   2.725   1.303   4.637
10016SOL    HW230948   2.604   1.265   4.741
10017SOL     OW30949   3.371   1.731   3.137
10017SOL    HW130950   3.312   1.807   3.111
10017SOL    HW230951   3.449   1.726   3.075
10018SOL     OW30952   0.145   4.734   5.447
10018SOL    HW130953   0.187   4.824   5.456
10018SOL    HW230954   0.106   4.707   5.535
10019SOL     OW30955   6.828   1.658   2.367
10019SOL    HW130956   6.906   1.653   2.429
10019SOL    HW230957   6.788   1.567   2.356
10020SOL     OW30958   6.716   0.860   2.936
10020SOL    HW130959   6.659   0.779   2.952
10020SOL    HW230960   6.678   0.938   2.986
10021SOL     OW30961   2.455   3.961   1.388
10021SOL    HW130962   2.440   3.866   1.361
10021SOL    HW230963   2.466   3.966   1.488
10022SOL     OW30964   1.105   6.545   6.041
10022SOL    HW130965   1.077   6.640   6.034
10022SOL    HW230966   1.142   6.527   6.132
10023SOL     OW30967   1.297   1.611   5.041
10023SOL    HW130968   1.290   1.524   4.991
10023SOL    HW230969   1.323   1.592   5.136
10024SOL     OW30970   1.820   4.170   3.524
10024SOL    HW130971   1.740   4.160   3.465
10024SOL    HW230972   1.824   4.095   3.589
10025SOL     OW30973   0.657   2.809   1.428
10025SOL    HW130974   0.703   2.831   1.341
10025SOL    HW230975   0.710   2.847   1.504
10026SOL     OW30976   6.505   1.198   4.511
10026SOL    HW130977   6.472   1.228   4.422
10026SOL    HW230978   6.540   1.277   4.562
10027SOL     OW30979   3.275   1.417   5.988
10027SOL    HW130980   3.311   1.361   5.914
10027SOL    HW230981   3.207   1.480   5.951
10028SOL     OW30982   3.776   6.301   2.166
10028SOL    HW130983   3.807   6.396   2.167
10028SOL    HW230984   3.854   6.240   2.177
10029SOL     OW30985   0.064   5.250   4.094
10029SOL    HW130986   0.095   5.314   4.023
10029SOL    HW230987   0.095   5.158   4.072
10030SOL     OW30988   2.794   6.904   4.040
10030SOL    HW130989   2.771   6.881   3.946
10030SOL    HW230990   2.877   6.854   4.068
10031SOL     OW30991   1.601   6.906   3.709
10031SOL    HW130992   1.528   6.851   3.670
10031SOL    HW230993   1.563   6.973   3.773
10032SOL     OW30994   2.756   5.707   4.614
10032SOL    HW130995   2.753   5.607   4.613
10032SOL    HW230996   2.815   5.739   4.688
10033SOL     OW30997   2.058   1.457   4.748
10033SOL    HW130998   2.100   1.516   4.679
10033SOL    HW230999   2.003   1.387   4.702
10034SOL     OW31000   2.276   1.427   1.941
10034SOL    HW131001   2.355   1.470   1.897
10034SOL    HW231002   2.299   1.334   1.968
10035SOL     OW31003   0.520   2.936   2.326
10035SOL    HW131004   0.480   2.923   2.235
10035SOL    HW231005   0.465   3.003   2.377
10036SOL     OW31006   0.275   1.618   0.235
10036SOL    HW131007   0.297   1.716   0.240
10036SOL    HW231008   0.309   1.573   0.318
10037SOL     OW31009   6.258   0.691   6.059
10037SOL    HW131010   6.312   0.634   6.121
10037SOL    HW231011   6.161   0.681   6.082
10038SOL     OW31012   4.732   0.123   6.548
10038SOL    HW131013   4.729   0.075   6.636
10038SOL    HW231014   4.646   0.172   6.534
10039SOL     OW31015   0.090   4.776   1.359
10039SOL    HW131016   0.183   4.792   1.329
10039SOL    HW231017   0.029   4.774   1.280
10040SOL     OW31018   2.997   0.468   0.583
10040SOL    HW131019   3.076   0.487   0.642
10040SOL    HW231020   3.008   0.516   0.496
10041SOL     OW31021   5.854   4.433   5.317
10041SOL    HW131022   5.898   4.368   5.378
10041SOL    HW231023   5.770   4.394   5.280
10042SOL     OW31024   6.194   0.725   5.219
10042SOL    HW131025   6.133   0.646   5.222
10042SOL    HW231026   6.273   0.708   5.278
10043SOL     OW31027   0.484   0.339   2.936
10043SOL    HW131028   0.499   0.414   2.872
10043SOL    HW231029   0.568   0.324   2.989
10044SOL     OW31030   3.100   2.405   6.605
10044SOL    HW131031   3.016   2.427   6.556
10044SOL    HW231032   3.156   2.344   6.549
10045SOL     OW31033   4.076   6.856   4.459
10045SOL    HW131034   4.010   6.863   4.385
10045SOL    HW231035   4.094   6.948   4.496
10046SOL     OW31036   6.660   2.081   1.248
10046SOL    HW131037   6.587   2.019   1.277
10046SOL    HW231038   6.647   2.170   1.292
10047SOL     OW31039   0.896   2.956   3.168
10047SOL    HW131040   0.901   2.859   3.145
10047SOL    HW231041   0.935   2.971   3.259
10048SOL     OW31042   3.325   2.086   1.754
10048SOL    HW131043   3.237   2.133   1.752
10048SOL    HW231044   3.360   2.083   1.847
10049SOL     OW31045   1.246   5.481   4.838
10049SOL    HW131046   1.161   5.449   4.880
10049SOL    HW231047   1.312   5.406   4.834
10050SOL     OW31048   5.770   1.092   5.309
10050SOL    HW131049   5.812   1.176   5.343
10050SOL    HW231050   5.833   1.015   5.321
10051SOL     OW31051   6.152   1.671   0.598
10051SOL    HW131052   6.243   1.672   0.642
10051SOL    HW231053   6.154   1.611   0.518
10052SOL     OW31054   1.836   5.375   1.067
10052SOL    HW131055   1.779   5.295   1.051
10052SOL    HW231056   1.855   5.421   0.980
10053SOL     OW31057   2.827   6.407   3.533
10053SOL    HW131058   2.827   6.310   3.508
10053SOL    HW231059   2.825   6.462   3.449
10054SOL     OW31060   4.957   4.532   3.725
10054SOL    HW131061   4.895   4.455   3.739
10054SOL    HW231062   4.906   4.611   3.690
10055SOL     OW31063   5.053   2.900   6.980
10055SOL    HW131064   4.978   2.851   6.937
10055SOL    HW231065   5.125   2.917   6.912
10056SOL     OW31066   4.887   3.740   2.920
10056SOL    HW131067   4.971   3.759   2.971
10056SOL    HW231068   4.855   3.648   2.941
10057SOL     OW31069   2.348   2.683   2.808
10057SOL    HW131070   2.357   2.774   2.766
10057SOL    HW231071   2.402   2.617   2.756
10058SOL     OW31072   0.938   4.955   3.968
10058SOL    HW131073   0.900   4.951   4.060
10058SOL    HW231074   1.016   5.018   3.968
10059SOL     OW31075   4.569   6.269   1.851
10059SOL    HW131076   4.627   6.348   1.833
10059SOL    HW231077   4.474   6.292   1.829
10060SOL     OW31078   2.332   2.363   2.242
10060SOL    HW131079   2.287   2.319   2.320
10060SOL    HW231080   2.414   2.411   2.274
10061SOL     OW31081   0.146   1.751   5.675
10061SOL    HW131082   0.050   1.778   5.675
10061SOL    HW231083   0.194   1.799   5.602
10062SOL     OW31084   5.383   5.942   3.206
10062SOL    HW131085   5.356   5.903   3.118
10062SOL    HW231086   5.478   5.973   3.201
10063SOL     OW31087   0.905   2.560   2.272
10063SOL    HW131088   0.986   2.618   2.261
10063SOL    HW231089   0.847   2.569   2.191
10064SOL     OW31090   5.138   4.797   5.763
10064SOL    HW131091   5.082   4.802   5.679
10064SOL    HW231092   5.083   4.758   5.837
10065SOL     OW31093   0.273   0.246   3.073
10065SOL    HW131094   0.203   0.201   3.017
10065SOL    HW231095   0.347   0.278   3.015
10066SOL     OW31096   0.144   0.320   4.289
10066SOL    HW131097   0.088   0.245   4.252
10066SOL    HW231098   0.091   0.370   4.357
10067SOL     OW31099   4.845   6.486   3.503
10067SOL    HW131100   4.900   6.443   3.432
10067SOL    HW231101   4.749   6.490   3.473
10068SOL     OW31102   5.474   3.305   5.468
10068SOL    HW131103   5.569   3.272   5.467
10068SOL    HW231104   5.412   3.227   5.459
10069SOL     OW31105   4.770   1.702   4.429
10069SOL    HW131106   4.862   1.664   4.429
10069SOL    HW231107   4.722   1.674   4.346
10070SOL     OW31108   1.299   0.313   4.290
10070SOL    HW131109   1.344   0.399   4.267
10070SOL    HW231110   1.345   0.269   4.367
10071SOL     OW31111   4.975   4.492   5.207
10071SOL    HW131112   4.947   4.427   5.278
10071SOL    HW231113   5.020   4.444   5.133
10072SOL     OW31114   0.820   6.232   4.130
10072SOL    HW131115   0.895   6.235   4.195
10072SOL    HW231116   0.856   6.222   4.037
10073SOL     OW31117   6.670   6.101   6.069
10073SOL    HW131118   6.679   6.078   5.972
10073SOL    HW231119   6.573   6.115   6.091
10074SOL     OW31120   2.232   6.670   4.648
10074SOL    HW131121   2.249   6.764   4.616
10074SOL    HW231122   2.137   6.645   4.626
10075SOL     OW31123   0.969   2.811   4.670
10075SOL    HW131124   0.960   2.781   4.764
10075SOL    HW231125   1.055   2.777   4.632
10076SOL     OW31126   5.976   0.004   3.720
10076SOL    HW131127   6.024   0.061   3.654
10076SOL    HW231128   5.889   0.047   3.744
10077SOL     OW31129   2.560   1.370   5.547
10077SOL    HW131130   2.527   1.401   5.458
10077SOL    HW231131   2.540   1.440   5.616
10078SOL     OW31132   5.357   6.224   5.189
10078SOL    HW131133   5.391   6.288   5.258
10078SOL    HW231134   5.360   6.268   5.099
10079SOL     OW31135   0.601   2.636   5.992
10079SOL    HW131136   0.513   2.677   5.969
10079SOL    HW231137   0.663   2.707   6.026
10080SOL     OW31138   1.232   2.797   5.490
10080SOL    HW131139   1.142   2.756   5.473
10080SOL    HW231140   1.273   2.825   5.404
10081SOL     OW31141   0.755   1.093   0.426
10081SOL    HW131142   0.829   1.064   0.366
10081SOL    HW231143   0.667   1.068   0.386
10082SOL     OW31144   6.606   0.665   0.568
10082SOL    HW131145   6.525   0.699   0.520
10082SOL    HW231146   6.651   0.595   0.512
10083SOL     OW31147   5.361   1.433   4.499
10083SOL    HW131148   5.421   1.362   4.536
10083SOL    HW231149   5.267   1.414   4.528
10084SOL     OW31150   2.619   0.648   6.330
10084SOL    HW131151   2.563   0.581   6.378
10084SOL    HW231152   2.709   0.653   6.373
10085SOL     OW31153   1.075   5.368   2.860
10085SOL    HW131154   1.143   5.364   2.786
10085SOL    HW231155   1.020   5.284   2.860
10086SOL     OW31156   7.002   2.886   2.188
10086SOL    HW131157   6.925   2.947   2.169
10086SOL    HW231158   6.967   2.795   2.211
10087SOL     OW31159   2.040   0.722   3.501
10087SOL    HW131160   1.967   0.669   3.545
10087SOL    HW231161   2.035   0.711   3.402
10088SOL     OW31162   5.673   0.339   4.605
10088SOL    HW131163   5.700   0.250   4.567
10088SOL    HW231164   5.574   0.340   4.619
10089SOL     OW31165   2.348   2.634   2.130
10089SOL    HW131166   2.285   2.564   2.099
10089SOL    HW231167   2.441   2.612   2.099
10090SOL     OW31168   0.604   5.490   2.152
10090SOL    HW131169   0.669   5.416   2.169
10090SOL    HW231170   0.652   5.568   2.110
10091SOL     OW31171   0.691   1.533   4.573
10091SOL    HW131172   0.702   1.465   4.645
10091SOL    HW231173   0.718   1.493   4.485
10092SOL     OW31174   1.883   2.939   5.696
10092SOL    HW131175   1.959   2.875   5.686
10092SOL    HW231176   1.858   2.977   5.607
10093SOL     OW31177   6.564   6.794   6.040
10093SOL    HW131178   6.610   6.714   6.079
10093SOL    HW231179   6.606   6.877   6.076
10094SOL     OW31180   1.634   0.397   1.879
10094SOL    HW131181   1.561   0.423   1.943
10094SOL    HW231182   1.646   0.469   1.810
10095SOL     OW31183   0.223   2.066   5.287
10095SOL    HW131184   0.180   2.023   5.207
10095SOL    HW231185   0.184   2.157   5.301
10096SOL     OW31186   6.257   5.632   2.683
10096SOL    HW131187   6.250   5.702   2.612
10096SOL    HW231188   6.318   5.559   2.653
10097SOL     OW31189   1.273   2.936   5.967
10097SOL    HW131190   1.210   2.863   5.942
10097SOL    HW231191   1.240   3.023   5.929
10098SOL     OW31192   3.505   5.487   6.330
10098SOL    HW131193   3.593   5.499   6.283
10098SOL    HW231194   3.440   5.555   6.298
10099SOL     OW31195   0.441   4.065   4.091
10099SOL    HW131196   0.513   4.077   4.024
10099SOL    HW231197   0.353   4.052   4.044
10100SOL     OW31198   5.111   0.256   6.062
10100SOL    HW131199   5.027   0.309   6.047
10100SOL    HW231200   5.120   0.235   6.160
10101SOL     OW31201   6.827   4.498   2.666
10101SOL    HW131202   6.909   4.442   2.655
10101SOL    HW231203   6.843   4.589   2.628
10102SOL     OW31204   3.952   0.980   4.345
10102SOL    HW131205   3.938   1.033   4.261
10102SOL    HW231206   3.876   0.996   4.408
10103SOL     OW31207   0.472   2.698   0.610
10103SOL    HW131208   0.393   2.732   0.662
10103SOL    HW231209   0.530   2.643   0.670
10104SOL     OW31210   2.080   5.352   5.635
10104SOL    HW131211   2.087   5.353   5.535
10104SOL    HW231212   1.988   5.322   5.661
10105SOL     OW31213   3.362   0.523   7.021
10105SOL    HW131214   3.321   0.613   0.010
10105SOL    HW231215   3.367   0.477   0.087
10106SOL     OW31216   4.645   5.470   1.213
10106SOL    HW131217   4.659   5.499   1.308
10106SOL    HW231218   4.719   5.507   1.156
10107SOL     OW31219   5.981   1.201   6.041
10107SOL    HW131220   5.964   1.163   5.950
10107SOL    HW231221   5.998   1.126   6.106
10108SOL     OW31222   4.898   6.062   6.002
10108SOL    HW131223   4.979   6.025   5.957
10108SOL    HW231224   4.867   6.144   5.955
10109SOL     OW31225   5.063   5.599   3.329
10109SOL    HW131226   5.147   5.567   3.285
10109SOL    HW231227   5.027   5.526   3.387
10110SOL     OW31228   3.288   2.039   5.761
10110SOL    HW131229   3.355   2.036   5.836
10110SOL    HW231230   3.304   2.120   5.705
10111SOL     OW31231   6.585   2.426   1.542
10111SOL    HW131232   6.672   2.468   1.567
10111SOL    HW231233   6.512   2.494   1.548
10112SOL     OW31234   4.666   3.893   5.765
10112SOL    HW131235   4.715   3.809   5.788
10112SOL    HW231236   4.607   3.876   5.685
10113SOL     OW31237   3.577   6.878   1.158
10113SOL    HW131238   3.492   6.894   1.208
10113SOL    HW231239   3.633   6.811   1.207
10114SOL     OW31240   4.674   1.618   1.940
10114SOL    HW131241   4.760   1.654   1.978
10114SOL    HW231242   4.648   1.535   1.990
10115SOL     OW31243   1.185   1.750   4.841
10115SOL    HW131244   1.221   1.694   4.916
10115SOL    HW231245   1.223   1.718   4.754
10116SOL     OW31246   0.741   0.551   0.876
10116SOL    HW131247   0.752   0.458   0.911
10116SOL    HW231248   0.711   0.611   0.950
10117SOL     OW31249   4.403   0.046   6.279
10117SOL    HW131250   4.428   0.075   6.371
10117SOL    HW231251   4.305   0.027   6.275
10118SOL     OW31252   5.749   5.037   2.672
10118SOL    HW131253   5.762   5.054   2.574
10118SOL    HW231254   5.678   4.969   2.685
10119SOL     OW31255   1.908   7.022   6.271
10119SOL    HW131256   1.850   6.945   6.246
10119SOL    HW231257   1.898   0.019   6.368
10120SOL     OW31258   5.621   3.522   3.464
10120SOL    HW131259   5.707   3.486   3.499
10120SOL    HW231260   5.609   3.617   3.495
10121SOL     OW31261   5.980   4.615   3.936
10121SOL    HW131262   6.002   4.526   3.975
10121SOL    HW231263   5.914   4.604   3.862
10122SOL     OW31264   5.193   2.657   1.053
10122SOL    HW131265   5.114   2.673   1.113
10122SOL    HW231266   5.189   2.563   1.017
10123SOL     OW31267   0.310   6.649   0.048
10123SOL    HW131268   0.262   6.626   0.132
10123SOL    HW231269   0.296   6.576   7.003
10124SOL     OW31270   3.292   4.240   0.736
10124SOL    HW131271   3.371   4.204   0.785
10124SOL    HW231272   3.211   4.186   0.759
10125SOL     OW31273   2.570   0.372   0.004
10125SOL    HW131274   2.555   0.468   0.026
10125SOL    HW231275   2.666   0.357   7.002
10126SOL     OW31276   5.503   5.452   6.107
10126SOL    HW131277   5.502   5.412   6.016
10126SOL    HW231278   5.598   5.462   6.138
10127SOL     OW31279   4.071   4.802   5.137
10127SOL    HW131280   4.103   4.739   5.208
10127SOL    HW231281   3.977   4.828   5.157
10128SOL     OW31282   1.122   1.173   1.126
10128SOL    HW131283   1.204   1.220   1.155
10128SOL    HW231284   1.078   1.130   1.204
10129SOL     OW31285   5.448   2.652   2.724
10129SOL    HW131286   5.445   2.711   2.644
10129SOL    HW231287   5.366   2.667   2.780
10130SOL     OW31288   5.943   5.595   1.118
10130SOL    HW131289   5.859   5.543   1.136
10130SOL    HW231290   5.924   5.693   1.126
10131SOL     OW31291   0.553   0.029   0.148
10131SOL    HW131292   0.561   0.098   0.221
10131SOL    HW231293   0.544   6.961   0.190
10132SOL     OW31294   2.316   6.851   2.571
10132SOL    HW131295   2.326   6.765   2.521
10132SOL    HW231296   2.319   6.927   2.507
10133SOL     OW31297   6.194   4.231   2.636
10133SOL    HW131298   6.162   4.316   2.595
10133SOL    HW231299   6.171   4.229   2.733
10134SOL     OW31300   0.397   1.416   1.503
10134SOL    HW131301   0.453   1.427   1.584
10134SOL    HW231302   0.311   1.467   1.514
10135SOL     OW31303   3.179   6.069   2.721
10135SOL    HW131304   3.118   6.070   2.800
10135SOL    HW231305   3.131   6.103   2.640
10136SOL     OW31306   6.387   6.716   2.810
10136SOL    HW131307   6.327   6.738   2.733
10136SOL    HW231308   6.464   6.780   2.812
10137SOL     OW31309   5.638   4.938   4.315
10137SOL    HW131310   5.584   4.863   4.275
10137SOL    HW231311   5.684   4.906   4.398
10138SOL     OW31312   6.120   3.116   5.995
10138SOL    HW131313   6.165   3.091   6.081
10138SOL    HW231314   6.039   3.059   5.982
10139SOL     OW31315   3.978   3.371   3.538
10139SOL    HW131316   3.886   3.370   3.499
10139SOL    HW231317   3.978   3.320   3.624
10140SOL     OW31318   1.110   4.952   4.267
10140SOL    HW131319   1.126   4.976   4.172
10140SOL    HW231320   1.109   5.035   4.323
10141SOL     OW31321   2.301   0.708   3.561
10141SOL    HW131322   2.330   0.757   3.642
10141SOL    HW231323   2.211   0.742   3.532
10142SOL     OW31324   5.318   5.641   4.489
10142SOL    HW131325   5.389   5.651   4.419
10142SOL    HW231326   5.237   5.599   4.450
10143SOL     OW31327   4.592   6.399   1.351
10143SOL    HW131328   4.560   6.494   1.340
10143SOL    HW231329   4.568   6.347   1.270
10144SOL     OW31330   2.895   4.830   2.689
10144SOL    HW131331   2.912   4.766   2.613
10144SOL    HW231332   2.896   4.924   2.654
10145SOL     OW31333   3.041   0.391   6.070
10145SOL    HW131334   2.991   0.308   6.047
10145SOL    HW231335   3.094   0.375   6.154
10146SOL     OW31336   4.588   4.845   4.026
10146SOL    HW131337   4.515   4.808   3.968
10146SOL    HW231338   4.654   4.773   4.047
10147SOL     OW31339   4.597   5.795   4.428
10147SOL    HW131340   4.640   5.884   4.440
10147SOL    HW231341   4.524   5.801   4.360
10148SOL     OW31342   6.332   5.639   0.904
10148SOL    HW131343   6.406   5.704   0.923
10148SOL    HW231344   6.311   5.588   0.987
10149SOL     OW31345   3.807   2.758   1.361
10149SOL    HW131346   3.874   2.762   1.287
10149SOL    HW231347   3.801   2.848   1.404
10150SOL     OW31348   5.715   4.475   0.808
10150SOL    HW131349   5.799   4.479   0.862
10150SOL    HW231350   5.698   4.381   0.779
10151SOL     OW31351   0.446   5.292   6.037
10151SOL    HW131352   0.479   5.203   6.068
10151SOL    HW231353   0.410   5.284   5.944
10152SOL     OW31354   0.591   5.759   4.104
10152SOL    HW131355   0.616   5.689   4.171
10152SOL    HW231356   0.621   5.729   4.013
10153SOL     OW31357   5.302   5.305   4.025
10153SOL    HW131358   5.372   5.347   4.082
10153SOL    HW231359   5.271   5.220   4.068
10154SOL     OW31360   6.488   6.000   5.438
10154SOL    HW131361   6.529   5.957   5.357
10154SOL    HW231362   6.560   6.042   5.493
10155SOL     OW31363   3.651   1.267   5.749
10155SOL    HW131364   3.597   1.252   5.666
10155SOL    HW231365   3.606   1.335   5.806
10156SOL     OW31366   5.487   6.972   2.477
10156SOL    HW131367   5.572   0.001   2.471
10156SOL    HW231368   5.503   6.877   2.450
10157SOL     OW31369   4.996   0.630   3.882
10157SOL    HW131370   5.032   0.711   3.836
10157SOL    HW231371   5.072   0.568   3.904
10158SOL     OW31372   4.810   3.228   6.037
10158SOL    HW131373   4.886   3.292   6.034
10158SOL    HW231374   4.737   3.264   6.094
10159SOL     OW31375   1.480   0.990   6.405
10159SOL    HW131376   1.525   1.068   6.362
10159SOL    HW231377   1.547   0.935   6.455
10160SOL     OW31378   0.652   6.214   3.821
10160SOL    HW131379   0.666   6.313   3.820
10160SOL    HW231380   0.609   6.187   3.908
10161SOL     OW31381   2.906   5.713   4.864
10161SOL    HW131382   3.000   5.743   4.879
10161SOL    HW231383   2.893   5.622   4.901
10162SOL     OW31384   2.993   2.707   6.364
10162SOL    HW131385   2.918   2.653   6.400
10162SOL    HW231386   3.078   2.683   6.412
10163SOL     OW31387   0.648   3.549   5.652
10163SOL    HW131388   0.607   3.527   5.563
10163SOL    HW231389   0.598   3.625   5.694
10164SOL     OW31390   1.498   2.503   6.047
10164SOL    HW131391   1.465   2.442   6.119
10164SOL    HW231392   1.514   2.594   6.084
10165SOL     OW31393   6.937   2.260   2.987
10165SOL    HW131394   0.015   2.264   2.984
10165SOL    HW231395   6.899   2.288   2.899
10166SOL     OW31396   0.765   0.809   2.609
10166SOL    HW131397   0.754   0.902   2.574
10166SOL    HW231398   0.675   0.771   2.631
10167SOL     OW31399   5.028   0.745   0.803
10167SOL    HW131400   4.989   0.835   0.823
10167SOL    HW231401   5.098   0.723   0.871
10168SOL     OW31402   6.665   4.490   4.624
10168SOL    HW131403   6.711   4.574   4.596
10168SOL    HW231404   6.611   4.507   4.706
10169SOL     OW31405   6.643   4.065   5.187
10169SOL    HW131406   6.662   4.115   5.102
10169SOL    HW231407   6.713   4.087   5.255
10170SOL     OW31408   1.406   4.304   4.937
10170SOL    HW131409   1.456   4.383   4.901
10170SOL    HW231410   1.346   4.268   4.865
10171SOL     OW31411   6.099   2.586   6.503
10171SOL    HW131412   6.012   2.610   6.547
10171SOL    HW231413   6.091   2.600   6.404
10172SOL     OW31414   5.012   0.475   4.782
10172SOL    HW131415   4.969   0.388   4.809
10172SOL    HW231416   5.019   0.478   4.682
10173SOL     OW31417   1.998   2.859   2.692
10173SOL    HW131418   1.933   2.826   2.761
10173SOL    HW231419   2.023   2.783   2.631
10174SOL     OW31420   6.456   4.248   1.363
10174SOL    HW131421   6.506   4.199   1.291
10174SOL    HW231422   6.450   4.345   1.339
10175SOL     OW31423   5.805   2.584   5.702
10175SOL    HW131424   5.789   2.521   5.778
10175SOL    HW231425   5.734   2.570   5.632
10176SOL     OW31426   2.613   3.191   0.778
10176SOL    HW131427   2.580   3.286   0.775
10176SOL    HW231428   2.554   3.137   0.837
10177SOL     OW31429   1.328   0.004   5.243
10177SOL    HW131430   1.372   0.063   5.175
10177SOL    HW231431   1.362   0.027   5.334
10178SOL     OW31432   5.470   2.906   5.010
10178SOL    HW131433   5.524   2.907   5.094
10178SOL    HW231434   5.513   2.963   4.941
10179SOL     OW31435   7.021   3.264   0.252
10179SOL    HW131436   6.947   3.280   0.317
10179SOL    HW231437   7.012   3.173   0.211
10180SOL     OW31438   2.096   6.696   6.263
10180SOL    HW131439   2.035   6.680   6.185
10180SOL    HW231440   2.127   6.608   6.299
10181SOL     OW31441   6.311   3.640   2.244
10181SOL    HW131442   6.347   3.633   2.337
10181SOL    HW231443   6.314   3.735   2.214
10182SOL     OW31444   3.983   1.829   0.566
10182SOL    HW131445   4.030   1.889   0.502
10182SOL    HW231446   3.990   1.735   0.536
10183SOL     OW31447   1.906   1.443   5.972
10183SOL    HW131448   1.878   1.480   5.883
10183SOL    HW231449   1.831   1.390   6.011
10184SOL     OW31450   4.728   0.126   6.883
10184SOL    HW131451   4.646   0.088   6.925
10184SOL    HW231452   4.792   0.052   6.861
10185SOL     OW31453   4.572   0.959   0.432
10185SOL    HW131454   4.476   0.975   0.452
10185SOL    HW231455   4.580   0.902   0.349
10186SOL     OW31456   4.602   2.290   2.826
10186SOL    HW131457   4.558   2.240   2.751
10186SOL    HW231458   4.643   2.225   2.890
10187SOL     OW31459   0.551   2.356   2.498
10187SOL    HW131460   0.463   2.320   2.465
10187SOL    HW231461   0.535   2.440   2.550
10188SOL     OW31462   4.126   5.591   0.495
10188SOL    HW131463   4.035   5.556   0.520
10188SOL    HW231464   4.157   5.546   0.411
10189SOL     OW31465   1.102   6.751   4.933
10189SOL    HW131466   1.146   6.665   4.906
10189SOL    HW231467   1.157   6.795   5.005
10190SOL     OW31468   5.725   3.040   6.937
10190SOL    HW131469   5.767   3.131   6.932
10190SOL    HW231470   5.680   3.029   0.004
10191SOL     OW31471   6.769   4.580   6.721
10191SOL    HW131472   6.823   4.569   6.804
10191SOL    HW231473   6.681   4.533   6.732
10192SOL     OW31474   3.516   1.740   0.090
10192SOL    HW131475   3.466   1.663   0.052
10192SOL    HW231476   3.607   1.711   0.119
10193SOL     OW31477   5.045   4.117   0.672
10193SOL    HW131478   5.041   4.210   0.708
10193SOL    HW231479   5.056   4.052   0.747
10194SOL     OW31480   4.988   2.656   5.037
10194SOL    HW131481   4.939   2.631   4.954
10194SOL    HW231482   5.052   2.731   5.018
10195SOL     OW31483   5.631   4.428   2.478
10195SOL    HW131484   5.666   4.493   2.546
10195SOL    HW231485   5.590   4.479   2.402
10196SOL     OW31486   0.533   1.721   4.248
10196SOL    HW131487   0.619   1.681   4.216
10196SOL    HW231488   0.518   1.809   4.202
10197SOL     OW31489   5.522   0.387   0.054
10197SOL    HW131490   5.501   0.439   6.993
10197SOL    HW231491   5.468   0.423   0.130
10198SOL     OW31492   4.078   6.971   2.802
10198SOL    HW131493   4.021   0.029   2.815
10198SOL    HW231494   4.062   6.932   2.711
10199SOL     OW31495   0.641   2.479   5.728
10199SOL    HW131496   0.623   2.532   5.811
10199SOL    HW231497   0.564   2.417   5.712
10200SOL     OW31498   5.452   2.267   2.125
10200SOL    HW131499   5.542   2.255   2.083
10200SOL    HW231500   5.385   2.293   2.056
10201SOL     OW31501   1.928   3.567   0.700
10201SOL    HW131502   1.960   3.477   0.669
10201SOL    HW231503   2.004   3.616   0.743
10202SOL     OW31504   5.313   0.314   3.756
10202SOL    HW131505   5.272   0.231   3.793
10202SOL    HW231506   5.407   0.295   3.727
10203SOL     OW31507   0.247   2.951   5.253
10203SOL    HW131508   0.274   2.869   5.304
10203SOL    HW231509   0.216   3.021   5.316
10204SOL     OW31510   5.150   4.240   6.527
10204SOL    HW131511   5.141   4.216   6.624
10204SOL    HW231512   5.073   4.203   6.476
10205SOL     OW31513   0.299   1.463   6.583
10205SOL    HW131514   0.297   1.472   6.484
10205SOL    HW231515   0.267   1.549   6.625
10206SOL     OW31516   1.832   1.911   4.556
10206SOL    HW131517   1.851   1.914   4.458
10206SOL    HW231518   1.846   2.002   4.595
10207SOL     OW31519   2.257   2.532   6.237
10207SOL    HW131520   2.279   2.546   6.141
10207SOL    HW231521   2.342   2.527   6.291
10208SOL     OW31522   6.706   0.314   5.940
10208SOL    HW131523   6.680   0.229   5.893
10208SOL    HW231524   6.765   0.291   6.018
10209SOL     OW31525   6.666   6.714   5.362
10209SOL    HW131526   6.690   6.623   5.396
10209SOL    HW231527   6.747   6.756   5.320
10210SOL     OW31528   3.554   0.555   1.762
10210SOL    HW131529   3.593   0.632   1.813
10210SOL    HW231530   3.625   0.486   1.749
10211SOL     OW31531   5.100   5.382   6.000
10211SOL    HW131532   5.036   5.316   6.040
10211SOL    HW231533   5.058   5.473   6.002
10212SOL     OW31534   0.283   0.305   0.087
10212SOL    HW131535   0.254   0.221   0.133
10212SOL    HW231536   0.299   0.377   0.155
10213SOL     OW31537   6.635   3.020   1.459
10213SOL    HW131538   6.659   2.949   1.526
10213SOL    HW231539   6.698   3.015   1.381
10214SOL     OW31540   1.634   2.664   0.390
10214SOL    HW131541   1.583   2.677   0.305
10214SOL    HW231542   1.684   2.747   0.412
10215SOL     OW31543   3.487   3.832   2.177
10215SOL    HW131544   3.583   3.834   2.147
10215SOL    HW231545   3.474   3.899   2.251
10216SOL     OW31546   0.121   6.359   1.757
10216SOL    HW131547   0.187   6.396   1.691
10216SOL    HW231548   0.062   6.432   1.791
10217SOL     OW31549   4.027   1.806   4.951
10217SOL    HW131550   4.052   1.753   5.032
10217SOL    HW231551   4.082   1.889   4.947
10218SOL     OW31552   1.099   2.721   2.858
10218SOL    HW131553   1.179   2.748   2.805
10218SOL    HW231554   1.068   2.630   2.829
10219SOL     OW31555   6.442   6.149   2.934
10219SOL    HW131556   6.358   6.191   2.969
10219SOL    HW231557   6.521   6.198   2.971
10220SOL     OW31558   3.483   3.629   0.017
10220SOL    HW131559   3.441   3.577   6.965
10220SOL    HW231560   3.431   3.615   0.101
10221SOL     OW31561   1.366   5.326   2.917
10221SOL    HW131562   1.273   5.361   2.931
10221SOL    HW231563   1.405   5.300   3.006
10222SOL     OW31564   3.104   3.602   3.684
10222SOL    HW131565   3.203   3.609   3.669
10222SOL    HW231566   3.056   3.641   3.605
10223SOL     OW31567   2.771   6.858   0.784
10223SOL    HW131568   2.671   6.850   0.781
10223SOL    HW231569   2.799   6.895   0.873
10224SOL     OW31570   6.837   3.145   3.222
10224SOL    HW131571   6.745   3.184   3.231
10224SOL    HW231572   6.841   3.088   3.140
10225SOL     OW31573   1.754   3.848   6.039
10225SOL    HW131574   1.810   3.904   5.978
10225SOL    HW231575   1.795   3.848   6.131
10226SOL     OW31576   4.306   4.393   6.876
10226SOL    HW131577   4.314   4.346   6.789
10226SOL    HW231578   4.369   4.352   6.942
10227SOL     OW31579   5.339   4.109   1.010
10227SOL    HW131580   5.271   4.059   0.956
10227SOL    HW231581   5.350   4.201   0.972
10228SOL     OW31582   5.704   0.649   0.338
10228SOL    HW131583   5.769   0.608   0.274
10228SOL    HW231584   5.664   0.731   0.297
10229SOL     OW31585   0.333   1.852   4.448
10229SOL    HW131586   0.278   1.868   4.366
10229SOL    HW231587   0.338   1.754   4.466
10230SOL     OW31588   6.460   5.969   1.601
10230SOL    HW131589   6.432   6.025   1.679
10230SOL    HW231590   6.537   5.911   1.627
10231SOL     OW31591   0.239   3.931   2.038
10231SOL    HW131592   0.296   3.938   2.120
10231SOL    HW231593   0.155   3.881   2.059
10232SOL     OW31594   4.723   4.975   2.167
10232SOL    HW131595   4.784   4.917   2.114
10232SOL    HW231596   4.660   4.918   2.219
10233SOL     OW31597   3.211   3.556   6.160
10233SOL    HW131598   3.256   3.629   6.211
10233SOL    HW231599   3.260   3.539   6.075
10234SOL     OW31600   0.501   0.610   2.356
10234SOL    HW131601   0.517   0.512   2.345
10234SOL    HW231602   0.443   0.642   2.281
10235SOL     OW31603   0.727   0.579   3.122
10235SOL    HW131604   0.714   0.616   3.214
10235SOL    HW231605   0.661   0.622   3.060
10236SOL     OW31606   1.204   0.508   2.720
10236SOL    HW131607   1.199   0.602   2.754
10236SOL    HW231608   1.157   0.447   2.784
10237SOL     OW31609   6.735   3.836   5.685
10237SOL    HW131610   6.697   3.889   5.609
10237SOL    HW231611   6.661   3.809   5.747
10238SOL     OW31612   2.733   0.195   1.381
10238SOL    HW131613   2.683   0.160   1.302
10238SOL    HW231614   2.831   0.180   1.367
10239SOL     OW31615   1.362   2.303   5.114
10239SOL    HW131616   1.348   2.213   5.156
10239SOL    HW231617   1.295   2.368   5.152
10240SOL     OW31618   1.868   6.219   1.356
10240SOL    HW131619   1.882   6.318   1.355
10240SOL    HW231620   1.775   6.200   1.388
10241SOL     OW31621   4.061   3.702   1.883
10241SOL    HW131622   4.033   3.671   1.974
10241SOL    HW231623   4.026   3.795   1.868
10242SOL     OW31624   0.377   3.742   1.214
10242SOL    HW131625   0.451   3.727   1.279
10242SOL    HW231626   0.382   3.673   1.142
10243SOL     OW31627   3.660   5.427   2.089
10243SOL    HW131628   3.698   5.356   2.030
10243SOL    HW231629   3.561   5.416   2.095
10244SOL     OW31630   2.162   5.427   1.602
10244SOL    HW131631   2.131   5.370   1.526
10244SOL    HW231632   2.183   5.519   1.567
10245SOL     OW31633   6.214   4.147   1.444
10245SOL    HW131634   6.303   4.187   1.425
10245SOL    HW231635   6.143   4.217   1.434
10246SOL     OW31636   3.698   3.381   3.468
10246SOL    HW131637   3.675   3.423   3.380
10246SOL    HW231638   3.636   3.416   3.538
10247SOL     OW31639   0.652   3.546   4.855
10247SOL    HW131640   0.633   3.637   4.819
10247SOL    HW231641   0.567   3.505   4.888
10248SOL     OW31642   0.778   1.378   4.374
10248SOL    HW131643   0.876   1.386   4.391
10248SOL    HW231644   0.748   1.286   4.399
10249SOL     OW31645   2.431   4.274   5.936
10249SOL    HW131646   2.495   4.223   5.992
10249SOL    HW231647   2.342   4.277   5.981
10250SOL     OW31648   3.072   2.881   0.176
10250SOL    HW131649   3.140   2.810   0.198
10250SOL    HW231650   3.018   2.901   0.258
10251SOL     OW31651   1.169   0.699   5.018
10251SOL    HW131652   1.100   0.706   4.946
10251SOL    HW231653   1.207   0.606   5.019
10252SOL     OW31654   5.276   4.143   6.076
10252SOL    HW131655   5.300   4.114   6.169
10252SOL    HW231656   5.350   4.119   6.013
10253SOL     OW31657   3.643   5.822   0.257
10253SOL    HW131658   3.625   5.880   0.336
10253SOL    HW231659   3.572   5.751   0.251
10254SOL     OW31660   6.457   1.544   6.516
10254SOL    HW131661   6.554   1.558   6.497
10254SOL    HW231662   6.442   1.544   6.615
10255SOL     OW31663   4.078   4.640   1.651
10255SOL    HW131664   4.068   4.680   1.560
10255SOL    HW231665   4.012   4.566   1.662
10256SOL     OW31666   2.520   1.445   4.440
10256SOL    HW131667   2.503   1.479   4.532
10256SOL    HW231668   2.472   1.502   4.374
10257SOL     OW31669   3.235   5.900   3.369
10257SOL    HW131670   3.319   5.927   3.417
10257SOL    HW231671   3.160   5.894   3.435
10258SOL     OW31672   3.045   1.800   2.268
10258SOL    HW131673   3.064   1.800   2.170
10258SOL    HW231674   3.040   1.705   2.300
10259SOL     OW31675   1.490   4.035   3.767
10259SOL    HW131676   1.489   3.987   3.679
10259SOL    HW231677   1.426   3.989   3.830
10260SOL     OW31678   0.491   6.957   3.653
10260SOL    HW131679   0.531   0.017   3.614
10260SOL    HW231680   0.452   6.978   3.743
10261SOL     OW31681   6.910   4.092   1.485
10261SOL    HW131682   6.933   4.014   1.426
10261SOL    HW231683   6.927   4.068   1.581
10262SOL     OW31684   3.839   0.696   6.988
10262SOL    HW131685   3.751   0.724   0.002
10262SOL    HW231686   3.906   0.769   7.005
10263SOL     OW31687   5.379   0.046   3.267
10263SOL    HW131688   5.366   0.121   3.203
10263SOL    HW231689   5.357   6.981   3.222
10264SOL     OW31690   6.771   1.079   6.138
10264SOL    HW131691   6.827   1.127   6.070
10264SOL    HW231692   6.830   1.018   6.192
10265SOL     OW31693   1.684   1.042   2.472
10265SOL    HW131694   1.692   0.944   2.458
10265SOL    HW231695   1.764   1.076   2.521
10266SOL     OW31696   2.803   3.637   1.229
10266SOL    HW131697   2.881   3.692   1.199
10266SOL    HW231698   2.826   3.589   1.314
10267SOL     OW31699   6.328   0.501   0.704
10267SOL    HW131700   6.346   0.593   0.739
10267SOL    HW231701   6.414   0.460   0.673
10268SOL     OW31702   3.323   5.606   2.583
10268SOL    HW131703   3.260   5.565   2.518
10268SOL    HW231704   3.403   5.641   2.534
10269SOL     OW31705   2.453   1.578   0.061
10269SOL    HW131706   2.508   1.522   7.022
10269SOL    HW231707   2.451   1.672   0.028
10270SOL     OW31708   2.484   6.945   3.452
10270SOL    HW131709   2.444   7.019   3.397
10270SOL    HW231710   2.575   6.974   3.484
10271SOL     OW31711   2.191   1.347   6.856
10271SOL    HW131712   2.283   1.320   6.829
10271SOL    HW231713   2.158   1.419   6.795
10272SOL     OW31714   5.736   6.903   4.805
10272SOL    HW131715   5.708   6.996   4.782
10272SOL    HW231716   5.836   6.898   4.807
10273SOL     OW31717   1.845   5.477   3.033
10273SOL    HW131718   1.802   5.543   2.972
10273SOL    HW231719   1.944   5.477   3.019
10274SOL     OW31720   1.064   4.211   5.162
10274SOL    HW131721   1.069   4.279   5.235
10274SOL    HW231722   1.002   4.244   5.090
10275SOL     OW31723   0.108   0.702   1.926
10275SOL    HW131724   0.021   0.716   1.973
10275SOL    HW231725   0.098   0.721   1.828
10276SOL     OW31726   3.335   4.594   5.531
10276SOL    HW131727   3.258   4.543   5.494
10276SOL    HW231728   3.313   4.628   5.622
10277SOL     OW31729   0.821   5.447   3.928
10277SOL    HW131730   0.791   5.359   3.965
10277SOL    HW231731   0.861   5.432   3.837
10278SOL     OW31732   6.379   6.939   4.311
10278SOL    HW131733   6.373   0.013   4.285
10278SOL    HW231734   6.288   6.904   4.332
10279SOL     OW31735   1.377   4.744   4.132
10279SOL    HW131736   1.340   4.678   4.067
10279SOL    HW231737   1.363   4.710   4.225
10280SOL     OW31738   6.342   5.271   0.915
10280SOL    HW131739   6.261   5.318   0.951
10280SOL    HW231740   6.343   5.278   0.815
10281SOL     OW31741   6.010   0.251   5.016
10281SOL    HW131742   5.923   0.275   4.972
10281SOL    HW231743   6.023   0.152   5.012
10282SOL     OW31744   4.868   2.660   3.194
10282SOL    HW131745   4.882   2.626   3.101
10282SOL    HW231746   4.913   2.599   3.259
10283SOL     OW31747   0.032   2.413   0.756
10283SOL    HW131748   0.018   2.353   0.678
10283SOL    HW231749   6.988   2.392   0.827
10284SOL     OW31750   0.404   4.625   4.985
10284SOL    HW131751   0.435   4.625   4.889
10284SOL    HW231752   0.467   4.570   5.040
10285SOL     OW31753   6.896   6.354   6.386
10285SOL    HW131754   6.818   6.306   6.346
10285SOL    HW231755   6.969   6.362   6.318
10286SOL     OW31756   2.985   0.962   2.043
10286SOL    HW131757   3.082   0.967   2.069
10286SOL    HW231758   2.972   1.008   1.955
10287SOL     OW31759   0.461   5.975   2.623
10287SOL    HW131760   0.401   6.047   2.590
10287SOL    HW231761   0.516   6.009   2.700
10288SOL     OW31762   4.056   6.015   4.254
10288SOL    HW131763   4.145   6.059   4.241
10288SOL    HW231764   4.019   6.039   4.344
10289SOL     OW31765   4.228   6.220   6.795
10289SOL    HW131766   4.181   6.299   6.834
10289SOL    HW231767   4.311   6.251   6.749
10290SOL     OW31768   3.320   3.243   2.408
10290SOL    HW131769   3.340   3.328   2.360
10290SOL    HW231770   3.362   3.166   2.360
10291SOL     OW31771   3.370   2.156   2.396
10291SOL    HW131772   3.368   2.057   2.410
10291SOL    HW231773   3.408   2.176   2.306
10292SOL     OW31774   0.281   0.136   5.663
10292SOL    HW131775   0.275   0.046   5.708
10292SOL    HW231776   0.220   0.200   5.710
10293SOL     OW31777   1.637   3.240   5.449
10293SOL    HW131778   1.577   3.177   5.498
10293SOL    HW231779   1.617   3.334   5.478
10294SOL     OW31780   1.442   6.920   1.796
10294SOL    HW131781   1.437   7.015   1.767
10294SOL    HW231782   1.519   6.907   1.858
10295SOL     OW31783   2.070   1.425   0.923
10295SOL    HW131784   1.997   1.489   0.949
10295SOL    HW231785   2.122   1.399   1.005
10296SOL     OW31786   6.664   2.497   5.052
10296SOL    HW131787   6.758   2.488   5.085
10296SOL    HW231788   6.656   2.581   4.999
10297SOL     OW31789   4.455   1.177   1.021
10297SOL    HW131790   4.410   1.266   1.015
10297SOL    HW231791   4.544   1.187   1.067
10298SOL     OW31792   1.061   1.607   1.796
10298SOL    HW131793   1.074   1.536   1.866
10298SOL    HW231794   1.146   1.657   1.783
10299SOL     OW31795   5.032   0.140   2.644
10299SOL    HW131796   4.958   0.175   2.587
10299SOL    HW231797   5.089   0.077   2.591
10300SOL     OW31798   1.193   2.603   0.899
10300SOL    HW131799   1.282   2.572   0.931
10300SOL    HW231800   1.193   2.606   0.799
10301SOL     OW31801   4.260   1.695   6.933
10301SOL    HW131802   4.251   1.790   6.902
10301SOL    HW231803   4.247   1.634   6.855
10302SOL     OW31804   3.468   5.775   5.434
10302SOL    HW131805   3.378   5.804   5.467
10302SOL    HW231806   3.507   5.847   5.377
10303SOL     OW31807   0.676   4.295   5.288
10303SOL    HW131808   0.689   4.225   5.217
10303SOL    HW231809   0.761   4.306   5.339
10304SOL     OW31810   5.144   6.113   1.363
10304SOL    HW131811   5.118   6.154   1.276
10304SOL    HW231812   5.065   6.065   1.401
10305SOL     OW31813   2.806   3.658   5.300
10305SOL    HW131814   2.853   3.724   5.358
10305SOL    HW231815   2.858   3.645   5.215
10306SOL     OW31816   4.299   0.970   1.109
10306SOL    HW131817   4.339   0.963   1.200
10306SOL    HW231818   4.348   1.039   1.056
10307SOL     OW31819   1.750   0.068   5.074
10307SOL    HW131820   1.762   7.009   5.017
10307SOL    HW231821   1.811   0.140   5.041
10308SOL     OW31822   2.841   4.613   1.603
10308SOL    HW131823   2.747   4.611   1.570
10308SOL    HW231824   2.851   4.549   1.679
10309SOL     OW31825   0.087   0.761   5.133
10309SOL    HW131826   0.109   0.751   5.230
10309SOL    HW231827   0.170   0.783   5.082
10310SOL     OW31828   3.420   4.085   6.311
10310SOL    HW131829   3.367   4.015   6.263
10310SOL    HW231830   3.486   4.041   6.371
10311SOL     OW31831   5.745   6.267   6.977
10311SOL    HW131832   5.667   6.294   0.010
10311SOL    HW231833   5.748   6.321   6.893
10312SOL     OW31834   3.018   6.835   2.295
10312SOL    HW131835   2.988   6.882   2.212
10312SOL    HW231836   3.060   6.902   2.358
10313SOL     OW31837   5.244   6.564   3.304
10313SOL    HW131838   5.330   6.600   3.341
10313SOL    HW231839   5.258   6.470   3.274
10314SOL     OW31840   1.012   6.943   0.718
10314SOL    HW131841   1.090   6.968   0.776
10314SOL    HW231842   1.041   6.877   0.649
10315SOL     OW31843   4.950   4.872   3.940
10315SOL    HW131844   5.041   4.830   3.948
10315SOL    HW231845   4.949   4.934   3.862
10316SOL     OW31846   1.231   2.030   0.121
10316SOL    HW131847   1.305   2.008   0.057
10316SOL    HW231848   1.270   2.068   0.205
10317SOL     OW31849   4.241   6.186   4.590
10317SOL    HW131850   4.239   6.088   4.609
10317SOL    HW231851   4.332   6.222   4.609
10318SOL     OW31852   6.101   0.009   7.002
10318SOL    HW131853   6.070   6.986   6.918
10318SOL    HW231854   6.114   6.962   0.051
10319SOL     OW31855   1.216   4.451   4.296
10319SOL    HW131856   1.147   4.399   4.345
10319SOL    HW231857   1.193   4.548   4.299
10320SOL     OW31858   6.628   6.849   2.938
10320SOL    HW131859   6.583   6.843   3.027
10320SOL    HW231860   6.725   6.869   2.951
10321SOL     OW31861   5.906   2.462   3.029
10321SOL    HW131862   5.933   2.367   3.016
10321SOL    HW231863   5.985   2.516   3.056
10322SOL     OW31864   4.609   4.447   4.914
10322SOL    HW131865   4.621   4.413   5.007
10322SOL    HW231866   4.521   4.493   4.906
10323SOL     OW31867   1.557   4.465   6.086
10323SOL    HW131868   1.521   4.538   6.027
10323SOL    HW231869   1.656   4.457   6.072
10324SOL     OW31870   2.926   3.336   2.805
10324SOL    HW131871   2.997   3.357   2.739
10324SOL    HW231872   2.838   3.373   2.774
10325SOL     OW31873   5.537   5.892   4.720
10325SOL    HW131874   5.557   5.968   4.782
10325SOL    HW231875   5.449   5.852   4.745
10326SOL     OW31876   5.500   3.512   0.054
10326SOL    HW131877   5.470   3.571   7.001
10326SOL    HW231878   5.420   3.487   0.109
10327SOL     OW31879   1.745   5.227   6.711
10327SOL    HW131880   1.688   5.308   6.719
10327SOL    HW231881   1.689   5.145   6.722
10328SOL     OW31882   5.945   2.545   2.407
10328SOL    HW131883   6.037   2.567   2.438
10328SOL    HW231884   5.941   2.552   2.308
10329SOL     OW31885   3.581   2.172   1.653
10329SOL    HW131886   3.621   2.219   1.732
10329SOL    HW231887   3.484   2.154   1.670
10330SOL     OW31888   5.235   6.739   1.972
10330SOL    HW131889   5.138   6.747   1.994
10330SOL    HW231890   5.284   6.818   2.010
10331SOL     OW31891   5.182   5.286   5.789
10331SOL    HW131892   5.152   5.335   5.871
10331SOL    HW231893   5.132   5.200   5.781
10332SOL     OW31894   2.311   1.697   6.597
10332SOL    HW131895   2.395   1.710   6.651
10332SOL    HW231896   2.297   1.776   6.538
10333SOL     OW31897   1.518   3.811   4.439
10333SOL    HW131898   1.607   3.852   4.456
10333SOL    HW231899   1.528   3.712   4.430
10334SOL     OW31900   3.320   1.135   4.464
10334SOL    HW131901   3.369   1.055   4.428
10334SOL    HW231902   3.378   1.216   4.454
10335SOL     OW31903   2.152   3.484   4.583
10335SOL    HW131904   2.222   3.458   4.649
10335SOL    HW231905   2.073   3.424   4.593
10336SOL     OW31906   5.543   6.202   3.536
10336SOL    HW131907   5.562   6.216   3.633
10336SOL    HW231908   5.590   6.120   3.504
10337SOL     OW31909   6.502   6.149   7.019
10337SOL    HW131910   6.569   6.088   0.038
10337SOL    HW231911   6.546   6.235   6.993
10338SOL     OW31912   0.704   6.438   1.608
10338SOL    HW131913   0.792   6.482   1.593
10338SOL    HW231914   0.690   6.368   1.538
10339SOL     OW31915   5.395   2.425   5.827
10339SOL    HW131916   5.323   2.439   5.894
10339SOL    HW231917   5.445   2.341   5.848
10340SOL     OW31918   2.868   4.284   6.428
10340SOL    HW131919   2.920   4.198   6.424
10340SOL    HW231920   2.905   4.347   6.360
10341SOL     OW31921   2.622   4.720   3.374
10341SOL    HW131922   2.524   4.707   3.389
10341SOL    HW231923   2.662   4.766   3.452
10342SOL     OW31924   0.500   1.177   3.424
10342SOL    HW131925   0.471   1.272   3.414
10342SOL    HW231926   0.435   1.129   3.483
10343SOL     OW31927   3.878   5.266   1.699
10343SOL    HW131928   3.893   5.170   1.677
10343SOL    HW231929   3.815   5.305   1.631
10344SOL     OW31930   4.782   6.789   6.612
10344SOL    HW131931   4.808   6.886   6.613
10344SOL    HW231932   4.849   6.737   6.559
10345SOL     OW31933   0.979   4.079   4.714
10345SOL    HW131934   0.911   4.069   4.641
10345SOL    HW231935   1.021   3.990   4.733
10346SOL     OW31936   0.254   6.016   0.476
10346SOL    HW131937   0.322   6.086   0.496
10346SOL    HW231938   0.291   5.925   0.498
10347SOL     OW31939   6.707   1.807   5.111
10347SOL    HW131940   6.724   1.768   5.021
10347SOL    HW231941   6.650   1.889   5.102
10348SOL     OW31942   0.322   4.788   1.213
10348SOL    HW131943   0.337   4.886   1.200
10348SOL    HW231944   0.410   4.742   1.221
10349SOL     OW31945   6.943   6.475   6.629
10349SOL    HW131946   6.860   6.527   6.651
10349SOL    HW231947   6.931   6.428   6.542
10350SOL     OW31948   4.013   0.675   6.319
10350SOL    HW131949   4.071   0.691   6.239
10350SOL    HW231950   4.053   0.601   6.374
10351SOL     OW31951   4.249   6.094   5.702
10351SOL    HW131952   4.332   6.120   5.654
10351SOL    HW231953   4.234   6.157   5.778
10352SOL     OW31954   4.388   5.176   6.203
10352SOL    HW131955   4.310   5.183   6.264
10352SOL    HW231956   4.364   5.213   6.113
10353SOL     OW31957   0.560   3.610   5.392
10353SOL    HW131958   0.638   3.564   5.350
10353SOL    HW231959   0.478   3.594   5.336
10354SOL     OW31960   5.350   1.733   0.794
10354SOL    HW131961   5.358   1.744   0.694
10354SOL    HW231962   5.253   1.726   0.819
10355SOL     OW31963   1.139   4.214   2.943
10355SOL    HW131964   1.099   4.212   3.034
10355SOL    HW231965   1.089   4.151   2.883
10356SOL     OW31966   0.344   2.684   5.338
10356SOL    HW131967   0.437   2.662   5.366
10356SOL    HW231968   0.318   2.625   5.261
10357SOL     OW31969   2.765   3.169   6.042
10357SOL    HW131970   2.739   3.073   6.042
10357SOL    HW231971   2.695   3.223   5.995
10358SOL     OW31972   0.592   0.550   2.675
10358SOL    HW131973   0.516   0.514   2.620
10358SOL    HW231974   0.679   0.517   2.637
10359SOL     OW31975   1.108   1.725   0.783
10359SOL    HW131976   1.117   1.704   0.686
10359SOL    HW231977   1.068   1.647   0.831
10360SOL     OW31978   0.029   4.803   3.918
10360SOL    HW131979   0.129   4.804   3.915
10360SOL    HW231980   7.018   4.725   3.865
10361SOL     OW31981   2.627   5.531   0.587
10361SOL    HW131982   2.631   5.464   0.512
10361SOL    HW231983   2.676   5.495   0.666
10362SOL     OW31984   1.088   4.618   5.676
10362SOL    HW131985   1.064   4.652   5.767
10362SOL    HW231986   1.185   4.632   5.659
10363SOL     OW31987   5.271   0.553   4.804
10363SOL    HW131988   5.294   0.530   4.710
10363SOL    HW231989   5.173   0.538   4.820
10364SOL     OW31990   1.392   4.150   0.924
10364SOL    HW131991   1.408   4.184   0.832
10364SOL    HW231992   1.434   4.060   0.934
10365SOL     OW31993   5.309   5.140   7.001
10365SOL    HW131994   5.370   5.061   6.999
10365SOL    HW231995   5.347   5.212   6.943
10366SOL     OW31996   4.236   6.928   4.138
10366SOL    HW131997   4.146   6.912   4.178
10366SOL    HW231998   4.285   6.841   4.130
10367SOL     OW31999   6.213   1.193   2.695
10367SOL    HW132000   6.225   1.093   2.694
10367SOL    HW232001   6.251   1.232   2.611
10368SOL     OW32002   2.594   0.505   1.048
10368SOL    HW132003   2.538   0.471   0.972
10368SOL    HW232004   2.676   0.549   1.012
10369SOL     OW32005   4.157   2.846   6.496
10369SOL    HW132006   4.223   2.784   6.453
10369SOL    HW232007   4.198   2.890   6.575
10370SOL     OW32008   2.735   0.785   5.618
10370SOL    HW132009   2.791   0.859   5.582
10370SOL    HW232010   2.779   0.697   5.600
10371SOL     OW32011   4.757   0.000   5.349
10371SOL    HW132012   4.824   6.976   5.291
10371SOL    HW232013   4.764   0.099   5.333
10372SOL     OW32014   0.159   0.660   3.656
10372SOL    HW132015   0.078   0.646   3.714
10372SOL    HW232016   0.133   0.649   3.560
10373SOL     OW32017   1.423   6.229   5.405
10373SOL    HW132018   1.435   6.187   5.495
10373SOL    HW232019   1.338   6.282   5.404
10374SOL     OW32020   3.427   1.576   3.366
10374SOL    HW132021   3.523   1.555   3.350
10374SOL    HW232022   3.396   1.645   3.300
10375SOL     OW32023   0.011   2.076   0.901
10375SOL    HW132024   6.946   2.086   0.947
10375SOL    HW232025   0.079   2.037   0.964
10376SOL     OW32026   5.947   0.657   4.062
10376SOL    HW132027   5.990   0.569   4.081
10376SOL    HW232028   5.964   0.683   3.967
10377SOL     OW32029   6.846   6.502   3.554
10377SOL    HW132030   6.753   6.499   3.591
10377SOL    HW232031   6.862   6.591   3.511
10378SOL     OW32032   5.966   6.418   5.584
10378SOL    HW132033   5.892   6.374   5.535
10378SOL    HW232034   6.030   6.458   5.518
10379SOL     OW32035   4.375   1.155   3.995
10379SOL    HW132036   4.293   1.098   4.000
10379SOL    HW232037   4.352   1.248   4.024
10380SOL     OW32038   3.295   0.458   4.231
10380SOL    HW132039   3.223   0.408   4.280
10380SOL    HW232040   3.256   0.540   4.190
10381SOL     OW32041   3.518   5.287   4.865
10381SOL    HW132042   3.601   5.283   4.920
10381SOL    HW232043   3.542   5.285   4.768
10382SOL     OW32044   0.059   5.208   1.608
10382SOL    HW132045   6.993   5.198   1.562
10382SOL    HW232046   0.110   5.284   1.566
10383SOL     OW32047   5.727   3.368   1.160
10383SOL    HW132048   5.636   3.404   1.183
10383SOL    HW232049   5.732   3.272   1.186
10384SOL     OW32050   5.222   1.223   6.783
10384SOL    HW132051   5.228   1.163   6.703
10384SOL    HW232052   5.314   1.248   6.813
10385SOL     OW32053   0.291   2.819   6.564
10385SOL    HW132054   0.289   2.919   6.566
10385SOL    HW232055   0.356   2.786   6.632
10386SOL     OW32056   0.368   1.901   5.930
10386SOL    HW132057   0.328   1.884   5.840
10386SOL    HW232058   0.295   1.915   5.997
10387SOL     OW32059   1.813   3.762   2.918
10387SOL    HW132060   1.821   3.665   2.944
10387SOL    HW232061   1.747   3.771   2.844
10388SOL     OW32062   1.528   4.687   2.409
10388SOL    HW132063   1.480   4.759   2.460
10388SOL    HW232064   1.501   4.690   2.313
10389SOL     OW32065   1.741   5.314   3.418
10389SOL    HW132066   1.773   5.397   3.371
10389SOL    HW232067   1.678   5.340   3.491
10390SOL     OW32068   2.112   3.234   3.486
10390SOL    HW132069   2.149   3.235   3.579
10390SOL    HW232070   2.124   3.324   3.444
10391SOL     OW32071   3.694   5.664   4.612
10391SOL    HW132072   3.615   5.676   4.672
10391SOL    HW232073   3.680   5.716   4.527
10392SOL     OW32074   6.992   5.761   5.925
10392SOL    HW132075   0.042   5.762   5.994
10392SOL    HW232076   6.958   5.668   5.914
10393SOL     OW32077   1.063   1.657   4.360
10393SOL    HW132078   1.013   1.733   4.402
10393SOL    HW232079   1.067   1.580   4.423
10394SOL     OW32080   3.139   0.110   0.902
10394SOL    HW132081   3.207   0.179   0.926
10394SOL    HW232082   3.050   0.153   0.890
10395SOL     OW32083   1.501   0.663   3.492
10395SOL    HW132084   1.417   0.627   3.451
10395SOL    HW232085   1.484   0.756   3.525
10396SOL     OW32086   0.346   0.410   4.608
10396SOL    HW132087   0.393   0.325   4.630
10396SOL    HW232088   0.361   0.433   4.512
10397SOL     OW32089   4.335   2.324   2.339
10397SOL    HW132090   4.289   2.267   2.271
10397SOL    HW232091   4.276   2.334   2.419
10398SOL     OW32092   7.022   2.614   2.203
10398SOL    HW132093   0.023   2.627   2.300
10398SOL    HW232094   0.028   2.523   2.174
10399SOL     OW32095   6.638   3.039   5.658
10399SOL    HW132096   6.682   3.078   5.739
10399SOL    HW232097   6.540   3.054   5.663
10400SOL     OW32098   1.882   5.259   2.459
10400SOL    HW132099   1.901   5.161   2.464
10400SOL    HW232100   1.785   5.275   2.475
10401SOL     OW32101   1.315   5.758   1.323
10401SOL    HW132102   1.280   5.851   1.340
10401SOL    HW232103   1.271   5.695   1.386
10402SOL     OW32104   1.117   2.013   4.789
10402SOL    HW132105   1.177   2.044   4.716
10402SOL    HW232106   1.141   1.919   4.815
10403SOL     OW32107   5.450   1.226   3.414
10403SOL    HW132108   5.387   1.304   3.407
10403SOL    HW232109   5.485   1.221   3.508
10404SOL     OW32110   6.388   0.277   4.583
10404SOL    HW132111   6.408   0.255   4.488
10404SOL    HW232112   6.364   0.374   4.591
10405SOL     OW32113   3.167   6.752   6.540
10405SOL    HW132114   3.117   6.782   6.459
10405SOL    HW232115   3.108   6.693   6.596
10406SOL     OW32116   1.158   6.412   5.078
10406SOL    HW132117   1.236   6.463   5.041
10406SOL    HW232118   1.077   6.469   5.077
10407SOL     OW32119   3.289   0.803   7.019
10407SOL    HW132120   3.344   0.822   6.938
10407SOL    HW232121   3.347   0.807   0.078
10408SOL     OW32122   3.403   0.235   2.812
10408SOL    HW132123   3.325   0.247   2.874
10408SOL    HW232124   3.370   0.205   2.723
10409SOL     OW32125   0.306   4.893   2.443
10409SOL    HW132126   0.316   4.935   2.353
10409SOL    HW232127   0.389   4.907   2.496
10410SOL     OW32128   5.138   5.544   0.554
10410SOL    HW132129   5.056   5.527   0.500
10410SOL    HW232130   5.217   5.552   0.493
10411SOL     OW32131   2.473   5.072   1.698
10411SOL    HW132132   2.426   4.987   1.678
10411SOL    HW232133   2.459   5.137   1.623
10412SOL     OW32134   0.641   3.495   6.435
10412SOL    HW132135   0.672   3.558   6.364
10412SOL    HW232136   0.704   3.417   6.440
10413SOL     OW32137   6.490   0.790   4.296
10413SOL    HW132138   6.429   0.867   4.312
10413SOL    HW232139   6.449   0.727   4.230
10414SOL     OW32140   5.732   5.622   5.468
10414SOL    HW132141   5.683   5.707   5.489
10414SOL    HW232142   5.721   5.558   5.544
10415SOL     OW32143   0.175   4.720   3.293
10415SOL    HW132144   0.243   4.649   3.275
10415SOL    HW232145   0.083   4.684   3.280
10416SOL     OW32146   4.837   0.444   0.190
10416SOL    HW132147   4.794   0.470   0.277
10416SOL    HW232148   4.776   0.383   0.139
10417SOL     OW32149   4.779   4.575   4.593
10417SOL    HW132150   4.748   4.659   4.548
10417SOL    HW232151   4.856   4.536   4.542
10418SOL     OW32152   5.680   3.219   0.425
10418SOL    HW132153   5.679   3.125   0.459
10418SOL    HW232154   5.711   3.280   0.498
10419SOL     OW32155   1.399   6.979   4.548
10419SOL    HW132156   1.330   0.027   4.560
10419SOL    HW232157   1.415   6.932   4.635
10420SOL     OW32158   6.310   4.183   4.051
10420SOL    HW132159   6.390   4.186   4.112
10420SOL    HW232160   6.294   4.274   4.013
10421SOL     OW32161   0.010   3.496   4.383
10421SOL    HW132162   0.071   3.434   4.433
10421SOL    HW232163   0.060   3.578   4.357
10422SOL     OW32164   6.001   3.172   5.694
10422SOL    HW132165   5.995   3.141   5.789
10422SOL    HW232166   5.914   3.211   5.666
10423SOL     OW32167   2.283   5.676   1.641
10423SOL    HW132168   2.320   5.717   1.725
10423SOL    HW232169   2.323   5.721   1.562
10424SOL     OW32170   4.653   0.730   2.242
10424SOL    HW132171   4.716   0.653   2.239
10424SOL    HW232172   4.573   0.709   2.185
10425SOL     OW32173   0.308   4.352   0.721
10425SOL    HW132174   0.292   4.417   0.646
10425SOL    HW232175   0.234   4.286   0.724
10426SOL     OW32176   6.516   2.105   7.015
10426SOL    HW132177   6.595   2.047   0.013
10426SOL    HW232178   6.446   2.052   6.969
10427SOL     OW32179   6.348   0.207   4.304
10427SOL    HW132180   6.276   0.266   4.341
10427SOL    HW232181   6.333   0.193   4.206
10428SOL     OW32182   2.065   0.416   4.732
10428SOL    HW132183   1.986   0.466   4.765
10428SOL    HW232184   2.149   0.461   4.764
10429SOL     OW32185   1.936   4.518   1.873
10429SOL    HW132186   2.030   4.495   1.897
10429SOL    HW232187   1.908   4.600   1.922
10430SOL     OW32188   3.137   1.137   4.231
10430SOL    HW132189   3.206   1.153   4.302
10430SOL    HW232190   3.076   1.215   4.225
10431SOL     OW32191   4.350   2.308   3.538
10431SOL    HW132192   4.391   2.361   3.612
10431SOL    HW232193   4.378   2.346   3.450
10432SOL     OW32194   1.326   4.463   1.187
10432SOL    HW132195   1.282   4.373   1.181
10432SOL    HW232196   1.425   4.452   1.192
10433SOL     OW32197   2.915   6.493   4.245
10433SOL    HW132198   2.981   6.470   4.174
10433SOL    HW232199   2.949   6.570   4.299
10434SOL     OW32200   4.362   2.055   0.444
10434SOL    HW132201   4.420   1.975   0.459
10434SOL    HW232202   4.268   2.032   0.467
10435SOL     OW32203   2.522   1.489   1.604
10435SOL    HW132204   2.522   1.482   1.704
10435SOL    HW232205   2.444   1.544   1.575
10436SOL     OW32206   1.609   3.845   5.203
10436SOL    HW132207   1.698   3.825   5.164
10436SOL    HW232208   1.600   3.800   5.292
10437SOL     OW32209   6.793   0.055   5.107
10437SOL    HW132210   6.705   0.094   5.135
10437SOL    HW232211   6.867   0.103   5.153
10438SOL     OW32212   6.804   5.954   6.403
10438SOL    HW132213   6.857   5.977   6.321
10438SOL    HW232214   6.867   5.926   6.476
10439SOL     OW32215   5.688   5.059   5.163
10439SOL    HW132216   5.657   5.154   5.163
10439SOL    HW232217   5.739   5.040   5.246
10440SOL     OW32218   6.178   2.506   1.626
10440SOL    HW132219   6.226   2.472   1.706
10440SOL    HW232220   6.114   2.437   1.593
10441SOL     OW32221   5.022   1.455   5.858
10441SOL    HW132222   4.966   1.480   5.779
10441SOL    HW232223   5.105   1.409   5.827
10442SOL     OW32224   2.366   0.714   6.007
10442SOL    HW132225   2.395   0.622   6.034
10442SOL    HW232226   2.404   0.736   5.917
10443SOL     OW32227   0.599   0.858   0.023
10443SOL    HW132228   0.696   0.855   7.018
10443SOL    HW232229   0.571   0.954   0.033
10444SOL     OW32230   4.340   5.472   3.493
10444SOL    HW132231   4.274   5.513   3.429
10444SOL    HW232232   4.291   5.412   3.556
10445SOL     OW32233   1.307   3.399   3.930
10445SOL    HW132234   1.249   3.370   4.007
10445SOL    HW232235   1.297   3.497   3.917
10446SOL     OW32236   2.827   4.911   5.043
10446SOL    HW132237   2.732   4.936   5.061
10446SOL    HW232238   2.838   4.812   5.052
10447SOL     OW32239   1.489   1.979   2.899
10447SOL    HW132240   1.555   1.910   2.867
10447SOL    HW232241   1.538   2.061   2.926
10448SOL     OW32242   0.944   5.298   2.437
10448SOL    HW132243   0.920   5.257   2.525
10448SOL    HW232244   0.929   5.397   2.441
10449SOL     OW32245   3.830   5.187   4.193
10449SOL    HW132246   3.896   5.171   4.120
10449SOL    HW232247   3.758   5.117   4.189
10450SOL     OW32248   0.280   2.191   4.271
10450SOL    HW132249   0.189   2.193   4.312
10450SOL    HW232250   0.273   2.171   4.173
10451SOL     OW32251   2.186   2.091   5.102
10451SOL    HW132252   2.164   2.176   5.150
10451SOL    HW232253   2.111   2.067   5.040
10452SOL     OW32254   6.897   2.470   4.470
10452SOL    HW132255   6.909   2.529   4.390
10452SOL    HW232256   6.810   2.491   4.515
10453SOL     OW32257   2.654   5.663   4.234
10453SOL    HW132258   2.676   5.736   4.299
10453SOL    HW232259   2.592   5.598   4.276
10454SOL     OW32260   6.786   1.445   6.773
10454SOL    HW132261   6.751   1.432   6.681
10454SOL    HW232262   6.886   1.451   6.771
10455SOL     OW32263   0.734   5.459   2.801
10455SOL    HW132264   0.638   5.473   2.822
10455SOL    HW232265   0.784   5.438   2.885
10456SOL     OW32266   1.161   5.402   6.059
10456SOL    HW132267   1.191   5.489   6.099
10456SOL    HW232268   1.169   5.408   5.959
10457SOL     OW32269   4.349   1.732   1.099
10457SOL    HW132270   4.320   1.823   1.130
10457SOL    HW232271   4.340   1.727   0.999
10458SOL     OW32272   1.836   0.060   6.878
10458SOL    HW132273   1.755   0.021   6.835
10458SOL    HW232274   1.852   0.152   6.842
10459SOL     OW32275   5.554   6.000   0.962
10459SOL    HW132276   5.469   6.041   0.930
10459SOL    HW232277   5.627   6.019   0.897
10460SOL     OW32278   6.578   1.177   6.559
10460SOL    HW132279   6.502   1.233   6.526
10460SOL    HW232280   6.622   1.131   6.482
10461SOL     OW32281   6.627   4.147   5.953
10461SOL    HW132282   6.710   4.198   5.930
10461SOL    HW232283   6.554   4.210   5.979
10462SOL     OW32284   4.360   3.435   0.038
10462SOL    HW132285   4.294   3.511   0.044
10462SOL    HW232286   4.321   3.354   0.082
10463SOL     OW32287   4.680   2.772   5.041
10463SOL    HW132288   4.733   2.714   5.102
10463SOL    HW232289   4.629   2.840   5.094
10464SOL     OW32290   6.425   4.697   2.040
10464SOL    HW132291   6.359   4.661   2.105
10464SOL    HW232292   6.388   4.780   1.997
10465SOL     OW32293   5.292   4.247   0.504
10465SOL    HW132294   5.205   4.262   0.458
10465SOL    HW232295   5.278   4.250   0.603
10466SOL     OW32296   6.382   3.842   5.755
10466SOL    HW132297   6.420   3.808   5.669
10466SOL    HW232298   6.295   3.796   5.774
10467SOL     OW32299   0.534   3.520   7.007
10467SOL    HW132300   0.576   3.610   7.019
10467SOL    HW232301   0.449   3.516   0.036
10468SOL     OW32302   1.320   3.921   3.975
10468SOL    HW132303   1.365   3.961   4.055
10468SOL    HW232304   1.262   3.991   3.932
10469SOL     OW32305   1.333   0.753   4.128
10469SOL    HW132306   1.383   0.666   4.121
10469SOL    HW232307   1.391   0.820   4.173
10470SOL     OW32308   2.813   3.967   1.570
10470SOL    HW132309   2.904   3.978   1.531
10470SOL    HW232310   2.800   3.872   1.599
10471SOL     OW32311   2.060   4.688   5.970
10471SOL    HW132312   2.151   4.717   5.939
10471SOL    HW232313   2.003   4.769   5.985
10472SOL     OW32314   4.206   5.339   6.045
10472SOL    HW132315   4.250   5.415   5.997
10472SOL    HW232316   4.148   5.376   6.118
10473SOL     OW32317   6.212   5.787   0.613
10473SOL    HW132318   6.144   5.757   0.679
10473SOL    HW232319   6.300   5.799   0.659
10474SOL     OW32320   6.158   5.857   5.004
10474SOL    HW132321   6.117   5.946   5.025
10474SOL    HW232322   6.094   5.803   4.949
10475SOL     OW32323   7.013   6.008   1.572
10475SOL    HW132324   6.980   6.055   1.654
10475SOL    HW232325   6.952   5.932   1.551
10476SOL     OW32326   5.207   6.586   1.657
10476SOL    HW132327   5.244   6.515   1.597
10476SOL    HW232328   5.266   6.667   1.653
10477SOL     OW32329   6.594   5.925   3.443
10477SOL    HW132330   6.593   5.901   3.540
10477SOL    HW232331   6.512   5.887   3.398
10478SOL     OW32332   6.670   1.059   0.159
10478SOL    HW132333   6.703   0.965   0.149
10478SOL    HW232334   6.660   1.081   0.256
10479SOL     OW32335   0.096   4.444   3.091
10479SOL    HW132336   0.107   4.388   3.173
10479SOL    HW232337   0.006   4.427   3.051
10480SOL     OW32338   2.566   0.907   3.212
10480SOL    HW132339   2.566   0.868   3.304
10480SOL    HW232340   2.495   0.978   3.206
10481SOL     OW32341   6.386   0.542   1.979
10481SOL    HW132342   6.353   0.603   2.051
10481SOL    HW232343   6.336   0.455   1.984
10482SOL     OW32344   4.842   4.149   4.247
10482SOL    HW132345   4.938   4.174   4.231
10482SOL    HW232346   4.816   4.177   4.340
10483SOL     OW32347   6.180   0.986   6.692
10483SOL    HW132348   6.142   0.900   6.725
10483SOL    HW232349   6.202   0.979   6.595
10484SOL     OW32350   6.476   0.350   1.685
10484SOL    HW132351   6.393   0.358   1.740
10484SOL    HW232352   6.466   0.403   1.601
10485SOL     OW32353   5.791   3.316   5.806
10485SOL    HW132354   5.782   3.294   5.903
10485SOL    HW232355   5.816   3.412   5.796
10486SOL     OW32356   6.037   3.113   2.819
10486SOL    HW132357   5.983   3.103   2.736
10486SOL    HW232358   6.117   3.171   2.800
10487SOL     OW32359   3.885   6.890   3.240
10487SOL    HW132360   3.954   6.961   3.229
10487SOL    HW232361   3.846   6.866   3.151
10488SOL     OW32362   4.189   3.952   6.631
10488SOL    HW132363   4.180   4.044   6.594
10488SOL    HW232364   4.260   3.950   6.701
10489SOL     OW32365   1.779   5.285   5.346
10489SOL    HW132366   1.856   5.222   5.337
10489SOL    HW232367   1.763   5.330   5.257
10490SOL     OW32368   6.003   0.376   4.667
10490SOL    HW132369   5.961   0.434   4.598
10490SOL    HW232370   5.939   0.363   4.743
10491SOL     OW32371   6.633   5.706   4.822
10491SOL    HW132372   6.663   5.668   4.909
10491SOL    HW232373   6.594   5.797   4.836
10492SOL     OW32374   5.119   3.628   5.616
10492SOL    HW132375   5.083   3.559   5.552
10492SOL    HW232376   5.049   3.698   5.632
10493SOL     OW32377   3.434   1.416   0.244
10493SOL    HW132378   3.381   1.471   0.179
10493SOL    HW232379   3.400   1.432   0.337
10494SOL     OW32380   5.319   1.471   5.237
10494SOL    HW132381   5.285   1.544   5.178
10494SOL    HW232382   5.243   1.415   5.269
10495SOL     OW32383   1.149   0.182   6.851
10495SOL    HW132384   1.203   0.107   6.890
10495SOL    HW232385   1.108   0.153   6.765
10496SOL     OW32386   6.889   6.852   5.240
10496SOL    HW132387   6.846   6.914   5.175
10496SOL    HW232388   6.966   6.898   5.284
10497SOL     OW32389   2.413   1.235   6.765
10497SOL    HW132390   2.474   1.219   6.687
10497SOL    HW232391   2.442   1.177   6.841
10498SOL     OW32392   3.349   5.432   5.656
10498SOL    HW132393   3.399   5.519   5.661
10498SOL    HW232394   3.252   5.449   5.675
10499SOL     OW32395   3.344   5.849   2.722
10499SOL    HW132396   3.258   5.900   2.723
10499SOL    HW232397   3.333   5.767   2.666
10500SOL     OW32398   2.189   1.814   6.954
10500SOL    HW132399   2.207   1.903   6.912
10500SOL    HW232400   2.260   1.750   6.926
10501SOL     OW32401   1.646   3.604   3.496
10501SOL    HW132402   1.607   3.542   3.427
10501SOL    HW232403   1.709   3.554   3.555
10502SOL     OW32404   2.952   6.517   5.011
10502SOL    HW132405   3.005   6.443   4.971
10502SOL    HW232406   2.954   6.510   5.111
10503SOL     OW32407   2.664   3.334   6.742
10503SOL    HW132408   2.573   3.296   6.726
10503SOL    HW232409   2.732   3.282   6.689
10504SOL     OW32410   2.129   3.366   0.563
10504SOL    HW132411   2.195   3.385   0.491
10504SOL    HW232412   2.177   3.334   0.645
10505SOL     OW32413   0.311   6.201   0.104
10505SOL    HW132414   0.256   6.120   0.082
10505SOL    HW232415   0.338   6.198   0.200
10506SOL     OW32416   6.838   5.444   5.836
10506SOL    HW132417   6.805   5.356   5.801
10506SOL    HW232418   6.792   5.518   5.787
10507SOL     OW32419   3.182   1.040   3.614
10507SOL    HW132420   3.114   1.007   3.548
10507SOL    HW232421   3.154   1.013   3.706
10508SOL     OW32422   5.285   5.208   3.115
10508SOL    HW132423   5.247   5.263   3.041
10508SOL    HW232424   5.384   5.198   3.101
10509SOL     OW32425   2.399   1.135   5.133
10509SOL    HW132426   2.367   1.148   5.227
10509SOL    HW232427   2.356   1.054   5.094
10510SOL     OW32428   5.846   0.515   5.989
10510SOL    HW132429   5.751   0.484   5.990
10510SOL    HW232430   5.901   0.454   6.046
10511SOL     OW32431   6.775   2.554   1.676
10511SOL    HW132432   6.837   2.574   1.600
10511SOL    HW232433   6.761   2.636   1.731
10512SOL     OW32434   2.122   0.031   6.506
10512SOL    HW132435   2.162   0.077   6.585
10512SOL    HW232436   2.179   6.975   6.481
10513SOL     OW32437   6.750   2.531   0.863
10513SOL    HW132438   6.801   2.563   0.784
10513SOL    HW232439   6.802   2.552   0.946
10514SOL     OW32440   2.006   2.887   1.571
10514SOL    HW132441   1.994   2.789   1.584
10514SOL    HW232442   2.088   2.917   1.620
10515SOL     OW32443   0.417   3.479   4.937
10515SOL    HW132444   0.332   3.500   4.889
10515SOL    HW232445   0.398   3.417   5.014
10516SOL     OW32446   2.844   6.662   0.456
10516SOL    HW132447   2.858   6.748   0.505
10516SOL    HW232448   2.812   6.591   0.520
10517SOL     OW32449   0.453   2.623   3.739
10517SOL    HW132450   0.538   2.574   3.721
10517SOL    HW232451   0.375   2.562   3.719
10518SOL     OW32452   0.727   6.125   3.158
10518SOL    HW132453   0.790   6.112   3.081
10518SOL    HW232454   0.638   6.085   3.136
10519SOL     OW32455   3.880   2.997   5.357
10519SOL    HW132456   3.903   2.996   5.454
10519SOL    HW232457   3.954   3.041   5.306
10520SOL     OW32458   3.132   4.948   6.681
10520SOL    HW132459   3.174   4.868   6.638
10520SOL    HW232460   3.193   4.985   6.750
10521SOL     OW32461   6.343   5.373   2.333
10521SOL    HW132462   6.351   5.431   2.251
10521SOL    HW232463   6.411   5.402   2.401
10522SOL     OW32464   6.083   6.831   2.761
10522SOL    HW132465   6.034   6.744   2.775
10522SOL    HW232466   6.029   6.890   2.701
10523SOL     OW32467   5.942   6.806   6.587
10523SOL    HW132468   5.859   6.752   6.599
10523SOL    HW232469   5.919   6.898   6.557
10524SOL     OW32470   4.795   1.148   5.174
10524SOL    HW132471   4.700   1.130   5.202
10524SOL    HW232472   4.795   1.182   5.080
10525SOL     OW32473   1.918   0.133   5.463
10525SOL    HW132474   1.900   0.162   5.557
10525SOL    HW232475   1.832   0.111   5.418
10526SOL     OW32476   4.345   5.637   2.743
10526SOL    HW132477   4.435   5.664   2.779
10526SOL    HW232478   4.321   5.547   2.778
10527SOL     OW32479   1.844   2.854   4.044
10527SOL    HW132480   1.910   2.789   4.082
10527SOL    HW232481   1.751   2.823   4.063
10528SOL     OW32482   5.785   4.632   6.151
10528SOL    HW132483   5.733   4.556   6.191
10528SOL    HW232484   5.806   4.698   6.223
10529SOL     OW32485   6.907   5.741   5.163
10529SOL    HW132486   6.888   5.648   5.130
10529SOL    HW232487   6.843   5.765   5.235
10530SOL     OW32488   1.576   1.558   5.127
10530SOL    HW132489   1.521   1.510   5.058
10530SOL    HW232490   1.645   1.495   5.164
10531SOL     OW32491   2.531   2.296   4.509
10531SOL    HW132492   2.608   2.296   4.446
10531SOL    HW232493   2.553   2.240   4.590
10532SOL     OW32494   3.624   3.276   4.436
10532SOL    HW132495   3.687   3.341   4.393
10532SOL    HW232496   3.613   3.300   4.533
10533SOL     OW32497   3.772   0.791   6.396
10533SOL    HW132498   3.752   0.760   6.489
10533SOL    HW232499   3.854   0.744   6.362
10534SOL     OW32500   5.700   4.313   1.991
10534SOL    HW132501   5.688   4.338   1.895
10534SOL    HW232502   5.781   4.359   2.027
10535SOL     OW32503   0.602   1.061   1.772
10535SOL    HW132504   0.692   1.088   1.808
10535SOL    HW232505   0.614   1.016   1.683
10536SOL     OW32506   5.705   5.753   3.223
10536SOL    HW132507   5.625   5.696   3.238
10536SOL    HW232508   5.737   5.744   3.129
10537SOL     OW32509   6.355   5.440   1.594
10537SOL    HW132510   6.363   5.478   1.502
10537SOL    HW232511   6.290   5.495   1.648
10538SOL     OW32512   4.564   3.397   6.448
10538SOL    HW132513   4.640   3.423   6.508
10538SOL    HW232514   4.495   3.349   6.502
10539SOL     OW32515   1.068   3.061   5.084
10539SOL    HW132516   0.997   2.998   5.051
10539SOL    HW232517   1.150   3.010   5.107
10540SOL     OW32518   3.536   1.063   0.811
10540SOL    HW132519   3.483   0.983   0.839
10540SOL    HW232520   3.623   1.033   0.771
10541SOL     OW32521   3.145   2.341   1.709
10541SOL    HW132522   3.112   2.280   1.637
10541SOL    HW232523   3.080   2.341   1.785
10542SOL     OW32524   1.842   2.229   0.507
10542SOL    HW132525   1.819   2.137   0.475
10542SOL    HW232526   1.869   2.225   0.603
10543SOL     OW32527   2.666   0.286   4.230
10543SOL    HW132528   2.719   0.322   4.307
10543SOL    HW232529   2.729   0.257   4.158
10544SOL     OW32530   0.328   2.106   1.085
10544SOL    HW132531   0.342   2.086   1.182
10544SOL    HW232532   0.260   2.178   1.075
10545SOL     OW32533   4.006   1.077   2.913
10545SOL    HW132534   4.033   1.135   2.990
10545SOL    HW232535   4.020   0.981   2.938
10546SOL     OW32536   4.542   0.469   5.158
10546SOL    HW132537   4.527   0.445   5.254
10546SOL    HW232538   4.639   0.487   5.144
10547SOL     OW32539   4.729   6.220   2.187
10547SOL    HW132540   4.734   6.297   2.123
10547SOL    HW232541   4.669   6.149   2.149
10548SOL     OW32542   4.552   4.130   5.344
10548SOL    HW132543   4.462   4.162   5.372
10548SOL    HW232544   4.587   4.066   5.413
10549SOL     OW32545   0.641   1.178   2.193
10549SOL    HW132546   0.718   1.118   2.169
10549SOL    HW232547   0.586   1.197   2.112
10550SOL     OW32548   4.554   0.187   5.221
10550SOL    HW132549   4.545   0.089   5.244
10550SOL    HW232550   4.468   0.233   5.241
10551SOL     OW32551   1.620   3.054   6.225
10551SOL    HW132552   1.639   3.150   6.247
10551SOL    HW232553   1.705   3.010   6.194
10552SOL     OW32554   3.199   1.310   5.473
10552SOL    HW132555   3.212   1.211   5.473
10552SOL    HW232556   3.110   1.333   5.513
10553SOL     OW32557   2.569   4.774   6.589
10553SOL    HW132558   2.506   4.703   6.620
10553SOL    HW232559   2.633   4.736   6.523
10554SOL     OW32560   6.077   3.422   6.042
10554SOL    HW132561   6.122   3.340   6.005
10554SOL    HW232562   6.128   3.503   6.014
10555SOL     OW32563   3.308   2.448   1.043
10555SOL    HW132564   3.339   2.499   1.123
10555SOL    HW232565   3.368   2.370   1.028
10556SOL     OW32566   1.931   4.749   4.063
10556SOL    HW132567   1.853   4.741   4.001
10556SOL    HW232568   1.967   4.658   4.083
10557SOL     OW32569   5.519   1.418   3.017
10557SOL    HW132570   5.578   1.339   3.029
10557SOL    HW232571   5.495   1.428   2.921
10558SOL     OW32572   5.827   5.601   5.864
10558SOL    HW132573   5.915   5.625   5.823
10558SOL    HW232574   5.841   5.568   5.957
10559SOL     OW32575   4.287   2.980   1.253
10559SOL    HW132576   4.248   2.961   1.343
10559SOL    HW232577   4.374   3.028   1.263
10560SOL     OW32578   0.046   1.898   4.011
10560SOL    HW132579   0.069   1.840   3.933
10560SOL    HW232580   7.002   1.967   3.982
10561SOL     OW32581   2.056   3.838   6.540
10561SOL    HW132582   2.099   3.767   6.485
10561SOL    HW232583   2.127   3.893   6.584
10562SOL     OW32584   4.405   2.029   0.906
10562SOL    HW132585   4.309   2.009   0.885
10562SOL    HW232586   4.419   2.128   0.907
10563SOL     OW32587   1.430   2.696   2.214
10563SOL    HW132588   1.449   2.634   2.291
10563SOL    HW232589   1.458   2.788   2.238
10564SOL     OW32590   0.083   2.055   2.342
10564SOL    HW132591   0.108   2.062   2.245
10564SOL    HW232592   0.155   2.005   2.390
10565SOL     OW32593   5.084   1.933   4.986
10565SOL    HW132594   5.181   1.957   4.996
10565SOL    HW232595   5.058   1.870   5.059
10566SOL     OW32596   4.910   5.576   0.077
10566SOL    HW132597   4.864   5.493   0.107
10566SOL    HW232598   4.984   5.553   0.014
10567SOL     OW32599   2.514   5.597   4.793
10567SOL    HW132600   2.589   5.545   4.752
10567SOL    HW232601   2.427   5.556   4.766
10568SOL     OW32602   3.775   0.648   3.497
10568SOL    HW132603   3.788   0.549   3.498
10568SOL    HW232604   3.678   0.670   3.500
10569SOL     OW32605   6.588   2.101   3.917
10569SOL    HW132606   6.559   2.025   3.975
10569SOL    HW232607   6.589   2.070   3.821
10570SOL     OW32608   1.019   3.817   1.238
10570SOL    HW132609   0.963   3.805   1.156
10570SOL    HW232610   1.076   3.736   1.252
10571SOL     OW32611   6.699   6.699   4.617
10571SOL    HW132612   6.720   6.639   4.540
10571SOL    HW232613   6.721   6.653   4.703
10572SOL     OW32614   6.167   3.493   2.767
10572SOL    HW132615   6.178   3.589   2.791
10572SOL    HW232616   6.077   3.478   2.727
10573SOL     OW32617   6.405   5.243   5.588
10573SOL    HW132618   6.329   5.273   5.530
10573SOL    HW232619   6.374   5.234   5.682
10574SOL     OW32620   0.606   2.125   2.391
10574SOL    HW132621   0.591   2.221   2.413
10574SOL    HW232622   0.673   2.117   2.318
10575SOL     OW32623   6.958   6.970   6.083
10575SOL    HW132624   6.951   6.884   6.031
10575SOL    HW232625   6.868   6.993   6.120
10576SOL     OW32626   0.760   5.736   3.505
10576SOL    HW132627   0.786   5.774   3.593
10576SOL    HW232628   0.695   5.661   3.518
10577SOL     OW32629   0.065   2.747   5.733
10577SOL    HW132630   0.151   2.782   5.695
10577SOL    HW232631   0.040   2.663   5.685
10578SOL     OW32632   5.104   0.772   5.266
10578SOL    HW132633   5.094   0.673   5.274
10578SOL    HW232634   5.197   0.794   5.236
10579SOL     OW32635   5.734   6.445   1.227
10579SOL    HW132636   5.738   6.449   1.327
10579SOL    HW232637   5.783   6.363   1.196
10580SOL     OW32638   0.948   5.389   0.280
10580SOL    HW132639   0.946   5.406   0.378
10580SOL    HW232640   0.857   5.405   0.241
10581SOL     OW32641   4.146   2.256   3.039
10581SOL    HW132642   4.164   2.352   3.021
10581SOL    HW232643   4.220   2.218   3.095
10582SOL     OW32644   3.495   4.323   6.664
10582SOL    HW132645   3.467   4.298   6.757
10582SOL    HW232646   3.456   4.412   6.639
10583SOL     OW32647   4.961   1.170   1.176
10583SOL    HW132648   5.033   1.234   1.150
10583SOL    HW232649   4.878   1.220   1.198
10584SOL     OW32650   5.778   6.911   1.428
10584SOL    HW132651   5.684   6.890   1.454
10584SOL    HW232652   5.778   6.980   1.356
10585SOL     OW32653   2.874   4.637   6.660
10585SOL    HW132654   2.829   4.551   6.684
10585SOL    HW232655   2.962   4.618   6.618
10586SOL     OW32656   5.120   2.199   1.775
10586SOL    HW132657   5.162   2.124   1.724
10586SOL    HW232658   5.021   2.184   1.780
10587SOL     OW32659   0.060   3.519   0.244
10587SOL    HW132660   0.021   3.426   0.248
10587SOL    HW232661   0.049   3.564   0.332
10588SOL     OW32662   1.997   5.462   3.603
10588SOL    HW132663   1.990   5.537   3.669
10588SOL    HW232664   1.923   5.470   3.536
10589SOL     OW32665   6.322   1.003   4.258
10589SOL    HW132666   6.278   1.091   4.272
10589SOL    HW232667   6.269   0.948   4.194
10590SOL     OW32668   1.307   0.163   4.837
10590SOL    HW132669   1.261   0.104   4.771
10590SOL    HW232670   1.239   0.216   4.887
10591SOL     OW32671   1.257   2.365   1.561
10591SOL    HW132672   1.188   2.295   1.577
10591SOL    HW232673   1.319   2.370   1.640
10592SOL     OW32674   4.892   1.552   6.096
10592SOL    HW132675   4.947   1.632   6.121
10592SOL    HW232676   4.932   1.507   6.017
10593SOL     OW32677   1.656   3.665   2.291
10593SOL    HW132678   1.729   3.725   2.258
10593SOL    HW232679   1.576   3.721   2.316
10594SOL     OW32680   1.291   1.597   4.572
10594SOL    HW132681   1.316   1.685   4.534
10594SOL    HW232682   1.246   1.541   4.502
10595SOL     OW32683   1.828   5.806   4.738
10595SOL    HW132684   1.788   5.791   4.647
10595SOL    HW232685   1.807   5.728   4.797
10596SOL     OW32686   2.732   1.473   1.218
10596SOL    HW132687   2.686   1.408   1.157
10596SOL    HW232688   2.808   1.515   1.170
10597SOL     OW32689   1.710   1.090   3.810
10597SOL    HW132690   1.729   1.033   3.730
10597SOL    HW232691   1.760   1.054   3.888
10598SOL     OW32692   2.763   0.879   0.773
10598SOL    HW132693   2.749   0.872   0.871
10598SOL    HW232694   2.703   0.814   0.726
10599SOL     OW32695   4.802   0.170   6.215
10599SOL    HW132696   4.832   0.083   6.175
10599SOL    HW232697   4.840   0.179   6.307
10600SOL     OW32698   1.870   3.094   4.951
10600SOL    HW132699   1.955   3.145   4.940
10600SOL    HW232700   1.812   3.109   4.871
10601SOL     OW32701   4.172   6.150   5.316
10601SOL    HW132702   4.130   6.099   5.241
10601SOL    HW232703   4.154   6.248   5.304
10602SOL     OW32704   4.772   2.380   2.200
10602SOL    HW132705   4.864   2.342   2.208
10602SOL    HW232706   4.777   2.471   2.159
10603SOL     OW32707   0.865   5.397   5.137
10603SOL    HW132708   0.902   5.455   5.209
10603SOL    HW232709   0.784   5.349   5.171
10604SOL     OW32710   0.197   4.508   6.295
10604SOL    HW132711   0.227   4.417   6.267
10604SOL    HW232712   0.144   4.501   6.380
10605SOL     OW32713   1.245   5.151   6.932
10605SOL    HW132714   1.162   5.116   6.976
10605SOL    HW232715   1.228   5.165   6.834
10606SOL     OW32716   1.198   1.142   2.043
10606SOL    HW132717   1.224   1.144   2.140
10606SOL    HW232718   1.263   1.085   1.993
10607SOL     OW32719   5.670   3.913   6.963
10607SOL    HW132720   5.720   3.852   6.902
10607SOL    HW232721   5.732   3.981   7.001
10608SOL     OW32722   5.702   6.136   2.786
10608SOL    HW132723   5.794   6.157   2.753
10608SOL    HW232724   5.696   6.038   2.806
10609SOL     OW32725   4.047   6.437   3.017
10609SOL    HW132726   4.118   6.485   2.965
10609SOL    HW232727   4.077   6.343   3.036
10610SOL     OW32728   2.457   4.449   5.160
10610SOL    HW132729   2.365   4.442   5.124
10610SOL    HW232730   2.481   4.365   5.209
10611SOL     OW32731   4.995   2.165   6.007
10611SOL    HW132732   4.931   2.183   6.082
10611SOL    HW232733   4.988   2.238   5.939
10612SOL     OW32734   2.324   0.342   1.689
10612SOL    HW132735   2.293   0.337   1.594
10612SOL    HW232736   2.412   0.391   1.693
10613SOL     OW32737   1.211   6.444   6.868
10613SOL    HW132738   1.121   6.481   6.891
10613SOL    HW232739   1.279   6.478   6.932
10614SOL     OW32740   0.529   1.171   2.681
10614SOL    HW132741   0.476   1.098   2.639
10614SOL    HW232742   0.487   1.259   2.661
10615SOL     OW32743   0.389   6.680   5.979
10615SOL    HW132744   0.362   6.590   5.946
10615SOL    HW232745   0.452   6.722   5.913
10616SOL     OW32746   3.595   5.559   1.637
10616SOL    HW132747   3.558   5.651   1.619
10616SOL    HW232748   3.672   5.566   1.700
10617SOL     OW32749   6.353   1.836   6.464
10617SOL    HW132750   6.315   1.869   6.378
10617SOL    HW232751   6.452   1.850   6.463
10618SOL     OW32752   6.552   4.182   0.863
10618SOL    HW132753   6.497   4.132   0.796
10618SOL    HW232754   6.580   4.270   0.824
10619SOL     OW32755   0.292   3.634   3.640
10619SOL    HW132756   0.349   3.568   3.591
10619SOL    HW232757   0.206   3.591   3.666
10620SOL     OW32758   1.761   5.139   3.772
10620SOL    HW132759   1.730   5.215   3.716
10620SOL    HW232760   1.745   5.053   3.723
10621SOL     OW32761   3.718   0.682   0.673
10621SOL    HW132762   3.712   0.595   0.722
10621SOL    HW232763   3.758   0.666   0.582
10622SOL     OW32764   3.850   2.260   0.528
10622SOL    HW132765   3.914   2.303   0.592
10622SOL    HW232766   3.837   2.319   0.449
10623SOL     OW32767   0.337   1.376   4.148
10623SOL    HW132768   0.282   1.459   4.158
10623SOL    HW232769   0.415   1.394   4.088
10624SOL     OW32770   2.390   1.516   3.952
10624SOL    HW132771   2.412   1.566   3.869
10624SOL    HW232772   2.292   1.494   3.954
10625SOL     OW32773   0.731   2.782   1.133
10625SOL    HW132774   0.743   2.683   1.142
10625SOL    HW232775   0.734   2.807   1.036
10626SOL     OW32776   0.409   2.317   3.166
10626SOL    HW132777   0.383   2.354   3.077
10626SOL    HW232778   0.447   2.225   3.153
10627SOL     OW32779   3.782   5.412   4.662
10627SOL    HW132780   3.754   5.507   4.645
10627SOL    HW232781   3.760   5.356   4.582
10628SOL     OW32782   6.783   6.607   4.884
10628SOL    HW132783   6.712   6.553   4.931
10628SOL    HW232784   6.873   6.580   4.918
10629SOL     OW32785   3.292   4.584   6.722
10629SOL    HW132786   3.233   4.521   6.672
10629SOL    HW232787   3.240   4.623   6.799
10630SOL     OW32788   5.585   1.550   1.501
10630SOL    HW132789   5.652   1.564   1.573
10630SOL    HW232790   5.556   1.638   1.464
10631SOL     OW32791   1.494   0.116   4.124
10631SOL    HW132792   1.501   0.059   4.206
10631SOL    HW232793   1.549   0.199   4.137
10632SOL     OW32794   6.609   2.736   0.320
10632SOL    HW132795   6.532   2.673   0.312
10632SOL    HW232796   6.657   2.743   0.233
10633SOL     OW32797   1.384   4.927   6.896
10633SOL    HW132798   1.358   5.023   6.906
10633SOL    HW232799   1.330   4.886   6.823
10634SOL     OW32800   3.370   6.445   2.154
10634SOL    HW132801   3.382   6.382   2.231
10634SOL    HW232802   3.397   6.398   2.069
10635SOL     OW32803   1.039   0.422   1.243
10635SOL    HW132804   1.008   0.516   1.254
10635SOL    HW232805   0.978   0.374   1.180
10636SOL     OW32806   4.796   2.043   6.958
10636SOL    HW132807   4.836   2.129   6.990
10636SOL    HW232808   4.697   2.054   6.949
10637SOL     OW32809   3.335   4.082   6.637
10637SOL    HW132810   3.413   4.052   6.692
10637SOL    HW232811   3.343   4.180   6.619
10638SOL     OW32812   0.003   1.245   5.367
10638SOL    HW132813   6.942   1.237   5.313
10638SOL    HW232814   7.002   1.250   5.464
10639SOL     OW32815   3.432   1.850   4.631
10639SOL    HW132816   3.456   1.943   4.657
10639SOL    HW232817   3.412   1.847   4.533
10640SOL     OW32818   4.642   6.330   0.742
10640SOL    HW132819   4.558   6.354   0.693
10640SOL    HW232820   4.710   6.403   0.730
10641SOL     OW32821   3.343   6.641   6.795
10641SOL    HW132822   3.384   6.663   6.884
10641SOL    HW232823   3.244   6.651   6.800
10642SOL     OW32824   0.424   5.860   1.927
10642SOL    HW132825   0.451   5.764   1.919
10642SOL    HW232826   0.380   5.875   2.016
10643SOL     OW32827   3.356   3.487   5.936
10643SOL    HW132828   3.402   3.502   5.849
10643SOL    HW232829   3.297   3.407   5.930
10644SOL     OW32830   4.107   1.174   5.743
10644SOL    HW132831   4.110   1.134   5.834
10644SOL    HW232832   4.182   1.137   5.688
10645SOL     OW32833   1.783   0.601   3.593
10645SOL    HW132834   1.709   0.652   3.549
10645SOL    HW232835   1.794   0.512   3.547
10646SOL     OW32836   6.876   5.166   6.473
10646SOL    HW132837   6.801   5.209   6.522
10646SOL    HW232838   6.892   5.214   6.387
10647SOL     OW32839   6.911   6.039   1.032
10647SOL    HW132840   6.977   6.099   0.987
10647SOL    HW232841   6.852   5.997   0.964
10648SOL     OW32842   4.776   4.031   6.622
10648SOL    HW132843   4.769   3.932   6.613
10648SOL    HW232844   4.822   4.053   6.708
10649SOL     OW32845   6.765   5.003   6.257
10649SOL    HW132846   6.800   5.091   6.289
10649SOL    HW232847   6.759   5.004   6.158
10650SOL     OW32848   1.948   7.008   5.723
10650SOL    HW132849   2.009   0.030   5.788
10650SOL    HW232850   1.987   6.920   5.695
10651SOL     OW32851   1.639   0.551   5.627
10651SOL    HW132852   1.568   0.505   5.681
10651SOL    HW232853   1.703   0.597   5.689
10652SOL     OW32854   4.702   0.159   0.492
10652SOL    HW132855   4.769   0.148   0.419
10652SOL    HW232856   4.645   0.239   0.474
10653SOL     OW32857   5.913   3.902   4.151
10653SOL    HW132858   5.864   3.884   4.065
10653SOL    HW232859   5.949   3.816   4.187
10654SOL     OW32860   4.715   0.060   1.454
10654SOL    HW132861   4.719   0.147   1.405
10654SOL    HW232862   4.697   0.076   1.551
10655SOL     OW32863   2.855   6.070   0.954
10655SOL    HW132864   2.876   6.048   0.859
10655SOL    HW232865   2.814   6.161   0.958
10656SOL     OW32866   6.881   2.755   5.906
10656SOL    HW132867   6.936   2.731   5.986
10656SOL    HW232868   6.941   2.773   5.828
10657SOL     OW32869   5.970   0.198   0.381
10657SOL    HW132870   5.932   0.223   0.293
10657SOL    HW232871   5.928   0.112   0.412
10658SOL     OW32872   0.173   6.322   4.046
10658SOL    HW132873   0.239   6.393   4.070
10658SOL    HW232874   0.211   6.232   4.067
10659SOL     OW32875   5.576   1.100   1.605
10659SOL    HW132876   5.616   1.187   1.635
10659SOL    HW232877   5.479   1.098   1.628
10660SOL     OW32878   4.813   4.944   5.186
10660SOL    HW132879   4.884   4.875   5.198
10660SOL    HW232880   4.802   4.995   5.272
10661SOL     OW32881   6.902   0.742   2.043
10661SOL    HW132882   6.866   0.836   2.042
10661SOL    HW232883   6.863   0.693   2.120
10662SOL     OW32884   0.675   2.084   0.678
10662SOL    HW132885   0.603   2.121   0.737
10662SOL    HW232886   0.759   2.073   0.732
10663SOL     OW32887   1.111   2.445   2.041
10663SOL    HW132888   1.035   2.408   1.988
10663SOL    HW232889   1.189   2.463   1.981
10664SOL     OW32890   2.178   5.299   6.487
10664SOL    HW132891   2.158   5.201   6.482
10664SOL    HW232892   2.270   5.316   6.450
10665SOL     OW32893   5.559   2.285   6.613
10665SOL    HW132894   5.658   2.301   6.609
10665SOL    HW232895   5.539   2.228   6.693
10666SOL     OW32896   0.500   6.567   0.386
10666SOL    HW132897   0.526   6.606   0.475
10666SOL    HW232898   0.582   6.536   0.338
10667SOL     OW32899   3.152   2.282   5.408
10667SOL    HW132900   3.066   2.233   5.413
10667SOL    HW232901   3.155   2.336   5.323
10668SOL     OW32902   1.328   0.396   6.130
10668SOL    HW132903   1.263   0.392   6.206
10668SOL    HW232904   1.317   0.482   6.080
10669SOL     OW32905   2.497   5.452   6.441
10669SOL    HW132906   2.450   5.491   6.520
10669SOL    HW232907   2.465   5.359   6.425
10670SOL     OW32908   5.880   4.299   4.970
10670SOL    HW132909   5.791   4.343   4.979
10670SOL    HW232910   5.868   4.203   4.944
10671SOL     OW32911   2.232   2.563   3.489
10671SOL    HW132912   2.331   2.572   3.479
10671SOL    HW232913   2.189   2.653   3.484
10672SOL     OW32914   6.796   2.375   0.521
10672SOL    HW132915   6.804   2.370   0.421
10672SOL    HW232916   6.851   2.303   0.563
10673SOL     OW32917   3.299   4.120   3.283
10673SOL    HW132918   3.314   4.027   3.316
10673SOL    HW232919   3.203   4.132   3.258
10674SOL     OW32920   4.156   1.479   2.482
10674SOL    HW132921   4.147   1.386   2.519
10674SOL    HW232922   4.098   1.489   2.401
10675SOL     OW32923   1.098   1.950   5.354
10675SOL    HW132924   1.170   1.882   5.343
10675SOL    HW232925   1.073   1.958   5.450
10676SOL     OW32926   6.102   0.732   6.688
10676SOL    HW132927   6.049   0.659   6.731
10676SOL    HW232928   6.196   0.700   6.674
10677SOL     OW32929   4.634   0.994   6.530
10677SOL    HW132930   4.700   1.048   6.479
10677SOL    HW232931   4.542   1.030   6.514
10678SOL     OW32932   2.234   5.305   3.917
10678SOL    HW132933   2.305   5.255   3.966
10678SOL    HW232934   2.163   5.241   3.887
10679SOL     OW32935   6.041   5.504   3.860
10679SOL    HW132936   5.987   5.588   3.856
10679SOL    HW232937   6.099   5.497   3.778
10680SOL     OW32938   0.091   2.776   3.803
10680SOL    HW132939   0.152   2.699   3.783
10680SOL    HW232940   7.019   2.749   3.786
10681SOL     OW32941   0.634   3.423   6.740
10681SOL    HW132942   0.649   3.477   6.658
10681SOL    HW232943   0.622   3.484   6.818
10682SOL     OW32944   6.259   2.074   3.598
10682SOL    HW132945   6.281   2.171   3.586
10682SOL    HW232946   6.235   2.057   3.694
10683SOL     OW32947   0.505   0.166   4.515
10683SOL    HW132948   0.434   0.110   4.471
10683SOL    HW232949   0.594   0.123   4.501
10684SOL     OW32950   5.054   6.095   0.866
10684SOL    HW132951   5.063   6.193   0.884
10684SOL    HW232952   5.025   6.048   0.950
10685SOL     OW32953   6.401   2.220   3.296
10685SOL    HW132954   6.457   2.233   3.215
10685SOL    HW232955   6.304   2.223   3.270
10686SOL     OW32956   5.532   4.451   1.552
10686SOL    HW132957   5.436   4.429   1.572
10686SOL    HW232958   5.550   4.546   1.576
10687SOL     OW32959   0.459   5.312   1.059
10687SOL    HW132960   0.491   5.373   0.987
10687SOL    HW232961   0.461   5.361   1.147
10688SOL     OW32962   1.615   4.622   0.870
10688SOL    HW132963   1.585   4.609   0.775
10688SOL    HW232964   1.604   4.537   0.920
10689SOL     OW32965   0.284   0.671   1.497
10689SOL    HW132966   0.185   0.659   1.497
10689SOL    HW232967   0.308   0.751   1.553
10690SOL     OW32968   3.754   0.668   3.189
10690SOL    HW132969   3.668   0.625   3.218
10690SOL    HW232970   3.829   0.603   3.196
10691SOL     OW32971   5.330   1.437   1.490
10691SOL    HW132972   5.281   1.516   1.451
10691SOL    HW232973   5.428   1.457   1.491
10692SOL     OW32974   5.557   6.485   3.917
10692SOL    HW132975   5.462   6.510   3.898
10692SOL    HW232976   5.617   6.535   3.855
10693SOL     OW32977   4.298   2.405   4.459
10693SOL    HW132978   4.238   2.355   4.521
10693SOL    HW232979   4.393   2.389   4.485
10694SOL     OW32980   3.099   6.292   0.107
10694SOL    HW132981   3.149   6.208   0.089
10694SOL    HW232982   3.094   6.348   0.024
10695SOL     OW32983   6.165   2.799   5.712
10695SOL    HW132984   6.066   2.806   5.704
10695SOL    HW232985   6.194   2.838   5.799
10696SOL     OW32986   6.637   0.602   1.002
10696SOL    HW132987   6.662   0.505   0.992
10696SOL    HW232988   6.587   0.614   1.088
10697SOL     OW32989   2.968   5.844   2.705
10697SOL    HW132990   2.907   5.918   2.677
10697SOL    HW232991   2.986   5.850   2.803
10698SOL     OW32992   3.885   0.016   3.972
10698SOL    HW132993   3.952   6.974   4.009
10698SOL    HW232994   3.932   0.085   3.918
10699SOL     OW32995   6.913   3.857   3.532
10699SOL    HW132996   6.948   3.945   3.500
10699SOL    HW232997   6.971   3.824   3.607
10700SOL     OW32998   0.736   3.077   2.967
10700SOL    HW132999   0.758   3.013   2.894
10700SOL    HW233000   0.789   3.053   3.049
10701SOL     OW33001   2.576   6.898   1.452
10701SOL    HW133002   2.666   6.918   1.415
10701SOL    HW233003   2.574   6.804   1.485
10702SOL     OW33004   4.991   1.867   1.060
10702SOL    HW133005   4.968   1.873   0.963
10702SOL    HW233006   4.929   1.926   1.113
10703SOL     OW33007   3.683   3.873   4.009
10703SOL    HW133008   3.642   3.835   3.926
10703SOL    HW233009   3.782   3.876   3.999
10704SOL     OW33010   5.308   4.982   1.373
10704SOL    HW133011   5.215   4.966   1.343
10704SOL    HW233012   5.321   4.942   1.464
10705SOL     OW33013   1.142   2.983   6.974
10705SOL    HW133014   1.109   2.979   6.879
10705SOL    HW233015   1.208   2.909   6.989
10706SOL     OW33016   3.175   3.630   0.550
10706SOL    HW133017   3.163   3.532   0.568
10706SOL    HW233018   3.265   3.659   0.584
10707SOL     OW33019   6.352   0.650   6.672
10707SOL    HW133020   6.417   0.574   6.674
10707SOL    HW233021   6.372   0.710   6.595
10708SOL     OW33022   4.469   3.149   1.386
10708SOL    HW133023   4.480   3.246   1.364
10708SOL    HW233024   4.471   3.137   1.486
10709SOL     OW33025   1.047   1.501   6.033
10709SOL    HW133026   1.029   1.416   6.082
10709SOL    HW233027   1.006   1.578   6.082
10710SOL     OW33028   6.744   6.830   3.625
10710SOL    HW133029   6.781   6.823   3.533
10710SOL    HW233030   6.804   6.781   3.689
10711SOL     OW33031   2.209   3.881   5.541
10711SOL    HW133032   2.144   3.809   5.565
10711SOL    HW233033   2.201   3.901   5.443
10712SOL     OW33034   3.747   2.309   6.050
10712SOL    HW133035   3.747   2.213   6.022
10712SOL    HW233036   3.833   2.352   6.021
10713SOL     OW33037   2.721   0.344   0.487
10713SOL    HW133038   2.714   0.263   0.546
10713SOL    HW233039   2.817   0.368   0.475
10714SOL     OW33040   4.788   5.606   4.353
10714SOL    HW133041   4.750   5.696   4.370
10714SOL    HW233042   4.740   5.563   4.276
10715SOL     OW33043   5.745   6.955   2.678
10715SOL    HW133044   5.805   7.021   2.723
10715SOL    HW233045   5.709   6.891   2.746
10716SOL     OW33046   6.528   2.086   2.438
10716SOL    HW133047   6.532   1.988   2.456
10716SOL    HW233048   6.503   2.135   2.521
10717SOL     OW33049   0.526   6.563   1.259
10717SOL    HW133050   0.537   6.662   1.264
10717SOL    HW233051   0.436   6.537   1.293
10718SOL     OW33052   0.284   4.855   5.097
10718SOL    HW133053   0.325   4.774   5.055
10718SOL    HW233054   0.243   4.830   5.185
10719SOL     OW33055   3.339   6.278   3.540
10719SOL    HW133056   3.438   6.287   3.531
10719SOL    HW233057   3.316   6.181   3.552
10720SOL     OW33058   0.744   3.103   5.887
10720SOL    HW133059   0.690   3.160   5.825
10720SOL    HW233060   0.779   3.023   5.838
10721SOL     OW33061   5.439   1.337   4.262
10721SOL    HW133062   5.406   1.375   4.348
10721SOL    HW233063   5.373   1.353   4.190
10722SOL     OW33064   0.748   5.135   0.530
10722SOL    HW133065   0.746   5.053   0.473
10722SOL    HW233066   0.809   5.120   0.609
10723SOL     OW33067   0.138   4.055   5.957
10723SOL    HW133068   0.053   4.029   5.911
10723SOL    HW233069   0.166   3.981   6.018
10724SOL     OW33070   3.752   6.349   5.672
10724SOL    HW133071   3.680   6.418   5.683
10724SOL    HW233072   3.839   6.394   5.656
10725SOL     OW33073   6.965   0.223   5.225
10725SOL    HW133074   0.026   0.198   5.274
10725SOL    HW233075   6.975   0.316   5.189
10726SOL     OW33076   6.866   0.486   3.464
10726SOL    HW133077   6.768   0.501   3.451
10726SOL    HW233078   6.913   0.575   3.462
10727SOL     OW33079   5.047   5.655   6.023
10727SOL    HW133080   5.073   5.721   5.953
10727SOL    HW233081   5.114   5.657   6.098
10728SOL     OW33082   4.858   6.274   4.518
10728SOL    HW133083   4.845   6.372   4.500
10728SOL    HW233084   4.881   6.227   4.433
10729SOL     OW33085   6.526   3.294   4.171
10729SOL    HW133086   6.487   3.212   4.131
10729SOL    HW233087   6.576   3.271   4.254
10730SOL     OW33088   1.069   6.075   4.254
10730SOL    HW133089   1.044   6.101   4.161
10730SOL    HW233090   0.987   6.049   4.306
10731SOL     OW33091   5.046   4.164   5.215
10731SOL    HW133092   5.046   4.066   5.232
10731SOL    HW233093   4.962   4.205   5.251
10732SOL     OW33094   6.025   5.976   2.529
10732SOL    HW133095   6.012   5.879   2.508
10732SOL    HW233096   5.972   6.031   2.465
10733SOL     OW33097   0.861   1.801   5.712
10733SOL    HW133098   0.807   1.782   5.794
10733SOL    HW233099   0.807   1.855   5.648
10734SOL     OW33100   0.537   0.633   4.551
10734SOL    HW133101   0.631   0.652   4.525
10734SOL    HW233102   0.512   0.685   4.632
10735SOL     OW33103   0.357   0.726   2.081
10735SOL    HW133104   0.279   0.704   2.022
10735SOL    HW233105   0.367   0.825   2.087
10736SOL     OW33106   5.004   6.137   4.345
10736SOL    HW133107   4.928   6.077   4.322
10736SOL    HW233108   5.080   6.121   4.282
10737SOL     OW33109   6.029   1.078   0.264
10737SOL    HW133110   6.050   1.165   0.220
10737SOL    HW233111   5.939   1.046   0.234
10738SOL     OW33112   0.361   6.225   2.215
10738SOL    HW133113   0.416   6.234   2.132
10738SOL    HW233114   0.408   6.269   2.291
10739SOL     OW33115   5.027   2.679   4.029
10739SOL    HW133116   5.113   2.728   4.048
10739SOL    HW233117   4.952   2.727   4.074
10740SOL     OW33118   3.249   1.072   6.470
10740SOL    HW133119   3.274   1.167   6.486
10740SOL    HW233120   3.328   1.022   6.435
10741SOL     OW33121   2.273   2.684   4.119
10741SOL    HW133122   2.323   2.688   4.033
10741SOL    HW233123   2.259   2.776   4.154
10742SOL     OW33124   6.704   0.216   2.547
10742SOL    HW133125   6.701   0.167   2.634
10742SOL    HW233126   6.632   0.181   2.487
10743SOL     OW33127   3.746   2.856   5.720
10743SOL    HW133128   3.757   2.773   5.666
10743SOL    HW233129   3.815   2.923   5.692
10744SOL     OW33130   1.644   1.287   0.893
10744SOL    HW133131   1.556   1.301   0.847
10744SOL    HW233132   1.699   1.223   0.840
10745SOL     OW33133   3.796   5.535   2.375
10745SOL    HW133134   3.736   5.487   2.438
10745SOL    HW233135   3.822   5.474   2.300
10746SOL     OW33136   2.552   5.545   5.753
10746SOL    HW133137   2.526   5.454   5.786
10746SOL    HW233138   2.565   5.542   5.654
10747SOL     OW33139   6.524   0.222   4.809
10747SOL    HW133140   6.483   0.237   4.720
10747SOL    HW233141   6.571   0.133   4.809
10748SOL     OW33142   3.846   6.244   2.637
10748SOL    HW133143   3.826   6.341   2.624
10748SOL    HW233144   3.944   6.228   2.627
10749SOL     OW33145   5.147   2.539   2.246
10749SOL    HW133146   5.111   2.613   2.189
10749SOL    HW233147   5.111   2.452   2.213
10750SOL     OW33148   3.449   1.356   4.409
10750SOL    HW133149   3.488   1.409   4.334
10750SOL    HW233150   3.442   1.412   4.491
10751SOL     OW33151   5.810   6.119   3.749
10751SOL    HW133152   5.802   6.036   3.695
10751SOL    HW233153   5.815   6.199   3.689
10752SOL     OW33154   0.284   6.152   6.500
10752SOL    HW133155   0.259   6.165   6.404
10752SOL    HW233156   0.213   6.192   6.559
10753SOL     OW33157   4.597   6.919   4.871
10753SOL    HW133158   4.668   6.907   4.941
10753SOL    HW233159   4.514   6.954   4.914
10754SOL     OW33160   6.582   5.726   2.152
10754SOL    HW133161   6.522   5.671   2.095
10754SOL    HW233162   6.587   5.819   2.115
10755SOL     OW33163   0.970   1.315   2.241
10755SOL    HW133164   0.880   1.297   2.200
10755SOL    HW233165   0.970   1.405   2.285
10756SOL     OW33166   0.802   0.100   6.974
10756SOL    HW133167   0.845   0.147   0.029
10756SOL    HW233168   0.704   0.089   6.993
10757SOL     OW33169   0.057   2.335   2.216
10757SOL    HW133170   0.029   2.285   2.298
10757SOL    HW233171   0.049   2.275   2.136
10758SOL     OW33172   0.244   1.400   1.004
10758SOL    HW133173   0.236   1.487   1.053
10758SOL    HW233174   0.333   1.358   1.025
10759SOL     OW33175   3.257   5.086   5.784
10759SOL    HW133176   3.263   5.081   5.684
10759SOL    HW233177   3.201   5.165   5.809
10760SOL     OW33178   1.207   4.464   6.873
10760SOL    HW133179   1.142   4.495   6.942
10760SOL    HW233180   1.191   4.367   6.854
10761SOL     OW33181   1.663   1.516   6.499
10761SOL    HW133182   1.696   1.607   6.472
10761SOL    HW233183   1.713   1.446   6.449
10762SOL     OW33184   1.411   5.863   0.987
10762SOL    HW133185   1.458   5.795   1.044
10762SOL    HW233186   1.360   5.817   0.915
10763SOL     OW33187   5.068   1.471   2.480
10763SOL    HW133188   5.027   1.520   2.403
10763SOL    HW233189   5.059   1.373   2.465
10764SOL     OW33190   5.180   6.862   4.113
10764SOL    HW133191   5.254   6.837   4.050
10764SOL    HW233192   5.189   6.959   4.136
10765SOL     OW33193   6.972   3.010   1.791
10765SOL    HW133194   0.001   3.061   1.722
10765SOL    HW233195   0.013   2.954   1.844
10766SOL     OW33196   3.605   5.851   6.948
10766SOL    HW133197   3.528   5.893   6.997
10766SOL    HW233198   3.570   5.782   6.885
10767SOL     OW33199   1.569   5.451   6.697
10767SOL    HW133200   1.484   5.442   6.749
10767SOL    HW233201   1.548   5.448   6.599
10768SOL     OW33202   5.870   6.009   7.005
10768SOL    HW133203   5.961   6.024   0.021
10768SOL    HW233204   5.825   6.098   6.989
10769SOL     OW33205   3.125   3.977   4.592
10769SOL    HW133206   3.129   4.055   4.656
10769SOL    HW233207   3.218   3.944   4.575
10770SOL     OW33208   4.408   0.578   4.440
10770SOL    HW133209   4.333   0.591   4.505
10770SOL    HW233210   4.430   0.480   4.434
10771SOL     OW33211   5.127   6.211   5.560
10771SOL    HW133212   5.031   6.229   5.583
10771SOL    HW233213   5.170   6.161   5.636
10772SOL     OW33214   4.968   3.234   4.049
10772SOL    HW133215   4.960   3.301   4.122
10772SOL    HW233216   4.894   3.167   4.057
10773SOL     OW33217   0.772   3.563   0.524
10773SOL    HW133218   0.835   3.640   0.522
10773SOL    HW233219   0.771   3.522   0.615
10774SOL     OW33220   6.686   3.096   0.696
10774SOL    HW133221   6.649   3.011   0.658
10774SOL    HW233222   6.785   3.088   0.705
10775SOL     OW33223   2.102   4.481   6.354
10775SOL    HW133224   2.164   4.559   6.343
10775SOL    HW233225   2.073   4.475   6.450
10776SOL     OW33226   6.949   3.722   3.074
10776SOL    HW133227   6.971   3.713   3.171
10776SOL    HW233228   6.935   3.631   3.034
10777SOL     OW33229   0.806   6.287   2.093
10777SOL    HW133230   0.797   6.359   2.024
10777SOL    HW233231   0.805   6.198   2.048
10778SOL     OW33232   4.885   6.961   3.515
10778SOL    HW133233   4.972   7.007   3.530
10778SOL    HW233234   4.825   7.019   3.460
10779SOL     OW33235   5.762   2.495   5.340
10779SOL    HW133236   5.713   2.437   5.405
10779SOL    HW233237   5.861   2.487   5.357
10780SOL     OW33238   1.208   5.713   4.957
10780SOL    HW133239   1.293   5.756   4.986
10780SOL    HW233240   1.229   5.624   4.916
10781SOL     OW33241   6.102   2.481   5.678
10781SOL    HW133242   6.005   2.498   5.666
10781SOL    HW233243   6.145   2.561   5.720
10782SOL     OW33244   1.391   3.295   5.029
10782SOL    HW133245   1.446   3.266   5.108
10782SOL    HW233246   1.299   3.319   5.060
10783SOL     OW33247   1.458   3.971   4.207
10783SOL    HW133248   1.506   4.058   4.216
10783SOL    HW233249   1.464   3.921   4.293
10784SOL     OW33250   4.738   5.501   3.938
10784SOL    HW133251   4.734   5.582   3.880
10784SOL    HW233252   4.799   5.433   3.897
10785SOL     OW33253   1.676   5.704   1.891
10785SOL    HW133254   1.700   5.671   1.800
10785SOL    HW233255   1.576   5.704   1.900
10786SOL     OW33256   4.889   1.283   2.770
10786SOL    HW133257   4.947   1.250   2.695
10786SOL    HW233258   4.923   1.372   2.800
10787SOL     OW33259   3.011   1.201   3.795
10787SOL    HW133260   2.987   1.277   3.856
10787SOL    HW233261   3.045   1.237   3.708
10788SOL     OW33262   1.595   3.064   6.609
10788SOL    HW133263   1.525   3.027   6.548
10788SOL    HW233264   1.553   3.101   6.691
10789SOL     OW33265   6.814   2.494   2.861
10789SOL    HW133266   6.751   2.426   2.900
10789SOL    HW233267   6.908   2.471   2.887
10790SOL     OW33268   7.018   2.859   5.117
10790SOL    HW133269   7.000   2.957   5.109
10790SOL    HW233270   0.083   2.845   5.163
10791SOL     OW33271   2.222   2.801   3.189
10791SOL    HW133272   2.171   2.807   3.275
10791SOL    HW233273   2.183   2.864   3.122
10792SOL     OW33274   3.676   0.913   2.130
10792SOL    HW133275   3.691   0.819   2.157
10792SOL    HW233276   3.681   0.973   2.210
10793SOL     OW33277   3.662   2.046   3.786
10793SOL    HW133278   3.669   1.946   3.775
10793SOL    HW233279   3.754   2.085   3.795
10794SOL     OW33280   4.758   2.926   0.159
10794SOL    HW133281   4.687   2.871   0.115
10794SOL    HW233282   4.800   2.873   0.233
10795SOL     OW33283   6.374   2.511   3.378
10795SOL    HW133284   6.376   2.411   3.370
10795SOL    HW233285   6.372   2.551   3.286
10796SOL     OW33286   6.804   2.369   6.718
10796SOL    HW133287   6.725   2.356   6.658
10796SOL    HW233288   6.883   2.398   6.665
10797SOL     OW33289   5.686   4.312   6.709
10797SOL    HW133290   5.596   4.332   6.749
10797SOL    HW233291   5.736   4.398   6.697
10798SOL     OW33292   2.803   5.750   0.633
10798SOL    HW133293   2.717   5.700   0.638
10798SOL    HW233294   2.879   5.685   0.634
10799SOL     OW33295   1.825   0.998   3.580
10799SOL    HW133296   1.865   1.085   3.607
10799SOL    HW233297   1.811   0.998   3.481
10800SOL     OW33298   1.075   0.316   4.956
10800SOL    HW133299   1.057   0.240   5.019
10800SOL    HW233300   0.989   0.358   4.929
10801SOL     OW33301   3.008   6.005   6.799
10801SOL    HW133302   2.972   6.012   6.892
10801SOL    HW233303   2.992   6.091   6.750
10802SOL     OW33304   0.984   4.781   3.430
10802SOL    HW133305   1.067   4.825   3.396
10802SOL    HW233306   1.003   4.685   3.450
10803SOL     OW33307   0.120   3.995   4.550
10803SOL    HW133308   0.045   4.044   4.594
10803SOL    HW233309   0.143   4.040   4.464
10804SOL     OW33310   4.796   5.114   6.367
10804SOL    HW133311   4.721   5.166   6.326
10804SOL    HW233312   4.783   5.017   6.349
10805SOL     OW33313   5.502   6.076   6.504
10805SOL    HW133314   5.478   6.129   6.423
10805SOL    HW233315   5.470   6.123   6.586
10806SOL     OW33316   6.481   3.236   5.161
10806SOL    HW133317   6.451   3.319   5.209
10806SOL    HW233318   6.581   3.238   5.152
10807SOL     OW33319   4.475   2.583   5.021
10807SOL    HW133320   4.382   2.618   5.021
10807SOL    HW233321   4.539   2.659   5.037
10808SOL     OW33322   0.531   2.312   1.178
10808SOL    HW133323   0.589   2.231   1.167
10808SOL    HW233324   0.436   2.288   1.159
10809SOL     OW33325   0.595   0.967   2.893
10809SOL    HW133326   0.557   0.875   2.902
10809SOL    HW233327   0.542   1.018   2.825
10810SOL     OW33328   1.931   2.117   6.526
10810SOL    HW133329   1.893   2.124   6.434
10810SOL    HW233330   1.984   2.199   6.547
10811SOL     OW33331   4.614   5.317   6.308
10811SOL    HW133332   4.544   5.279   6.248
10811SOL    HW233333   4.570   5.363   6.386
10812SOL     OW33334   6.744   3.054   2.190
10812SOL    HW133335   6.715   3.078   2.098
10812SOL    HW233336   6.686   2.981   2.226
10813SOL     OW33337   2.796   6.112   2.094
10813SOL    HW133338   2.810   6.068   2.183
10813SOL    HW233339   2.795   6.211   2.106
10814SOL     OW33340   1.807   6.041   4.206
10814SOL    HW133341   1.835   5.956   4.249
10814SOL    HW233342   1.753   6.021   4.124
10815SOL     OW33343   5.498   2.682   6.020
10815SOL    HW133344   5.586   2.725   6.037
10815SOL    HW233345   5.511   2.599   5.967
10816SOL     OW33346   2.136   2.730   1.217
10816SOL    HW133347   2.221   2.757   1.172
10816SOL    HW233348   2.104   2.804   1.276
10817SOL     OW33349   3.647   1.522   1.729
10817SOL    HW133350   3.718   1.523   1.799
10817SOL    HW233351   3.655   1.604   1.672
10818SOL     OW33352   4.255   3.412   5.565
10818SOL    HW133353   4.178   3.384   5.508
10818SOL    HW233354   4.326   3.452   5.507
10819SOL     OW33355   2.160   3.388   5.019
10819SOL    HW133356   2.090   3.430   4.962
10819SOL    HW233357   2.181   3.448   5.096
10820SOL     OW33358   0.672   6.309   5.122
10820SOL    HW133359   0.686   6.236   5.188
10820SOL    HW233360   0.719   6.287   5.037
10821SOL     OW33361   6.948   0.453   6.702
10821SOL    HW133362   6.961   0.470   6.799
10821SOL    HW233363   0.014   0.438   6.658
10822SOL     OW33364   0.384   5.544   5.792
10822SOL    HW133365   0.391   5.632   5.746
10822SOL    HW233366   0.344   5.476   5.730
10823SOL     OW33367   2.622   2.496   0.489
10823SOL    HW133368   2.623   2.564   0.563
10823SOL    HW233369   2.618   2.404   0.529
10824SOL     OW33370   5.104   1.469   4.596
10824SOL    HW133371   5.026   1.499   4.651
10824SOL    HW233372   5.094   1.502   4.502
10825SOL     OW33373   4.636   1.384   2.253
10825SOL    HW133374   4.653   1.323   2.330
10825SOL    HW233375   4.654   1.479   2.280
10826SOL     OW33376   7.015   3.385   0.632
10826SOL    HW133377   0.076   3.335   0.608
10826SOL    HW233378   0.011   3.447   0.708
10827SOL     OW33379   6.912   2.609   5.020
10827SOL    HW133380   6.976   2.555   4.966
10827SOL    HW233381   6.956   2.695   5.046
10828SOL     OW33382   3.161   4.679   6.941
10828SOL    HW133383   3.074   4.727   6.955
10828SOL    HW233384   3.201   4.657   0.007
10829SOL     OW33385   1.451   3.637   0.867
10829SOL    HW133386   1.545   3.611   0.847
10829SOL    HW233387   1.423   3.594   0.953
10830SOL     OW33388   6.035   0.393   4.079
10830SOL    HW133389   6.092   0.316   4.104
10830SOL    HW233390   5.949   0.360   4.039
10831SOL     OW33391   5.481   3.090   2.591
10831SOL    HW133392   5.484   2.997   2.555
10831SOL    HW233393   5.520   3.091   2.684
10832SOL     OW33394   1.726   2.797   2.469
10832SOL    HW133395   1.788   2.829   2.397
10832SOL    HW233396   1.694   2.705   2.447
10833SOL     OW33397   3.060   6.920   4.668
10833SOL    HW133398   3.090   6.996   4.726
10833SOL    HW233399   3.023   6.847   4.726
10834SOL     OW33400   6.655   2.191   5.606
10834SOL    HW133401   6.631   2.243   5.524
10834SOL    HW233402   6.718   2.245   5.662
10835SOL     OW33403   0.754   1.016   0.701
10835SOL    HW133404   0.820   0.946   0.730
10835SOL    HW233405   0.757   1.025   0.602
10836SOL     OW33406   0.026   1.301   1.125
10836SOL    HW133407   6.977   1.370   1.108
10836SOL    HW233408   0.105   1.319   1.067
10837SOL     OW33409   1.626   5.586   0.727
10837SOL    HW133410   1.618   5.680   0.761
10837SOL    HW233411   1.565   5.527   0.779
10838SOL     OW33412   6.202   6.277   1.296
10838SOL    HW133413   6.292   6.298   1.256
10838SOL    HW233414   6.136   6.348   1.269
10839SOL     OW33415   2.896   1.356   6.605
10839SOL    HW133416   2.963   1.401   6.664
10839SOL    HW233417   2.892   1.403   6.517
10840SOL     OW33418   0.978   0.643   3.340
10840SOL    HW133419   0.963   0.679   3.248
10840SOL    HW233420   0.961   0.715   3.407
10841SOL     OW33421   4.472   4.405   0.229
10841SOL    HW133422   4.522   4.452   0.157
10841SOL    HW233423   4.536   4.350   0.284
10842SOL     OW33424   5.876   1.684   2.251
10842SOL    HW133425   5.780   1.700   2.225
10842SOL    HW233426   5.902   1.591   2.225
10843SOL     OW33427   0.878   2.086   1.268
10843SOL    HW133428   0.805   2.089   1.200
10843SOL    HW233429   0.877   1.997   1.314
10844SOL     OW33430   4.390   6.625   3.630
10844SOL    HW133431   4.490   6.629   3.641
10844SOL    HW233432   4.364   6.676   3.549
10845SOL     OW33433   2.457   3.429   1.193
10845SOL    HW133434   2.544   3.392   1.162
10845SOL    HW233435   2.466   3.460   1.287
10846SOL     OW33436   3.086   2.144   1.518
10846SOL    HW133437   3.180   2.148   1.486
10846SOL    HW233438   3.025   2.127   1.441
10847SOL     OW33439   5.098   2.006   5.718
10847SOL    HW133440   5.177   2.017   5.658
10847SOL    HW233441   5.070   2.095   5.754
10848SOL     OW33442   2.466   0.276   6.247
10848SOL    HW133443   2.473   0.188   6.295
10848SOL    HW233444   2.469   0.350   6.314
10849SOL     OW33445   0.393   4.273   5.010
10849SOL    HW133446   0.490   4.296   5.004
10849SOL    HW233447   0.367   4.262   5.106
10850SOL     OW33448   5.850   0.833   3.116
10850SOL    HW133449   5.837   0.900   3.189
10850SOL    HW233450   5.911   0.871   3.046
10851SOL     OW33451   5.010   3.024   0.404
10851SOL    HW133452   5.035   2.978   0.489
10851SOL    HW233453   5.042   2.969   0.326
10852SOL     OW33454   6.102   1.382   5.582
10852SOL    HW133455   6.029   1.315   5.598
10852SOL    HW233456   6.099   1.411   5.486
10853SOL     OW33457   1.613   6.709   5.663
10853SOL    HW133458   1.588   6.770   5.739
10853SOL    HW233459   1.556   6.628   5.665
10854SOL     OW33460   5.996   6.769   6.848
10854SOL    HW133461   5.978   6.778   6.750
10854SOL    HW233462   6.095   6.765   6.863
10855SOL     OW33463   0.842   5.665   6.748
10855SOL    HW133464   0.896   5.680   6.831
10855SOL    HW233465   0.829   5.567   6.734
10856SOL     OW33466   4.498   0.210   6.501
10856SOL    HW133467   4.425   0.187   6.565
10856SOL    HW233468   4.494   0.308   6.480
10857SOL     OW33469   5.979   6.602   4.681
10857SOL    HW133470   5.910   6.559   4.738
10857SOL    HW233471   6.070   6.571   4.709
10858SOL     OW33472   1.736   3.006   1.541
10858SOL    HW133473   1.828   2.992   1.578
10858SOL    HW233474   1.701   2.919   1.507
10859SOL     OW33475   2.128   5.023   1.887
10859SOL    HW133476   2.191   5.099   1.901
10859SOL    HW233477   2.036   5.059   1.870
10860SOL     OW33478   5.588   1.416   2.157
10860SOL    HW133479   5.687   1.422   2.142
10860SOL    HW233480   5.569   1.404   2.255
10861SOL     OW33481   2.590   4.956   1.280
10861SOL    HW133482   2.567   4.861   1.257
10861SOL    HW233483   2.682   4.976   1.248
10862SOL     OW33484   3.950   4.774   5.670
10862SOL    HW133485   3.853   4.788   5.649
10862SOL    HW233486   3.971   4.677   5.670
10863SOL     OW33487   0.296   0.049   4.348
10863SOL    HW133488   0.249   6.985   4.367
10863SOL    HW233489   0.380   0.030   4.296
10864SOL     OW33490   3.022   3.633   2.568
10864SOL    HW133491   3.090   3.563   2.591
10864SOL    HW233492   3.012   3.696   2.646
10865SOL     OW33493   3.779   2.072   2.227
10865SOL    HW133494   3.738   2.127   2.154
10865SOL    HW233495   3.794   1.979   2.195
10866SOL     OW33496   0.317   3.639   5.275
10866SOL    HW133497   0.276   3.606   5.190
10866SOL    HW233498   0.290   3.734   5.291
10867SOL     OW33499   5.113   3.275   0.323
10867SOL    HW133500   5.141   3.321   0.407
10867SOL    HW233501   5.059   3.193   0.345
10868SOL     OW33502   6.866   0.230   6.155
10868SOL    HW133503   6.923   0.303   6.193
10868SOL    HW233504   6.821   0.180   6.229
10869NA      NA33505   6.529   1.201   7.016
10870NA      NA33506   4.776   4.605   4.851
10871NA      NA33507   1.033   4.693   2.977
10872NA      NA33508   6.654   3.426   3.630
10873NA      NA33509   4.408   2.372   5.122
10874NA      NA33510   2.758   3.482   6.922
10875NA      NA33511   1.533   5.466   0.260
10876NA      NA33512   4.296   4.863   1.900
10877NA      NA33513   5.559   3.769   1.224
10878NA      NA33514   3.557   1.942   0.483
10879NA      NA33515   4.957   5.983   1.677
10880NA      NA33516   2.542   6.491   4.385
10881NA      NA33517   3.391   5.514   2.819
10882NA      NA33518   4.567   5.062   5.636
   7.02237   7.02237   7.02237
