Generated by trjconv : CNT in water t= 549.00000
33518
    1C        C    1   2.837   2.764   4.752
    1C        C    2   2.895   2.718   4.872
    1C        C    3   2.842   2.774   4.989
    1C        C    4   2.843   2.768   4.262
    1C        C    5   2.899   2.725   4.385
    1C        C    6   2.842   2.768   4.507
    1C        C    7   3.007   2.640   4.627
    1C        C    8   2.887   2.714   4.629
    1C        C    9   3.076   2.608   4.746
    1C        C   10   3.011   2.636   4.868
    1C        C   11   3.187   2.499   4.978
    1C        C   12   3.062   2.562   4.975
    1C        C   13   2.849   2.768   3.772
    1C        C   14   2.898   2.719   3.895
    1C        C   15   2.846   2.770   4.016
    1C        C   16   3.015   2.646   4.140
    1C        C   17   2.897   2.724   4.139
    1C        C   18   3.080   2.619   4.262
    1C        C   19   3.019   2.651   4.385
    1C        C   20   3.207   2.559   4.505
    1C        C   21   3.074   2.606   4.507
    1C        C   22   3.281   2.541   4.625
    1C        C   23   3.209   2.557   4.745
    1C        C   24   3.412   2.482   4.864
    1C        C   25   3.271   2.504   4.862
    1C        C   26   3.490   2.483   4.980
    1C        C   27   2.850   2.767   3.282
    1C        C   28   2.907   2.726   3.405
    1C        C   29   2.853   2.772   3.527
    1C        C   30   3.015   2.639   3.648
    1C        C   31   2.900   2.721   3.650
    1C        C   32   3.076   2.607   3.772
    1C        C   33   3.017   2.642   3.895
    1C        C   34   3.207   2.556   4.019
    1C        C   35   3.075   2.606   4.018
    1C        C   36   3.277   2.537   4.140
    1C        C   37   3.211   2.565   4.262
    1C        C   38   3.417   2.517   4.383
    1C        C   39   3.279   2.545   4.384
    1C        C   40   3.489   2.507   4.504
    1C        C   41   3.419   2.511   4.626
    1C        C   42   3.632   2.486   4.746
    1C        C   43   3.490   2.481   4.744
    1C        C   44   3.708   2.486   4.865
    1C        C   45   3.630   2.481   4.981
    1C        C   46   2.842   2.754   2.794
    1C        C   47   2.895   2.712   2.917
    1C        C   48   2.840   2.762   3.038
    1C        C   49   3.013   2.636   3.160
    1C        C   50   2.899   2.720   3.159
    1C        C   51   3.078   2.604   3.282
    1C        C   52   3.018   2.639   3.405
    1C        C   53   3.210   2.553   3.529
    1C        C   54   3.077   2.601   3.527
    1C        C   55   3.278   2.534   3.652
    1C        C   56   3.207   2.553   3.773
    1C        C   57   3.414   2.521   3.895
    1C        C   58   3.274   2.537   3.896
    1C        C   59   3.486   2.513   4.017
    1C        C   60   3.416   2.511   4.139
    1C        C   61   3.629   2.502   4.261
    1C        C   62   3.488   2.506   4.261
    1C        C   63   3.702   2.511   4.381
    1C        C   64   3.630   2.507   4.503
    1C        C   65   3.838   2.542   4.621
    1C        C   66   3.703   2.503   4.625
    1C        C   67   3.904   2.565   4.744
    1C        C   68   3.841   2.533   4.866
    1C        C   69   4.053   2.590   4.981
    1C        C   70   3.919   2.547   4.981
    1C        C   71   2.826   2.737   2.307
    1C        C   72   2.885   2.697   2.429
    1C        C   73   2.832   2.745   2.551
    1C        C   74   3.007   2.626   2.669
    1C        C   75   2.885   2.697   2.672
    1C        C   76   3.070   2.595   2.792
    1C        C   77   3.012   2.633   2.916
    1C        C   78   3.206   2.551   3.038
    1C        C   79   3.074   2.599   3.038
    1C        C   80   3.275   2.535   3.161
    1C        C   81   3.210   2.552   3.286
    1C        C   82   3.416   2.501   3.403
    1C        C   83   3.277   2.527   3.407
    1C        C   84   3.484   2.496   3.527
    1C        C   85   3.416   2.506   3.651
    1C        C   86   3.627   2.513   3.771
    1C        C   87   3.485   2.508   3.774
    1C        C   88   3.697   2.518   3.893
    1C        C   89   3.628   2.513   4.016
    1C        C   90   3.835   2.550   4.137
    1C        C   91   3.698   2.516   4.138
    1C        C   92   3.906   2.573   4.257
    1C        C   93   3.839   2.546   4.378
    1C        C   94   4.034   2.631   4.500
    1C        C   95   3.907   2.569   4.500
    1C        C   96   4.094   2.669   4.623
    1C        C   97   4.030   2.631   4.742
    1C        C   98   4.190   2.767   4.859
    1C        C   99   4.101   2.655   4.863
    1C        C  100   4.218   2.842   4.974
    1C        C  101   2.822   2.728   2.071
    1C        C  102   2.998   2.597   2.188
    1C        C  103   2.881   2.680   2.189
    1C        C  104   3.067   2.578   2.310
    1C        C  105   3.004   2.621   2.429
    1C        C  106   3.203   2.536   2.551
    1C        C  107   3.074   2.593   2.549
    1C        C  108   3.272   2.520   2.673
    1C        C  109   3.202   2.546   2.794
    1C        C  110   3.411   2.503   2.915
    1C        C  111   3.271   2.527   2.915
    1C        C  112   3.482   2.498   3.037
    1C        C  113   3.413   2.508   3.160
    1C        C  114   3.627   2.506   3.280
    1C        C  115   3.486   2.501   3.281
    1C        C  116   3.693   2.517   3.404
    1C        C  117   3.625   2.503   3.527
    1C        C  118   3.834   2.547   3.647
    1C        C  119   3.697   2.516   3.648
    1C        C  120   3.901   2.572   3.769
    1C        C  121   3.835   2.548   3.892
    1C        C  122   4.028   2.634   4.014
    1C        C  123   3.902   2.571   4.014
    1C        C  124   4.092   2.672   4.134
    1C        C  125   4.033   2.636   4.257
    1C        C  126   4.206   2.757   4.378
    1C        C  127   4.095   2.670   4.379
    1C        C  128   4.251   2.816   4.498
    1C        C  129   4.200   2.761   4.618
    1C        C  130   4.335   2.929   4.738
    1C        C  131   4.251   2.814   4.739
    1C        C  132   4.360   3.000   4.858
    1C        C  133   4.286   2.963   4.971
    1C        C  134   3.171   2.463   2.085
    1C        C  135   3.039   2.509   2.083
    1C        C  136   3.261   2.480   2.191
    1C        C  137   3.199   2.523   2.310
    1C        C  138   3.410   2.488   2.430
    1C        C  139   3.270   2.504   2.431
    1C        C  140   3.484   2.491   2.551
    1C        C  141   3.412   2.501   2.672
    1C        C  142   3.624   2.500   2.790
    1C        C  143   3.483   2.496   2.794
    1C        C  144   3.693   2.508   2.913
    1C        C  145   3.624   2.501   3.035
    1C        C  146   3.832   2.547   3.157
    1C        C  147   3.696   2.510   3.157
    1C        C  148   3.898   2.571   3.279
    1C        C  149   3.831   2.548   3.402
    1C        C  150   4.029   2.627   3.525
    1C        C  151   3.900   2.569   3.523
    1C        C  152   4.089   2.667   3.647
    1C        C  153   4.027   2.636   3.770
    1C        C  154   4.198   2.762   3.889
    1C        C  155   4.087   2.674   3.892
    1C        C  156   4.250   2.809   4.012
    1C        C  157   4.199   2.764   4.136
    1C        C  158   4.349   2.915   4.252
    1C        C  159   4.257   2.809   4.257
    1C        C  160   4.387   2.978   4.373
    1C        C  161   4.333   2.931   4.495
    1C        C  162   4.440   3.114   4.616
    1C        C  163   4.371   2.991   4.617
    1C        C  164   4.471   3.181   4.736
    1C        C  165   4.433   3.120   4.858
    1C        C  166   4.524   3.316   4.971
    1C        C  167   4.478   3.185   4.974
    1C        C  168   3.477   2.437   2.077
    1C        C  169   3.401   2.462   2.192
    1C        C  170   3.621   2.464   2.308
    1C        C  171   3.479   2.467   2.309
    1C        C  172   3.696   2.487   2.426
    1C        C  173   3.625   2.496   2.547
    1C        C  174   3.834   2.537   2.668
    1C        C  175   3.696   2.507   2.669
    1C        C  176   3.898   2.565   2.791
    1C        C  177   3.830   2.544   2.913
    1C        C  178   4.027   2.627   3.034
    1C        C  179   3.898   2.569   3.034
    1C        C  180   4.089   2.663   3.156
    1C        C  181   4.028   2.627   3.279
    1C        C  182   4.198   2.749   3.399
    1C        C  183   4.091   2.657   3.402
    1C        C  184   4.249   2.802   3.520
    1C        C  185   4.200   2.754   3.644
    1C        C  186   4.346   2.909   3.765
    1C        C  187   4.252   2.803   3.765
    1C        C  188   4.382   2.972   3.886
    1C        C  189   4.340   2.918   4.010
    1C        C  190   4.447   3.103   4.127
    1C        C  191   4.383   2.978   4.130
    1C        C  192   4.473   3.170   4.249
    1C        C  193   4.448   3.105   4.372
    1C        C  194   4.499   3.315   4.490
    1C        C  195   4.465   3.178   4.492
    1C        C  196   4.516   3.387   4.610
    1C        C  197   4.509   3.318   4.733
    1C        C  198   4.554   3.532   4.850
    1C        C  199   4.535   3.390   4.853
    1C        C  200   4.582   3.618   4.962
    1C        C  201   3.617   2.425   2.072
    1C        C  202   3.828   2.512   2.185
    1C        C  203   3.696   2.456   2.187
    1C        C  204   3.903   2.537   2.303
    1C        C  205   3.834   2.519   2.425
    1C        C  206   4.028   2.617   2.543
    1C        C  207   3.900   2.556   2.544
    1C        C  208   4.086   2.659   2.665
    1C        C  209   4.023   2.630   2.788
    1C        C  210   4.201   2.743   2.909
    1C        C  211   4.087   2.660   2.910
    1C        C  212   4.255   2.790   3.030
    1C        C  213   4.203   2.746   3.154
    1C        C  214   4.334   2.911   3.274
    1C        C  215   4.248   2.799   3.277
    1C        C  216   4.373   2.970   3.396
    1C        C  217   4.337   2.912   3.520
    1C        C  218   4.436   3.099   3.640
    1C        C  219   4.383   2.968   3.642
    1C        C  220   4.461   3.168   3.761
    1C        C  221   4.442   3.100   3.883
    1C        C  222   4.504   3.306   4.004
    1C        C  223   4.470   3.169   4.004
    1C        C  224   4.517   3.378   4.125
    1C        C  225   4.502   3.309   4.247
    1C        C  226   4.510   3.524   4.364
    1C        C  227   4.509   3.383   4.367
    1C        C  228   4.516   3.598   4.485
    1C        C  229   4.522   3.529   4.608
    1C        C  230   4.497   3.740   4.727
    1C        C  231   4.531   3.601   4.728
    1C        C  232   4.493   3.819   4.843
    1C        C  233   4.544   3.752   4.955
    1C        C  234   4.019   2.611   2.065
    1C        C  235   3.898   2.542   2.068
    1C        C  236   4.090   2.646   2.181
    1C        C  237   4.028   2.604   2.301
    1C        C  238   4.206   2.729   2.420
    1C        C  239   4.092   2.645   2.420
    1C        C  240   4.257   2.781   2.541
    1C        C  241   4.203   2.738   2.664
    1C        C  242   4.340   2.901   2.787
    1C        C  243   4.255   2.788   2.786
    1C        C  244   4.383   2.961   2.908
    1C        C  245   4.340   2.903   3.029
    1C        C  246   4.443   3.090   3.148
    1C        C  247   4.375   2.967   3.150
    1C        C  248   4.462   3.157   3.272
    1C        C  249   4.435   3.096   3.396
    1C        C  250   4.488   3.303   3.514
    1C        C  251   4.463   3.164   3.518
    1C        C  252   4.500   3.372   3.637
    1C        C  253   4.500   3.304   3.760
    1C        C  254   4.516   3.517   3.879
    1C        C  255   4.515   3.376   3.881
    1C        C  256   4.510   3.589   4.000
    1C        C  257   4.518   3.519   4.123
    1C        C  258   4.492   3.735   4.239
    1C        C  259   4.509   3.594   4.242
    1C        C  260   4.473   3.805   4.360
    1C        C  261   4.489   3.737   4.483
    1C        C  262   4.424   3.939   4.602
    1C        C  263   4.471   3.805   4.605
    1C        C  264   4.404   4.011   4.722
    1C        C  265   4.439   3.949   4.844
    1C        C  266   4.318   4.130   4.959
    1C        C  267   4.394   4.013   4.960
    1C        C  268   4.269   2.773   2.062
    1C        C  269   4.204   2.729   2.179
    1C        C  270   4.350   2.888   2.299
    1C        C  271   4.261   2.777   2.299
    1C        C  272   4.390   2.947   2.421
    1C        C  273   4.346   2.891   2.542
    1C        C  274   4.443   3.082   2.662
    1C        C  275   4.380   2.956   2.663
    1C        C  276   4.473   3.149   2.782
    1C        C  277   4.449   3.085   2.906
    1C        C  278   4.501   3.294   3.024
    1C        C  279   4.472   3.156   3.026
    1C        C  280   4.505   3.364   3.147
    1C        C  281   4.492   3.295   3.269
    1C        C  282   4.509   3.509   3.391
    1C        C  283   4.503   3.368   3.390
    1C        C  284   4.511   3.582   3.512
    1C        C  285   4.513   3.513   3.636
    1C        C  286   4.493   3.725   3.752
    1C        C  287   4.518   3.586   3.756
    1C        C  288   4.471   3.795   3.873
    1C        C  289   4.486   3.729   3.997
    1C        C  290   4.432   3.937   4.115
    1C        C  291   4.475   3.803   4.117
    1C        C  292   4.398   4.001   4.237
    1C        C  293   4.425   3.938   4.361
    1C        C  294   4.334   4.132   4.479
    1C        C  295   4.400   4.007   4.481
    1C        C  296   4.287   4.187   4.600
    1C        C  297   4.328   4.132   4.723
    1C        C  298   4.198   4.312   4.840
    1C        C  299   4.281   4.195   4.841
    1C        C  300   4.167   4.400   4.948
    1C        C  301   4.361   2.877   2.060
    1C        C  302   4.470   3.068   2.178
    1C        C  303   4.397   2.944   2.177
    1C        C  304   4.478   3.143   2.299
    1C        C  305   4.449   3.076   2.419
    1C        C  306   4.500   3.285   2.536
    1C        C  307   4.471   3.147   2.539
    1C        C  308   4.514   3.356   2.657
    1C        C  309   4.507   3.286   2.780
    1C        C  310   4.521   3.501   2.903
    1C        C  311   4.517   3.360   2.900
    1C        C  312   4.515   3.574   3.023
    1C        C  313   4.512   3.506   3.147
    1C        C  314   4.483   3.718   3.262
    1C        C  315   4.503   3.578   3.268
    1C        C  316   4.474   3.788   3.384
    1C        C  317   4.494   3.722   3.508
    1C        C  318   4.425   3.924   3.628
    1C        C  319   4.477   3.792   3.629
    1C        C  320   4.388   3.989   3.748
    1C        C  321   4.418   3.926   3.871
    1C        C  322   4.320   4.114   3.991
    1C        C  323   4.400   3.998   3.992
    1C        C  324   4.278   4.173   4.112
    1C        C  325   4.325   4.122   4.235
    1C        C  326   4.186   4.283   4.356
    1C        C  327   4.286   4.184   4.356
    1C        C  328   4.134   4.335   4.477
    1C        C  329   4.192   4.292   4.598
    1C        C  330   4.024   4.430   4.717
    1C        C  331   4.143   4.353   4.715
    1C        C  332   3.970   4.487   4.835
    1C        C  333   4.051   4.480   4.948
    1C        C  334   4.551   3.265   2.064
    1C        C  335   4.540   3.125   2.067
    1C        C  336   4.534   3.351   2.173
    1C        C  337   4.511   3.281   2.293
    1C        C  338   4.525   3.495   2.412
    1C        C  339   4.514   3.355   2.414
    1C        C  340   4.525   3.566   2.534
    1C        C  341   4.526   3.496   2.657
    1C        C  342   4.494   3.708   2.774
    1C        C  343   4.519   3.569   2.778
    1C        C  344   4.479   3.781   2.894
    1C        C  345   4.492   3.713   3.017
    1C        C  346   4.424   3.918   3.137
    1C        C  347   4.469   3.784   3.138
    1C        C  348   4.398   3.985   3.258
    1C        C  349   4.427   3.921   3.380
    1C        C  350   4.320   4.103   3.501
    1C        C  351   4.398   3.985   3.503
    1C        C  352   4.278   4.165   3.620
    1C        C  353   4.318   4.111   3.745
    1C        C  354   4.180   4.271   3.864
    1C        C  355   4.278   4.169   3.867
    1C        C  356   4.127   4.318   3.987
    1C        C  357   4.180   4.274   4.110
    1C        C  358   4.012   4.401   4.231
    1C        C  359   4.128   4.321   4.233
    1C        C  360   3.955   4.448   4.351
    1C        C  361   4.017   4.414   4.474
    1C        C  362   3.831   4.519   4.595
    1C        C  363   3.958   4.457   4.595
    1C        C  364   3.765   4.556   4.714
    1C        C  365   3.842   4.546   4.832
    1C        C  366   3.632   4.597   4.948
    1C        C  367   3.769   4.575   4.948
    1C        C  368   4.507   3.567   2.051
    1C        C  369   4.524   3.492   2.168
    1C        C  370   4.499   3.704   2.291
    1C        C  371   4.517   3.564   2.289
    1C        C  372   4.485   3.778   2.410
    1C        C  373   4.503   3.706   2.530
    1C        C  374   4.428   3.907   2.650
    1C        C  375   4.479   3.775   2.651
    1C        C  376   4.397   3.974   2.770
    1C        C  377   4.431   3.914   2.893
    1C        C  378   4.320   4.099   3.010
    1C        C  379   4.396   3.980   3.013
    1C        C  380   4.277   4.155   3.133
    1C        C  381   4.317   4.101   3.257
    1C        C  382   4.179   4.262   3.376
    1C        C  383   4.277   4.160   3.379
    1C        C  384   4.125   4.313   3.496
    1C        C  385   4.182   4.269   3.618
    1C        C  386   4.013   4.396   3.746
    1C        C  387   4.126   4.312   3.740
    1C        C  388   3.946   4.432   3.865
    1C        C  389   4.008   4.393   3.986
    1C        C  390   3.816   4.481   4.107
    1C        C  391   3.947   4.429   4.108
    1C        C  392   3.753   4.512   4.230
    1C        C  393   3.824   4.500   4.351
    1C        C  394   3.621   4.557   4.475
    1C        C  395   3.760   4.529   4.474
    1C        C  396   3.548   4.567   4.596
    1C        C  397   3.625   4.572   4.714
    1C        C  398   3.413   4.553   4.841
    1C        C  399   3.552   4.578   4.835
    1C        C  400   3.343   4.514   4.956
    1C        C  401   4.498   3.705   2.051
    1C        C  402   4.456   3.915   2.167
    1C        C  403   4.488   3.777   2.170
    1C        C  404   4.420   3.981   2.286
    1C        C  405   4.443   3.913   2.407
    1C        C  406   4.325   4.092   2.525
    1C        C  407   4.400   3.972   2.528
    1C        C  408   4.279   4.151   2.645
    1C        C  409   4.323   4.095   2.768
    1C        C  410   4.177   4.253   2.887
    1C        C  411   4.278   4.154   2.888
    1C        C  412   4.125   4.299   3.010
    1C        C  413   4.180   4.258   3.133
    1C        C  414   4.002   4.376   3.254
    1C        C  415   4.125   4.308   3.253
    1C        C  416   3.943   4.413   3.377
    1C        C  417   4.006   4.389   3.501
    1C        C  418   3.815   4.475   3.619
    1C        C  419   3.947   4.425   3.624
    1C        C  420   3.748   4.502   3.740
    1C        C  421   3.815   4.484   3.864
    1C        C  422   3.609   4.535   3.986
    1C        C  423   3.747   4.504   3.986
    1C        C  424   3.541   4.544   4.110
    1C        C  425   3.614   4.539   4.231
    1C        C  426   3.406   4.551   4.358
    1C        C  427   3.548   4.552   4.355
    1C        C  428   3.334   4.550   4.480
    1C        C  429   3.408   4.554   4.600
    1C        C  430   3.198   4.517   4.723
    1C        C  431   3.337   4.544   4.722
    1C        C  432   3.125   4.495   4.843
    1C        C  433   3.205   4.502   4.958
    1C        C  434   4.384   4.120   2.048
    1C        C  435   4.450   3.997   2.053
    1C        C  436   4.304   4.160   2.161
    1C        C  437   4.340   4.099   2.284
    1C        C  438   4.185   4.251   2.399
    1C        C  439   4.285   4.151   2.403
    1C        C  440   4.126   4.295   2.520
    1C        C  441   4.180   4.251   2.643
    1C        C  442   4.006   4.376   2.764
    1C        C  443   4.121   4.294   2.764
    1C        C  444   3.943   4.412   2.885
    1C        C  445   4.006   4.376   3.006
    1C        C  446   3.815   4.467   3.128
    1C        C  447   3.944   4.409   3.129
    1C        C  448   3.748   4.489   3.251
    1C        C  449   3.815   4.472   3.375
    1C        C  450   3.609   4.525   3.497
    1C        C  451   3.748   4.498   3.496
    1C        C  452   3.540   4.535   3.620
    1C        C  453   3.610   4.532   3.743
    1C        C  454   3.398   4.540   3.867
    1C        C  455   3.539   4.546   3.864
    1C        C  456   3.331   4.534   3.991
    1C        C  457   3.400   4.542   4.114
    1C        C  458   3.196   4.498   4.238
    1C        C  459   3.334   4.532   4.239
    1C        C  460   3.130   4.483   4.362
    1C        C  461   3.198   4.511   4.483
    1C        C  462   3.000   4.429   4.605
    1C        C  463   3.128   4.489   4.603
    1C        C  464   2.931   4.401   4.724
    1C        C  465   2.990   4.447   4.845
    1C        C  466   2.804   4.336   4.959
    1C        C  467   2.903   4.435   4.958
    1C        C  468   4.120   4.279   2.042
    1C        C  469   4.188   4.243   2.159
    1C        C  470   4.012   4.375   2.279
    1C        C  471   4.132   4.298   2.277
    1C        C  472   3.943   4.404   2.398
    1C        C  473   4.007   4.371   2.519
    1C        C  474   3.816   4.464   2.642
    1C        C  475   3.946   4.411   2.641
    1C        C  476   3.747   4.489   2.763
    1C        C  477   3.813   4.467   2.886
    1C        C  478   3.609   4.524   3.010
    1C        C  479   3.747   4.494   3.008
    1C        C  480   3.539   4.526   3.133
    1C        C  481   3.610   4.517   3.254
    1C        C  482   3.397   4.537   3.376
    1C        C  483   3.538   4.533   3.375
    1C        C  484   3.327   4.531   3.499
    1C        C  485   3.399   4.537   3.620
    1C        C  486   3.191   4.507   3.747
    1C        C  487   3.330   4.533   3.743
    1C        C  488   3.128   4.479   3.870
    1C        C  489   3.195   4.496   3.993
    1C        C  490   3.000   4.419   4.116
    1C        C  491   3.129   4.476   4.116
    1C        C  492   2.940   4.389   4.240
    1C        C  493   3.002   4.424   4.362
    1C        C  494   2.832   4.297   4.483
    1C        C  495   2.942   4.385   4.484
    1C        C  496   2.773   4.254   4.604
    1C        C  497   2.819   4.312   4.725
    1C        C  498   2.662   4.167   4.845
    1C        C  499   2.757   4.271   4.845
    1C        C  500   2.595   4.119   4.959
    1C        C  501   4.000   4.350   2.040
    1C        C  502   3.818   4.462   2.156
    1C        C  503   3.947   4.405   2.157
    1C        C  504   3.744   4.478   2.276
    1C        C  505   3.811   4.456   2.398
    1C        C  506   3.604   4.496   2.519
    1C        C  507   3.745   4.479   2.520
    1C        C  508   3.537   4.511   2.642
    1C        C  509   3.608   4.517   2.764
    1C        C  510   3.398   4.522   2.888
    1C        C  511   3.539   4.529   2.887
    1C        C  512   3.325   4.518   3.008
    1C        C  513   3.398   4.526   3.130
    1C        C  514   3.190   4.496   3.256
    1C        C  515   3.328   4.527   3.252
    1C        C  516   3.121   4.475   3.378
    1C        C  517   3.189   4.500   3.499
    1C        C  518   3.003   4.413   3.626
    1C        C  519   3.126   4.482   3.624
    1C        C  520   2.944   4.375   3.748
    1C        C  521   3.004   4.411   3.871
    1C        C  522   2.839   4.281   3.997
    1C        C  523   2.944   4.375   3.994
    1C        C  524   2.789   4.236   4.121
    1C        C  525   2.835   4.295   4.241
    1C        C  526   2.694   4.134   4.362
    1C        C  527   2.778   4.247   4.362
    1C        C  528   2.655   4.075   4.484
    1C        C  529   2.691   4.140   4.605
    1C        C  530   2.589   3.959   4.731
    1C        C  531   2.642   4.091   4.728
    1C        C  532   2.546   3.900   4.853
    1C        C  533   2.528   3.996   4.958
    1C        C  534   3.620   4.553   2.039
    1C        C  535   3.753   4.509   2.041
    1C        C  536   3.537   4.536   2.154
    1C        C  537   3.606   4.511   2.276
    1C        C  538   3.393   4.515   2.401
    1C        C  539   3.534   4.516   2.398
    1C        C  540   3.323   4.508   2.523
    1C        C  541   3.396   4.512   2.644
    1C        C  542   3.187   4.483   2.768
    1C        C  543   3.326   4.511   2.767
    1C        C  544   3.121   4.463   2.891
    1C        C  545   3.188   4.486   3.014
    1C        C  546   2.993   4.408   3.136
    1C        C  547   3.119   4.473   3.137
    1C        C  548   2.936   4.370   3.260
    1C        C  549   2.994   4.413   3.381
    1C        C  550   2.834   4.280   3.505
    1C        C  551   2.939   4.375   3.506
    1C        C  552   2.784   4.232   3.628
    1C        C  553   2.836   4.283   3.749
    1C        C  554   2.705   4.120   3.874
    1C        C  555   2.793   4.232   3.873
    1C        C  556   2.664   4.063   3.996
    1C        C  557   2.699   4.127   4.117
    1C        C  558   2.604   3.940   4.247
    1C        C  559   2.660   4.070   4.241
    1C        C  560   2.573   3.878   4.370
    1C        C  561   2.593   3.948   4.491
    1C        C  562   2.535   3.746   4.614
    1C        C  563   2.570   3.883   4.614
    1C        C  564   2.517   3.681   4.738
    1C        C  565   2.524   3.758   4.857
    1C        C  566   2.536   3.543   4.979
    1C        C  567   2.533   3.682   4.974
    1C        C  568   3.327   4.478   2.043
    1C        C  569   3.396   4.521   2.157
    1C        C  570   3.184   4.480   2.283
    1C        C  571   3.322   4.513   2.279
    1C        C  572   3.115   4.463   2.405
    1C        C  573   3.184   4.487   2.526
    1C        C  574   2.987   4.407   2.650
    1C        C  575   3.115   4.466   2.648
    1C        C  576   2.929   4.363   2.772
    1C        C  577   2.995   4.398   2.892
    1C        C  578   2.823   4.278   3.018
    1C        C  579   2.935   4.365   3.015
    1C        C  580   2.777   4.226   3.141
    1C        C  581   2.830   4.277   3.262
    1C        C  582   2.702   4.111   3.386
    1C        C  583   2.785   4.225   3.385
    1C        C  584   2.669   4.050   3.509
    1C        C  585   2.703   4.116   3.629
    1C        C  586   2.599   3.936   3.757
    1C        C  587   2.662   4.062   3.753
    1C        C  588   2.574   3.871   3.880
    1C        C  589   2.602   3.936   4.002
    1C        C  590   2.544   3.735   4.128
    1C        C  591   2.580   3.872   4.126
    1C        C  592   2.527   3.670   4.252
    1C        C  593   2.539   3.741   4.374
    1C        C  594   2.510   3.531   4.499
    1C        C  595   2.519   3.672   4.495
    1C        C  596   2.520   3.463   4.622
    1C        C  597   2.519   3.538   4.742
    1C        C  598   2.530   3.324   4.863
    1C        C  599   2.524   3.465   4.863
    1C        C  600   2.527   3.244   4.978
    1C        C  601   3.193   4.443   2.047
    1C        C  602   2.980   4.399   2.164
    1C        C  603   3.116   4.445   2.163
    1C        C  604   2.924   4.361   2.289
    1C        C  605   2.988   4.401   2.408
    1C        C  606   2.820   4.272   2.531
    1C        C  607   2.926   4.365   2.530
    1C        C  608   2.768   4.223   2.653
    1C        C  609   2.819   4.276   2.774
    1C        C  610   2.684   4.115   2.897
    1C        C  611   2.768   4.229   2.898
    1C        C  612   2.656   4.052   3.020
    1C        C  613   2.696   4.111   3.143
    1C        C  614   2.592   3.926   3.266
    1C        C  615   2.658   4.051   3.265
    1C        C  616   2.568   3.862   3.389
    1C        C  617   2.604   3.925   3.511
    1C        C  618   2.537   3.731   3.638
    1C        C  619   2.575   3.867   3.636
    1C        C  620   2.522   3.665   3.762
    1C        C  621   2.537   3.734   3.884
    1C        C  622   2.513   3.524   4.010
    1C        C  623   2.530   3.665   4.007
    1C        C  624   2.519   3.457   4.134
    1C        C  625   2.517   3.529   4.255
    1C        C  626   2.535   3.319   4.379
    1C        C  627   2.515   3.459   4.378
    1C        C  628   2.553   3.249   4.501
    1C        C  629   2.538   3.323   4.621
    1C        C  630   2.597   3.120   4.743
    1C        C  631   2.548   3.253   4.743
    1C        C  632   2.613   3.047   4.865
    1C        C  633   2.564   3.109   4.984
    1C        C  634   2.779   4.306   2.056
    1C        C  635   2.889   4.391   2.053
    1C        C  636   2.751   4.229   2.170
    1C        C  637   2.811   4.275   2.290
    1C        C  638   2.678   4.111   2.410
    1C        C  639   2.761   4.224   2.412
    1C        C  640   2.644   4.050   2.533
    1C        C  641   2.686   4.108   2.655
    1C        C  642   2.592   3.920   2.777
    1C        C  643   2.650   4.048   2.778
    1C        C  644   2.565   3.855   2.899
    1C        C  645   2.594   3.925   3.019
    1C        C  646   2.535   3.724   3.150
    1C        C  647   2.572   3.860   3.142
    1C        C  648   2.519   3.656   3.272
    1C        C  649   2.533   3.726   3.394
    1C        C  650   2.515   3.517   3.520
    1C        C  651   2.523   3.658   3.518
    1C        C  652   2.517   3.451   3.645
    1C        C  653   2.512   3.524   3.766
    1C        C  654   2.534   3.314   3.889
    1C        C  655   2.511   3.453   3.888
    1C        C  656   2.553   3.247   4.012
    1C        C  657   2.541   3.317   4.133
    1C        C  658   2.609   3.120   4.258
    1C        C  659   2.554   3.250   4.257
    1C        C  660   2.633   3.052   4.380
    1C        C  661   2.601   3.117   4.501
    1C        C  662   2.713   2.937   4.627
    1C        C  663   2.632   3.053   4.624
    1C        C  664   2.747   2.874   4.749
    1C        C  665   2.694   2.929   4.869
    1C        C  666   2.739   2.867   4.986
    1C        C  667   2.686   4.025   2.053
    1C        C  668   2.688   4.103   2.169
    1C        C  669   2.592   3.912   2.292
    1C        C  670   2.643   4.045   2.290
    1C        C  671   2.566   3.848   2.415
    1C        C  672   2.584   3.922   2.534
    1C        C  673   2.524   3.718   2.659
    1C        C  674   2.562   3.854   2.656
    1C        C  675   2.518   3.648   2.782
    1C        C  676   2.534   3.717   2.904
    1C        C  677   2.510   3.511   3.029
    1C        C  678   2.526   3.652   3.029
    1C        C  679   2.513   3.443   3.153
    1C        C  680   2.508   3.515   3.274
    1C        C  681   2.527   3.306   3.400
    1C        C  682   2.507   3.446   3.398
    1C        C  683   2.549   3.241   3.523
    1C        C  684   2.531   3.310   3.645
    1C        C  685   2.601   3.112   3.770
    1C        C  686   2.548   3.243   3.768
    1C        C  687   2.635   3.050   3.892
    1C        C  688   2.602   3.114   4.014
    1C        C  689   2.706   2.931   4.139
    1C        C  690   2.635   3.053   4.137
    1C        C  691   2.748   2.873   4.261
    1C        C  692   2.707   2.932   4.383
    1C        C  693   2.753   2.878   4.505
    1C        C  694   2.635   3.894   2.056
    1C        C  695   2.529   3.706   2.177
    1C        C  696   2.581   3.838   2.172
    1C        C  697   2.508   3.637   2.298
    1C        C  698   2.532   3.711   2.416
    1C        C  699   2.495   3.504   2.540
    1C        C  700   2.510   3.644   2.539
    1C        C  701   2.506   3.435   2.663
    1C        C  702   2.507   3.507   2.785
    1C        C  703   2.525   3.298   2.912
    1C        C  704   2.507   3.438   2.908
    1C        C  705   2.543   3.231   3.035
    1C        C  706   2.533   3.303   3.155
    1C        C  707   2.594   3.103   3.281
    1C        C  708   2.542   3.235   3.279
    1C        C  709   2.628   3.042   3.403
    1C        C  710   2.601   3.110   3.525
    1C        C  711   2.712   2.931   3.649
    1C        C  712   2.633   3.048   3.648
    1C        C  713   2.756   2.875   3.771
    1C        C  714   2.713   2.932   3.894
    1C        C  715   2.752   2.876   4.018
    1C        C  716   2.446   3.504   2.063
    1C        C  717   2.486   3.638   2.063
    1C        C  718   2.467   3.421   2.179
    1C        C  719   2.483   3.497   2.298
    1C        C  720   2.509   3.289   2.425
    1C        C  721   2.485   3.428   2.422
    1C        C  722   2.535   3.221   2.546
    1C        C  723   2.524   3.295   2.666
    1C        C  724   2.592   3.096   2.792
    1C        C  725   2.544   3.229   2.790
    1C        C  726   2.621   3.033   2.915
    1C        C  727   2.593   3.098   3.037
    1C        C  728   2.707   2.922   3.160
    1C        C  729   2.624   3.037   3.160
    1C        C  730   2.751   2.868   3.283
    1C        C  731   2.706   2.925   3.405
    1C        C  732   2.754   2.874   3.527
    1C        C  733   2.492   3.198   2.071
    1C        C  734   2.491   3.281   2.184
    1C        C  735   2.577   3.083   2.306
    1C        C  736   2.522   3.214   2.306
    1C        C  737   2.610   3.020   2.428
    1C        C  738   2.590   3.091   2.548
    1C        C  739   2.694   2.908   2.671
    1C        C  740   2.623   3.030   2.671
    1C        C  741   2.741   2.854   2.792
    1C        C  742   2.697   2.914   2.912
    1C        C  743   2.742   2.864   3.036
    1C        C  744   2.551   3.072   2.069
    1C        C  745   2.690   2.902   2.187
    1C        C  746   2.610   3.019   2.184
    1C        C  747   2.731   2.843   2.308
    1C        C  748   2.686   2.901   2.428
    1C        C  749   2.734   2.847   2.550
    1C        C  750   2.738   2.839   2.071
    1C        C  751   3.661   2.324   1.973
    1C        O  752   3.624   2.204   1.968
    1C        O  753   3.687   2.365   1.842
    1C        C  754   4.621   3.048   1.970
    1C        O  755   4.596   3.061   1.848
    1C        O  756   4.754   3.016   2.002
    1C        C  757   4.456   4.219   1.965
    1C        O  758   4.516   4.315   2.019
    1C        O  759   4.388   4.255   1.848
    1C        C  760   3.601   4.674   1.955
    1C        O  761   3.658   4.784   1.976
    1C        O  762   3.580   4.652   1.818
    1C        C  763   2.896   4.492   1.945
    1C        O  764   2.945   4.454   1.835
    1C        O  765   2.850   4.623   1.959
    1C        C  766   2.376   3.469   1.938
    1C        O  767   2.422   3.408   1.837
    1C        O  768   2.239   3.488   1.920
    1C        C  769   4.702   3.596   5.046
    1C        O  770   4.700   3.607   5.172
    1C        O  771   4.837   3.606   5.009
    1C        C  772   4.265   4.443   5.050
    1C        O  773   4.270   4.365   5.149
    1C        O  774   4.389   4.493   5.010
    1C        C  775   4.156   2.511   5.052
    1C        O  776   4.204   2.407   5.001
    1C        O  777   4.205   2.549   5.178
    1C        C  778   2.888   4.551   5.050
    1C        O  779   2.817   4.650   5.019
    1C        O  780   2.932   4.549   5.183
    1C        C  781   2.481   3.046   5.089
    1C        O  782   2.378   2.978   5.062
    1C        O  783   2.526   3.054   5.221
    1C        C  784   2.417   3.977   5.054
    1C        O  785   2.298   4.015   5.035
    1C        O  786   2.435   3.922   5.181
    1C        C  787   2.940   2.429   2.007
    1C        O  788   2.954   2.411   1.883
    1C        O  789   2.867   2.326   2.064
    1C        C  790   3.208   2.420   5.101
    1C        O  791   3.175   2.299   5.092
    1C        O  792   3.230   2.472   5.230
    1C        H  793   4.333   2.984   5.066
    1C        H  794   4.221   2.789   5.066
    1C        H  795   4.524   3.116   5.042
    1C        H  796   4.527   3.366   5.066
    1C        H  797   4.588   3.821   5.024
    1C        H  798   4.417   3.978   5.059
    1C        H  799   4.284   4.163   5.055
    1C        H  800   4.007   4.499   5.044
    1C        H  801   3.818   4.584   5.043
    1C        H  802   3.603   4.667   5.024
    1C        H  803   3.398   4.468   5.035
    1C        H  804   3.162   4.447   5.039
    1C        H  805   3.869   2.555   5.075
    1C        H  806   3.681   2.454   5.071
    1C        H  807   2.987   2.514   5.034
    1C        H  808   3.445   2.520   5.069
    1C        H  809   2.908   2.787   5.072
    1C        H  810   2.700   2.895   5.082
    1C        H  811   2.471   3.278   5.063
    1C        H  812   2.540   3.491   5.072
    1C        H  813   2.572   3.731   5.062
    1C        H  814   2.572   4.186   5.039
    1C        H  815   2.770   4.301   5.054
    1C        H  816   2.731   2.889   1.977
    1C        H  817   2.861   2.683   1.982
    1C        H  818   3.194   2.379   2.022
    1C        H  819   3.430   2.397   1.990
    1C        H  820   3.871   2.492   1.977
    1C        H  821   4.048   2.645   1.968
    1C        H  822   4.279   2.701   1.984
    1C        H  823   4.351   2.939   1.974
    1C        H  824   4.544   3.308   1.966
    1C        H  825   4.556   3.522   1.967
    1C        H  826   4.543   3.757   1.968
    1C        H  827   3.811   4.506   1.952
    1C        H  828   3.948   4.350   1.946
    1C        H  829   4.173   4.276   1.949
    1C        H  830   4.518   3.981   1.972
    1C        H  831   2.601   3.853   1.963
    1C        H  832   2.745   4.054   1.969
    1C        H  833   2.691   4.350   2.013
    1C        H  834   3.372   4.494   1.947
    1C        H  835   3.159   4.385   1.964
    1C        H  836   2.537   3.016   1.978
    1C        H  837   2.450   3.227   1.978
    1C        H  838   2.467   3.697   1.975
    2V3OU   H29  839   2.806   3.549   6.031
    2V3OU   C27  840   2.779   3.502   6.129
    2V3OU   H27  841   2.727   3.576   6.195
    2V3OU   H28  842   2.732   3.401   6.120
    2V3OU   O11  843   2.905   3.470   6.189
    2V3OU   C15  844   2.920   3.397   6.305
    2V3OU   C13  845   3.052   3.373   6.349
    2V3OU   C14  846   3.073   3.265   6.435
    2V3OU   C16  847   2.971   3.182   6.483
    2V3OU    H6  848   2.989   3.101   6.554
    2V3OU   C12  849   3.214   3.229   6.457
    2V3OU    O2  850   3.236   3.122   6.518
    2V3OU   C10  851   3.327   3.312   6.412
    2V3OU    C8  852   3.458   3.271   6.438
    2V3OU   O10  853   3.487   3.149   6.489
    2V3OU   H26  854   3.401   3.117   6.520
    2V3OU    C6  855   3.564   3.354   6.389
    2V3OU    C5  856   3.537   3.471   6.320
    2V3OU    C4  857   3.702   3.299   6.394
    2V3OU    H4  858   3.721   3.230   6.482
    2V3OU    H5  859   3.709   3.231   6.304
    2V3OU    C2  860   3.817   3.400   6.391
    2V3OU    O6  861   3.798   3.468   6.516
    2V3OU   H21  862   3.772   3.556   6.482
    2V3OU    C3  863   3.783   3.499   6.279
    2V3OU    H2  864   3.864   3.577   6.278
    2V3OU    H3  865   3.784   3.442   6.182
    2V3OU   C25  866   3.946   3.321   6.372
    2V3OU    O7  867   3.994   3.295   6.262
    2V3OU   C26  868   4.028   3.292   6.497
    2V3OU   H22  869   4.068   3.384   6.547
    2V3OU   H23  870   4.120   3.234   6.469
    2V3OU    O8  871   3.959   3.213   6.591
    2V3OU   H24  872   3.925   3.270   6.662
    2V3OU    C1  873   3.648   3.567   6.289
    2V3OU    H1  874   3.624   3.615   6.189
    2V3OU    O3  875   3.661   3.655   6.400
    2V3OU   C19  876   3.619   3.792   6.390
    2V3OU    H9  877   3.524   3.802   6.330
    2V3OU    O4  878   3.715   3.851   6.305
    2V3OU   C20  879   3.848   3.869   6.356
    2V3OU   H10  880   3.901   3.771   6.375
    2V3OU   C24  881   3.611   3.854   6.529
    2V3OU   H16  882   3.540   3.797   6.595
    2V3OU   H17  883   3.569   3.958   6.521
    2V3OU   C23  884   3.751   3.873   6.588
    2V3OU   H15  885   3.792   3.770   6.612
    2V3OU    N1  886   3.738   3.957   6.706
    2V3OU   H19  887   3.805   3.930   6.775
    2V3OU   H20  888   3.651   3.936   6.751
    2V3OU   C21  889   3.848   3.944   6.490
    2V3OU   H11  890   3.952   3.922   6.530
    2V3OU    O5  891   3.837   4.086   6.490
    2V3OU   H18  892   3.781   4.106   6.566
    2V3OU   C22  893   3.916   3.945   6.244
    2V3OU   H12  894   3.874   4.047   6.232
    2V3OU   H13  895   3.900   3.891   6.147
    2V3OU   H14  896   4.026   3.957   6.263
    2V3OU   C11  897   3.158   3.470   6.314
    2V3OU    O1  898   3.137   3.586   6.275
    2V3OU    C9  899   3.298   3.429   6.338
    2V3OU    C7  900   3.402   3.506   6.287
    2V3OU    O9  901   3.385   3.618   6.208
    2V3OU   H25  902   3.289   3.630   6.216
    2V3OU   C17  903   2.817   3.318   6.359
    2V3OU    H7  904   2.713   3.348   6.344
    2V3OU   C18  905   2.842   3.207   6.439
    2V3OU    H8  906   2.767   3.147   6.492
    3SOL     OW  907   3.354   2.882   4.146
    3SOL    HW1  908   3.307   2.796   4.128
    3SOL    HW2  909   3.287   2.957   4.148
    4SOL     OW  910   0.583   6.368   0.879
    4SOL    HW1  911   0.647   6.436   0.845
    4SOL    HW2  912   0.538   6.322   0.802
    5SOL     OW  913   4.060   2.272   0.879
    5SOL    HW1  914   4.036   2.312   0.968
    5SOL    HW2  915   3.991   2.298   0.811
    6SOL     OW  916   3.619   1.771   2.437
    6SOL    HW1  917   3.703   1.813   2.405
    6SOL    HW2  918   3.553   1.766   2.362
    7SOL     OW  919   2.268   2.932   4.628
    7SOL    HW1  920   2.287   3.002   4.560
    7SOL    HW2  921   2.179   2.891   4.611
    8SOL     OW  922   1.264   2.729   5.961
    8SOL    HW1  923   1.265   2.752   6.058
    8SOL    HW2  924   1.339   2.667   5.941
    9SOL     OW  925   1.096   2.298   6.532
    9SOL    HW1  926   1.054   2.256   6.452
    9SOL    HW2  927   1.195   2.279   6.531
   10SOL     OW  928   5.427   5.064   1.456
   10SOL    HW1  929   5.482   5.120   1.518
   10SOL    HW2  930   5.451   5.085   1.362
   11SOL     OW  931   2.935   1.976   0.461
   11SOL    HW1  932   3.002   1.903   0.450
   11SOL    HW2  933   2.882   1.985   0.377
   12SOL     OW  934   4.913   5.500   1.830
   12SOL    HW1  935   4.925   5.415   1.779
   12SOL    HW2  936   4.966   5.573   1.787
   13SOL     OW  937   5.661   6.063   2.305
   13SOL    HW1  938   5.597   6.092   2.376
   13SOL    HW2  939   5.656   6.126   2.227
   14SOL     OW  940   3.738   6.285   0.563
   14SOL    HW1  941   3.730   6.369   0.617
   14SOL    HW2  942   3.739   6.308   0.466
   15SOL     OW  943   0.545   6.528   7.021
   15SOL    HW1  944   0.630   6.518   6.968
   15SOL    HW2  945   0.478   6.579   6.967
   16SOL     OW  946   1.903   5.572   4.710
   16SOL    HW1  947   1.959   5.575   4.627
   16SOL    HW2  948   1.853   5.658   4.720
   17SOL     OW  949   0.098   1.715   3.649
   17SOL    HW1  950   0.146   1.802   3.653
   17SOL    HW2  951   0.146   1.647   3.704
   18SOL     OW  952   2.820   1.642   5.497
   18SOL    HW1  953   2.835   1.600   5.587
   18SOL    HW2  954   2.814   1.741   5.506
   19SOL     OW  955   3.165   5.869   3.028
   19SOL    HW1  956   3.094   5.921   2.981
   19SOL    HW2  957   3.131   5.776   3.045
   20SOL     OW  958   6.868   1.808   5.751
   20SOL    HW1  959   6.956   1.761   5.757
   20SOL    HW2  960   6.882   1.903   5.724
   21SOL     OW  961   1.792   3.746   1.902
   21SOL    HW1  962   1.852   3.819   1.868
   21SOL    HW2  963   1.811   3.730   1.999
   22SOL     OW  964   0.841   1.074   0.020
   22SOL    HW1  965   0.792   1.014   6.981
   22SOL    HW2  966   0.852   1.164   7.002
   23SOL     OW  967   6.891   5.398   6.960
   23SOL    HW1  968   6.941   5.399   0.022
   23SOL    HW2  969   6.878   5.303   6.930
   24SOL     OW  970   5.101   1.172   6.661
   24SOL    HW1  971   5.185   1.226   6.663
   24SOL    HW2  972   5.115   1.092   6.602
   25SOL     OW  973   1.388   0.836   4.781
   25SOL    HW1  974   1.349   0.765   4.840
   25SOL    HW2  975   1.328   0.850   4.702
   26SOL     OW  976   2.213   0.271   6.251
   26SOL    HW1  977   2.294   0.264   6.309
   26SOL    HW2  978   2.239   0.308   6.162
   27SOL     OW  979   0.035   6.935   1.919
   27SOL    HW1  980   0.117   6.985   1.892
   27SOL    HW2  981   0.062   6.850   1.966
   28SOL     OW  982   1.559   1.222   5.826
   28SOL    HW1  983   1.490   1.257   5.763
   28SOL    HW2  984   1.522   1.146   5.878
   29SOL     OW  985   5.501   1.063   1.150
   29SOL    HW1  986   5.495   1.115   1.235
   29SOL    HW2  987   5.569   0.990   1.159
   30SOL     OW  988   5.103   0.416   5.065
   30SOL    HW1  989   5.023   0.470   5.043
   30SOL    HW2  990   5.170   0.423   4.990
   31SOL     OW  991   6.573   4.848   4.612
   31SOL    HW1  992   6.616   4.915   4.672
   31SOL    HW2  993   6.499   4.892   4.560
   32SOL     OW  994   3.127   1.286   1.142
   32SOL    HW1  995   3.162   1.254   1.053
   32SOL    HW2  996   3.088   1.209   1.192
   33SOL     OW  997   1.940   4.881   5.270
   33SOL    HW1  998   1.916   4.954   5.334
   33SOL    HW2  999   1.861   4.821   5.256
   34SOL     OW 1000   2.190   6.260   5.461
   34SOL    HW1 1001   2.226   6.181   5.510
   34SOL    HW2 1002   2.263   6.326   5.445
   35SOL     OW 1003   1.051   2.981   4.180
   35SOL    HW1 1004   1.135   2.990   4.127
   35SOL    HW2 1005   1.038   3.064   4.236
   36SOL     OW 1006   5.953   1.324   3.664
   36SOL    HW1 1007   6.015   1.353   3.736
   36SOL    HW2 1008   5.917   1.405   3.616
   37SOL     OW 1009   1.664   6.421   4.581
   37SOL    HW1 1010   1.746   6.366   4.564
   37SOL    HW2 1011   1.670   6.463   4.671
   38SOL     OW 1012   0.840   3.297   1.123
   38SOL    HW1 1013   0.900   3.330   1.197
   38SOL    HW2 1014   0.796   3.212   1.152
   39SOL     OW 1015   6.601   4.912   0.869
   39SOL    HW1 1016   6.597   4.815   0.896
   39SOL    HW2 1017   6.515   4.957   0.896
   40SOL     OW 1018   3.834   0.795   6.867
   40SOL    HW1 1019   3.931   0.771   6.869
   40SOL    HW2 1020   3.821   0.875   6.807
   41SOL     OW 1021   5.555   4.050   1.923
   41SOL    HW1 1022   5.651   4.066   1.898
   41SOL    HW2 1023   5.498   4.055   1.841
   42SOL     OW 1024   2.402   3.807   0.039
   42SOL    HW1 1025   2.477   3.871   0.056
   42SOL    HW2 1026   2.386   3.751   0.121
   43SOL     OW 1027   4.892   6.826   4.889
   43SOL    HW1 1028   4.895   6.905   4.829
   43SOL    HW2 1029   4.867   6.745   4.837
   44SOL     OW 1030   6.997   0.669   6.800
   44SOL    HW1 1031   7.002   0.721   6.885
   44SOL    HW2 1032   6.910   0.689   6.754
   45SOL     OW 1033   3.011   4.319   5.963
   45SOL    HW1 1034   3.009   4.255   6.040
   45SOL    HW2 1035   2.925   4.369   5.959
   46SOL     OW 1036   0.928   4.576   4.563
   46SOL    HW1 1037   0.934   4.630   4.647
   46SOL    HW2 1038   0.840   4.529   4.561
   47SOL     OW 1039   6.354   4.192   6.890
   47SOL    HW1 1040   6.282   4.177   6.822
   47SOL    HW2 1041   6.360   4.290   6.910
   48SOL     OW 1042   0.387   4.149   0.103
   48SOL    HW1 1043   0.301   4.181   0.143
   48SOL    HW2 1044   0.458   4.151   0.174
   49SOL     OW 1045   3.006   2.241   6.700
   49SOL    HW1 1046   3.099   2.207   6.707
   49SOL    HW2 1047   3.006   2.341   6.706
   50SOL     OW 1048   4.855   2.243   6.834
   50SOL    HW1 1049   4.765   2.278   6.808
   50SOL    HW2 1050   4.862   2.147   6.807
   51SOL     OW 1051   1.224   6.270   2.341
   51SOL    HW1 1052   1.316   6.296   2.310
   51SOL    HW2 1053   1.227   6.244   2.437
   52SOL     OW 1054   6.005   1.765   2.278
   52SOL    HW1 1055   6.002   1.859   2.244
   52SOL    HW2 1056   5.958   1.704   2.214
   53SOL     OW 1057   4.683   0.604   0.606
   53SOL    HW1 1058   4.598   0.641   0.644
   53SOL    HW2 1059   4.751   0.595   0.678
   54SOL     OW 1060   6.724   0.612   6.723
   54SOL    HW1 1061   6.728   0.615   6.623
   54SOL    HW2 1062   6.678   0.694   6.757
   55SOL     OW 1063   1.787   3.445   5.539
   55SOL    HW1 1064   1.886   3.450   5.552
   55SOL    HW2 1065   1.747   3.393   5.615
   56SOL     OW 1066   0.757   2.847   6.714
   56SOL    HW1 1067   0.712   2.765   6.749
   56SOL    HW2 1068   0.688   2.914   6.688
   57SOL     OW 1069   4.005   5.887   1.475
   57SOL    HW1 1070   3.937   5.905   1.546
   57SOL    HW2 1071   3.981   5.803   1.426
   58SOL     OW 1072   0.704   0.924   6.847
   58SOL    HW1 1073   0.685   0.977   6.764
   58SOL    HW2 1074   0.672   0.830   6.836
   59SOL     OW 1075   3.953   2.903   6.918
   59SOL    HW1 1076   3.873   2.930   6.972
   59SOL    HW2 1077   3.930   2.907   6.820
   60SOL     OW 1078   6.694   3.129   2.801
   60SOL    HW1 1079   6.626   3.180   2.854
   60SOL    HW2 1080   6.654   3.041   2.773
   61SOL     OW 1081   1.086   5.712   2.844
   61SOL    HW1 1082   1.087   5.692   2.942
   61SOL    HW2 1083   1.171   5.681   2.802
   62SOL     OW 1084   5.063   2.975   2.674
   62SOL    HW1 1085   4.987   3.014   2.727
   62SOL    HW2 1086   5.060   3.011   2.581
   63SOL     OW 1087   3.921   6.887   6.747
   63SOL    HW1 1088   3.954   6.981   6.748
   63SOL    HW2 1089   3.860   6.873   6.669
   64SOL     OW 1090   1.900   2.429   6.770
   64SOL    HW1 1091   1.804   2.408   6.752
   64SOL    HW2 1092   1.907   2.499   6.841
   65SOL     OW 1093   0.879   5.059   5.570
   65SOL    HW1 1094   0.961   5.019   5.530
   65SOL    HW2 1095   0.858   5.013   5.657
   66SOL     OW 1096   4.552   1.158   1.559
   66SOL    HW1 1097   4.516   1.252   1.560
   66SOL    HW2 1098   4.642   1.158   1.514
   67SOL     OW 1099   0.160   3.323   1.035
   67SOL    HW1 1100   0.070   3.366   1.028
   67SOL    HW2 1101   0.209   3.333   0.948
   68SOL     OW 1102   0.284   1.199   6.145
   68SOL    HW1 1103   0.332   1.283   6.120
   68SOL    HW2 1104   0.285   1.189   6.245
   69SOL     OW 1105   1.705   0.025   6.268
   69SOL    HW1 1106   1.680   6.987   6.342
   69SOL    HW2 1107   1.624   0.075   6.237
   70SOL     OW 1108   4.779   4.837   3.285
   70SOL    HW1 1109   4.807   4.900   3.213
   70SOL    HW2 1110   4.769   4.745   3.247
   71SOL     OW 1111   4.942   1.989   5.329
   71SOL    HW1 1112   5.015   1.941   5.280
   71SOL    HW2 1113   4.913   2.069   5.277
   72SOL     OW 1114   6.650   0.918   2.411
   72SOL    HW1 1115   6.665   1.016   2.401
   72SOL    HW2 1116   6.695   0.884   2.493
   73SOL     OW 1117   2.979   1.057   1.202
   73SOL    HW1 1118   3.054   1.040   1.266
   73SOL    HW2 1119   2.952   0.971   1.158
   74SOL     OW 1120   2.491   1.354   0.000
   74SOL    HW1 1121   2.411   1.346   6.965
   74SOL    HW2 1122   2.472   1.421   0.072
   75SOL     OW 1123   2.884   2.841   1.347
   75SOL    HW1 1124   2.861   2.762   1.290
   75SOL    HW2 1125   2.833   2.921   1.314
   76SOL     OW 1126   3.734   5.412   6.304
   76SOL    HW1 1127   3.705   5.421   6.209
   76SOL    HW2 1128   3.756   5.503   6.341
   77SOL     OW 1129   6.858   5.143   4.469
   77SOL    HW1 1130   6.939   5.091   4.441
   77SOL    HW2 1131   6.850   5.140   4.569
   78SOL     OW 1132   5.487   1.145   1.439
   78SOL    HW1 1133   5.472   1.086   1.518
   78SOL    HW2 1134   5.403   1.196   1.419
   79SOL     OW 1135   1.502   4.568   4.200
   79SOL    HW1 1136   1.459   4.605   4.282
   79SOL    HW2 1137   1.434   4.563   4.127
   80SOL     OW 1138   3.781   2.139   5.457
   80SOL    HW1 1139   3.713   2.212   5.444
   80SOL    HW2 1140   3.734   2.055   5.485
   81SOL     OW 1141   3.078   5.101   3.034
   81SOL    HW1 1142   3.161   5.119   2.981
   81SOL    HW2 1143   3.081   5.151   3.120
   82SOL     OW 1144   3.384   0.278   1.822
   82SOL    HW1 1145   3.384   0.230   1.909
   82SOL    HW2 1146   3.327   0.360   1.829
   83SOL     OW 1147   5.488   1.357   3.525
   83SOL    HW1 1148   5.479   1.390   3.619
   83SOL    HW2 1149   5.450   1.425   3.462
   84SOL     OW 1150   5.616   2.420   2.663
   84SOL    HW1 1151   5.548   2.475   2.615
   84SOL    HW2 1152   5.582   2.395   2.753
   85SOL     OW 1153   2.594   5.484   3.349
   85SOL    HW1 1154   2.500   5.503   3.318
   85SOL    HW2 1155   2.609   5.526   3.438
   86SOL     OW 1156   5.132   1.250   0.714
   86SOL    HW1 1157   5.040   1.234   0.748
   86SOL    HW2 1158   5.199   1.215   0.780
   87SOL     OW 1159   2.931   3.267   6.758
   87SOL    HW1 1160   2.923   3.338   6.688
   87SOL    HW2 1161   3.027   3.248   6.777
   88SOL     OW 1162   1.683   2.348   0.868
   88SOL    HW1 1163   1.660   2.437   0.908
   88SOL    HW2 1164   1.776   2.350   0.832
   89SOL     OW 1165   3.609   4.146   4.747
   89SOL    HW1 1166   3.665   4.068   4.775
   89SOL    HW2 1167   3.608   4.214   4.820
   90SOL     OW 1168   6.578   3.547   2.107
   90SOL    HW1 1169   6.552   3.451   2.119
   90SOL    HW2 1170   6.524   3.588   2.034
   91SOL     OW 1171   4.844   5.372   0.637
   91SOL    HW1 1172   4.936   5.395   0.670
   91SOL    HW2 1173   4.777   5.401   0.705
   92SOL     OW 1174   5.690   5.637   0.189
   92SOL    HW1 1175   5.709   5.624   0.091
   92SOL    HW2 1176   5.712   5.732   0.214
   93SOL     OW 1177   2.968   3.700   1.922
   93SOL    HW1 1178   2.952   3.749   2.008
   93SOL    HW2 1179   3.057   3.655   1.925
   94SOL     OW 1180   3.025   1.409   4.473
   94SOL    HW1 1181   2.966   1.347   4.523
   94SOL    HW2 1182   2.978   1.443   4.391
   95SOL     OW 1183   1.215   6.234   3.855
   95SOL    HW1 1184   1.220   6.184   3.769
   95SOL    HW2 1185   1.125   6.220   3.896
   96SOL     OW 1186   0.140   6.412   7.004
   96SOL    HW1 1187   0.171   6.434   6.912
   96SOL    HW2 1188   0.045   6.439   7.015
   97SOL     OW 1189   3.706   4.495   5.385
   97SOL    HW1 1190   3.763   4.472   5.463
   97SOL    HW2 1191   3.617   4.450   5.394
   98SOL     OW 1192   0.978   2.976   4.640
   98SOL    HW1 1193   1.035   2.897   4.619
   98SOL    HW2 1194   1.030   3.060   4.621
   99SOL     OW 1195   4.456   4.731   4.979
   99SOL    HW1 1196   4.432   4.636   5.000
   99SOL    HW2 1197   4.378   4.776   4.935
  100SOL     OW 1198   1.396   1.231   5.329
  100SOL    HW1 1199   1.480   1.178   5.315
  100SOL    HW2 1200   1.386   1.298   5.256
  101SOL     OW 1201   5.494   3.234   2.707
  101SOL    HW1 1202   5.549   3.220   2.789
  101SOL    HW2 1203   5.482   3.331   2.690
  102SOL     OW 1204   3.537   6.887   0.324
  102SOL    HW1 1205   3.470   6.925   0.261
  102SOL    HW2 1206   3.491   6.854   0.406
  103SOL     OW 1207   1.738   1.940   1.567
  103SOL    HW1 1208   1.791   1.954   1.483
  103SOL    HW2 1209   1.747   2.019   1.627
  104SOL     OW 1210   0.634   4.468   1.257
  104SOL    HW1 1211   0.647   4.433   1.350
  104SOL    HW2 1212   0.723   4.488   1.216
  105SOL     OW 1213   6.536   1.366   5.180
  105SOL    HW1 1214   6.468   1.295   5.199
  105SOL    HW2 1215   6.570   1.404   5.266
  106SOL     OW 1216   4.762   3.163   1.665
  106SOL    HW1 1217   4.728   3.198   1.577
  106SOL    HW2 1218   4.685   3.138   1.723
  107SOL     OW 1219   4.308   6.741   2.591
  107SOL    HW1 1220   4.319   6.822   2.648
  107SOL    HW2 1221   4.241   6.760   2.519
  108SOL     OW 1222   3.337   1.367   4.723
  108SOL    HW1 1223   3.368   1.288   4.776
  108SOL    HW2 1224   3.397   1.445   4.740
  109SOL     OW 1225   1.924   1.979   5.115
  109SOL    HW1 1226   1.857   1.912   5.148
  109SOL    HW2 1227   1.969   1.943   5.034
  110SOL     OW 1228   4.325   4.613   5.509
  110SOL    HW1 1229   4.243   4.577   5.464
  110SOL    HW2 1230   4.379   4.537   5.545
  111SOL     OW 1231   6.117   3.227   1.419
  111SOL    HW1 1232   6.215   3.244   1.427
  111SOL    HW2 1233   6.074   3.304   1.371
  112SOL     OW 1234   4.584   6.641   5.276
  112SOL    HW1 1235   4.569   6.629   5.374
  112SOL    HW2 1236   4.564   6.736   5.251
  113SOL     OW 1237   1.066   5.118   2.156
  113SOL    HW1 1238   1.116   5.131   2.070
  113SOL    HW2 1239   1.106   5.043   2.207
  114SOL     OW 1240   6.856   1.755   2.151
  114SOL    HW1 1241   6.869   1.734   2.248
  114SOL    HW2 1242   6.876   1.852   2.134
  115SOL     OW 1243   4.432   1.076   3.008
  115SOL    HW1 1244   4.420   0.997   2.948
  115SOL    HW2 1245   4.343   1.111   3.035
  116SOL     OW 1246   6.082   5.585   0.528
  116SOL    HW1 1247   6.136   5.660   0.491
  116SOL    HW2 1248   6.018   5.621   0.596
  117SOL     OW 1249   2.596   1.534   0.601
  117SOL    HW1 1250   2.524   1.531   0.670
  117SOL    HW2 1251   2.603   1.444   0.556
  118SOL     OW 1252   0.057   2.563   2.045
  118SOL    HW1 1253   6.985   2.540   2.030
  118SOL    HW2 1254   0.075   2.656   2.013
  119SOL     OW 1255   6.093   5.596   5.082
  119SOL    HW1 1256   6.012   5.634   5.126
  119SOL    HW2 1257   6.074   5.502   5.052
  120SOL     OW 1258   4.385   1.591   4.682
  120SOL    HW1 1259   4.445   1.662   4.645
  120SOL    HW2 1260   4.318   1.634   4.743
  121SOL     OW 1261   0.031   5.339   5.995
  121SOL    HW1 1262   0.020   5.288   5.910
  121SOL    HW2 1263   0.058   5.433   5.975
  122SOL     OW 1264   0.235   4.818   5.804
  122SOL    HW1 1265   0.186   4.877   5.740
  122SOL    HW2 1266   0.170   4.764   5.857
  123SOL     OW 1267   0.723   2.675   0.909
  123SOL    HW1 1268   0.719   2.632   0.819
  123SOL    HW2 1269   0.791   2.629   0.966
  124SOL     OW 1270   2.225   3.900   6.387
  124SOL    HW1 1271   2.288   3.853   6.326
  124SOL    HW2 1272   2.150   3.838   6.411
  125SOL     OW 1273   4.455   2.213   0.590
  125SOL    HW1 1274   4.384   2.236   0.657
  125SOL    HW2 1275   4.518   2.147   0.630
  126SOL     OW 1276   3.777   3.393   4.846
  126SOL    HW1 1277   3.851   3.443   4.801
  126SOL    HW2 1278   3.772   3.300   4.809
  127SOL     OW 1279   0.027   4.967   6.093
  127SOL    HW1 1280   6.975   5.030   6.109
  127SOL    HW2 1281   0.001   4.900   6.024
  128SOL     OW 1282   4.759   4.239   5.974
  128SOL    HW1 1283   4.816   4.315   5.943
  128SOL    HW2 1284   4.746   4.245   6.073
  129SOL     OW 1285   0.863   4.585   1.149
  129SOL    HW1 1286   0.816   4.576   1.061
  129SOL    HW2 1287   0.904   4.676   1.155
  130SOL     OW 1288   6.472   3.804   5.047
  130SOL    HW1 1289   6.380   3.792   5.084
  130SOL    HW2 1290   6.520   3.717   5.047
  131SOL     OW 1291   1.068   3.904   2.343
  131SOL    HW1 1292   1.060   3.995   2.304
  131SOL    HW2 1293   1.025   3.837   2.283
  132SOL     OW 1294   3.977   2.638   1.694
  132SOL    HW1 1295   3.883   2.635   1.728
  132SOL    HW2 1296   4.023   2.552   1.713
  133SOL     OW 1297   4.283   4.470   5.825
  133SOL    HW1 1298   4.381   4.460   5.813
  133SOL    HW2 1299   4.259   4.567   5.830
  134SOL     OW 1300   6.276   1.956   6.613
  134SOL    HW1 1301   6.261   1.989   6.519
  134SOL    HW2 1302   6.189   1.926   6.652
  135SOL     OW 1303   4.495   4.534   3.538
  135SOL    HW1 1304   4.473   4.624   3.577
  135SOL    HW2 1305   4.430   4.466   3.572
  136SOL     OW 1306   3.882   6.663   6.240
  136SOL    HW1 1307   3.912   6.602   6.313
  136SOL    HW2 1308   3.915   6.629   6.152
  137SOL     OW 1309   1.385   4.165   0.044
  137SOL    HW1 1310   1.292   4.195   0.065
  137SOL    HW2 1311   1.445   4.188   0.121
  138SOL     OW 1312   1.010   5.540   0.460
  138SOL    HW1 1313   0.968   5.475   0.396
  138SOL    HW2 1314   0.954   5.622   0.466
  139SOL     OW 1315   0.650   1.098   1.124
  139SOL    HW1 1316   0.581   1.131   1.189
  139SOL    HW2 1317   0.688   1.175   1.074
  140SOL     OW 1318   3.608   0.111   2.113
  140SOL    HW1 1319   3.689   0.066   2.149
  140SOL    HW2 1320   3.563   0.163   2.186
  141SOL     OW 1321   1.201   1.669   0.087
  141SOL    HW1 1322   1.276   1.690   0.024
  141SOL    HW2 1323   1.203   1.572   0.111
  142SOL     OW 1324   2.136   4.080   0.040
  142SOL    HW1 1325   2.207   4.051   6.999
  142SOL    HW2 1326   2.156   4.172   0.073
  143SOL     OW 1327   5.512   5.783   1.894
  143SOL    HW1 1328   5.477   5.694   1.865
  143SOL    HW2 1329   5.553   5.774   1.985
  144SOL     OW 1330   3.019   5.329   3.200
  144SOL    HW1 1331   2.922   5.315   3.218
  144SOL    HW2 1332   3.069   5.332   3.287
  145SOL     OW 1333   0.381   5.846   3.378
  145SOL    HW1 1334   0.350   5.886   3.464
  145SOL    HW2 1335   0.340   5.896   3.301
  146SOL     OW 1336   0.475   0.787   5.877
  146SOL    HW1 1337   0.515   0.857   5.936
  146SOL    HW2 1338   0.536   0.707   5.875
  147SOL     OW 1339   5.879   0.936   4.785
  147SOL    HW1 1340   5.894   1.032   4.759
  147SOL    HW2 1341   5.863   0.882   4.702
  148SOL     OW 1342   1.908   7.005   1.866
  148SOL    HW1 1343   1.937   0.076   1.875
  148SOL    HW2 1344   1.988   6.945   1.870
  149SOL     OW 1345   1.636   2.610   5.062
  149SOL    HW1 1346   1.715   2.662   5.028
  149SOL    HW2 1347   1.565   2.674   5.092
  150SOL     OW 1348   5.035   3.354   5.489
  150SOL    HW1 1349   4.962   3.409   5.448
  150SOL    HW2 1350   5.109   3.414   5.519
  151SOL     OW 1351   6.593   2.920   1.733
  151SOL    HW1 1352   6.496   2.899   1.721
  151SOL    HW2 1353   6.605   2.985   1.808
  152SOL     OW 1354   6.959   2.675   0.031
  152SOL    HW1 1355   6.890   2.633   6.996
  152SOL    HW2 1356   6.960   2.774   0.017
  153SOL     OW 1357   1.767   1.659   4.044
  153SOL    HW1 1358   1.697   1.589   4.053
  153SOL    HW2 1359   1.730   1.747   4.073
  154SOL     OW 1360   0.168   1.289   3.944
  154SOL    HW1 1361   0.219   1.304   4.029
  154SOL    HW2 1362   0.139   1.193   3.939
  155SOL     OW 1363   5.739   4.629   3.155
  155SOL    HW1 1364   5.779   4.602   3.243
  155SOL    HW2 1365   5.641   4.612   3.157
  156SOL     OW 1366   4.272   0.153   1.092
  156SOL    HW1 1367   4.290   0.143   0.994
  156SOL    HW2 1368   4.188   0.104   1.115
  157SOL     OW 1369   5.300   6.910   1.217
  157SOL    HW1 1370   5.335   6.840   1.154
  157SOL    HW2 1371   5.229   6.963   1.171
  158SOL     OW 1372   0.958   3.491   4.607
  158SOL    HW1 1373   0.968   3.589   4.590
  158SOL    HW2 1374   0.897   3.451   4.539
  159SOL     OW 1375   6.522   5.141   0.081
  159SOL    HW1 1376   6.570   5.132   0.168
  159SOL    HW2 1377   6.515   5.238   0.056
  160SOL     OW 1378   4.004   0.434   1.127
  160SOL    HW1 1379   4.054   0.496   1.187
  160SOL    HW2 1380   4.059   0.415   1.046
  161SOL     OW 1381   6.890   0.268   0.360
  161SOL    HW1 1382   6.937   0.209   0.426
  161SOL    HW2 1383   6.868   0.355   0.403
  162SOL     OW 1384   4.122   6.893   5.106
  162SOL    HW1 1385   4.153   6.804   5.143
  162SOL    HW2 1386   4.196   6.933   5.052
  163SOL     OW 1387   1.034   3.636   2.748
  163SOL    HW1 1388   1.127   3.605   2.762
  163SOL    HW2 1389   1.006   3.616   2.654
  164SOL     OW 1390   2.190   2.121   2.952
  164SOL    HW1 1391   2.269   2.084   2.904
  164SOL    HW2 1392   2.148   2.051   3.009
  165SOL     OW 1393   0.094   6.190   3.909
  165SOL    HW1 1394   0.144   6.104   3.899
  165SOL    HW2 1395   0.082   6.211   4.006
  166SOL     OW 1396   0.695   4.736   3.595
  166SOL    HW1 1397   0.735   4.648   3.569
  166SOL    HW2 1398   0.689   4.795   3.514
  167SOL     OW 1399   0.921   1.216   3.061
  167SOL    HW1 1400   0.827   1.248   3.073
  167SOL    HW2 1401   0.976   1.290   3.022
  168SOL     OW 1402   3.181   3.595   3.022
  168SOL    HW1 1403   3.108   3.659   3.047
  168SOL    HW2 1404   3.161   3.555   2.933
  169SOL     OW 1405   5.026   2.739   6.679
  169SOL    HW1 1406   5.075   2.810   6.629
  169SOL    HW2 1407   4.972   2.685   6.614
  170SOL     OW 1408   0.218   5.205   2.141
  170SOL    HW1 1409   0.120   5.226   2.141
  170SOL    HW2 1410   0.233   5.115   2.100
  171SOL     OW 1411   2.916   2.466   0.723
  171SOL    HW1 1412   2.913   2.389   0.787
  171SOL    HW2 1413   3.009   2.504   0.723
  172SOL     OW 1414   1.505   1.049   6.995
  172SOL    HW1 1415   1.589   1.006   0.006
  172SOL    HW2 1416   1.436   1.050   0.043
  173SOL     OW 1417   6.065   0.537   4.870
  173SOL    HW1 1418   6.049   0.588   4.785
  173SOL    HW2 1419   6.083   0.600   4.945
  174SOL     OW 1420   6.393   3.547   5.352
  174SOL    HW1 1421   6.437   3.533   5.441
  174SOL    HW2 1422   6.444   3.499   5.281
  175SOL     OW 1423   0.749   6.192   2.865
  175SOL    HW1 1424   0.810   6.267   2.890
  175SOL    HW2 1425   0.775   6.156   2.776
  176SOL     OW 1426   6.687   3.866   0.969
  176SOL    HW1 1427   6.786   3.878   0.975
  176SOL    HW2 1428   6.649   3.936   0.909
  177SOL     OW 1429   6.613   2.696   3.657
  177SOL    HW1 1430   6.631   2.761   3.731
  177SOL    HW2 1431   6.692   2.635   3.646
  178SOL     OW 1432   1.727   5.837   4.658
  178SOL    HW1 1433   1.721   5.771   4.583
  178SOL    HW2 1434   1.663   5.912   4.640
  179SOL     OW 1435   3.624   4.129   1.994
  179SOL    HW1 1436   3.537   4.145   1.947
  179SOL    HW2 1437   3.609   4.134   2.093
  180SOL     OW 1438   4.802   1.067   6.165
  180SOL    HW1 1439   4.782   1.158   6.126
  180SOL    HW2 1440   4.719   1.011   6.162
  181SOL     OW 1441   3.701   0.570   5.527
  181SOL    HW1 1442   3.606   0.578   5.559
  181SOL    HW2 1443   3.738   0.482   5.555
  182SOL     OW 1444   3.079   3.087   5.747
  182SOL    HW1 1445   2.997   3.059   5.795
  182SOL    HW2 1446   3.096   3.025   5.671
  183SOL     OW 1447   3.300   1.293   3.772
  183SOL    HW1 1448   3.269   1.387   3.755
  183SOL    HW2 1449   3.348   1.259   3.691
  184SOL     OW 1450   4.773   5.882   3.341
  184SOL    HW1 1451   4.767   5.978   3.371
  184SOL    HW2 1452   4.838   5.875   3.266
  185SOL     OW 1453   0.082   6.750   5.002
  185SOL    HW1 1454   0.100   6.720   4.908
  185SOL    HW2 1455   0.166   6.789   5.041
  186SOL     OW 1456   2.604   5.755   6.189
  186SOL    HW1 1457   2.641   5.694   6.259
  186SOL    HW2 1458   2.582   5.702   6.107
  187SOL     OW 1459   3.826   5.523   0.674
  187SOL    HW1 1460   3.733   5.529   0.709
  187SOL    HW2 1461   3.879   5.601   0.706
  188SOL     OW 1462   1.514   3.930   3.696
  188SOL    HW1 1463   1.573   3.880   3.633
  188SOL    HW2 1464   1.554   4.020   3.715
  189SOL     OW 1465   5.595   4.607   6.130
  189SOL    HW1 1466   5.551   4.636   6.045
  189SOL    HW2 1467   5.596   4.507   6.135
  190SOL     OW 1468   5.815   6.256   0.742
  190SOL    HW1 1469   5.879   6.292   0.675
  190SOL    HW2 1470   5.808   6.319   0.819
  191SOL     OW 1471   2.123   3.182   5.709
  191SOL    HW1 1472   2.204   3.219   5.754
  191SOL    HW2 1473   2.059   3.256   5.688
  192SOL     OW 1474   6.891   6.958   0.977
  192SOL    HW1 1475   6.828   6.984   0.903
  192SOL    HW2 1476   6.854   6.880   1.027
  193SOL     OW 1477   3.158   0.239   1.554
  193SOL    HW1 1478   3.177   0.155   1.505
  193SOL    HW2 1479   3.198   0.234   1.646
  194SOL     OW 1480   4.120   5.782   3.365
  194SOL    HW1 1481   4.073   5.808   3.281
  194SOL    HW2 1482   4.190   5.714   3.345
  195SOL     OW 1483   2.629   0.787   0.805
  195SOL    HW1 1484   2.559   0.754   0.742
  195SOL    HW2 1485   2.679   0.863   0.764
  196SOL     OW 1486   4.305   2.824   1.065
  196SOL    HW1 1487   4.285   2.727   1.057
  196SOL    HW2 1488   4.314   2.864   0.974
  197SOL     OW 1489   1.399   5.932   0.835
  197SOL    HW1 1490   1.493   5.921   0.802
  197SOL    HW2 1491   1.344   5.854   0.804
  198SOL     OW 1492   5.455   0.046   6.161
  198SOL    HW1 1493   5.492   0.079   6.074
  198SOL    HW2 1494   5.531   0.019   6.221
  199SOL     OW 1495   2.000   1.142   3.380
  199SOL    HW1 1496   1.963   1.210   3.317
  199SOL    HW2 1497   1.931   1.072   3.398
  200SOL     OW 1498   1.321   3.887   4.350
  200SOL    HW1 1499   1.386   3.959   4.327
  200SOL    HW2 1500   1.369   3.811   4.394
  201SOL     OW 1501   4.917   1.319   0.202
  201SOL    HW1 1502   5.006   1.281   0.178
  201SOL    HW2 1503   4.927   1.378   0.282
  202SOL     OW 1504   4.360   0.322   3.206
  202SOL    HW1 1505   4.350   0.330   3.306
  202SOL    HW2 1506   4.327   0.406   3.163
  203SOL     OW 1507   5.766   2.569   0.190
  203SOL    HW1 1508   5.795   2.537   0.099
  203SOL    HW2 1509   5.773   2.668   0.194
  204SOL     OW 1510   1.772   5.982   1.078
  204SOL    HW1 1511   1.730   6.044   1.145
  204SOL    HW2 1512   1.872   5.996   1.078
  205SOL     OW 1513   5.457   0.275   1.560
  205SOL    HW1 1514   5.377   0.248   1.613
  205SOL    HW2 1515   5.448   0.243   1.466
  206SOL     OW 1516   0.069   6.390   1.153
  206SOL    HW1 1517   0.124   6.419   1.075
  206SOL    HW2 1518   0.030   6.300   1.134
  207SOL     OW 1519   6.722   2.217   5.643
  207SOL    HW1 1520   6.634   2.264   5.657
  207SOL    HW2 1521   6.785   2.279   5.596
  208SOL     OW 1522   3.929   3.742   6.948
  208SOL    HW1 1523   3.998   3.754   7.019
  208SOL    HW2 1524   3.966   3.687   6.874
  209SOL     OW 1525   0.053   6.748   3.744
  209SOL    HW1 1526   0.038   6.833   3.796
  209SOL    HW2 1527   0.128   6.697   3.786
  210SOL     OW 1528   4.003   1.673   0.892
  210SOL    HW1 1529   4.045   1.582   0.891
  210SOL    HW2 1530   3.979   1.697   0.986
  211SOL     OW 1531   0.918   3.172   1.881
  211SOL    HW1 1532   0.913   3.073   1.870
  211SOL    HW2 1533   0.878   3.217   1.802
  212SOL     OW 1534   0.998   5.294   5.437
  212SOL    HW1 1535   0.933   5.294   5.361
  212SOL    HW2 1536   0.955   5.252   5.517
  213SOL     OW 1537   3.484   2.561   0.897
  213SOL    HW1 1538   3.434   2.571   0.983
  213SOL    HW2 1539   3.568   2.510   0.913
  214SOL     OW 1540   1.315   6.213   3.361
  214SOL    HW1 1541   1.241   6.155   3.395
  214SOL    HW2 1542   1.354   6.174   3.278
  215SOL     OW 1543   3.480   4.148   3.277
  215SOL    HW1 1544   3.520   4.114   3.192
  215SOL    HW2 1545   3.414   4.220   3.256
  216SOL     OW 1546   3.445   0.608   5.592
  216SOL    HW1 1547   3.397   0.643   5.673
  216SOL    HW2 1548   3.378   0.569   5.528
  217SOL     OW 1549   0.175   2.070   5.088
  217SOL    HW1 1550   0.123   1.986   5.104
  217SOL    HW2 1551   0.189   2.117   5.176
  218SOL     OW 1552   2.713   4.348   5.775
  218SOL    HW1 1553   2.650   4.282   5.734
  218SOL    HW2 1554   2.660   4.421   5.817
  219SOL     OW 1555   2.275   5.680   6.512
  219SOL    HW1 1556   2.367   5.692   6.547
  219SOL    HW2 1557   2.210   5.672   6.588
  220SOL     OW 1558   1.527   5.121   0.483
  220SOL    HW1 1559   1.583   5.072   0.416
  220SOL    HW2 1560   1.578   5.128   0.569
  221SOL     OW 1561   6.080   2.804   4.865
  221SOL    HW1 1562   5.981   2.807   4.856
  221SOL    HW2 1563   6.118   2.743   4.795
  222SOL     OW 1564   2.094   6.769   4.455
  222SOL    HW1 1565   2.123   6.681   4.417
  222SOL    HW2 1566   2.141   6.784   4.542
  223SOL     OW 1567   5.545   5.002   2.539
  223SOL    HW1 1568   5.512   4.933   2.474
  223SOL    HW2 1569   5.635   5.035   2.509
  224SOL     OW 1570   5.116   2.551   2.533
  224SOL    HW1 1571   5.099   2.602   2.450
  224SOL    HW2 1572   5.201   2.582   2.575
  225SOL     OW 1573   4.869   6.267   1.496
  225SOL    HW1 1574   4.924   6.317   1.429
  225SOL    HW2 1575   4.913   6.179   1.517
  226SOL     OW 1576   0.627   5.883   2.089
  226SOL    HW1 1577   0.672   5.963   2.129
  226SOL    HW2 1578   0.578   5.911   2.006
  227SOL     OW 1579   1.259   3.576   3.370
  227SOL    HW1 1580   1.281   3.531   3.457
  227SOL    HW2 1581   1.190   3.522   3.322
  228SOL     OW 1582   4.103   6.194   3.050
  228SOL    HW1 1583   4.025   6.202   2.988
  228SOL    HW2 1584   4.187   6.181   2.996
  229SOL     OW 1585   6.638   5.709   3.131
  229SOL    HW1 1586   6.729   5.729   3.167
  229SOL    HW2 1587   6.621   5.610   3.135
  230SOL     OW 1588   1.013   4.696   6.213
  230SOL    HW1 1589   0.974   4.730   6.299
  230SOL    HW2 1590   1.034   4.773   6.153
  231SOL     OW 1591   0.211   2.228   6.532
  231SOL    HW1 1592   0.228   2.152   6.595
  231SOL    HW2 1593   0.276   2.224   6.456
  232SOL     OW 1594   1.415   4.165   5.694
  232SOL    HW1 1595   1.451   4.253   5.662
  232SOL    HW2 1596   1.455   4.144   5.783
  233SOL     OW 1597   3.257   0.149   6.796
  233SOL    HW1 1598   3.218   0.068   6.839
  233SOL    HW2 1599   3.351   0.162   6.828
  234SOL     OW 1600   2.300   5.312   6.668
  234SOL    HW1 1601   2.206   5.336   6.644
  234SOL    HW2 1602   2.324   5.354   6.756
  235SOL     OW 1603   3.773   3.374   5.838
  235SOL    HW1 1604   3.739   3.280   5.829
  235SOL    HW2 1605   3.697   3.435   5.857
  236SOL     OW 1606   6.950   1.491   6.081
  236SOL    HW1 1607   6.864   1.509   6.033
  236SOL    HW2 1608   7.017   1.562   6.058
  237SOL     OW 1609   6.872   6.646   2.307
  237SOL    HW1 1610   6.830   6.672   2.220
  237SOL    HW2 1611   6.812   6.582   2.355
  238SOL     OW 1612   6.940   2.343   2.457
  238SOL    HW1 1613   6.990   2.258   2.471
  238SOL    HW2 1614   6.995   2.407   2.403
  239SOL     OW 1615   5.965   5.081   0.692
  239SOL    HW1 1616   6.011   5.115   0.774
  239SOL    HW2 1617   5.982   4.983   0.682
  240SOL     OW 1618   6.975   2.229   4.967
  240SOL    HW1 1619   6.950   2.293   5.041
  240SOL    HW2 1620   0.028   2.173   4.997
  241SOL     OW 1621   5.582   1.894   5.259
  241SOL    HW1 1622   5.631   1.906   5.173
  241SOL    HW2 1623   5.527   1.810   5.255
  242SOL     OW 1624   2.869   2.253   4.403
  242SOL    HW1 1625   2.855   2.165   4.358
  242SOL    HW2 1626   2.965   2.279   4.394
  243SOL     OW 1627   5.164   1.094   6.931
  243SOL    HW1 1628   5.115   1.007   6.928
  243SOL    HW2 1629   5.158   1.140   6.843
  244SOL     OW 1630   0.469   1.872   5.983
  244SOL    HW1 1631   0.568   1.885   5.976
  244SOL    HW2 1632   0.433   1.844   5.894
  245SOL     OW 1633   4.922   2.673   4.075
  245SOL    HW1 1634   4.924   2.733   3.995
  245SOL    HW2 1635   4.918   2.728   4.158
  246SOL     OW 1636   5.201   3.293   4.292
  246SOL    HW1 1637   5.260   3.307   4.212
  246SOL    HW2 1638   5.218   3.202   4.330
  247SOL     OW 1639   3.167   0.478   2.873
  247SOL    HW1 1640   3.263   0.459   2.856
  247SOL    HW2 1641   3.148   0.469   2.971
  248SOL     OW 1642   0.336   2.499   2.645
  248SOL    HW1 1643   0.373   2.425   2.589
  248SOL    HW2 1644   0.405   2.571   2.654
  249SOL     OW 1645   1.902   5.550   5.294
  249SOL    HW1 1646   1.807   5.569   5.316
  249SOL    HW2 1647   1.961   5.582   5.368
  250SOL     OW 1648   5.181   2.275   0.111
  250SOL    HW1 1649   5.267   2.325   0.104
  250SOL    HW2 1650   5.118   2.327   0.170
  251SOL     OW 1651   2.193   0.994   1.147
  251SOL    HW1 1652   2.258   0.932   1.189
  251SOL    HW2 1653   2.116   0.943   1.109
  252SOL     OW 1654   0.567   2.401   6.942
  252SOL    HW1 1655   0.611   2.322   6.984
  252SOL    HW2 1656   0.559   2.474   7.009
  253SOL     OW 1657   2.091   4.527   6.526
  253SOL    HW1 1658   2.049   4.562   6.609
  253SOL    HW2 1659   2.023   4.478   6.472
  254SOL     OW 1660   4.863   3.734   6.514
  254SOL    HW1 1661   4.894   3.795   6.441
  254SOL    HW2 1662   4.764   3.724   6.509
  255SOL     OW 1663   4.491   2.161   2.202
  255SOL    HW1 1664   4.522   2.104   2.126
  255SOL    HW2 1665   4.451   2.102   2.273
  256SOL     OW 1666   6.681   6.091   1.478
  256SOL    HW1 1667   6.639   6.128   1.395
  256SOL    HW2 1668   6.778   6.076   1.463
  257SOL     OW 1669   2.902   5.835   5.580
  257SOL    HW1 1670   2.962   5.877   5.512
  257SOL    HW2 1671   2.928   5.740   5.594
  258SOL     OW 1672   4.111   5.343   4.387
  258SOL    HW1 1673   4.042   5.280   4.353
  258SOL    HW2 1674   4.088   5.437   4.360
  259SOL     OW 1675   0.634   1.496   2.754
  259SOL    HW1 1676   0.716   1.441   2.740
  259SOL    HW2 1677   0.651   1.566   2.823
  260SOL     OW 1678   6.460   6.771   5.029
  260SOL    HW1 1679   6.406   6.750   5.111
  260SOL    HW2 1680   6.425   6.855   4.987
  261SOL     OW 1681   0.252   0.775   4.660
  261SOL    HW1 1682   0.158   0.741   4.670
  261SOL    HW2 1683   0.301   0.763   4.746
  262SOL     OW 1684   1.606   5.565   1.563
  262SOL    HW1 1685   1.630   5.630   1.491
  262SOL    HW2 1686   1.510   5.538   1.553
  263SOL     OW 1687   0.548   4.710   4.290
  263SOL    HW1 1688   0.606   4.629   4.280
  263SOL    HW2 1689   0.492   4.700   4.373
  264SOL     OW 1690   2.748   4.295   0.556
  264SOL    HW1 1691   2.742   4.196   0.570
  264SOL    HW2 1692   2.830   4.316   0.503
  265SOL     OW 1693   4.262   5.258   3.791
  265SOL    HW1 1694   4.179   5.224   3.836
  265SOL    HW2 1695   4.335   5.267   3.858
  266SOL     OW 1696   4.139   3.538   6.774
  266SOL    HW1 1697   4.147   3.630   6.737
  266SOL    HW2 1698   4.193   3.475   6.719
  267SOL     OW 1699   2.381   2.888   5.765
  267SOL    HW1 1700   2.369   2.810   5.704
  267SOL    HW2 1701   2.412   2.967   5.713
  268SOL     OW 1702   1.778   4.378   3.630
  268SOL    HW1 1703   1.766   4.452   3.564
  268SOL    HW2 1704   1.831   4.411   3.707
  269SOL     OW 1705   3.045   1.718   5.891
  269SOL    HW1 1706   3.073   1.723   5.987
  269SOL    HW2 1707   3.119   1.754   5.833
  270SOL     OW 1708   5.212   6.343   4.908
  270SOL    HW1 1709   5.303   6.361   4.870
  270SOL    HW2 1710   5.147   6.409   4.870
  271SOL     OW 1711   2.133   1.706   0.461
  271SOL    HW1 1712   2.198   1.777   0.433
  271SOL    HW2 1713   2.148   1.685   0.558
  272SOL     OW 1714   4.440   5.169   0.273
  272SOL    HW1 1715   4.351   5.156   0.231
  272SOL    HW2 1716   4.463   5.088   0.328
  273SOL     OW 1717   1.655   6.016   3.738
  273SOL    HW1 1718   1.676   5.993   3.833
  273SOL    HW2 1719   1.562   5.985   3.717
  274SOL     OW 1720   5.859   2.402   2.205
  274SOL    HW1 1721   5.823   2.367   2.291
  274SOL    HW2 1722   5.809   2.361   2.128
  275SOL     OW 1723   5.815   5.511   5.672
  275SOL    HW1 1724   5.772   5.566   5.744
  275SOL    HW2 1725   5.911   5.497   5.695
  276SOL     OW 1726   0.902   0.373   4.430
  276SOL    HW1 1727   0.874   0.287   4.387
  276SOL    HW2 1728   0.827   0.410   4.485
  277SOL     OW 1729   3.652   2.819   5.142
  277SOL    HW1 1730   3.609   2.736   5.177
  277SOL    HW2 1731   3.600   2.852   5.063
  278SOL     OW 1732   5.604   4.769   2.698
  278SOL    HW1 1733   5.546   4.795   2.775
  278SOL    HW2 1734   5.632   4.851   2.648
  279SOL     OW 1735   0.515   3.922   3.617
  279SOL    HW1 1736   0.608   3.954   3.597
  279SOL    HW2 1737   0.519   3.832   3.660
  280SOL     OW 1738   4.274   1.968   3.808
  280SOL    HW1 1739   4.205   1.909   3.851
  280SOL    HW2 1740   4.351   1.979   3.871
  281SOL     OW 1741   4.998   5.568   5.211
  281SOL    HW1 1742   5.097   5.554   5.210
  281SOL    HW2 1743   4.961   5.534   5.297
  282SOL     OW 1744   0.510   2.651   0.071
  282SOL    HW1 1745   0.550   2.734   0.110
  282SOL    HW2 1746   0.414   2.668   0.047
  283SOL     OW 1747   5.955   3.951   3.165
  283SOL    HW1 1748   5.988   3.878   3.105
  283SOL    HW2 1749   5.873   3.920   3.213
  284SOL     OW 1750   5.750   6.520   3.122
  284SOL    HW1 1751   5.775   6.435   3.075
  284SOL    HW2 1752   5.712   6.584   3.056
  285SOL     OW 1753   4.182   6.023   5.976
  285SOL    HW1 1754   4.204   6.009   5.879
  285SOL    HW2 1755   4.201   5.938   6.026
  286SOL     OW 1756   3.262   4.882   5.671
  286SOL    HW1 1757   3.247   4.843   5.762
  286SOL    HW2 1758   3.180   4.868   5.616
  287SOL     OW 1759   3.313   5.976   0.707
  287SOL    HW1 1760   3.237   5.984   0.772
  287SOL    HW2 1761   3.292   6.027   0.624
  288SOL     OW 1762   4.734   1.136   0.234
  288SOL    HW1 1763   4.792   1.216   0.217
  288SOL    HW2 1764   4.670   1.157   0.309
  289SOL     OW 1765   5.114   5.076   4.564
  289SOL    HW1 1766   5.019   5.096   4.588
  289SOL    HW2 1767   5.131   5.107   4.471
  290SOL     OW 1768   3.857   0.553   4.998
  290SOL    HW1 1769   3.951   0.564   5.029
  290SOL    HW2 1770   3.795   0.560   5.076
  291SOL     OW 1771   5.623   0.840   4.863
  291SOL    HW1 1772   5.712   0.882   4.847
  291SOL    HW2 1773   5.630   0.741   4.853
  292SOL     OW 1774   3.332   0.535   3.558
  292SOL    HW1 1775   3.270   0.607   3.589
  292SOL    HW2 1776   3.385   0.501   3.635
  293SOL     OW 1777   5.507   0.569   2.554
  293SOL    HW1 1778   5.435   0.508   2.521
  293SOL    HW2 1779   5.526   0.638   2.484
  294SOL     OW 1780   6.572   1.503   6.559
  294SOL    HW1 1781   6.505   1.559   6.511
  294SOL    HW2 1782   6.637   1.561   6.608
  295SOL     OW 1783   0.462   0.247   5.155
  295SOL    HW1 1784   0.406   0.229   5.236
  295SOL    HW2 1785   0.493   0.342   5.157
  296SOL     OW 1786   0.902   1.778   1.748
  296SOL    HW1 1787   0.980   1.724   1.717
  296SOL    HW2 1788   0.829   1.774   1.679
  297SOL     OW 1789   5.349   3.422   3.241
  297SOL    HW1 1790   5.274   3.469   3.195
  297SOL    HW2 1791   5.383   3.348   3.183
  298SOL     OW 1792   4.464   0.118   5.204
  298SOL    HW1 1793   4.470   0.213   5.235
  298SOL    HW2 1794   4.485   0.057   5.281
  299SOL     OW 1795   0.602   1.333   5.933
  299SOL    HW1 1796   0.648   1.277   6.002
  299SOL    HW2 1797   0.531   1.388   5.976
  300SOL     OW 1798   4.424   5.933   4.112
  300SOL    HW1 1799   4.441   5.897   4.020
  300SOL    HW2 1800   4.327   5.925   4.134
  301SOL     OW 1801   0.238   6.326   5.497
  301SOL    HW1 1802   0.204   6.245   5.544
  301SOL    HW2 1803   0.305   6.299   5.428
  302SOL     OW 1804   0.169   6.547   2.120
  302SOL    HW1 1805   0.083   6.507   2.088
  302SOL    HW2 1806   0.189   6.514   2.212
  303SOL     OW 1807   5.462   5.741   2.342
  303SOL    HW1 1808   5.524   5.763   2.266
  303SOL    HW2 1809   5.472   5.645   2.367
  304SOL     OW 1810   1.496   0.092   3.845
  304SOL    HW1 1811   1.502   0.004   3.798
  304SOL    HW2 1812   1.560   0.156   3.803
  305SOL     OW 1813   1.983   2.016   1.370
  305SOL    HW1 1814   2.063   1.957   1.385
  305SOL    HW2 1815   1.995   2.101   1.422
  306SOL     OW 1816   0.643   0.129   2.213
  306SOL    HW1 1817   0.658   0.133   2.114
  306SOL    HW2 1818   0.549   0.156   2.234
  307SOL     OW 1819   3.757   4.005   3.976
  307SOL    HW1 1820   3.756   3.905   3.974
  307SOL    HW2 1821   3.766   4.037   4.070
  308SOL     OW 1822   6.156   1.621   2.025
  308SOL    HW1 1823   6.185   1.607   1.930
  308SOL    HW2 1824   6.221   1.680   2.072
  309SOL     OW 1825   1.394   4.819   0.299
  309SOL    HW1 1826   1.453   4.753   0.253
  309SOL    HW2 1827   1.370   4.786   0.390
  310SOL     OW 1828   4.533   6.646   5.556
  310SOL    HW1 1829   4.438   6.616   5.560
  310SOL    HW2 1830   4.557   6.694   5.641
  311SOL     OW 1831   1.563   6.775   1.954
  311SOL    HW1 1832   1.619   6.794   1.873
  311SOL    HW2 1833   1.604   6.820   2.033
  312SOL     OW 1834   3.387   0.325   4.191
  312SOL    HW1 1835   3.479   0.349   4.159
  312SOL    HW2 1836   3.349   0.402   4.243
  313SOL     OW 1837   3.159   3.256   2.992
  313SOL    HW1 1838   3.245   3.286   2.951
  313SOL    HW2 1839   3.177   3.183   3.058
  314SOL     OW 1840   2.749   5.057   6.262
  314SOL    HW1 1841   2.771   5.154   6.266
  314SOL    HW2 1842   2.770   5.014   6.351
  315SOL     OW 1843   6.288   0.392   4.632
  315SOL    HW1 1844   6.356   0.334   4.587
  315SOL    HW2 1845   6.333   0.459   4.690
  316SOL     OW 1846   4.184   1.236   5.803
  316SOL    HW1 1847   4.211   1.330   5.825
  316SOL    HW2 1848   4.123   1.201   5.874
  317SOL     OW 1849   0.751   2.231   1.330
  317SOL    HW1 1850   0.721   2.168   1.402
  317SOL    HW2 1851   0.681   2.236   1.259
  318SOL     OW 1852   0.824   0.609   3.049
  318SOL    HW1 1853   0.758   0.551   3.095
  318SOL    HW2 1854   0.864   0.560   2.971
  319SOL     OW 1855   1.136   0.609   2.534
  319SOL    HW1 1856   1.041   0.609   2.564
  319SOL    HW2 1857   1.190   0.669   2.594
  320SOL     OW 1858   5.168   1.274   0.112
  320SOL    HW1 1859   5.147   1.197   0.053
  320SOL    HW2 1860   5.266   1.277   0.131
  321SOL     OW 1861   4.523   3.155   1.043
  321SOL    HW1 1862   4.470   3.110   1.115
  321SOL    HW2 1863   4.566   3.238   1.080
  322SOL     OW 1864   2.772   2.625   7.024
  322SOL    HW1 1865   2.778   2.629   0.099
  322SOL    HW2 1866   2.752   2.531   6.995
  323SOL     OW 1867   1.345   3.661   2.088
  323SOL    HW1 1868   1.373   3.679   2.182
  323SOL    HW2 1869   1.413   3.699   2.025
  324SOL     OW 1870   6.888   0.693   3.579
  324SOL    HW1 1871   6.967   0.687   3.517
  324SOL    HW2 1872   6.879   0.607   3.630
  325SOL     OW 1873   6.041   3.403   1.089
  325SOL    HW1 1874   6.107   3.472   1.119
  325SOL    HW2 1875   5.948   3.436   1.102
  326SOL     OW 1876   6.681   5.575   6.997
  326SOL    HW1 1877   6.655   5.632   6.919
  326SOL    HW2 1878   6.756   5.514   6.969
  327SOL     OW 1879   4.079   6.019   6.452
  327SOL    HW1 1880   4.176   5.997   6.445
  327SOL    HW2 1881   4.060   6.104   6.404
  328SOL     OW 1882   1.427   4.889   3.413
  328SOL    HW1 1883   1.385   4.868   3.325
  328SOL    HW2 1884   1.374   4.961   3.458
  329SOL     OW 1885   3.602   2.826   2.071
  329SOL    HW1 1886   3.614   2.727   2.068
  329SOL    HW2 1887   3.571   2.859   1.982
  330SOL     OW 1888   2.629   3.394   6.673
  330SOL    HW1 1889   2.606   3.408   6.769
  330SOL    HW2 1890   2.580   3.313   6.638
  331SOL     OW 1891   5.031   4.783   4.213
  331SOL    HW1 1892   4.940   4.823   4.196
  331SOL    HW2 1893   5.040   4.762   4.310
  332SOL     OW 1894   5.622   1.637   2.590
  332SOL    HW1 1895   5.655   1.564   2.651
  332SOL    HW2 1896   5.575   1.707   2.645
  333SOL     OW 1897   4.066   6.695   3.491
  333SOL    HW1 1898   4.086   6.695   3.393
  333SOL    HW2 1899   3.967   6.692   3.505
  334SOL     OW 1900   3.438   3.538   4.136
  334SOL    HW1 1901   3.408   3.587   4.217
  334SOL    HW2 1902   3.494   3.460   4.163
  335SOL     OW 1903   3.676   1.006   0.766
  335SOL    HW1 1904   3.627   1.037   0.848
  335SOL    HW2 1905   3.646   0.914   0.742
  336SOL     OW 1906   4.049   2.164   4.969
  336SOL    HW1 1907   4.109   2.243   4.959
  336SOL    HW2 1908   3.983   2.181   5.043
  337SOL     OW 1909   0.078   1.089   5.313
  337SOL    HW1 1910   0.150   1.148   5.276
  337SOL    HW2 1911   7.016   1.140   5.318
  338SOL     OW 1912   4.836   0.951   1.898
  338SOL    HW1 1913   4.851   1.022   1.830
  338SOL    HW2 1914   4.784   0.987   1.974
  339SOL     OW 1915   4.242   5.078   6.092
  339SOL    HW1 1916   4.262   5.175   6.107
  339SOL    HW2 1917   4.215   5.036   6.179
  340SOL     OW 1918   4.985   3.271   5.214
  340SOL    HW1 1919   5.024   3.181   5.196
  340SOL    HW2 1920   5.026   3.309   5.297
  341SOL     OW 1921   0.051   0.444   1.855
  341SOL    HW1 1922   6.996   0.416   1.910
  341SOL    HW2 1923   0.094   0.363   1.815
  342SOL     OW 1924   4.725   1.370   1.844
  342SOL    HW1 1925   4.814   1.326   1.837
  342SOL    HW2 1926   4.657   1.305   1.876
  343SOL     OW 1927   5.697   7.012   1.501
  343SOL    HW1 1928   5.599   7.006   1.518
  343SOL    HW2 1929   5.723   6.946   1.430
  344SOL     OW 1930   6.809   2.940   1.505
  344SOL    HW1 1931   6.744   2.894   1.446
  344SOL    HW2 1932   6.785   3.037   1.513
  345SOL     OW 1933   0.020   2.050   4.546
  345SOL    HW1 1934   0.076   2.119   4.591
  345SOL    HW2 1935   6.977   2.095   4.488
  346SOL     OW 1936   1.861   5.787   2.803
  346SOL    HW1 1937   1.905   5.812   2.717
  346SOL    HW2 1938   1.884   5.693   2.827
  347SOL     OW 1939   2.715   4.890   1.353
  347SOL    HW1 1940   2.694   4.796   1.379
  347SOL    HW2 1941   2.797   4.921   1.402
  348SOL     OW 1942   5.475   4.796   1.642
  348SOL    HW1 1943   5.519   4.758   1.561
  348SOL    HW2 1944   5.478   4.896   1.638
  349SOL     OW 1945   5.817   4.690   1.142
  349SOL    HW1 1946   5.811   4.691   1.042
  349SOL    HW2 1947   5.727   4.708   1.181
  350SOL     OW 1948   2.385   1.598   0.777
  350SOL    HW1 1949   2.397   1.697   0.776
  350SOL    HW2 1950   2.294   1.575   0.744
  351SOL     OW 1951   3.905   4.267   1.333
  351SOL    HW1 1952   3.930   4.219   1.249
  351SOL    HW2 1953   3.939   4.362   1.328
  352SOL     OW 1954   4.265   6.680   2.305
  352SOL    HW1 1955   4.180   6.642   2.269
  352SOL    HW2 1956   4.339   6.666   2.239
  353SOL     OW 1957   1.904   6.753   0.225
  353SOL    HW1 1958   1.893   6.705   0.312
  353SOL    HW2 1959   1.833   6.723   0.161
  354SOL     OW 1960   1.724   2.109   0.783
  354SOL    HW1 1961   1.659   2.040   0.816
  354SOL    HW2 1962   1.703   2.197   0.825
  355SOL     OW 1963   0.624   3.002   3.350
  355SOL    HW1 1964   0.526   2.986   3.336
  355SOL    HW2 1965   0.644   2.999   3.448
  356SOL     OW 1966   2.796   0.869   5.568
  356SOL    HW1 1967   2.876   0.808   5.574
  356SOL    HW2 1968   2.800   0.921   5.483
  357SOL     OW 1969   5.778   6.018   3.983
  357SOL    HW1 1970   5.683   6.014   3.950
  357SOL    HW2 1971   5.779   6.012   4.083
  358SOL     OW 1972   3.086   6.076   0.125
  358SOL    HW1 1973   3.042   5.999   0.171
  358SOL    HW2 1974   3.022   6.116   0.059
  359SOL     OW 1975   1.544   1.858   1.866
  359SOL    HW1 1976   1.548   1.783   1.932
  359SOL    HW2 1977   1.563   1.823   1.774
  360SOL     OW 1978   2.165   3.895   3.249
  360SOL    HW1 1979   2.173   3.852   3.339
  360SOL    HW2 1980   2.077   3.942   3.241
  361SOL     OW 1981   0.134   2.173   2.477
  361SOL    HW1 1982   0.225   2.214   2.479
  361SOL    HW2 1983   0.132   2.092   2.536
  362SOL     OW 1984   3.968   3.661   2.408
  362SOL    HW1 1985   3.968   3.697   2.501
  362SOL    HW2 1986   3.992   3.733   2.344
  363SOL     OW 1987   4.633   5.109   0.509
  363SOL    HW1 1988   4.654   5.177   0.439
  363SOL    HW2 1989   4.718   5.071   0.546
  364SOL     OW 1990   1.168   0.264   0.432
  364SOL    HW1 1991   1.132   0.336   0.491
  364SOL    HW2 1992   1.115   0.180   0.446
  365SOL     OW 1993   5.783   0.701   3.839
  365SOL    HW1 1994   5.727   0.635   3.888
  365SOL    HW2 1995   5.861   0.654   3.797
  366SOL     OW 1996   5.162   1.590   0.015
  366SOL    HW1 1997   5.257   1.598   7.009
  366SOL    HW2 1998   5.148   1.503   0.061
  367SOL     OW 1999   5.540   1.084   0.015
  367SOL    HW1 2000   5.500   1.095   0.105
  367SOL    HW2 2001   5.491   1.141   6.973
  368SOL     OW 2002   2.155   1.841   6.455
  368SOL    HW1 2003   2.202   1.927   6.473
  368SOL    HW2 2004   2.110   1.845   6.366
  369SOL     OW 2005   5.456   4.765   0.356
  369SOL    HW1 2006   5.495   4.760   0.448
  369SOL    HW2 2007   5.382   4.699   0.347
  370SOL     OW 2008   2.190   2.581   3.339
  370SOL    HW1 2009   2.162   2.611   3.430
  370SOL    HW2 2010   2.196   2.660   3.278
  371SOL     OW 2011   2.121   5.669   0.250
  371SOL    HW1 2012   2.200   5.698   0.198
  371SOL    HW2 2013   2.037   5.695   0.202
  372SOL     OW 2014   2.248   5.895   6.328
  372SOL    HW1 2015   2.233   5.835   6.406
  372SOL    HW2 2016   2.338   5.937   6.336
  373SOL     OW 2017   6.408   4.560   3.157
  373SOL    HW1 2018   6.464   4.622   3.212
  373SOL    HW2 2019   6.457   4.533   3.075
  374SOL     OW 2020   2.684   2.293   2.267
  374SOL    HW1 2021   2.735   2.214   2.301
  374SOL    HW2 2022   2.728   2.328   2.184
  375SOL     OW 2023   0.652   6.028   4.196
  375SOL    HW1 2024   0.659   6.056   4.292
  375SOL    HW2 2025   0.593   6.092   4.147
  376SOL     OW 2026   4.351   0.365   3.499
  376SOL    HW1 2027   4.335   0.303   3.576
  376SOL    HW2 2028   4.400   0.446   3.532
  377SOL     OW 2029   2.645   2.361   6.081
  377SOL    HW1 2030   2.578   2.369   6.155
  377SOL    HW2 2031   2.664   2.265   6.062
  378SOL     OW 2032   4.147   1.198   1.962
  378SOL    HW1 2033   4.084   1.133   2.004
  378SOL    HW2 2034   4.141   1.286   2.008
  379SOL     OW 2035   3.955   2.893   6.643
  379SOL    HW1 2036   3.975   2.989   6.624
  379SOL    HW2 2037   4.030   2.836   6.611
  380SOL     OW 2038   4.633   1.988   0.426
  380SOL    HW1 2039   4.667   2.059   0.487
  380SOL    HW2 2040   4.643   2.018   0.331
  381SOL     OW 2041   1.775   4.108   2.721
  381SOL    HW1 2042   1.718   4.071   2.648
  381SOL    HW2 2043   1.861   4.142   2.683
  382SOL     OW 2044   5.955   6.859   0.459
  382SOL    HW1 2045   5.892   6.855   0.382
  382SOL    HW2 2046   5.910   6.901   0.538
  383SOL     OW 2047   4.708   3.605   0.612
  383SOL    HW1 2048   4.616   3.619   0.648
  383SOL    HW2 2049   4.770   3.586   0.688
  384SOL     OW 2050   0.547   3.096   5.467
  384SOL    HW1 2051   0.623   3.143   5.421
  384SOL    HW2 2052   0.566   3.090   5.565
  385SOL     OW 2053   4.464   2.071   6.925
  385SOL    HW1 2054   4.367   2.069   6.900
  385SOL    HW2 2055   4.518   2.088   6.843
  386SOL     OW 2056   4.271   6.632   4.853
  386SOL    HW1 2057   4.352   6.609   4.908
  386SOL    HW2 2058   4.270   6.577   4.770
  387SOL     OW 2059   2.904   5.839   4.352
  387SOL    HW1 2060   3.000   5.865   4.355
  387SOL    HW2 2061   2.882   5.783   4.433
  388SOL     OW 2062   1.617   5.058   5.984
  388SOL    HW1 2063   1.543   5.097   6.039
  388SOL    HW2 2064   1.602   4.960   5.972
  389SOL     OW 2065   2.954   3.729   1.170
  389SOL    HW1 2066   2.957   3.828   1.163
  389SOL    HW2 2067   2.859   3.699   1.185
  390SOL     OW 2068   2.689   0.976   4.813
  390SOL    HW1 2069   2.692   1.076   4.807
  390SOL    HW2 2070   2.719   0.947   4.903
  391SOL     OW 2071   1.633   2.341   6.899
  391SOL    HW1 2072   1.670   2.410   6.961
  391SOL    HW2 2073   1.534   2.349   6.895
  392SOL     OW 2074   3.135   5.617   4.752
  392SOL    HW1 2075   3.220   5.665   4.732
  392SOL    HW2 2076   3.121   5.612   4.851
  393SOL     OW 2077   6.115   4.172   5.725
  393SOL    HW1 2078   6.015   4.166   5.726
  393SOL    HW2 2079   6.145   4.237   5.794
  394SOL     OW 2080   1.982   1.474   6.298
  394SOL    HW1 2081   1.949   1.396   6.245
  394SOL    HW2 2082   2.057   1.445   6.357
  395SOL     OW 2083   6.899   3.035   0.615
  395SOL    HW1 2084   6.903   2.944   0.574
  395SOL    HW2 2085   6.807   3.073   0.602
  396SOL     OW 2086   3.374   3.017   5.262
  396SOL    HW1 2087   3.439   3.072   5.209
  396SOL    HW2 2088   3.411   3.002   5.354
  397SOL     OW 2089   4.136   1.433   6.740
  397SOL    HW1 2090   4.212   1.481   6.782
  397SOL    HW2 2091   4.075   1.500   6.696
  398SOL     OW 2092   0.642   4.380   2.177
  398SOL    HW1 2093   0.650   4.281   2.194
  398SOL    HW2 2094   0.682   4.430   2.254
  399SOL     OW 2095   4.848   5.197   1.906
  399SOL    HW1 2096   4.808   5.226   1.993
  399SOL    HW2 2097   4.776   5.155   1.850
  400SOL     OW 2098   2.120   4.642   4.481
  400SOL    HW1 2099   2.175   4.717   4.520
  400SOL    HW2 2100   2.074   4.593   4.555
  401SOL     OW 2101   5.790   1.694   0.725
  401SOL    HW1 2102   5.827   1.613   0.679
  401SOL    HW2 2103   5.709   1.670   0.777
  402SOL     OW 2104   0.162   4.593   0.689
  402SOL    HW1 2105   0.097   4.651   0.738
  402SOL    HW2 2106   0.113   4.536   0.624
  403SOL     OW 2107   4.630   4.633   0.699
  403SOL    HW1 2108   4.683   4.660   0.618
  403SOL    HW2 2109   4.621   4.711   0.761
  404SOL     OW 2110   0.185   5.936   4.864
  404SOL    HW1 2111   0.282   5.918   4.851
  404SOL    HW2 2112   0.173   6.008   4.933
  405SOL     OW 2113   0.966   2.326   1.225
  405SOL    HW1 2114   1.035   2.333   1.297
  405SOL    HW2 2115   0.879   2.300   1.265
  406SOL     OW 2116   1.396   2.701   3.824
  406SOL    HW1 2117   1.494   2.683   3.825
  406SOL    HW2 2118   1.346   2.615   3.835
  407SOL     OW 2119   3.424   2.129   4.490
  407SOL    HW1 2120   3.515   2.170   4.500
  407SOL    HW2 2121   3.389   2.103   4.581
  408SOL     OW 2122   2.454   0.438   4.187
  408SOL    HW1 2123   2.371   0.489   4.211
  408SOL    HW2 2124   2.437   0.383   4.106
  409SOL     OW 2125   6.904   3.690   4.178
  409SOL    HW1 2126   6.981   3.734   4.225
  409SOL    HW2 2127   6.822   3.746   4.187
  410SOL     OW 2128   3.197   6.892   6.156
  410SOL    HW1 2129   3.197   6.944   6.241
  410SOL    HW2 2130   3.251   6.940   6.087
  411SOL     OW 2131   0.564   3.793   4.766
  411SOL    HW1 2132   0.498   3.808   4.692
  411SOL    HW2 2133   0.528   3.724   4.829
  412SOL     OW 2134   4.603   0.024   2.475
  412SOL    HW1 2135   4.698   0.048   2.495
  412SOL    HW2 2136   4.542   0.091   2.518
  413SOL     OW 2137   2.174   0.988   2.653
  413SOL    HW1 2138   2.132   1.000   2.743
  413SOL    HW2 2139   2.254   0.930   2.660
  414SOL     OW 2140   4.801   4.507   0.883
  414SOL    HW1 2141   4.864   4.571   0.928
  414SOL    HW2 2142   4.737   4.558   0.825
  415SOL     OW 2143   4.095   6.841   2.433
  415SOL    HW1 2144   4.159   6.804   2.366
  415SOL    HW2 2145   4.004   6.804   2.418
  416SOL     OW 2146   3.541   5.625   0.035
  416SOL    HW1 2147   3.547   5.551   0.102
  416SOL    HW2 2148   3.633   5.649   0.004
  417SOL     OW 2149   4.986   5.030   1.645
  417SOL    HW1 2150   4.916   5.085   1.598
  417SOL    HW2 2151   5.028   5.085   1.717
  418SOL     OW 2152   6.214   5.151   6.800
  418SOL    HW1 2153   6.176   5.163   6.708
  418SOL    HW2 2154   6.240   5.240   6.837
  419SOL     OW 2155   5.390   5.986   0.398
  419SOL    HW1 2156   5.371   5.891   0.426
  419SOL    HW2 2157   5.304   6.038   0.398
  420SOL     OW 2158   4.935   3.827   6.945
  420SOL    HW1 2159   4.942   3.746   6.887
  420SOL    HW2 2160   4.988   3.902   6.904
  421SOL     OW 2161   1.798   6.662   6.356
  421SOL    HW1 2162   1.847   6.719   6.290
  421SOL    HW2 2163   1.725   6.715   6.399
  422SOL     OW 2164   5.773   4.163   6.766
  422SOL    HW1 2165   5.707   4.206   6.828
  422SOL    HW2 2166   5.811   4.082   6.810
  423SOL     OW 2167   1.102   3.313   6.040
  423SOL    HW1 2168   1.140   3.384   5.981
  423SOL    HW2 2169   1.017   3.279   6.000
  424SOL     OW 2170   1.998   4.222   0.312
  424SOL    HW1 2171   1.984   4.173   0.227
  424SOL    HW2 2172   1.922   4.286   0.326
  425SOL     OW 2173   3.100   6.931   0.164
  425SOL    HW1 2174   3.168   6.914   0.236
  425SOL    HW2 2175   3.032   6.858   0.165
  426SOL     OW 2176   6.716   4.067   6.349
  426SOL    HW1 2177   6.742   4.163   6.362
  426SOL    HW2 2178   6.733   4.040   6.255
  427SOL     OW 2179   4.293   3.154   0.717
  427SOL    HW1 2180   4.376   3.123   0.670
  427SOL    HW2 2181   4.308   3.246   0.754
  428SOL     OW 2182   3.746   1.531   5.794
  428SOL    HW1 2183   3.844   1.534   5.811
  428SOL    HW2 2184   3.722   1.599   5.724
  429SOL     OW 2185   2.880   6.516   0.791
  429SOL    HW1 2186   2.842   6.572   0.865
  429SOL    HW2 2187   2.880   6.569   0.706
  430SOL     OW 2188   2.806   0.001   4.118
  430SOL    HW1 2189   2.805   6.982   4.208
  430SOL    HW2 2190   2.862   6.972   4.055
  431SOL     OW 2191   3.385   1.515   6.764
  431SOL    HW1 2192   3.479   1.549   6.776
  431SOL    HW2 2193   3.355   1.536   6.671
  432SOL     OW 2194   6.999   1.443   1.437
  432SOL    HW1 2195   0.024   1.379   1.495
  432SOL    HW2 2196   6.910   1.404   1.413
  433SOL     OW 2197   2.862   5.881   4.807
  433SOL    HW1 2198   2.881   5.812   4.737
  433SOL    HW2 2199   2.898   5.851   4.895
  434SOL     OW 2200   6.186   3.681   1.665
  434SOL    HW1 2201   6.257   3.613   1.685
  434SOL    HW2 2202   6.179   3.693   1.566
  435SOL     OW 2203   3.699   3.352   0.845
  435SOL    HW1 2204   3.724   3.255   0.843
  435SOL    HW2 2205   3.632   3.371   0.773
  436SOL     OW 2206   2.842   0.587   0.318
  436SOL    HW1 2207   2.893   0.667   0.287
  436SOL    HW2 2208   2.746   0.612   0.331
  437SOL     OW 2209   6.243   0.403   5.390
  437SOL    HW1 2210   6.322   0.353   5.352
  437SOL    HW2 2211   6.211   0.357   5.473
  438SOL     OW 2212   1.809   3.432   1.249
  438SOL    HW1 2213   1.767   3.428   1.158
  438SOL    HW2 2214   1.902   3.395   1.244
  439SOL     OW 2215   6.120   4.123   1.934
  439SOL    HW1 2216   6.101   4.221   1.933
  439SOL    HW2 2217   6.174   4.100   2.015
  440SOL     OW 2218   1.651   3.077   3.029
  440SOL    HW1 2219   1.628   3.170   3.055
  440SOL    HW2 2220   1.568   3.021   3.023
  441SOL     OW 2221   0.663   0.823   3.432
  441SOL    HW1 2222   0.588   0.879   3.466
  441SOL    HW2 2223   0.630   0.764   3.358
  442SOL     OW 2224   0.061   4.654   6.565
  442SOL    HW1 2225   7.014   4.644   6.496
  442SOL    HW2 2226   0.020   4.649   6.656
  443SOL     OW 2227   0.611   4.214   5.539
  443SOL    HW1 2228   0.574   4.256   5.622
  443SOL    HW2 2229   0.709   4.232   5.533
  444SOL     OW 2230   4.823   2.901   6.773
  444SOL    HW1 2231   4.868   2.990   6.770
  444SOL    HW2 2232   4.890   2.829   6.756
  445SOL     OW 2233   1.798   4.374   3.271
  445SOL    HW1 2234   1.879   4.315   3.262
  445SOL    HW2 2235   1.824   4.459   3.317
  446SOL     OW 2236   3.046   4.969   4.141
  446SOL    HW1 2237   3.096   4.907   4.201
  446SOL    HW2 2238   3.090   5.059   4.141
  447SOL     OW 2239   0.080   5.977   0.365
  447SOL    HW1 2240   0.146   5.906   0.388
  447SOL    HW2 2241   0.125   6.047   0.309
  448SOL     OW 2242   4.562   0.613   5.981
  448SOL    HW1 2243   4.570   0.545   5.909
  448SOL    HW2 2244   4.574   0.569   6.070
  449SOL     OW 2245   5.521   0.091   4.042
  449SOL    HW1 2246   5.574   0.007   4.053
  449SOL    HW2 2247   5.580   0.164   4.008
  450SOL     OW 2248   6.409   6.519   3.408
  450SOL    HW1 2249   6.341   6.568   3.462
  450SOL    HW2 2250   6.381   6.424   3.398
  451SOL     OW 2251   6.160   2.569   3.542
  451SOL    HW1 2252   6.099   2.623   3.601
  451SOL    HW2 2253   6.255   2.599   3.556
  452SOL     OW 2254   6.718   4.970   5.992
  452SOL    HW1 2255   6.687   4.952   6.085
  452SOL    HW2 2256   6.777   5.051   5.991
  453SOL     OW 2257   2.839   1.549   5.751
  453SOL    HW1 2258   2.746   1.530   5.783
  453SOL    HW2 2259   2.904   1.522   5.821
  454SOL     OW 2260   0.958   6.374   0.636
  454SOL    HW1 2261   0.936   6.363   0.733
  454SOL    HW2 2262   0.873   6.380   0.584
  455SOL     OW 2263   5.258   0.486   4.829
  455SOL    HW1 2264   5.217   0.523   4.745
  455SOL    HW2 2265   5.326   0.550   4.864
  456SOL     OW 2266   4.444   5.579   6.792
  456SOL    HW1 2267   4.414   5.511   6.859
  456SOL    HW2 2268   4.364   5.615   6.744
  457SOL     OW 2269   0.803   4.474   1.720
  457SOL    HW1 2270   0.901   4.455   1.725
  457SOL    HW2 2271   0.788   4.571   1.704
  458SOL     OW 2272   6.981   6.715   5.479
  458SOL    HW1 2273   7.013   6.621   5.493
  458SOL    HW2 2274   6.919   6.740   5.553
  459SOL     OW 2275   1.877   0.652   3.718
  459SOL    HW1 2276   1.913   0.745   3.711
  459SOL    HW2 2277   1.777   0.655   3.714
  460SOL     OW 2278   6.571   1.906   3.953
  460SOL    HW1 2279   6.557   2.000   3.983
  460SOL    HW2 2280   6.485   1.869   3.918
  461SOL     OW 2281   5.368   5.644   5.763
  461SOL    HW1 2282   5.389   5.736   5.796
  461SOL    HW2 2283   5.324   5.592   5.837
  462SOL     OW 2284   2.691   2.377   6.945
  462SOL    HW1 2285   2.666   2.291   6.902
  462SOL    HW2 2286   2.630   2.395   7.022
  463SOL     OW 2287   6.959   6.062   1.826
  463SOL    HW1 2288   6.965   6.094   1.920
  463SOL    HW2 2289   6.904   6.127   1.772
  464SOL     OW 2290   1.679   1.752   5.785
  464SOL    HW1 2291   1.639   1.684   5.847
  464SOL    HW2 2292   1.769   1.780   5.820
  465SOL     OW 2293   0.035   3.139   5.720
  465SOL    HW1 2294   7.023   3.148   5.813
  465SOL    HW2 2295   0.127   3.179   5.717
  466SOL     OW 2296   2.866   0.535   3.243
  466SOL    HW1 2297   2.839   0.487   3.327
  466SOL    HW2 2298   2.785   0.576   3.200
  467SOL     OW 2299   1.788   1.754   5.202
  467SOL    HW1 2300   1.692   1.768   5.227
  467SOL    HW2 2301   1.793   1.687   5.127
  468SOL     OW 2302   3.242   3.830   2.094
  468SOL    HW1 2303   3.292   3.900   2.144
  468SOL    HW2 2304   3.150   3.820   2.132
  469SOL     OW 2305   2.748   5.547   0.518
  469SOL    HW1 2306   2.777   5.453   0.499
  469SOL    HW2 2307   2.674   5.546   0.585
  470SOL     OW 2308   4.175   0.485   3.024
  470SOL    HW1 2309   4.184   0.429   2.941
  470SOL    HW2 2310   4.246   0.555   3.026
  471SOL     OW 2311   2.700   1.989   4.798
  471SOL    HW1 2312   2.715   2.082   4.763
  471SOL    HW2 2313   2.689   1.926   4.722
  472SOL     OW 2314   4.080   4.164   5.251
  472SOL    HW1 2315   4.040   4.121   5.170
  472SOL    HW2 2316   4.151   4.228   5.223
  473SOL     OW 2317   1.300   4.108   3.971
  473SOL    HW1 2318   1.302   4.011   3.996
  473SOL    HW2 2319   1.390   4.149   3.988
  474SOL     OW 2320   4.733   4.676   4.969
  474SOL    HW1 2321   4.634   4.684   4.957
  474SOL    HW2 2322   4.775   4.766   4.961
  475SOL     OW 2323   1.425   6.675   6.573
  475SOL    HW1 2324   1.502   6.648   6.631
  475SOL    HW2 2325   1.339   6.662   6.622
  476SOL     OW 2326   0.748   5.251   1.687
  476SOL    HW1 2327   0.666   5.283   1.734
  476SOL    HW2 2328   0.829   5.297   1.724
  477SOL     OW 2329   1.813   5.091   3.835
  477SOL    HW1 2330   1.735   5.100   3.773
  477SOL    HW2 2331   1.818   5.172   3.894
  478SOL     OW 2332   1.586   5.451   3.023
  478SOL    HW1 2333   1.588   5.439   3.122
  478SOL    HW2 2334   1.531   5.531   3.000
  479SOL     OW 2335   3.505   1.444   1.584
  479SOL    HW1 2336   3.498   1.543   1.576
  479SOL    HW2 2337   3.448   1.412   1.659
  480SOL     OW 2338   1.699   6.424   2.409
  480SOL    HW1 2339   1.731   6.501   2.465
  480SOL    HW2 2340   1.648   6.360   2.467
  481SOL     OW 2341   2.922   6.498   2.024
  481SOL    HW1 2342   2.877   6.581   1.993
  481SOL    HW2 2343   2.873   6.418   1.990
  482SOL     OW 2344   5.390   5.320   0.913
  482SOL    HW1 2345   5.309   5.272   0.946
  482SOL    HW2 2346   5.396   5.311   0.814
  483SOL     OW 2347   6.052   1.713   1.375
  483SOL    HW1 2348   6.021   1.792   1.428
  483SOL    HW2 2349   5.983   1.690   1.306
  484SOL     OW 2350   6.515   2.644   5.102
  484SOL    HW1 2351   6.493   2.639   5.004
  484SOL    HW2 2352   6.437   2.682   5.151
  485SOL     OW 2353   3.850   5.938   2.017
  485SOL    HW1 2354   3.856   5.840   1.999
  485SOL    HW2 2355   3.834   5.987   1.931
  486SOL     OW 2356   0.451   0.332   6.283
  486SOL    HW1 2357   0.428   0.282   6.367
  486SOL    HW2 2358   0.434   0.430   6.296
  487SOL     OW 2359   6.318   3.011   6.613
  487SOL    HW1 2360   6.246   3.078   6.629
  487SOL    HW2 2361   6.282   2.918   6.625
  488SOL     OW 2362   0.760   3.237   2.124
  488SOL    HW1 2363   0.662   3.257   2.116
  488SOL    HW2 2364   0.800   3.231   2.033
  489SOL     OW 2365   3.526   6.129   5.919
  489SOL    HW1 2366   3.603   6.145   5.981
  489SOL    HW2 2367   3.477   6.046   5.947
  490SOL     OW 2368   5.527   6.022   4.454
  490SOL    HW1 2369   5.485   5.946   4.405
  490SOL    HW2 2370   5.458   6.066   4.511
  491SOL     OW 2371   0.217   2.033   3.337
  491SOL    HW1 2372   0.295   2.037   3.398
  491SOL    HW2 2373   0.142   2.088   3.375
  492SOL     OW 2374   2.097   0.933   4.671
  492SOL    HW1 2375   2.086   0.839   4.701
  492SOL    HW2 2376   2.162   0.936   4.595
  493SOL     OW 2377   6.128   4.318   4.249
  493SOL    HW1 2378   6.194   4.388   4.276
  493SOL    HW2 2379   6.052   4.319   4.314
  494SOL     OW 2380   6.017   1.943   6.735
  494SOL    HW1 2381   5.940   2.007   6.744
  494SOL    HW2 2382   5.984   1.850   6.749
  495SOL     OW 2383   4.127   4.459   0.735
  495SOL    HW1 2384   4.070   4.446   0.654
  495SOL    HW2 2385   4.222   4.476   0.707
  496SOL     OW 2386   6.047   2.963   2.963
  496SOL    HW1 2387   6.052   2.902   3.043
  496SOL    HW2 2388   6.054   2.908   2.879
  497SOL     OW 2389   3.682   6.878   4.313
  497SOL    HW1 2390   3.666   6.976   4.302
  497SOL    HW2 2391   3.777   6.862   4.340
  498SOL     OW 2392   1.533   3.129   2.530
  498SOL    HW1 2393   1.485   3.050   2.493
  498SOL    HW2 2394   1.482   3.166   2.608
  499SOL     OW 2395   3.223   1.175   5.107
  499SOL    HW1 2396   3.140   1.167   5.052
  499SOL    HW2 2397   3.264   1.265   5.093
  500SOL     OW 2398   1.452   4.396   2.370
  500SOL    HW1 2399   1.457   4.297   2.353
  500SOL    HW2 2400   1.392   4.414   2.448
  501SOL     OW 2401   1.466   5.220   0.031
  501SOL    HW1 2402   1.563   5.197   0.041
  501SOL    HW2 2403   1.411   5.137   0.038
  502SOL     OW 2404   3.590   5.169   6.337
  502SOL    HW1 2405   3.643   5.096   6.380
  502SOL    HW2 2406   3.643   5.254   6.339
  503SOL     OW 2407   5.871   5.750   5.206
  503SOL    HW1 2408   5.886   5.697   5.290
  503SOL    HW2 2409   5.833   5.839   5.230
  504SOL     OW 2410   2.049   5.614   4.478
  504SOL    HW1 2411   2.141   5.605   4.439
  504SOL    HW2 2412   1.984   5.562   4.421
  505SOL     OW 2413   3.744   6.526   5.186
  505SOL    HW1 2414   3.835   6.487   5.198
  505SOL    HW2 2415   3.751   6.625   5.176
  506SOL     OW 2416   2.125   3.836   0.237
  506SOL    HW1 2417   2.045   3.879   0.279
  506SOL    HW2 2418   2.176   3.903   0.184
  507SOL     OW 2419   3.704   2.117   4.259
  507SOL    HW1 2420   3.726   2.026   4.293
  507SOL    HW2 2421   3.720   2.185   4.331
  508SOL     OW 2422   6.319   4.139   3.851
  508SOL    HW1 2423   6.387   4.145   3.778
  508SOL    HW2 2424   6.233   4.105   3.814
  509SOL     OW 2425   4.423   2.487   1.126
  509SOL    HW1 2426   4.502   2.548   1.130
  509SOL    HW2 2427   4.365   2.502   1.206
  510SOL     OW 2428   0.989   3.775   4.610
  510SOL    HW1 2429   0.935   3.796   4.691
  510SOL    HW2 2430   1.036   3.858   4.580
  511SOL     OW 2431   0.499   6.381   1.310
  511SOL    HW1 2432   0.481   6.422   1.400
  511SOL    HW2 2433   0.589   6.409   1.278
  512SOL     OW 2434   1.033   3.983   6.531
  512SOL    HW1 2435   0.935   3.964   6.529
  512SOL    HW2 2436   1.077   3.943   6.451
  513SOL     OW 2437   0.677   5.418   4.382
  513SOL    HW1 2438   0.720   5.354   4.318
  513SOL    HW2 2439   0.728   5.504   4.384
  514SOL     OW 2440   6.289   1.950   3.280
  514SOL    HW1 2441   6.200   1.967   3.239
  514SOL    HW2 2442   6.328   1.865   3.243
  515SOL     OW 2443   1.642   5.540   6.991
  515SOL    HW1 2444   1.586   5.527   6.909
  515SOL    HW2 2445   1.584   5.538   0.047
  516SOL     OW 2446   1.245   5.264   2.392
  516SOL    HW1 2447   1.274   5.260   2.297
  516SOL    HW2 2448   1.146   5.247   2.398
  517SOL     OW 2449   4.935   0.729   6.655
  517SOL    HW1 2450   4.850   0.712   6.704
  517SOL    HW2 2451   4.915   0.746   6.558
  518SOL     OW 2452   2.827   1.651   0.724
  518SOL    HW1 2453   2.821   1.722   0.794
  518SOL    HW2 2454   2.735   1.619   0.701
  519SOL     OW 2455   1.007   0.347   0.652
  519SOL    HW1 2456   1.040   0.352   0.747
  519SOL    HW2 2457   0.943   0.271   0.644
  520SOL     OW 2458   6.846   4.343   4.382
  520SOL    HW1 2459   6.862   4.245   4.370
  520SOL    HW2 2460   6.862   4.391   4.296
  521SOL     OW 2461   6.006   0.651   0.910
  521SOL    HW1 2462   5.916   0.644   0.867
  521SOL    HW2 2463   6.010   0.591   0.989
  522SOL     OW 2464   3.436   3.741   5.873
  522SOL    HW1 2465   3.505   3.783   5.931
  522SOL    HW2 2466   3.349   3.789   5.886
  523SOL     OW 2467   6.638   6.963   4.620
  523SOL    HW1 2468   6.563   6.921   4.571
  523SOL    HW2 2469   6.611   6.980   4.715
  524SOL     OW 2470   4.356   1.453   6.043
  524SOL    HW1 2471   4.326   1.508   6.121
  524SOL    HW2 2472   4.404   1.372   6.075
  525SOL     OW 2473   2.727   2.770   6.805
  525SOL    HW1 2474   2.722   2.752   6.903
  525SOL    HW2 2475   2.729   2.682   6.756
  526SOL     OW 2476   4.032   5.560   5.050
  526SOL    HW1 2477   4.112   5.589   4.997
  526SOL    HW2 2478   4.025   5.615   5.133
  527SOL     OW 2479   0.968   1.798   0.125
  527SOL    HW1 2480   0.922   1.838   0.046
  527SOL    HW2 2481   1.053   1.754   0.096
  528SOL     OW 2482   2.190   1.015   5.524
  528SOL    HW1 2483   2.198   0.917   5.510
  528SOL    HW2 2484   2.277   1.051   5.560
  529SOL     OW 2485   6.802   4.386   3.867
  529SOL    HW1 2486   6.733   4.399   3.938
  529SOL    HW2 2487   6.893   4.402   3.905
  530SOL     OW 2488   0.988   2.057   5.036
  530SOL    HW1 2489   1.086   2.066   5.055
  530SOL    HW2 2490   0.964   1.960   5.034
  531SOL     OW 2491   0.125   0.646   0.511
  531SOL    HW1 2492   0.122   0.583   0.433
  531SOL    HW2 2493   0.191   0.719   0.493
  532SOL     OW 2494   2.171   0.279   5.765
  532SOL    HW1 2495   2.118   0.350   5.719
  532SOL    HW2 2496   2.115   0.237   5.837
  533SOL     OW 2497   5.104   0.219   4.767
  533SOL    HW1 2498   5.148   0.281   4.702
  533SOL    HW2 2499   5.169   0.197   4.840
  534SOL     OW 2500   3.301   5.008   2.895
  534SOL    HW1 2501   3.328   5.085   2.837
  534SOL    HW2 2502   3.307   4.924   2.841
  535SOL     OW 2503   6.060   4.431   2.705
  535SOL    HW1 2504   6.000   4.507   2.732
  535SOL    HW2 2505   6.031   4.396   2.616
  536SOL     OW 2506   0.659   6.159   1.028
  536SOL    HW1 2507   0.618   6.233   0.976
  536SOL    HW2 2508   0.716   6.198   1.101
  537SOL     OW 2509   2.279   0.550   3.117
  537SOL    HW1 2510   2.345   0.476   3.107
  537SOL    HW2 2511   2.328   0.636   3.134
  538SOL     OW 2512   1.299   4.570   4.021
  538SOL    HW1 2513   1.253   4.653   3.991
  538SOL    HW2 2514   1.263   4.492   3.971
  539SOL     OW 2515   1.175   5.479   1.248
  539SOL    HW1 2516   1.198   5.575   1.260
  539SOL    HW2 2517   1.082   5.463   1.279
  540SOL     OW 2518   1.193   2.629   1.370
  540SOL    HW1 2519   1.174   2.716   1.325
  540SOL    HW2 2520   1.133   2.558   1.333
  541SOL     OW 2521   3.620   5.044   5.424
  541SOL    HW1 2522   3.526   5.066   5.400
  541SOL    HW2 2523   3.676   5.042   5.341
  542SOL     OW 2524   5.930   6.365   6.680
  542SOL    HW1 2525   5.993   6.287   6.672
  542SOL    HW2 2526   5.977   6.442   6.722
  543SOL     OW 2527   6.625   5.998   0.931
  543SOL    HW1 2528   6.557   6.033   0.867
  543SOL    HW2 2529   6.584   5.991   1.022
  544SOL     OW 2530   1.398   6.005   0.273
  544SOL    HW1 2531   1.476   5.977   0.217
  544SOL    HW2 2532   1.400   5.955   0.359
  545SOL     OW 2533   3.462   1.749   4.133
  545SOL    HW1 2534   3.472   1.660   4.178
  545SOL    HW2 2535   3.457   1.820   4.203
  546SOL     OW 2536   1.577   3.221   0.374
  546SOL    HW1 2537   1.569   3.121   0.374
  546SOL    HW2 2538   1.509   3.259   0.311
  547SOL     OW 2539   2.802   2.181   0.182
  547SOL    HW1 2540   2.840   2.142   0.099
  547SOL    HW2 2541   2.740   2.257   0.159
  548SOL     OW 2542   3.174   3.213   5.244
  548SOL    HW1 2543   3.225   3.136   5.282
  548SOL    HW2 2544   3.225   3.251   5.166
  549SOL     OW 2545   0.861   3.931   1.324
  549SOL    HW1 2546   0.951   3.962   1.293
  549SOL    HW2 2547   0.839   3.844   1.280
  550SOL     OW 2548   6.920   3.292   1.173
  550SOL    HW1 2549   6.841   3.243   1.208
  550SOL    HW2 2550   6.992   3.295   1.243
  551SOL     OW 2551   0.211   1.574   6.894
  551SOL    HW1 2552   0.126   1.626   6.905
  551SOL    HW2 2553   0.266   1.583   6.976
  552SOL     OW 2554   4.877   4.679   0.274
  552SOL    HW1 2555   4.974   4.657   0.267
  552SOL    HW2 2556   4.830   4.605   0.322
  553SOL     OW 2557   1.282   2.354   1.076
  553SOL    HW1 2558   1.322   2.282   1.019
  553SOL    HW2 2559   1.183   2.348   1.074
  554SOL     OW 2560   4.856   5.392   4.868
  554SOL    HW1 2561   4.804   5.462   4.915
  554SOL    HW2 2562   4.954   5.408   4.883
  555SOL     OW 2563   1.623   4.326   4.923
  555SOL    HW1 2564   1.575   4.389   4.863
  555SOL    HW2 2565   1.595   4.232   4.901
  556SOL     OW 2566   6.026   3.644   2.699
  556SOL    HW1 2567   6.074   3.587   2.766
  556SOL    HW2 2568   6.054   3.619   2.607
  557SOL     OW 2569   0.107   5.541   6.334
  557SOL    HW1 2570   0.145   5.448   6.330
  557SOL    HW2 2571   0.010   5.535   6.360
  558SOL     OW 2572   4.586   3.682   5.638
  558SOL    HW1 2573   4.493   3.654   5.662
  558SOL    HW2 2574   4.587   3.717   5.544
  559SOL     OW 2575   5.790   5.805   6.055
  559SOL    HW1 2576   5.859   5.870   6.024
  559SOL    HW2 2577   5.801   5.791   6.154
  560SOL     OW 2578   4.259   6.830   0.230
  560SOL    HW1 2579   4.246   6.731   0.243
  560SOL    HW2 2580   4.310   6.846   0.146
  561SOL     OW 2581   5.544   6.910   1.973
  561SOL    HW1 2582   5.451   6.913   2.008
  561SOL    HW2 2583   5.557   6.827   1.918
  562SOL     OW 2584   6.540   0.845   6.998
  562SOL    HW1 2585   6.479   0.915   0.010
  562SOL    HW2 2586   6.558   0.777   0.045
  563SOL     OW 2587   3.201   0.626   4.953
  563SOL    HW1 2588   3.301   0.620   4.958
  563SOL    HW2 2589   3.172   0.630   4.858
  564SOL     OW 2590   0.532   1.977   6.227
  564SOL    HW1 2591   0.495   1.955   6.137
  564SOL    HW2 2592   0.630   1.956   6.230
  565SOL     OW 2593   4.490   4.206   5.323
  565SOL    HW1 2594   4.476   4.256   5.408
  565SOL    HW2 2595   4.441   4.119   5.327
  566SOL     OW 2596   5.680   4.995   2.251
  566SOL    HW1 2597   5.648   4.905   2.222
  566SOL    HW2 2598   5.746   4.985   2.326
  567SOL     OW 2599   3.815   3.963   4.847
  567SOL    HW1 2600   3.840   4.005   4.935
  567SOL    HW2 2601   3.746   3.893   4.862
  568SOL     OW 2602   1.880   1.338   5.843
  568SOL    HW1 2603   1.872   1.294   5.932
  568SOL    HW2 2604   1.851   1.274   5.771
  569SOL     OW 2605   2.325   3.767   6.757
  569SOL    HW1 2606   2.347   3.746   6.852
  569SOL    HW2 2607   2.284   3.686   6.714
  570SOL     OW 2608   0.099   6.359   0.808
  570SOL    HW1 2609   0.135   6.387   0.719
  570SOL    HW2 2610   0.174   6.328   0.866
  571SOL     OW 2611   4.090   5.389   3.006
  571SOL    HW1 2612   3.993   5.414   3.001
  571SOL    HW2 2613   4.140   5.458   3.058
  572SOL     OW 2614   1.752   4.087   4.420
  572SOL    HW1 2615   1.654   4.086   4.441
  572SOL    HW2 2616   1.793   4.171   4.454
  573SOL     OW 2617   3.392   2.615   0.132
  573SOL    HW1 2618   3.306   2.658   0.160
  573SOL    HW2 2619   3.443   2.588   0.213
  574SOL     OW 2620   2.487   1.669   4.285
  574SOL    HW1 2621   2.412   1.655   4.220
  574SOL    HW2 2622   2.509   1.582   4.329
  575SOL     OW 2623   5.399   2.357   6.502
  575SOL    HW1 2624   5.476   2.310   6.459
  575SOL    HW2 2625   5.367   2.304   6.581
  576SOL     OW 2626   0.968   2.813   2.658
  576SOL    HW1 2627   0.998   2.744   2.724
  576SOL    HW2 2628   0.885   2.781   2.612
  577SOL     OW 2629   3.699   2.144   4.566
  577SOL    HW1 2630   3.685   2.141   4.665
  577SOL    HW2 2631   3.791   2.111   4.544
  578SOL     OW 2632   0.322   3.630   4.398
  578SOL    HW1 2633   0.226   3.660   4.404
  578SOL    HW2 2634   0.335   3.581   4.311
  579SOL     OW 2635   3.904   3.526   0.941
  579SOL    HW1 2636   3.969   3.540   0.866
  579SOL    HW2 2637   3.831   3.464   0.912
  580SOL     OW 2638   0.849   6.529   0.268
  580SOL    HW1 2639   0.854   6.485   0.179
  580SOL    HW2 2640   0.934   6.516   0.318
  581SOL     OW 2641   4.015   3.149   2.545
  581SOL    HW1 2642   4.021   3.234   2.598
  581SOL    HW2 2643   4.012   3.171   2.447
  582SOL     OW 2644   6.933   4.278   1.414
  582SOL    HW1 2645   7.024   4.315   1.394
  582SOL    HW2 2646   6.905   4.215   1.342
  583SOL     OW 2647   2.564   6.056   6.772
  583SOL    HW1 2648   2.558   6.092   6.865
  583SOL    HW2 2649   2.647   6.090   6.728
  584SOL     OW 2650   0.485   5.153   4.984
  584SOL    HW1 2651   0.405   5.163   4.926
  584SOL    HW2 2652   0.564   5.199   4.942
  585SOL     OW 2653   5.900   0.795   5.248
  585SOL    HW1 2654   5.813   0.786   5.200
  585SOL    HW2 2655   5.949   0.708   5.244
  586SOL     OW 2656   2.699   6.039   1.405
  586SOL    HW1 2657   2.757   5.993   1.338
  586SOL    HW2 2658   2.753   6.059   1.487
  587SOL     OW 2659   1.626   3.794   5.781
  587SOL    HW1 2660   1.725   3.780   5.775
  587SOL    HW2 2661   1.598   3.796   5.877
  588SOL     OW 2662   2.024   0.215   1.683
  588SOL    HW1 2663   1.975   0.277   1.621
  588SOL    HW2 2664   2.019   0.251   1.776
  589SOL     OW 2665   4.427   5.107   2.147
  589SOL    HW1 2666   4.487   5.042   2.193
  589SOL    HW2 2667   4.354   5.058   2.099
  590SOL     OW 2668   6.436   2.664   2.005
  590SOL    HW1 2669   6.463   2.643   1.911
  590SOL    HW2 2670   6.509   2.717   2.049
  591SOL     OW 2671   2.804   6.770   2.866
  591SOL    HW1 2672   2.801   6.760   2.966
  591SOL    HW2 2673   2.846   6.688   2.826
  592SOL     OW 2674   5.020   0.096   6.052
  592SOL    HW1 2675   5.045   0.020   6.112
  592SOL    HW2 2676   5.097   0.159   6.043
  593SOL     OW 2677   6.181   1.333   4.708
  593SOL    HW1 2678   6.171   1.425   4.669
  593SOL    HW2 2679   6.252   1.283   4.657
  594SOL     OW 2680   5.507   2.405   1.357
  594SOL    HW1 2681   5.573   2.345   1.402
  594SOL    HW2 2682   5.430   2.350   1.325
  595SOL     OW 2683   4.400   6.871   3.882
  595SOL    HW1 2684   4.332   6.824   3.826
  595SOL    HW2 2685   4.454   6.803   3.933
  596SOL     OW 2686   0.711   3.731   1.523
  596SOL    HW1 2687   0.760   3.675   1.590
  596SOL    HW2 2688   0.711   3.827   1.553
  597SOL     OW 2689   4.162   2.566   6.168
  597SOL    HW1 2690   4.097   2.505   6.213
  597SOL    HW2 2691   4.233   2.513   6.123
  598SOL     OW 2692   3.036   4.034   1.392
  598SOL    HW1 2693   2.956   3.983   1.362
  598SOL    HW2 2694   3.103   4.038   1.318
  599SOL     OW 2695   6.492   6.149   3.592
  599SOL    HW1 2696   6.488   6.054   3.560
  599SOL    HW2 2697   6.583   6.186   3.576
  600SOL     OW 2698   2.886   1.598   1.358
  600SOL    HW1 2699   2.810   1.662   1.365
  600SOL    HW2 2700   2.918   1.574   1.450
  601SOL     OW 2701   2.207   5.266   3.322
  601SOL    HW1 2702   2.278   5.196   3.328
  601SOL    HW2 2703   2.142   5.256   3.397
  602SOL     OW 2704   6.660   0.554   1.931
  602SOL    HW1 2705   6.742   0.504   1.904
  602SOL    HW2 2706   6.582   0.493   1.930
  603SOL     OW 2707   3.875   1.738   3.356
  603SOL    HW1 2708   3.933   1.663   3.388
  603SOL    HW2 2709   3.879   1.814   3.421
  604SOL     OW 2710   1.098   3.649   6.090
  604SOL    HW1 2711   1.189   3.625   6.057
  604SOL    HW2 2712   1.042   3.680   6.014
  605SOL     OW 2713   5.665   0.304   4.745
  605SOL    HW1 2714   5.648   0.375   4.678
  605SOL    HW2 2715   5.579   0.263   4.773
  606SOL     OW 2716   3.661   6.956   2.751
  606SOL    HW1 2717   3.617   6.958   2.662
  606SOL    HW2 2718   3.605   6.905   2.816
  607SOL     OW 2719   4.317   0.682   4.332
  607SOL    HW1 2720   4.308   0.781   4.344
  607SOL    HW2 2721   4.250   0.635   4.389
  608SOL     OW 2722   5.847   2.679   1.557
  608SOL    HW1 2723   5.776   2.749   1.548
  608SOL    HW2 2724   5.805   2.588   1.557
  609SOL     OW 2725   2.951   3.972   4.893
  609SOL    HW1 2726   2.853   3.953   4.879
  609SOL    HW2 2727   2.999   3.886   4.907
  610SOL     OW 2728   6.021   1.837   4.385
  610SOL    HW1 2729   5.952   1.837   4.313
  610SOL    HW2 2730   6.111   1.855   4.344
  611SOL     OW 2731   5.749   6.596   0.335
  611SOL    HW1 2732   5.721   6.502   0.317
  611SOL    HW2 2733   5.684   6.659   0.294
  612SOL     OW 2734   2.214   5.398   5.667
  612SOL    HW1 2735   2.151   5.423   5.741
  612SOL    HW2 2736   2.231   5.478   5.610
  613SOL     OW 2737   3.870   1.216   6.654
  613SOL    HW1 2738   3.959   1.189   6.693
  613SOL    HW2 2739   3.885   1.279   6.578
  614SOL     OW 2740   5.180   2.908   1.001
  614SOL    HW1 2741   5.199   2.823   1.049
  614SOL    HW2 2742   5.250   2.976   1.024
  615SOL     OW 2743   4.887   6.527   0.648
  615SOL    HW1 2744   4.812   6.592   0.633
  615SOL    HW2 2745   4.909   6.482   0.561
  616SOL     OW 2746   4.878   0.411   4.563
  616SOL    HW1 2747   4.912   0.497   4.599
  616SOL    HW2 2748   4.823   0.365   4.633
  617SOL     OW 2749   6.803   6.325   5.081
  617SOL    HW1 2750   6.809   6.257   5.154
  617SOL    HW2 2751   6.869   6.398   5.098
  618SOL     OW 2752   5.519   4.649   0.877
  618SOL    HW1 2753   5.430   4.613   0.847
  618SOL    HW2 2754   5.512   4.683   0.971
  619SOL     OW 2755   2.330   6.162   5.865
  619SOL    HW1 2756   2.279   6.230   5.918
  619SOL    HW2 2757   2.402   6.123   5.923
  620SOL     OW 2758   4.744   1.870   2.477
  620SOL    HW1 2759   4.718   1.838   2.568
  620SOL    HW2 2760   4.829   1.923   2.483
  621SOL     OW 2761   3.360   0.781   6.889
  621SOL    HW1 2762   3.287   0.850   6.885
  621SOL    HW2 2763   3.332   0.701   6.837
  622SOL     OW 2764   0.650   3.673   6.032
  622SOL    HW1 2765   0.603   3.761   6.024
  622SOL    HW2 2766   0.596   3.603   5.984
  623SOL     OW 2767   6.628   0.721   2.757
  623SOL    HW1 2768   6.541   0.705   2.709
  623SOL    HW2 2769   6.656   0.637   2.802
  624SOL     OW 2770   5.988   1.452   6.117
  624SOL    HW1 2771   5.925   1.408   6.181
  624SOL    HW2 2772   5.944   1.459   6.027
  625SOL     OW 2773   3.476   1.156   1.743
  625SOL    HW1 2774   3.459   1.250   1.772
  625SOL    HW2 2775   3.554   1.154   1.680
  626SOL     OW 2776   1.099   6.394   3.451
  626SOL    HW1 2777   1.131   6.404   3.545
  626SOL    HW2 2778   1.083   6.297   3.432
  627SOL     OW 2779   6.666   5.209   6.561
  627SOL    HW1 2780   6.592   5.274   6.579
  627SOL    HW2 2781   6.630   5.116   6.564
  628SOL     OW 2782   3.809   5.012   6.435
  628SOL    HW1 2783   3.838   5.064   6.355
  628SOL    HW2 2784   3.806   4.915   6.412
  629SOL     OW 2785   1.060   6.804   0.127
  629SOL    HW1 2786   0.971   6.762   0.141
  629SOL    HW2 2787   1.054   6.902   0.149
  630SOL     OW 2788   6.702   2.063   1.398
  630SOL    HW1 2789   6.757   2.037   1.477
  630SOL    HW2 2790   6.754   2.047   1.314
  631SOL     OW 2791   2.181   2.953   3.017
  631SOL    HW1 2792   2.192   2.974   2.919
  631SOL    HW2 2793   2.162   3.038   3.066
  632SOL     OW 2794   2.926   4.244   1.146
  632SOL    HW1 2795   2.960   4.333   1.178
  632SOL    HW2 2796   2.854   4.212   1.207
  633SOL     OW 2797   1.518   6.088   0.548
  633SOL    HW1 2798   1.567   6.132   0.623
  633SOL    HW2 2799   1.477   6.159   0.489
  634SOL     OW 2800   2.922   3.266   5.084
  634SOL    HW1 2801   2.845   3.202   5.072
  634SOL    HW2 2802   2.987   3.227   5.149
  635SOL     OW 2803   5.806   6.761   6.470
  635SOL    HW1 2804   5.741   6.779   6.544
  635SOL    HW2 2805   5.899   6.760   6.507
  636SOL     OW 2806   2.340   1.196   4.528
  636SOL    HW1 2807   2.254   1.235   4.493
  636SOL    HW2 2808   2.369   1.246   4.609
  637SOL     OW 2809   0.212   1.531   2.351
  637SOL    HW1 2810   0.279   1.481   2.405
  637SOL    HW2 2811   0.165   1.468   2.289
  638SOL     OW 2812   7.010   3.469   4.747
  638SOL    HW1 2813   0.044   3.533   4.797
  638SOL    HW2 2814   0.037   3.385   4.728
  639SOL     OW 2815   5.838   3.240   1.809
  639SOL    HW1 2816   5.849   3.304   1.733
  639SOL    HW2 2817   5.825   3.148   1.773
  640SOL     OW 2818   6.869   3.512   2.581
  640SOL    HW1 2819   6.956   3.480   2.616
  640SOL    HW2 2820   6.869   3.612   2.577
  641SOL     OW 2821   2.380   5.252   4.412
  641SOL    HW1 2822   2.312   5.230   4.482
  641SOL    HW2 2823   2.444   5.321   4.448
  642SOL     OW 2824   0.725   5.258   4.828
  642SOL    HW1 2825   0.714   5.332   4.762
  642SOL    HW2 2826   0.736   5.171   4.780
  643SOL     OW 2827   4.054   5.535   0.282
  643SOL    HW1 2828   3.973   5.576   0.325
  643SOL    HW2 2829   4.090   5.463   0.341
  644SOL     OW 2830   6.586   6.467   4.597
  644SOL    HW1 2831   6.587   6.510   4.687
  644SOL    HW2 2832   6.493   6.439   4.574
  645SOL     OW 2833   4.173   6.116   2.233
  645SOL    HW1 2834   4.268   6.134   2.208
  645SOL    HW2 2835   4.136   6.042   2.175
  646SOL     OW 2836   3.339   1.760   5.367
  646SOL    HW1 2837   3.432   1.796   5.355
  646SOL    HW2 2838   3.273   1.827   5.333
  647SOL     OW 2839   3.158   2.708   0.239
  647SOL    HW1 2840   3.086   2.640   0.253
  647SOL    HW2 2841   3.127   2.797   0.274
  648SOL     OW 2842   6.173   1.359   3.851
  648SOL    HW1 2843   6.206   1.266   3.869
  648SOL    HW2 2844   6.143   1.401   3.936
  649SOL     OW 2845   2.553   5.613   0.750
  649SOL    HW1 2846   2.481   5.673   0.782
  649SOL    HW2 2847   2.641   5.642   0.790
  650SOL     OW 2848   1.299   3.045   0.762
  650SOL    HW1 2849   1.324   2.980   0.690
  650SOL    HW2 2850   1.374   3.053   0.827
  651SOL     OW 2851   0.251   1.141   3.606
  651SOL    HW1 2852   0.222   1.233   3.580
  651SOL    HW2 2853   0.312   1.146   3.685
  652SOL     OW 2854   3.821   5.614   0.399
  652SOL    HW1 2855   3.753   5.609   0.326
  652SOL    HW2 2856   3.780   5.584   0.485
  653SOL     OW 2857   1.497   6.997   2.366
  653SOL    HW1 2858   1.565   0.003   2.299
  653SOL    HW2 2859   1.417   0.032   2.361
  654SOL     OW 2860   0.858   6.646   5.873
  654SOL    HW1 2861   0.852   6.668   5.775
  654SOL    HW2 2862   0.770   6.609   5.904
  655SOL     OW 2863   0.833   3.222   0.859
  655SOL    HW1 2864   0.785   3.296   0.812
  655SOL    HW2 2865   0.857   3.251   0.952
  656SOL     OW 2866   2.540   6.905   6.366
  656SOL    HW1 2867   2.617   6.967   6.382
  656SOL    HW2 2868   2.569   6.811   6.384
  657SOL     OW 2869   3.819   3.686   4.029
  657SOL    HW1 2870   3.914   3.677   4.058
  657SOL    HW2 2871   3.815   3.697   3.930
  658SOL     OW 2872   1.434   0.982   4.120
  658SOL    HW1 2873   1.439   0.886   4.145
  658SOL    HW2 2874   1.520   1.010   4.076
  659SOL     OW 2875   1.540   5.710   6.279
  659SOL    HW1 2876   1.495   5.795   6.304
  659SOL    HW2 2877   1.634   5.711   6.314
  660SOL     OW 2878   5.765   4.302   2.823
  660SOL    HW1 2879   5.671   4.318   2.853
  660SOL    HW2 2880   5.776   4.335   2.729
  661SOL     OW 2881   4.550   5.192   3.862
  661SOL    HW1 2882   4.530   5.113   3.921
  661SOL    HW2 2883   4.556   5.161   3.767
  662SOL     OW 2884   5.136   4.007   0.441
  662SOL    HW1 2885   5.093   3.982   0.354
  662SOL    HW2 2886   5.113   3.939   0.511
  663SOL     OW 2887   0.324   4.491   6.603
  663SOL    HW1 2888   0.346   4.447   6.516
  663SOL    HW2 2889   0.371   4.579   6.609
  664SOL     OW 2890   1.860   6.828   6.172
  664SOL    HW1 2891   1.780   6.797   6.121
  664SOL    HW2 2892   1.840   6.916   6.215
  665SOL     OW 2893   2.505   4.542   3.064
  665SOL    HW1 2894   2.424   4.576   3.111
  665SOL    HW2 2895   2.549   4.618   3.015
  666SOL     OW 2896   3.202   1.311   6.837
  666SOL    HW1 2897   3.267   1.381   6.804
  666SOL    HW2 2898   3.175   1.253   6.760
  667SOL     OW 2899   1.367   3.253   2.133
  667SOL    HW1 2900   1.292   3.280   2.073
  667SOL    HW2 2901   1.332   3.196   2.207
  668SOL     OW 2902   5.107   0.190   0.929
  668SOL    HW1 2903   5.191   0.186   0.874
  668SOL    HW2 2904   5.032   0.224   0.873
  669SOL     OW 2905   0.141   5.601   2.865
  669SOL    HW1 2906   0.192   5.606   2.951
  669SOL    HW2 2907   0.117   5.694   2.835
  670SOL     OW 2908   4.095   3.633   2.986
  670SOL    HW1 2909   4.087   3.725   2.950
  670SOL    HW2 2910   4.091   3.636   3.086
  671SOL     OW 2911   2.196   0.516   6.384
  671SOL    HW1 2912   2.290   0.487   6.401
  671SOL    HW2 2913   2.183   0.610   6.415
  672SOL     OW 2914   1.360   2.351   3.041
  672SOL    HW1 2915   1.324   2.360   3.134
  672SOL    HW2 2916   1.406   2.435   3.014
  673SOL     OW 2917   4.980   0.316   6.880
  673SOL    HW1 2918   5.024   0.406   6.886
  673SOL    HW2 2919   5.004   0.262   6.961
  674SOL     OW 2920   0.135   2.302   4.546
  674SOL    HW1 2921   0.038   2.326   4.535
  674SOL    HW2 2922   0.177   2.289   4.456
  675SOL     OW 2923   6.278   6.082   3.777
  675SOL    HW1 2924   6.322   6.116   3.694
  675SOL    HW2 2925   6.238   6.158   3.827
  676SOL     OW 2926   2.709   5.250   4.541
  676SOL    HW1 2927   2.758   5.274   4.624
  676SOL    HW2 2928   2.611   5.268   4.554
  677SOL     OW 2929   4.032   6.486   0.463
  677SOL    HW1 2930   4.107   6.531   0.511
  677SOL    HW2 2931   4.015   6.396   0.504
  678SOL     OW 2932   2.202   1.477   5.644
  678SOL    HW1 2933   2.128   1.520   5.593
  678SOL    HW2 2934   2.288   1.525   5.625
  679SOL     OW 2935   6.529   0.267   1.920
  679SOL    HW1 2936   6.564   0.202   1.988
  679SOL    HW2 2937   6.430   0.256   1.911
  680SOL     OW 2938   5.472   4.040   4.718
  680SOL    HW1 2939   5.535   3.970   4.687
  680SOL    HW2 2940   5.429   4.084   4.640
  681SOL     OW 2941   1.219   0.025   1.973
  681SOL    HW1 2942   1.207   0.024   1.874
  681SOL    HW2 2943   1.236   6.957   2.007
  682SOL     OW 2944   0.008   0.079   5.952
  682SOL    HW1 2945   0.006   0.043   6.046
  682SOL    HW2 2946   6.969   0.155   5.944
  683SOL     OW 2947   4.799   1.193   1.428
  683SOL    HW1 2948   4.861   1.156   1.359
  683SOL    HW2 2949   4.747   1.269   1.389
  684SOL     OW 2950   6.978   5.928   6.439
  684SOL    HW1 2951   0.050   5.915   6.462
  684SOL    HW2 2952   6.924   5.938   6.522
  685SOL     OW 2953   6.596   0.899   6.476
  685SOL    HW1 2954   6.621   0.993   6.498
  685SOL    HW2 2955   6.551   0.857   6.554
  686SOL     OW 2956   5.349   5.247   2.467
  686SOL    HW1 2957   5.354   5.165   2.524
  686SOL    HW2 2958   5.422   5.245   2.399
  687SOL     OW 2959   5.685   1.953   5.530
  687SOL    HW1 2960   5.771   2.002   5.519
  687SOL    HW2 2961   5.666   1.900   5.447
  688SOL     OW 2962   6.290   3.219   5.119
  688SOL    HW1 2963   6.240   3.137   5.091
  688SOL    HW2 2964   6.273   3.293   5.054
  689SOL     OW 2965   5.707   4.453   4.276
  689SOL    HW1 2966   5.625   4.416   4.319
  689SOL    HW2 2967   5.788   4.423   4.327
  690SOL     OW 2968   0.259   3.132   4.369
  690SOL    HW1 2969   0.238   3.046   4.416
  690SOL    HW2 2970   0.297   3.112   4.279
  691SOL     OW 2971   0.121   3.091   6.589
  691SOL    HW1 2972   0.061   3.091   6.509
  691SOL    HW2 2973   0.116   3.179   6.636
  692SOL     OW 2974   2.556   0.150   3.337
  692SOL    HW1 2975   2.482   0.091   3.368
  692SOL    HW2 2976   2.607   0.105   3.264
  693SOL     OW 2977   6.638   1.870   2.740
  693SOL    HW1 2978   6.538   1.867   2.746
  693SOL    HW2 2979   6.678   1.860   2.831
  694SOL     OW 2980   1.514   0.508   2.061
  694SOL    HW1 2981   1.564   0.579   2.010
  694SOL    HW2 2982   1.419   0.538   2.074
  695SOL     OW 2983   4.632   5.388   6.714
  695SOL    HW1 2984   4.649   5.431   6.625
  695SOL    HW2 2985   4.633   5.457   6.786
  696SOL     OW 2986   5.166   6.333   2.321
  696SOL    HW1 2987   5.120   6.421   2.311
  696SOL    HW2 2988   5.120   6.264   2.265
  697SOL     OW 2989   1.478   3.750   3.891
  697SOL    HW1 2990   1.572   3.719   3.903
  697SOL    HW2 2991   1.478   3.836   3.839
  698SOL     OW 2992   5.174   5.920   4.199
  698SOL    HW1 2993   5.140   5.826   4.191
  698SOL    HW2 2994   5.121   5.980   4.138
  699SOL     OW 2995   1.371   4.365   6.325
  699SOL    HW1 2996   1.378   4.438   6.393
  699SOL    HW2 2997   1.323   4.399   6.244
  700SOL     OW 2998   2.015   1.541   4.636
  700SOL    HW1 2999   1.918   1.548   4.615
  700SOL    HW2 3000   2.066   1.612   4.588
  701SOL     OW 3001   0.729   4.476   5.510
  701SOL    HW1 3002   0.775   4.469   5.422
  701SOL    HW2 3003   0.635   4.509   5.496
  702SOL     OW 3004   5.555   5.771   5.325
  702SOL    HW1 3005   5.605   5.833   5.387
  702SOL    HW2 3006   5.613   5.691   5.306
  703SOL     OW 3007   4.718   4.268   6.250
  703SOL    HW1 3008   4.637   4.239   6.301
  703SOL    HW2 3009   4.794   4.281   6.313
  704SOL     OW 3010   2.447   0.018   1.719
  704SOL    HW1 3011   2.463   7.000   1.630
  704SOL    HW2 3012   2.377   0.089   1.710
  705SOL     OW 3013   0.242   1.940   3.760
  705SOL    HW1 3014   0.256   1.918   3.856
  705SOL    HW2 3015   0.214   2.036   3.752
  706SOL     OW 3016   4.764   2.906   3.856
  706SOL    HW1 3017   4.803   2.992   3.889
  706SOL    HW2 3018   4.684   2.882   3.912
  707SOL     OW 3019   5.089   2.272   2.561
  707SOL    HW1 3020   5.070   2.346   2.497
  707SOL    HW2 3021   5.179   2.285   2.603
  708SOL     OW 3022   4.231   0.791   2.584
  708SOL    HW1 3023   4.327   0.798   2.607
  708SOL    HW2 3024   4.219   0.727   2.508
  709SOL     OW 3025   0.953   5.525   6.911
  709SOL    HW1 3026   0.998   5.567   6.989
  709SOL    HW2 3027   0.870   5.478   6.941
  710SOL     OW 3028   3.657   3.841   2.935
  710SOL    HW1 3029   3.650   3.920   2.995
  710SOL    HW2 3030   3.566   3.812   2.906
  711SOL     OW 3031   0.679   0.832   5.224
  711SOL    HW1 3032   0.604   0.852   5.161
  711SOL    HW2 3033   0.759   0.801   5.173
  712SOL     OW 3034   0.778   3.713   2.406
  712SOL    HW1 3035   0.788   3.779   2.481
  712SOL    HW2 3036   0.780   3.762   2.319
  713SOL     OW 3037   3.141   3.877   4.475
  713SOL    HW1 3038   3.119   3.829   4.560
  713SOL    HW2 3039   3.065   3.867   4.411
  714SOL     OW 3040   4.869   4.488   5.104
  714SOL    HW1 3041   4.822   4.548   5.039
  714SOL    HW2 3042   4.897   4.542   5.184
  715SOL     OW 3043   6.037   0.211   6.221
  715SOL    HW1 3044   6.016   0.308   6.217
  715SOL    HW2 3045   6.137   0.199   6.219
  716SOL     OW 3046   6.561   5.101   1.117
  716SOL    HW1 3047   6.577   5.098   1.216
  716SOL    HW2 3048   6.486   5.164   1.097
  717SOL     OW 3049   6.273   3.156   6.386
  717SOL    HW1 3050   6.295   3.081   6.448
  717SOL    HW2 3051   6.358   3.193   6.347
  718SOL     OW 3052   2.777   3.029   6.877
  718SOL    HW1 3053   2.823   3.079   6.804
  718SOL    HW2 3054   2.764   2.934   6.849
  719SOL     OW 3055   5.225   5.084   0.382
  719SOL    HW1 3056   5.303   5.060   0.324
  719SOL    HW2 3057   5.183   5.001   0.419
  720SOL     OW 3058   3.467   0.980   6.297
  720SOL    HW1 3059   3.437   0.966   6.391
  720SOL    HW2 3060   3.533   1.055   6.295
  721SOL     OW 3061   1.227   6.579   5.611
  721SOL    HW1 3062   1.175   6.663   5.628
  721SOL    HW2 3063   1.241   6.567   5.513
  722SOL     OW 3064   4.169   6.635   5.270
  722SOL    HW1 3065   4.192   6.541   5.295
  722SOL    HW2 3066   4.128   6.681   5.349
  723SOL     OW 3067   1.579   3.357   1.802
  723SOL    HW1 3068   1.587   3.298   1.882
  723SOL    HW2 3069   1.503   3.420   1.814
  724SOL     OW 3070   0.175   1.254   4.930
  724SOL    HW1 3071   0.126   1.181   4.882
  724SOL    HW2 3072   0.132   1.342   4.908
  725SOL     OW 3073   2.654   5.226   1.860
  725SOL    HW1 3074   2.569   5.243   1.812
  725SOL    HW2 3075   2.687   5.310   1.902
  726SOL     OW 3076   4.924   6.421   5.668
  726SOL    HW1 3077   4.864   6.382   5.598
  726SOL    HW2 3078   4.944   6.517   5.645
  727SOL     OW 3079   2.074   4.340   3.947
  727SOL    HW1 3080   2.112   4.321   4.038
  727SOL    HW2 3081   2.141   4.313   3.877
  728SOL     OW 3082   0.001   3.643   5.630
  728SOL    HW1 3083   6.933   3.661   5.595
  728SOL    HW2 3084   0.060   3.615   5.555
  729SOL     OW 3085   3.397   1.257   0.739
  729SOL    HW1 3086   3.398   1.353   0.767
  729SOL    HW2 3087   3.438   1.249   0.647
  730SOL     OW 3088   5.612   1.193   4.651
  730SOL    HW1 3089   5.565   1.157   4.731
  730SOL    HW2 3090   5.631   1.118   4.587
  731SOL     OW 3091   6.948   2.478   4.275
  731SOL    HW1 3092   6.858   2.475   4.230
  731SOL    HW2 3093   6.986   2.571   4.266
  732SOL     OW 3094   0.269   3.290   3.642
  732SOL    HW1 3095   0.236   3.384   3.630
  732SOL    HW2 3096   0.349   3.291   3.702
  733SOL     OW 3097   4.493   5.288   4.737
  733SOL    HW1 3098   4.512   5.310   4.833
  733SOL    HW2 3099   4.486   5.373   4.685
  734SOL     OW 3100   0.681   5.938   6.695
  734SOL    HW1 3101   0.749   5.926   6.767
  734SOL    HW2 3102   0.668   5.851   6.647
  735SOL     OW 3103   3.071   4.481   6.949
  735SOL    HW1 3104   3.062   4.500   0.023
  735SOL    HW2 3105   3.041   4.560   6.897
  736SOL     OW 3106   5.686   0.585   2.802
  736SOL    HW1 3107   5.710   0.674   2.764
  736SOL    HW2 3108   5.603   0.594   2.858
  737SOL     OW 3109   5.456   4.063   0.421
  737SOL    HW1 3110   5.380   3.999   0.434
  737SOL    HW2 3111   5.437   4.120   0.341
  738SOL     OW 3112   0.797   4.680   2.803
  738SOL    HW1 3113   0.719   4.620   2.782
  738SOL    HW2 3114   0.882   4.629   2.792
  739SOL     OW 3115   4.885   6.748   6.371
  739SOL    HW1 3116   4.814   6.771   6.305
  739SOL    HW2 3117   4.964   6.710   6.322
  740SOL     OW 3118   5.375   0.059   0.212
  740SOL    HW1 3119   5.354   0.085   0.118
  740SOL    HW2 3120   5.389   0.141   0.268
  741SOL     OW 3121   3.109   0.421   3.831
  741SOL    HW1 3122   3.015   0.415   3.864
  741SOL    HW2 3123   3.167   0.361   3.885
  742SOL     OW 3124   1.435   6.620   2.238
  742SOL    HW1 3125   1.478   6.586   2.322
  742SOL    HW2 3126   1.392   6.543   2.190
  743SOL     OW 3127   1.638   2.994   4.041
  743SOL    HW1 3128   1.664   2.933   3.965
  743SOL    HW2 3129   1.579   2.943   4.105
  744SOL     OW 3130   6.806   5.151   0.540
  744SOL    HW1 3131   6.899   5.159   0.505
  744SOL    HW2 3132   6.783   5.231   0.594
  745SOL     OW 3133   1.575   5.989   3.306
  745SOL    HW1 3134   1.526   6.055   3.249
  745SOL    HW2 3135   1.614   6.036   3.385
  746SOL     OW 3136   3.266   0.269   3.518
  746SOL    HW1 3137   3.288   0.366   3.505
  746SOL    HW2 3138   3.302   0.238   3.606
  747SOL     OW 3139   6.478   3.419   0.931
  747SOL    HW1 3140   6.546   3.345   0.930
  747SOL    HW2 3141   6.521   3.503   0.964
  748SOL     OW 3142   3.682   2.892   2.837
  748SOL    HW1 3143   3.583   2.883   2.843
  748SOL    HW2 3144   3.712   2.875   2.743
  749SOL     OW 3145   6.243   2.616   5.300
  749SOL    HW1 3146   6.230   2.645   5.205
  749SOL    HW2 3147   6.186   2.537   5.319
  750SOL     OW 3148   3.255   3.241   1.788
  750SOL    HW1 3149   3.195   3.267   1.712
  750SOL    HW2 3150   3.231   3.150   1.819
  751SOL     OW 3151   5.394   1.333   0.482
  751SOL    HW1 3152   5.445   1.417   0.461
  751SOL    HW2 3153   5.407   1.309   0.578
  752SOL     OW 3154   4.556   0.713   1.553
  752SOL    HW1 3155   4.557   0.625   1.505
  752SOL    HW2 3156   4.499   0.706   1.634
  753SOL     OW 3157   3.135   1.121   3.053
  753SOL    HW1 3158   3.227   1.103   3.087
  753SOL    HW2 3159   3.129   1.217   3.024
  754SOL     OW 3160   5.323   5.708   0.510
  754SOL    HW1 3161   5.236   5.661   0.496
  754SOL    HW2 3162   5.345   5.708   0.608
  755SOL     OW 3163   6.357   5.766   2.857
  755SOL    HW1 3164   6.454   5.788   2.861
  755SOL    HW2 3165   6.326   5.732   2.946
  756SOL     OW 3166   3.412   6.177   3.947
  756SOL    HW1 3167   3.363   6.098   3.910
  756SOL    HW2 3168   3.361   6.215   4.025
  757SOL     OW 3169   6.706   1.333   4.020
  757SOL    HW1 3170   6.711   1.236   4.044
  757SOL    HW2 3171   6.636   1.347   3.951
  758SOL     OW 3172   4.457   2.030   1.124
  758SOL    HW1 3173   4.396   1.954   1.100
  758SOL    HW2 3174   4.526   2.041   1.051
  759SOL     OW 3175   1.927   0.683   1.047
  759SOL    HW1 3176   1.868   0.653   0.972
  759SOL    HW2 3177   1.997   0.745   1.012
  760SOL     OW 3178   4.496   2.270   5.768
  760SOL    HW1 3179   4.593   2.252   5.753
  760SOL    HW2 3180   4.445   2.185   5.765
  761SOL     OW 3181   5.355   1.226   6.699
  761SOL    HW1 3182   5.423   1.274   6.753
  761SOL    HW2 3183   5.343   1.272   6.611
  762SOL     OW 3184   1.890   4.992   4.459
  762SOL    HW1 3185   1.828   4.919   4.431
  762SOL    HW2 3186   1.939   4.963   4.542
  763SOL     OW 3187   5.904   5.309   6.984
  763SOL    HW1 3188   5.922   5.232   6.923
  763SOL    HW2 3189   5.943   5.290   0.050
  764SOL     OW 3190   5.128   0.846   2.706
  764SOL    HW1 3191   5.132   0.938   2.666
  764SOL    HW2 3192   5.082   0.850   2.795
  765SOL     OW 3193   0.077   6.847   3.092
  765SOL    HW1 3194   0.044   6.846   3.186
  765SOL    HW2 3195   0.176   6.857   3.090
  766SOL     OW 3196   6.923   6.508   0.033
  766SOL    HW1 3197   6.842   6.465   0.073
  766SOL    HW2 3198   6.921   6.607   0.049
  767SOL     OW 3199   5.774   6.255   1.445
  767SOL    HW1 3200   5.778   6.203   1.360
  767SOL    HW2 3201   5.720   6.205   1.512
  768SOL     OW 3202   3.248   6.571   3.802
  768SOL    HW1 3203   3.323   6.628   3.838
  768SOL    HW2 3204   3.196   6.533   3.878
  769SOL     OW 3205   3.302   0.764   0.149
  769SOL    HW1 3206   3.305   0.858   0.183
  769SOL    HW2 3207   3.330   0.762   0.053
  770SOL     OW 3208   3.137   4.875   3.871
  770SOL    HW1 3209   3.226   4.894   3.830
  770SOL    HW2 3210   3.129   4.925   3.957
  771SOL     OW 3211   0.789   5.502   4.651
  771SOL    HW1 3212   0.757   5.475   4.560
  771SOL    HW2 3213   0.874   5.554   4.642
  772SOL     OW 3214   6.883   4.691   5.417
  772SOL    HW1 3215   6.800   4.638   5.396
  772SOL    HW2 3216   6.868   4.787   5.392
  773SOL     OW 3217   6.893   3.470   1.959
  773SOL    HW1 3218   6.945   3.388   1.982
  773SOL    HW2 3219   6.865   3.517   2.043
  774SOL     OW 3220   1.347   1.101   1.530
  774SOL    HW1 3221   1.369   1.095   1.628
  774SOL    HW2 3222   1.429   1.078   1.477
  775SOL     OW 3223   1.443   2.556   4.204
  775SOL    HW1 3224   1.542   2.550   4.215
  775SOL    HW2 3225   1.398   2.521   4.287
  776SOL     OW 3226   2.218   0.040   5.282
  776SOL    HW1 3227   2.272   0.068   5.202
  776SOL    HW2 3228   2.272   0.052   5.365
  777SOL     OW 3229   4.642   0.198   0.172
  777SOL    HW1 3230   4.577   0.180   0.246
  777SOL    HW2 3231   4.705   0.122   0.163
  778SOL     OW 3232   4.049   5.748   5.254
  778SOL    HW1 3233   4.123   5.730   5.318
  778SOL    HW2 3234   3.998   5.829   5.284
  779SOL     OW 3235   0.971   0.524   2.841
  779SOL    HW1 3236   1.070   0.542   2.839
  779SOL    HW2 3237   0.950   0.447   2.782
  780SOL     OW 3238   5.181   3.089   5.109
  780SOL    HW1 3239   5.228   3.177   5.098
  780SOL    HW2 3240   5.175   3.044   5.020
  781SOL     OW 3241   0.908   2.516   6.545
  781SOL    HW1 3242   0.838   2.457   6.505
  781SOL    HW2 3243   0.987   2.461   6.571
  782SOL     OW 3244   0.403   4.416   0.374
  782SOL    HW1 3245   0.445   4.329   0.347
  782SOL    HW2 3246   0.469   4.490   0.365
  783SOL     OW 3247   2.080   4.781   0.021
  783SOL    HW1 3248   2.105   4.781   6.949
  783SOL    HW2 3249   2.152   4.739   0.075
  784SOL     OW 3250   5.038   5.139   3.563
  784SOL    HW1 3251   5.098   5.081   3.507
  784SOL    HW2 3252   5.072   5.233   3.563
  785SOL     OW 3253   6.049   2.210   3.902
  785SOL    HW1 3254   5.950   2.208   3.916
  785SOL    HW2 3255   6.070   2.260   3.818
  786SOL     OW 3256   6.221   6.815   0.528
  786SOL    HW1 3257   6.262   6.883   0.467
  786SOL    HW2 3258   6.123   6.811   0.512
  787SOL     OW 3259   4.372   1.032   0.048
  787SOL    HW1 3260   4.352   1.116   7.023
  787SOL    HW2 3261   4.426   0.971   7.015
  788SOL     OW 3262   0.842   4.692   3.079
  788SOL    HW1 3263   0.797   4.687   2.990
  788SOL    HW2 3264   0.783   4.739   3.144
  789SOL     OW 3265   5.687   3.064   1.367
  789SOL    HW1 3266   5.672   2.995   1.437
  789SOL    HW2 3267   5.665   3.154   1.404
  790SOL     OW 3268   3.446   0.451   3.813
  790SOL    HW1 3269   3.397   0.527   3.856
  790SOL    HW2 3270   3.412   0.364   3.849
  791SOL     OW 3271   3.847   1.649   5.079
  791SOL    HW1 3272   3.801   1.562   5.101
  791SOL    HW2 3273   3.784   1.707   5.027
  792SOL     OW 3274   5.051   0.309   3.833
  792SOL    HW1 3275   5.073   0.283   3.739
  792SOL    HW2 3276   4.957   0.342   3.838
  793SOL     OW 3277   0.381   0.288   6.721
  793SOL    HW1 3278   0.362   0.235   6.639
  793SOL    HW2 3279   0.410   0.227   6.795
  794SOL     OW 3280   3.586   4.951   4.987
  794SOL    HW1 3281   3.522   4.881   4.955
  794SOL    HW2 3282   3.534   5.032   5.016
  795SOL     OW 3283   5.044   5.142   6.782
  795SOL    HW1 3284   5.073   5.214   6.720
  795SOL    HW2 3285   4.956   5.167   6.823
  796SOL     OW 3286   0.291   1.468   5.866
  796SOL    HW1 3287   0.219   1.535   5.847
  796SOL    HW2 3288   0.358   1.470   5.792
  797SOL     OW 3289   6.186   2.820   5.474
  797SOL    HW1 3290   6.169   2.732   5.431
  797SOL    HW2 3291   6.195   2.890   5.403
  798SOL     OW 3292   6.476   0.497   5.110
  798SOL    HW1 3293   6.413   0.424   5.086
  798SOL    HW2 3294   6.429   0.585   5.104
  799SOL     OW 3295   6.654   3.538   3.917
  799SOL    HW1 3296   6.634   3.617   3.975
  799SOL    HW2 3297   6.584   3.529   3.846
  800SOL     OW 3298   6.694   1.598   2.008
  800SOL    HW1 3299   6.635   1.659   1.955
  800SOL    HW2 3300   6.770   1.650   2.046
  801SOL     OW 3301   0.366   2.365   3.535
  801SOL    HW1 3302   0.421   2.304   3.592
  801SOL    HW2 3303   0.424   2.437   3.497
  802SOL     OW 3304   6.116   1.461   1.485
  802SOL    HW1 3305   6.091   1.548   1.445
  802SOL    HW2 3306   6.207   1.468   1.527
  803SOL     OW 3307   1.315   0.327   4.724
  803SOL    HW1 3308   1.291   0.239   4.684
  803SOL    HW2 3309   1.399   0.361   4.682
  804SOL     OW 3310   6.392   6.670   0.661
  804SOL    HW1 3311   6.410   6.711   0.751
  804SOL    HW2 3312   6.330   6.729   0.609
  805SOL     OW 3313   1.452   3.007   5.403
  805SOL    HW1 3314   1.444   2.959   5.316
  805SOL    HW2 3315   1.534   3.065   5.401
  806SOL     OW 3316   5.143   0.555   0.543
  806SOL    HW1 3317   5.046   0.542   0.525
  806SOL    HW2 3318   5.155   0.632   0.605
  807SOL     OW 3319   1.202   6.787   2.797
  807SOL    HW1 3320   1.210   6.821   2.703
  807SOL    HW2 3321   1.259   6.843   2.857
  808SOL     OW 3322   6.256   3.686   5.165
  808SOL    HW1 3323   6.165   3.726   5.177
  808SOL    HW2 3324   6.280   3.632   5.246
  809SOL     OW 3325   0.741   5.666   6.043
  809SOL    HW1 3326   0.773   5.586   6.094
  809SOL    HW2 3327   0.644   5.681   6.063
  810SOL     OW 3328   6.577   4.978   6.264
  810SOL    HW1 3329   6.499   5.008   6.210
  810SOL    HW2 3330   6.575   5.023   6.354
  811SOL     OW 3331   4.243   5.349   3.270
  811SOL    HW1 3332   4.279   5.431   3.315
  811SOL    HW2 3333   4.319   5.291   3.240
  812SOL     OW 3334   0.382   0.222   2.292
  812SOL    HW1 3335   0.306   0.206   2.230
  812SOL    HW2 3336   0.374   0.313   2.333
  813SOL     OW 3337   5.740   5.493   2.109
  813SOL    HW1 3338   5.799   5.571   2.130
  813SOL    HW2 3339   5.725   5.439   2.192
  814SOL     OW 3340   5.394   5.526   1.353
  814SOL    HW1 3341   5.431   5.481   1.434
  814SOL    HW2 3342   5.367   5.458   1.286
  815SOL     OW 3343   0.686   1.275   0.317
  815SOL    HW1 3344   0.635   1.337   0.377
  815SOL    HW2 3345   0.640   1.186   0.313
  816SOL     OW 3346   5.615   0.514   1.367
  816SOL    HW1 3347   5.568   0.431   1.340
  816SOL    HW2 3348   5.574   0.551   1.451
  817SOL     OW 3349   0.662   2.107   1.543
  817SOL    HW1 3350   0.605   2.046   1.597
  817SOL    HW2 3351   0.721   2.160   1.604
  818SOL     OW 3352   5.939   1.415   2.002
  818SOL    HW1 3353   5.991   1.499   2.015
  818SOL    HW2 3354   5.990   1.338   2.040
  819SOL     OW 3355   0.270   5.486   2.136
  819SOL    HW1 3356   0.346   5.537   2.176
  819SOL    HW2 3357   0.281   5.389   2.157
  820SOL     OW 3358   1.372   2.818   4.611
  820SOL    HW1 3359   1.446   2.752   4.602
  820SOL    HW2 3360   1.285   2.776   4.585
  821SOL     OW 3361   1.030   4.184   0.168
  821SOL    HW1 3362   0.982   4.255   0.220
  821SOL    HW2 3363   1.048   4.105   0.227
  822SOL     OW 3364   1.419   3.463   4.626
  822SOL    HW1 3365   1.443   3.399   4.699
  822SOL    HW2 3366   1.469   3.439   4.543
  823SOL     OW 3367   3.421   3.555   1.579
  823SOL    HW1 3368   3.359   3.621   1.621
  823SOL    HW2 3369   3.515   3.584   1.593
  824SOL     OW 3370   6.225   2.432   5.915
  824SOL    HW1 3371   6.202   2.370   5.990
  824SOL    HW2 3372   6.145   2.487   5.892
  825SOL     OW 3373   1.121   3.906   1.818
  825SOL    HW1 3374   1.148   3.852   1.738
  825SOL    HW2 3375   1.037   3.868   1.857
  826SOL     OW 3376   1.152   3.919   5.577
  826SOL    HW1 3377   1.218   3.965   5.517
  826SOL    HW2 3378   1.130   3.980   5.653
  827SOL     OW 3379   3.568   5.163   0.692
  827SOL    HW1 3380   3.585   5.084   0.634
  827SOL    HW2 3381   3.645   5.227   0.685
  828SOL     OW 3382   6.556   0.497   6.001
  828SOL    HW1 3383   6.653   0.501   6.021
  828SOL    HW2 3384   6.504   0.527   6.081
  829SOL     OW 3385   3.352   3.189   4.876
  829SOL    HW1 3386   3.321   3.264   4.935
  829SOL    HW2 3387   3.273   3.144   4.835
  830SOL     OW 3388   4.230   3.789   6.089
  830SOL    HW1 3389   4.198   3.871   6.041
  830SOL    HW2 3390   4.327   3.774   6.067
  831SOL     OW 3391   5.858   0.103   4.613
  831SOL    HW1 3392   5.800   0.181   4.591
  831SOL    HW2 3393   5.950   0.135   4.636
  832SOL     OW 3394   2.012   1.776   5.700
  832SOL    HW1 3395   1.966   1.796   5.614
  832SOL    HW2 3396   1.982   1.687   5.734
  833SOL     OW 3397   1.006   0.158   5.436
  833SOL    HW1 3398   0.961   0.240   5.471
  833SOL    HW2 3399   1.068   0.183   5.361
  834SOL     OW 3400   3.658   4.385   6.191
  834SOL    HW1 3401   3.647   4.383   6.092
  834SOL    HW2 3402   3.619   4.470   6.227
  835SOL     OW 3403   4.654   1.035   3.208
  835SOL    HW1 3404   4.584   1.052   3.139
  835SOL    HW2 3405   4.681   0.939   3.205
  836SOL     OW 3406   2.423   0.702   6.730
  836SOL    HW1 3407   2.395   0.729   6.822
  836SOL    HW2 3408   2.511   0.746   6.708
  837SOL     OW 3409   4.232   1.695   4.912
  837SOL    HW1 3410   4.168   1.730   4.981
  837SOL    HW2 3411   4.314   1.661   4.958
  838SOL     OW 3412   0.927   5.620   2.284
  838SOL    HW1 3413   0.899   5.615   2.188
  838SOL    HW2 3414   0.891   5.703   2.326
  839SOL     OW 3415   3.348   1.390   1.823
  839SOL    HW1 3416   3.350   1.485   1.853
  839SOL    HW2 3417   3.265   1.346   1.857
  840SOL     OW 3418   0.663   1.361   5.663
  840SOL    HW1 3419   0.742   1.305   5.638
  840SOL    HW2 3420   0.642   1.347   5.760
  841SOL     OW 3421   0.344   3.329   0.795
  841SOL    HW1 3422   0.393   3.385   0.728
  841SOL    HW2 3423   0.409   3.289   0.859
  842SOL     OW 3424   3.362   5.215   3.673
  842SOL    HW1 3425   3.300   5.237   3.598
  842SOL    HW2 3426   3.365   5.291   3.737
  843SOL     OW 3427   6.951   4.062   1.915
  843SOL    HW1 3428   0.009   4.111   1.886
  843SOL    HW2 3429   6.909   4.111   1.991
  844SOL     OW 3430   5.658   5.072   6.848
  844SOL    HW1 3431   5.742   5.125   6.843
  844SOL    HW2 3432   5.586   5.125   6.893
  845SOL     OW 3433   1.551   5.356   5.149
  845SOL    HW1 3434   1.468   5.300   5.144
  845SOL    HW2 3435   1.608   5.324   5.225
  846SOL     OW 3436   4.614   2.926   6.972
  846SOL    HW1 3437   4.594   3.014   7.013
  846SOL    HW2 3438   4.699   2.931   6.920
  847SOL     OW 3439   5.300   4.008   2.054
  847SOL    HW1 3440   5.265   4.101   2.043
  847SOL    HW2 3441   5.393   4.003   2.018
  848SOL     OW 3442   6.151   0.248   5.163
  848SOL    HW1 3443   6.164   0.282   5.070
  848SOL    HW2 3444   6.208   0.300   5.227
  849SOL     OW 3445   1.207   5.915   3.881
  849SOL    HW1 3446   1.203   5.857   3.962
  849SOL    HW2 3447   1.115   5.928   3.845
  850SOL     OW 3448   4.165   0.602   3.370
  850SOL    HW1 3449   4.254   0.645   3.354
  850SOL    HW2 3450   4.131   0.626   3.461
  851SOL     OW 3451   6.921   0.627   5.545
  851SOL    HW1 3452   6.836   0.666   5.581
  851SOL    HW2 3453   6.998   0.660   5.599
  852SOL     OW 3454   2.900   4.235   5.600
  852SOL    HW1 3455   2.839   4.281   5.663
  852SOL    HW2 3456   2.995   4.254   5.626
  853SOL     OW 3457   1.037   3.953   0.352
  853SOL    HW1 3458   1.103   3.959   0.427
  853SOL    HW2 3459   1.033   3.859   0.319
  854SOL     OW 3460   6.441   4.780   1.351
  854SOL    HW1 3461   6.510   4.708   1.343
  854SOL    HW2 3462   6.422   4.818   1.260
  855SOL     OW 3463   5.427   0.553   0.556
  855SOL    HW1 3464   5.482   0.565   0.474
  855SOL    HW2 3465   5.330   0.555   0.532
  856SOL     OW 3466   1.259   0.651   4.996
  856SOL    HW1 3467   1.176   0.649   4.940
  856SOL    HW2 3468   1.307   0.564   4.988
  857SOL     OW 3469   5.675   3.670   1.449
  857SOL    HW1 3470   5.691   3.766   1.428
  857SOL    HW2 3471   5.579   3.648   1.431
  858SOL     OW 3472   3.673   3.399   1.866
  858SOL    HW1 3473   3.617   3.343   1.927
  858SOL    HW2 3474   3.766   3.406   1.903
  859SOL     OW 3475   6.783   4.283   0.929
  859SOL    HW1 3476   6.690   4.297   0.962
  859SOL    HW2 3477   6.802   4.346   0.854
  860SOL     OW 3478   1.685   4.438   6.860
  860SOL    HW1 3479   1.692   4.338   6.854
  860SOL    HW2 3480   1.777   4.477   6.864
  861SOL     OW 3481   3.519   4.438   5.902
  861SOL    HW1 3482   3.529   4.493   5.819
  861SOL    HW2 3483   3.551   4.345   5.884
  862SOL     OW 3484   4.811   4.012   3.123
  862SOL    HW1 3485   4.752   4.050   3.052
  862SOL    HW2 3486   4.817   4.077   3.199
  863SOL     OW 3487   6.041   2.114   0.921
  863SOL    HW1 3488   6.047   2.213   0.934
  863SOL    HW2 3489   5.947   2.089   0.900
  864SOL     OW 3490   0.134   5.275   2.979
  864SOL    HW1 3491   0.049   5.235   2.946
  864SOL    HW2 3492   0.186   5.311   2.901
  865SOL     OW 3493   2.061   0.841   3.724
  865SOL    HW1 3494   2.047   0.919   3.786
  865SOL    HW2 3495   2.156   0.840   3.693
  866SOL     OW 3496   4.881   1.183   0.838
  866SOL    HW1 3497   4.828   1.248   0.891
  866SOL    HW2 3498   4.821   1.135   0.774
  867SOL     OW 3499   2.588   1.611   6.705
  867SOL    HW1 3500   2.646   1.687   6.677
  867SOL    HW2 3501   2.504   1.647   6.747
  868SOL     OW 3502   5.417   2.057   3.064
  868SOL    HW1 3503   5.371   1.987   3.009
  868SOL    HW2 3504   5.451   2.130   3.006
  869SOL     OW 3505   6.570   4.038   1.214
  869SOL    HW1 3506   6.520   3.983   1.147
  869SOL    HW2 3507   6.543   4.011   1.307
  870SOL     OW 3508   6.758   2.264   0.121
  870SOL    HW1 3509   6.842   2.294   0.077
  870SOL    HW2 3510   6.680   2.290   0.065
  871SOL     OW 3511   5.815   4.118   0.791
  871SOL    HW1 3512   5.757   4.111   0.709
  871SOL    HW2 3513   5.760   4.099   0.872
  872SOL     OW 3514   0.122   2.357   1.677
  872SOL    HW1 3515   0.102   2.366   1.774
  872SOL    HW2 3516   0.041   2.383   1.624
  873SOL     OW 3517   3.182   6.739   4.753
  873SOL    HW1 3518   3.181   6.639   4.740
  873SOL    HW2 3519   3.268   6.776   4.719
  874SOL     OW 3520   0.396   4.256   6.869
  874SOL    HW1 3521   0.303   4.271   6.837
  874SOL    HW2 3522   0.394   4.215   6.960
  875SOL     OW 3523   6.103   5.375   6.237
  875SOL    HW1 3524   6.109   5.291   6.182
  875SOL    HW2 3525   6.007   5.398   6.250
  876SOL     OW 3526   1.579   1.926   1.146
  876SOL    HW1 3527   1.554   1.835   1.177
  876SOL    HW2 3528   1.678   1.938   1.155
  877SOL     OW 3529   4.892   5.598   0.210
  877SOL    HW1 3530   4.826   5.536   0.253
  877SOL    HW2 3531   4.844   5.676   0.171
  878SOL     OW 3532   3.752   2.721   1.011
  878SOL    HW1 3533   3.775   2.685   0.921
  878SOL    HW2 3534   3.672   2.780   1.004
  879SOL     OW 3535   4.699   2.707   2.915
  879SOL    HW1 3536   4.638   2.650   2.970
  879SOL    HW2 3537   4.737   2.779   2.973
  880SOL     OW 3538   4.234   5.499   1.619
  880SOL    HW1 3539   4.322   5.527   1.658
  880SOL    HW2 3540   4.227   5.531   1.524
  881SOL     OW 3541   5.322   4.730   3.370
  881SOL    HW1 3542   5.236   4.770   3.402
  881SOL    HW2 3543   5.319   4.719   3.270
  882SOL     OW 3544   0.489   2.064   4.474
  882SOL    HW1 3545   0.508   2.127   4.398
  882SOL    HW2 3546   0.472   2.117   4.557
  883SOL     OW 3547   3.226   4.740   0.230
  883SOL    HW1 3548   3.210   4.814   0.165
  883SOL    HW2 3549   3.228   4.777   0.323
  884SOL     OW 3550   4.037   4.026   1.785
  884SOL    HW1 3551   3.986   4.032   1.870
  884SOL    HW2 3552   3.985   4.069   1.711
  885SOL     OW 3553   4.792   6.257   5.486
  885SOL    HW1 3554   4.831   6.310   5.411
  885SOL    HW2 3555   4.711   6.209   5.454
  886SOL     OW 3556   4.099   2.065   6.312
  886SOL    HW1 3557   4.080   1.991   6.376
  886SOL    HW2 3558   4.088   2.031   6.218
  887SOL     OW 3559   5.764   5.824   4.967
  887SOL    HW1 3560   5.827   5.800   5.042
  887SOL    HW2 3561   5.670   5.825   5.001
  888SOL     OW 3562   6.303   0.035   3.682
  888SOL    HW1 3563   6.301   6.981   3.745
  888SOL    HW2 3564   6.330   0.004   3.591
  889SOL     OW 3565   0.671   0.398   4.572
  889SOL    HW1 3566   0.574   0.425   4.578
  889SOL    HW2 3567   0.685   0.313   4.623
  890SOL     OW 3568   1.595   4.078   2.049
  890SOL    HW1 3569   1.625   4.169   2.019
  890SOL    HW2 3570   1.512   4.053   2.000
  891SOL     OW 3571   5.584   3.763   6.516
  891SOL    HW1 3572   5.610   3.667   6.526
  891SOL    HW2 3573   5.493   3.769   6.474
  892SOL     OW 3574   2.134   5.566   1.826
  892SOL    HW1 3575   2.083   5.653   1.820
  892SOL    HW2 3576   2.232   5.584   1.815
  893SOL     OW 3577   1.988   0.272   1.950
  893SOL    HW1 3578   1.897   0.299   1.981
  893SOL    HW2 3579   2.052   0.276   2.026
  894SOL     OW 3580   1.313   5.492   4.261
  894SOL    HW1 3581   1.388   5.558   4.250
  894SOL    HW2 3582   1.340   5.422   4.327
  895SOL     OW 3583   2.442   0.693   4.445
  895SOL    HW1 3584   2.424   0.635   4.524
  895SOL    HW2 3585   2.533   0.672   4.408
  896SOL     OW 3586   5.312   6.711   4.088
  896SOL    HW1 3587   5.259   6.645   4.142
  896SOL    HW2 3588   5.317   6.797   4.138
  897SOL     OW 3589   5.039   1.242   6.032
  897SOL    HW1 3590   5.133   1.218   6.058
  897SOL    HW2 3591   4.997   1.294   6.106
  898SOL     OW 3592   5.646   6.728   3.728
  898SOL    HW1 3593   5.561   6.705   3.776
  898SOL    HW2 3594   5.631   6.811   3.674
  899SOL     OW 3595   1.480   4.509   6.983
  899SOL    HW1 3596   1.572   4.490   6.948
  899SOL    HW2 3597   1.423   4.428   6.973
  900SOL     OW 3598   0.577   5.414   3.553
  900SOL    HW1 3599   0.509   5.472   3.509
  900SOL    HW2 3600   0.545   5.319   3.553
  901SOL     OW 3601   5.549   2.073   4.019
  901SOL    HW1 3602   5.538   1.989   4.072
  901SOL    HW2 3603   5.520   2.151   4.074
  902SOL     OW 3604   1.023   6.789   0.429
  902SOL    HW1 3605   1.020   6.690   0.444
  902SOL    HW2 3606   1.072   6.808   0.344
  903SOL     OW 3607   0.667   5.016   6.459
  903SOL    HW1 3608   0.685   5.080   6.534
  903SOL    HW2 3609   0.649   5.067   6.375
  904SOL     OW 3610   2.000   1.068   4.341
  904SOL    HW1 3611   1.936   1.013   4.394
  904SOL    HW2 3612   2.026   1.149   4.394
  905SOL     OW 3613   6.285   2.686   4.261
  905SOL    HW1 3614   6.326   2.641   4.340
  905SOL    HW2 3615   6.186   2.688   4.271
  906SOL     OW 3616   6.336   4.040   5.604
  906SOL    HW1 3617   6.402   4.089   5.547
  906SOL    HW2 3618   6.252   4.093   5.611
  907SOL     OW 3619   0.474   3.296   2.207
  907SOL    HW1 3620   0.499   3.352   2.286
  907SOL    HW2 3621   0.394   3.334   2.163
  908SOL     OW 3622   2.768   1.166   3.868
  908SOL    HW1 3623   2.786   1.168   3.966
  908SOL    HW2 3624   2.854   1.178   3.818
  909SOL     OW 3625   4.039   6.577   1.386
  909SOL    HW1 3626   4.131   6.546   1.362
  909SOL    HW2 3627   3.991   6.606   1.303
  910SOL     OW 3628   1.823   1.587   1.854
  910SOL    HW1 3629   1.886   1.512   1.877
  910SOL    HW2 3630   1.798   1.580   1.758
  911SOL     OW 3631   0.498   3.185   0.980
  911SOL    HW1 3632   0.534   3.159   1.069
  911SOL    HW2 3633   0.473   3.102   0.929
  912SOL     OW 3634   1.343   0.873   6.616
  912SOL    HW1 3635   1.404   0.929   6.672
  912SOL    HW2 3636   1.339   0.780   6.653
  913SOL     OW 3637   2.196   1.410   2.675
  913SOL    HW1 3638   2.138   1.478   2.630
  913SOL    HW2 3639   2.252   1.455   2.745
  914SOL     OW 3640   2.786   6.013   1.957
  914SOL    HW1 3641   2.837   5.966   1.885
  914SOL    HW2 3642   2.725   5.949   2.003
  915SOL     OW 3643   1.895   2.282   0.375
  915SOL    HW1 3644   1.908   2.203   0.436
  915SOL    HW2 3645   1.884   2.250   0.281
  916SOL     OW 3646   1.193   3.150   2.310
  916SOL    HW1 3647   1.154   3.060   2.289
  916SOL    HW2 3648   1.171   3.175   2.404
  917SOL     OW 3649   4.206   1.006   6.525
  917SOL    HW1 3650   4.213   1.010   6.625
  917SOL    HW2 3651   4.294   1.027   6.484
  918SOL     OW 3652   0.279   2.091   4.843
  918SOL    HW1 3653   0.230   2.077   4.929
  918SOL    HW2 3654   0.311   2.002   4.808
  919SOL     OW 3655   1.632   0.269   0.867
  919SOL    HW1 3656   1.698   0.210   0.913
  919SOL    HW2 3657   1.541   0.229   0.875
  920SOL     OW 3658   2.083   1.271   3.097
  920SOL    HW1 3659   2.144   1.203   3.136
  920SOL    HW2 3660   2.133   1.330   3.034
  921SOL     OW 3661   3.834   4.116   0.760
  921SOL    HW1 3662   3.751   4.074   0.796
  921SOL    HW2 3663   3.904   4.045   0.749
  922SOL     OW 3664   2.339   5.703   0.105
  922SOL    HW1 3665   2.364   5.606   0.106
  922SOL    HW2 3666   2.419   5.758   0.126
  923SOL     OW 3667   3.992   1.257   0.042
  923SOL    HW1 3668   3.913   1.279   7.010
  923SOL    HW2 3669   4.034   1.342   0.075
  924SOL     OW 3670   6.250   5.068   2.605
  924SOL    HW1 3671   6.278   5.071   2.510
  924SOL    HW2 3672   6.331   5.062   2.664
  925SOL     OW 3673   6.967   1.939   2.523
  925SOL    HW1 3674   6.942   1.843   2.519
  925SOL    HW2 3675   6.978   1.974   2.430
  926SOL     OW 3676   3.699   5.685   1.236
  926SOL    HW1 3677   3.699   5.593   1.276
  926SOL    HW2 3678   3.676   5.752   1.307
  927SOL     OW 3679   4.730   5.821   4.915
  927SOL    HW1 3680   4.807   5.831   4.852
  927SOL    HW2 3681   4.748   5.874   4.998
  928SOL     OW 3682   0.153   1.641   1.427
  928SOL    HW1 3683   0.234   1.631   1.485
  928SOL    HW2 3684   0.091   1.565   1.443
  929SOL     OW 3685   6.924   2.137   1.975
  929SOL    HW1 3686   7.007   2.187   1.950
  929SOL    HW2 3687   6.911   2.061   1.911
  930SOL     OW 3688   6.111   5.101   2.209
  930SOL    HW1 3689   6.094   5.002   2.208
  930SOL    HW2 3690   6.121   5.135   2.116
  931SOL     OW 3691   1.335   2.927   1.836
  931SOL    HW1 3692   1.422   2.881   1.819
  931SOL    HW2 3693   1.263   2.858   1.847
  932SOL     OW 3694   4.606   5.907   1.518
  932SOL    HW1 3695   4.698   5.876   1.539
  932SOL    HW2 3696   4.607   6.005   1.497
  933SOL     OW 3697   1.329   6.673   3.372
  933SOL    HW1 3698   1.295   6.648   3.281
  933SOL    HW2 3699   1.351   6.590   3.423
  934SOL     OW 3700   3.067   1.319   5.722
  934SOL    HW1 3701   3.059   1.355   5.815
  934SOL    HW2 3702   3.090   1.393   5.659
  935SOL     OW 3703   1.668   3.559   4.471
  935SOL    HW1 3704   1.615   3.602   4.398
  935SOL    HW2 3705   1.713   3.630   4.525
  936SOL     OW 3706   1.203   1.515   1.633
  936SOL    HW1 3707   1.269   1.470   1.572
  936SOL    HW2 3708   1.216   1.614   1.630
  937SOL     OW 3709   5.226   2.184   3.286
  937SOL    HW1 3710   5.290   2.152   3.216
  937SOL    HW2 3711   5.274   2.244   3.350
  938SOL     OW 3712   0.772   1.234   6.565
  938SOL    HW1 3713   0.815   1.245   6.475
  938SOL    HW2 3714   0.695   1.171   6.558
  939SOL     OW 3715   6.081   0.988   5.359
  939SOL    HW1 3716   6.165   0.939   5.381
  939SOL    HW2 3717   6.019   0.926   5.309
  940SOL     OW 3718   7.021   0.315   4.133
  940SOL    HW1 3719   0.014   0.218   4.114
  940SOL    HW2 3720   0.038   0.339   4.221
  941SOL     OW 3721   6.047   2.418   5.370
  941SOL    HW1 3722   5.979   2.361   5.415
  941SOL    HW2 3723   6.003   2.502   5.336
  942SOL     OW 3724   4.601   0.218   4.972
  942SOL    HW1 3725   4.569   0.177   5.057
  942SOL    HW2 3726   4.567   0.312   4.966
  943SOL     OW 3727   5.227   2.133   0.380
  943SOL    HW1 3728   5.185   2.164   0.295
  943SOL    HW2 3729   5.157   2.127   0.451
  944SOL     OW 3730   4.940   4.081   4.267
  944SOL    HW1 3731   4.862   4.106   4.209
  944SOL    HW2 3732   4.938   4.136   4.351
  945SOL     OW 3733   5.558   3.484   6.552
  945SOL    HW1 3734   5.621   3.407   6.566
  945SOL    HW2 3735   5.479   3.453   6.500
  946SOL     OW 3736   5.744   3.736   6.779
  946SOL    HW1 3737   5.719   3.788   6.697
  946SOL    HW2 3738   5.732   3.639   6.761
  947SOL     OW 3739   0.690   2.515   5.680
  947SOL    HW1 3740   0.771   2.463   5.654
  947SOL    HW2 3741   0.680   2.594   5.620
  948SOL     OW 3742   3.700   1.463   0.724
  948SOL    HW1 3743   3.668   1.424   0.637
  948SOL    HW2 3744   3.698   1.563   0.718
  949SOL     OW 3745   5.464   6.333   6.559
  949SOL    HW1 3746   5.468   6.336   6.459
  949SOL    HW2 3747   5.552   6.361   6.597
  950SOL     OW 3748   3.565   5.511   0.746
  950SOL    HW1 3749   3.501   5.463   0.806
  950SOL    HW2 3750   3.514   5.572   0.685
  951SOL     OW 3751   1.047   2.991   3.612
  951SOL    HW1 3752   1.060   3.088   3.588
  951SOL    HW2 3753   1.132   2.941   3.594
  952SOL     OW 3754   4.667   1.405   1.316
  952SOL    HW1 3755   4.594   1.444   1.372
  952SOL    HW2 3756   4.654   1.432   1.220
  953SOL     OW 3757   4.071   6.591   6.032
  953SOL    HW1 3758   4.171   6.600   6.029
  953SOL    HW2 3759   4.043   6.518   5.970
  954SOL     OW 3760   6.303   0.579   1.112
  954SOL    HW1 3761   6.387   0.529   1.134
  954SOL    HW2 3762   6.327   0.665   1.065
  955SOL     OW 3763   0.842   5.843   2.384
  955SOL    HW1 3764   0.887   5.923   2.345
  955SOL    HW2 3765   0.752   5.870   2.418
  956SOL     OW 3766   1.684   2.623   0.632
  956SOL    HW1 3767   1.679   2.552   0.562
  956SOL    HW2 3768   1.622   2.600   0.707
  957SOL     OW 3769   1.806   6.409   4.959
  957SOL    HW1 3770   1.832   6.312   4.962
  957SOL    HW2 3771   1.802   6.445   5.052
  958SOL     OW 3772   4.698   2.724   0.149
  958SOL    HW1 3773   4.699   2.809   0.096
  958SOL    HW2 3774   4.772   2.664   0.118
  959SOL     OW 3775   1.406   3.420   1.044
  959SOL    HW1 3776   1.410   3.398   0.947
  959SOL    HW2 3777   1.477   3.487   1.066
  960SOL     OW 3778   1.667   4.883   5.547
  960SOL    HW1 3779   1.578   4.842   5.529
  960SOL    HW2 3780   1.707   4.842   5.629
  961SOL     OW 3781   3.689   6.742   6.798
  961SOL    HW1 3782   3.630   6.767   6.721
  961SOL    HW2 3783   3.772   6.798   6.796
  962SOL     OW 3784   1.386   6.732   3.044
  962SOL    HW1 3785   1.396   6.633   3.051
  962SOL    HW2 3786   1.472   6.772   3.011
  963SOL     OW 3787   5.547   0.211   1.826
  963SOL    HW1 3788   5.528   0.257   1.739
  963SOL    HW2 3789   5.539   0.112   1.814
  964SOL     OW 3790   5.711   3.561   1.803
  964SOL    HW1 3791   5.766   3.480   1.780
  964SOL    HW2 3792   5.717   3.627   1.729
  965SOL     OW 3793   1.582   1.287   0.225
  965SOL    HW1 3794   1.675   1.284   0.188
  965SOL    HW2 3795   1.584   1.321   0.319
  966SOL     OW 3796   6.742   2.447   2.202
  966SOL    HW1 3797   6.762   2.513   2.275
  966SOL    HW2 3798   6.789   2.475   2.119
  967SOL     OW 3799   1.205   5.759   1.993
  967SOL    HW1 3800   1.161   5.688   2.048
  967SOL    HW2 3801   1.301   5.735   1.979
  968SOL     OW 3802   6.979   4.358   0.559
  968SOL    HW1 3803   6.936   4.277   0.519
  968SOL    HW2 3804   0.009   4.405   0.489
  969SOL     OW 3805   4.002   6.574   6.466
  969SOL    HW1 3806   4.071   6.643   6.490
  969SOL    HW2 3807   3.977   6.523   6.548
  970SOL     OW 3808   5.230   3.339   5.803
  970SOL    HW1 3809   5.234   3.413   5.736
  970SOL    HW2 3810   5.271   3.257   5.765
  971SOL     OW 3811   0.376   2.935   6.847
  971SOL    HW1 3812   0.320   2.902   6.770
  971SOL    HW2 3813   0.467   2.960   6.814
  972SOL     OW 3814   4.623   6.673   0.648
  972SOL    HW1 3815   4.604   6.641   0.741
  972SOL    HW2 3816   4.616   6.773   0.646
  973SOL     OW 3817   6.042   3.221   6.065
  973SOL    HW1 3818   5.968   3.154   6.061
  973SOL    HW2 3819   6.127   3.175   6.090
  974SOL     OW 3820   2.247   0.431   4.702
  974SOL    HW1 3821   2.171   0.431   4.767
  974SOL    HW2 3822   2.219   0.385   4.618
  975SOL     OW 3823   3.001   0.039   5.087
  975SOL    HW1 3824   2.975   0.065   5.180
  975SOL    HW2 3825   2.925   7.018   5.042
  976SOL     OW 3826   0.460   4.211   3.645
  976SOL    HW1 3827   0.488   4.248   3.733
  976SOL    HW2 3828   0.485   4.114   3.640
  977SOL     OW 3829   0.870   2.140   2.203
  977SOL    HW1 3830   0.780   2.120   2.162
  977SOL    HW2 3831   0.940   2.134   2.133
  978SOL     OW 3832   5.780   3.159   4.660
  978SOL    HW1 3833   5.698   3.114   4.696
  978SOL    HW2 3834   5.774   3.164   4.560
  979SOL     OW 3835   5.633   1.608   3.004
  979SOL    HW1 3836   5.724   1.584   2.969
  979SOL    HW2 3837   5.638   1.621   3.103
  980SOL     OW 3838   0.213   0.263   5.325
  980SOL    HW1 3839   0.183   0.346   5.371
  980SOL    HW2 3840   0.246   0.197   5.392
  981SOL     OW 3841   6.285   3.095   6.116
  981SOL    HW1 3842   6.249   3.067   6.204
  981SOL    HW2 3843   6.358   3.163   6.130
  982SOL     OW 3844   1.284   3.787   1.040
  982SOL    HW1 3845   1.328   3.835   0.965
  982SOL    HW2 3846   1.238   3.705   1.005
  983SOL     OW 3847   5.231   1.858   2.997
  983SOL    HW1 3848   5.261   1.813   2.912
  983SOL    HW2 3849   5.169   1.798   3.046
  984SOL     OW 3850   4.929   2.871   5.543
  984SOL    HW1 3851   4.930   2.865   5.444
  984SOL    HW2 3852   4.834   2.881   5.575
  985SOL     OW 3853   1.692   4.664   0.619
  985SOL    HW1 3854   1.719   4.591   0.556
  985SOL    HW2 3855   1.593   4.673   0.618
  986SOL     OW 3856   4.762   4.273   6.795
  986SOL    HW1 3857   4.858   4.299   6.802
  986SOL    HW2 3858   4.732   4.281   6.700
  987SOL     OW 3859   3.923   6.845   2.812
  987SOL    HW1 3860   3.847   6.878   2.756
  987SOL    HW2 3861   4.000   6.908   2.804
  988SOL     OW 3862   3.390   2.894   1.607
  988SOL    HW1 3863   3.356   2.970   1.662
  988SOL    HW2 3864   3.321   2.822   1.603
  989SOL     OW 3865   0.792   0.636   4.634
  989SOL    HW1 3866   0.750   0.551   4.602
  989SOL    HW2 3867   0.721   0.703   4.654
  990SOL     OW 3868   5.281   6.443   2.000
  990SOL    HW1 3869   5.266   6.372   1.932
  990SOL    HW2 3870   5.366   6.424   2.050
  991SOL     OW 3871   5.902   1.758   5.381
  991SOL    HW1 3872   5.951   1.683   5.337
  991SOL    HW2 3873   5.818   1.777   5.330
  992SOL     OW 3874   7.011   2.999   1.321
  992SOL    HW1 3875   6.954   2.932   1.367
  992SOL    HW2 3876   7.009   3.085   1.371
  993SOL     OW 3877   3.644   6.396   4.909
  993SOL    HW1 3878   3.615   6.306   4.939
  993SOL    HW2 3879   3.673   6.450   4.988
  994SOL     OW 3880   2.904   3.294   2.625
  994SOL    HW1 3881   2.820   3.295   2.679
  994SOL    HW2 3882   2.887   3.252   2.536
  995SOL     OW 3883   0.528   1.302   4.864
  995SOL    HW1 3884   0.502   1.351   4.948
  995SOL    HW2 3885   0.450   1.250   4.831
  996SOL     OW 3886   0.945   3.443   0.306
  996SOL    HW1 3887   1.009   3.373   0.337
  996SOL    HW2 3888   0.885   3.405   0.236
  997SOL     OW 3889   0.169   1.858   0.909
  997SOL    HW1 3890   0.156   1.835   0.813
  997SOL    HW2 3891   0.127   1.787   0.966
  998SOL     OW 3892   4.933   6.767   3.397
  998SOL    HW1 3893   4.974   6.741   3.484
  998SOL    HW2 3894   4.889   6.857   3.406
  999SOL     OW 3895   5.948   5.409   1.403
  999SOL    HW1 3896   6.042   5.411   1.438
  999SOL    HW2 3897   5.907   5.500   1.413
 1000SOL     OW 3898   4.668   2.308   4.619
 1000SOL    HW1 3899   4.610   2.335   4.696
 1000SOL    HW2 3900   4.728   2.384   4.595
 1001SOL     OW 3901   4.576   1.436   5.316
 1001SOL    HW1 3902   4.636   1.405   5.243
 1001SOL    HW2 3903   4.521   1.359   5.348
 1002SOL     OW 3904   0.350   1.480   0.195
 1002SOL    HW1 3905   0.427   1.457   0.135
 1002SOL    HW2 3906   0.280   1.409   0.189
 1003SOL     OW 3907   4.408   5.251   2.716
 1003SOL    HW1 3908   4.412   5.197   2.800
 1003SOL    HW2 3909   4.412   5.190   2.636
 1004SOL     OW 3910   5.780   5.884   0.416
 1004SOL    HW1 3911   5.820   5.958   0.470
 1004SOL    HW2 3912   5.850   5.844   0.357
 1005SOL     OW 3913   6.699   5.703   3.590
 1005SOL    HW1 3914   6.682   5.658   3.678
 1005SOL    HW2 3915   6.763   5.778   3.602
 1006SOL     OW 3916   2.343   4.595   6.740
 1006SOL    HW1 3917   2.317   4.544   6.822
 1006SOL    HW2 3918   2.368   4.531   6.667
 1007SOL     OW 3919   0.965   0.988   3.316
 1007SOL    HW1 3920   0.900   0.928   3.267
 1007SOL    HW2 3921   1.042   1.010   3.256
 1008SOL     OW 3922   2.906   2.213   5.044
 1008SOL    HW1 3923   2.921   2.115   5.030
 1008SOL    HW2 3924   2.993   2.258   5.063
 1009SOL     OW 3925   2.773   6.058   5.898
 1009SOL    HW1 3926   2.789   6.072   5.996
 1009SOL    HW2 3927   2.789   5.962   5.876
 1010SOL     OW 3928   5.272   0.157   5.477
 1010SOL    HW1 3929   5.188   0.188   5.433
 1010SOL    HW2 3930   5.342   0.142   5.407
 1011SOL     OW 3931   3.232   5.830   4.092
 1011SOL    HW1 3932   3.325   5.864   4.077
 1011SOL    HW2 3933   3.199   5.863   4.180
 1012SOL     OW 3934   3.467   5.683   0.536
 1012SOL    HW1 3935   3.505   5.756   0.593
 1012SOL    HW2 3936   3.494   5.697   0.441
 1013SOL     OW 3937   0.558   1.040   0.333
 1013SOL    HW1 3938   0.474   1.047   0.386
 1013SOL    HW2 3939   0.600   0.950   0.348
 1014SOL     OW 3940   6.009   6.806   6.161
 1014SOL    HW1 3941   5.956   6.890   6.151
 1014SOL    HW2 3942   5.948   6.730   6.183
 1015SOL     OW 3943   3.202   0.325   4.811
 1015SOL    HW1 3944   3.133   0.323   4.739
 1015SOL    HW2 3945   3.281   0.377   4.779
 1016SOL     OW 3946   4.517   2.647   1.835
 1016SOL    HW1 3947   4.498   2.745   1.834
 1016SOL    HW2 3948   4.603   2.628   1.788
 1017SOL     OW 3949   5.068   0.611   6.317
 1017SOL    HW1 3950   5.141   0.600   6.384
 1017SOL    HW2 3951   5.056   0.708   6.297
 1018SOL     OW 3952   1.591   2.451   1.333
 1018SOL    HW1 3953   1.576   2.546   1.307
 1018SOL    HW2 3954   1.569   2.391   1.256
 1019SOL     OW 3955   6.264   1.571   0.658
 1019SOL    HW1 3956   6.351   1.528   0.632
 1019SOL    HW2 3957   6.282   1.645   0.723
 1020SOL     OW 3958   3.439   2.091   1.807
 1020SOL    HW1 3959   3.498   2.155   1.856
 1020SOL    HW2 3960   3.363   2.142   1.765
 1021SOL     OW 3961   6.477   1.489   0.866
 1021SOL    HW1 3962   6.577   1.487   0.858
 1021SOL    HW2 3963   6.444   1.582   0.851
 1022SOL     OW 3964   3.295   2.741   6.900
 1022SOL    HW1 3965   3.207   2.697   6.880
 1022SOL    HW2 3966   3.330   2.708   6.988
 1023SOL     OW 3967   6.664   0.361   4.355
 1023SOL    HW1 3968   6.746   0.418   4.369
 1023SOL    HW2 3969   6.650   0.304   4.436
 1024SOL     OW 3970   6.657   2.065   4.256
 1024SOL    HW1 3971   6.619   2.090   4.167
 1024SOL    HW2 3972   6.598   2.100   4.329
 1025SOL     OW 3973   3.225   4.433   1.348
 1025SOL    HW1 3974   3.138   4.414   1.302
 1025SOL    HW2 3975   3.208   4.484   1.432
 1026SOL     OW 3976   0.551   2.744   6.304
 1026SOL    HW1 3977   0.548   2.675   6.376
 1026SOL    HW2 3978   0.462   2.749   6.259
 1027SOL     OW 3979   2.022   4.714   1.170
 1027SOL    HW1 3980   1.993   4.753   1.083
 1027SOL    HW2 3981   2.116   4.681   1.163
 1028SOL     OW 3982   0.026   5.199   0.427
 1028SOL    HW1 3983   0.086   5.214   0.348
 1028SOL    HW2 3984   0.075   5.225   0.511
 1029SOL     OW 3985   3.692   0.574   5.264
 1029SOL    HW1 3986   3.693   0.575   5.364
 1029SOL    HW2 3987   3.602   0.601   5.231
 1030SOL     OW 3988   3.890   4.685   5.270
 1030SOL    HW1 3989   3.793   4.664   5.284
 1030SOL    HW2 3990   3.946   4.610   5.306
 1031SOL     OW 3991   2.295   5.347   0.719
 1031SOL    HW1 3992   2.283   5.288   0.639
 1031SOL    HW2 3993   2.290   5.443   0.690
 1032SOL     OW 3994   1.236   1.360   4.769
 1032SOL    HW1 3995   1.185   1.438   4.804
 1032SOL    HW2 3996   1.263   1.301   4.845
 1033SOL     OW 3997   2.373   6.720   2.552
 1033SOL    HW1 3998   2.333   6.667   2.627
 1033SOL    HW2 3999   2.463   6.753   2.579
 1034SOL     OW 4000   1.244   0.372   1.564
 1034SOL    HW1 4001   1.299   0.349   1.484
 1034SOL    HW2 4002   1.303   0.412   1.634
 1035SOL     OW 4003   3.456   1.280   2.963
 1035SOL    HW1 4004   3.527   1.242   3.023
 1035SOL    HW2 4005   3.500   1.327   2.886
 1036SOL     OW 4006   4.911   6.803   7.006
 1036SOL    HW1 4007   4.844   6.751   0.035
 1036SOL    HW2 4008   4.996   6.751   6.999
 1037SOL     OW 4009   3.402   1.819   6.146
 1037SOL    HW1 4010   3.501   1.829   6.147
 1037SOL    HW2 4011   3.359   1.908   6.127
 1038SOL     OW 4012   2.433   1.688   5.234
 1038SOL    HW1 4013   2.420   1.686   5.135
 1038SOL    HW2 4014   2.349   1.661   5.280
 1039SOL     OW 4015   4.223   1.853   3.551
 1039SOL    HW1 4016   4.209   1.754   3.549
 1039SOL    HW2 4017   4.257   1.881   3.640
 1040SOL     OW 4018   5.759   3.913   4.650
 1040SOL    HW1 4019   5.715   3.825   4.631
 1040SOL    HW2 4020   5.764   3.967   4.566
 1041SOL     OW 4021   1.521   6.706   4.278
 1041SOL    HW1 4022   1.531   6.789   4.223
 1041SOL    HW2 4023   1.609   6.659   4.282
 1042SOL     OW 4024   4.558   3.819   0.749
 1042SOL    HW1 4025   4.607   3.899   0.783
 1042SOL    HW2 4026   4.573   3.742   0.811
 1043SOL     OW 4027   3.692   0.586   6.962
 1043SOL    HW1 4028   3.723   0.679   6.946
 1043SOL    HW2 4029   3.699   0.533   6.877
 1044SOL     OW 4030   4.076   3.427   2.655
 1044SOL    HW1 4031   4.143   3.425   2.729
 1044SOL    HW2 4032   4.079   3.516   2.609
 1045SOL     OW 4033   4.174   0.967   3.442
 1045SOL    HW1 4034   4.249   0.958   3.507
 1045SOL    HW2 4035   4.195   0.915   3.359
 1046SOL     OW 4036   3.779   0.636   2.213
 1046SOL    HW1 4037   3.825   0.696   2.278
 1046SOL    HW2 4038   3.752   0.688   2.132
 1047SOL     OW 4039   0.648   5.867   1.691
 1047SOL    HW1 4040   0.668   5.774   1.659
 1047SOL    HW2 4041   0.730   5.923   1.683
 1048SOL     OW 4042   6.342   4.178   5.340
 1048SOL    HW1 4043   6.409   4.242   5.302
 1048SOL    HW2 4044   6.316   4.111   5.271
 1049SOL     OW 4045   0.615   3.295   5.785
 1049SOL    HW1 4046   0.596   3.197   5.784
 1049SOL    HW2 4047   0.629   3.327   5.691
 1050SOL     OW 4048   2.419   0.737   0.623
 1050SOL    HW1 4049   2.424   0.836   0.637
 1050SOL    HW2 4050   2.338   0.715   0.569
 1051SOL     OW 4051   4.968   4.538   2.317
 1051SOL    HW1 4052   4.897   4.577   2.374
 1051SOL    HW2 4053   5.046   4.602   2.312
 1052SOL     OW 4054   3.713   0.202   4.374
 1052SOL    HW1 4055   3.729   0.301   4.366
 1052SOL    HW2 4056   3.657   0.171   4.297
 1053SOL     OW 4057   3.475   4.907   3.515
 1053SOL    HW1 4058   3.475   4.989   3.457
 1053SOL    HW2 4059   3.569   4.876   3.530
 1054SOL     OW 4060   4.572   5.979   5.137
 1054SOL    HW1 4061   4.535   5.923   5.211
 1054SOL    HW2 4062   4.499   6.003   5.073
 1055SOL     OW 4063   3.618   4.941   4.340
 1055SOL    HW1 4064   3.597   4.934   4.437
 1055SOL    HW2 4065   3.549   4.891   4.287
 1056SOL     OW 4066   2.506   5.985   6.348
 1056SOL    HW1 4067   2.547   5.982   6.257
 1056SOL    HW2 4068   2.576   5.965   6.416
 1057SOL     OW 4069   3.859   3.961   1.268
 1057SOL    HW1 4070   3.921   3.884   1.286
 1057SOL    HW2 4071   3.909   4.035   1.224
 1058SOL     OW 4072   3.079   6.851   2.373
 1058SOL    HW1 4073   3.092   6.756   2.344
 1058SOL    HW2 4074   3.041   6.904   2.297
 1059SOL     OW 4075   3.354   0.681   0.421
 1059SOL    HW1 4076   3.378   0.757   0.481
 1059SOL    HW2 4077   3.364   0.709   0.326
 1060SOL     OW 4078   2.994   1.010   4.204
 1060SOL    HW1 4079   3.002   0.935   4.139
 1060SOL    HW2 4080   3.085   1.047   4.223
 1061SOL     OW 4081   2.818   5.815   1.279
 1061SOL    HW1 4082   2.897   5.820   1.218
 1061SOL    HW2 4083   2.737   5.790   1.226
 1062SOL     OW 4084   4.834   4.552   4.393
 1062SOL    HW1 4085   4.848   4.604   4.478
 1062SOL    HW2 4086   4.738   4.524   4.387
 1063SOL     OW 4087   2.704   2.301   5.817
 1063SOL    HW1 4088   2.711   2.359   5.736
 1063SOL    HW2 4089   2.714   2.357   5.899
 1064SOL     OW 4090   0.653   2.822   1.793
 1064SOL    HW1 4091   0.651   2.847   1.696
 1064SOL    HW2 4092   0.619   2.728   1.803
 1065SOL     OW 4093   4.569   5.242   5.669
 1065SOL    HW1 4094   4.528   5.189   5.744
 1065SOL    HW2 4095   4.547   5.339   5.681
 1066SOL     OW 4096   4.648   0.018   3.993
 1066SOL    HW1 4097   4.717   6.979   3.959
 1066SOL    HW2 4098   4.560   7.024   3.949
 1067SOL     OW 4099   2.764   3.435   0.931
 1067SOL    HW1 4100   2.804   3.400   0.847
 1067SOL    HW2 4101   2.736   3.530   0.917
 1068SOL     OW 4102   0.320   4.420   0.939
 1068SOL    HW1 4103   0.379   4.444   0.862
 1068SOL    HW2 4104   0.243   4.365   0.906
 1069SOL     OW 4105   3.729   2.878   2.560
 1069SOL    HW1 4106   3.666   2.934   2.505
 1069SOL    HW2 4107   3.811   2.859   2.507
 1070SOL     OW 4108   2.495   6.808   0.617
 1070SOL    HW1 4109   2.544   6.761   0.689
 1070SOL    HW2 4110   2.406   6.838   0.651
 1071SOL     OW 4111   4.948   5.377   3.959
 1071SOL    HW1 4112   4.928   5.339   4.050
 1071SOL    HW2 4113   4.863   5.392   3.910
 1072SOL     OW 4114   3.620   5.242   3.017
 1072SOL    HW1 4115   3.630   5.340   3.031
 1072SOL    HW2 4116   3.676   5.213   2.939
 1073SOL     OW 4117   2.888   5.932   3.515
 1073SOL    HW1 4118   2.925   5.964   3.428
 1073SOL    HW2 4119   2.956   5.878   3.564
 1074SOL     OW 4120   1.680   5.437   2.746
 1074SOL    HW1 4121   1.642   5.413   2.836
 1074SOL    HW2 4122   1.682   5.355   2.688
 1075SOL     OW 4123   1.005   4.506   2.748
 1075SOL    HW1 4124   1.000   4.430   2.813
 1075SOL    HW2 4125   0.966   4.477   2.661
 1076SOL     OW 4126   6.476   4.394   2.923
 1076SOL    HW1 4127   6.543   4.320   2.917
 1076SOL    HW2 4128   6.383   4.355   2.926
 1077SOL     OW 4129   4.769   0.006   1.735
 1077SOL    HW1 4130   4.833   0.017   1.660
 1077SOL    HW2 4131   4.793   6.949   1.788
 1078SOL     OW 4132   0.393   3.112   1.676
 1078SOL    HW1 4133   0.329   3.058   1.622
 1078SOL    HW2 4134   0.359   3.206   1.685
 1079SOL     OW 4135   2.043   5.227   3.545
 1079SOL    HW1 4136   2.085   5.148   3.589
 1079SOL    HW2 4137   1.944   5.213   3.540
 1080SOL     OW 4138   1.828   5.341   3.959
 1080SOL    HW1 4139   1.893   5.376   4.027
 1080SOL    HW2 4140   1.811   5.411   3.890
 1081SOL     OW 4141   1.580   0.569   0.267
 1081SOL    HW1 4142   1.545   0.493   0.211
 1081SOL    HW2 4143   1.632   0.532   0.345
 1082SOL     OW 4144   2.055   6.874   1.027
 1082SOL    HW1 4145   2.009   6.862   1.115
 1082SOL    HW2 4146   1.986   6.889   0.956
 1083SOL     OW 4147   3.463   2.405   1.696
 1083SOL    HW1 4148   3.410   2.477   1.741
 1083SOL    HW2 4149   3.550   2.394   1.744
 1084SOL     OW 4150   6.673   3.739   0.497
 1084SOL    HW1 4151   6.765   3.776   0.483
 1084SOL    HW2 4152   6.669   3.692   0.585
 1085SOL     OW 4153   1.730   5.188   3.471
 1085SOL    HW1 4154   1.651   5.190   3.532
 1085SOL    HW2 4155   1.700   5.190   3.376
 1086SOL     OW 4156   2.862   5.497   2.531
 1086SOL    HW1 4157   2.953   5.507   2.489
 1086SOL    HW2 4158   2.872   5.449   2.618
 1087SOL     OW 4159   4.015   3.108   4.723
 1087SOL    HW1 4160   3.957   3.059   4.788
 1087SOL    HW2 4161   4.099   3.057   4.708
 1088SOL     OW 4162   0.046   4.547   2.745
 1088SOL    HW1 4163   7.002   4.594   2.689
 1088SOL    HW2 4164   0.037   4.448   2.732
 1089SOL     OW 4165   6.834   6.838   3.325
 1089SOL    HW1 4166   6.914   6.873   3.373
 1089SOL    HW2 4167   6.791   6.766   3.379
 1090SOL     OW 4168   1.808   2.039   6.560
 1090SOL    HW1 4169   1.752   2.000   6.487
 1090SOL    HW2 4170   1.750   2.058   6.639
 1091SOL     OW 4171   0.912   2.422   5.544
 1091SOL    HW1 4172   0.953   2.509   5.514
 1091SOL    HW2 4173   0.908   2.359   5.467
 1092SOL     OW 4174   2.324   4.685   1.120
 1092SOL    HW1 4175   2.335   4.731   1.032
 1092SOL    HW2 4176   2.296   4.590   1.105
 1093SOL     OW 4177   7.024   2.952   1.687
 1093SOL    HW1 4178   6.940   2.936   1.636
 1093SOL    HW2 4179   0.009   3.050   1.706
 1094SOL     OW 4180   0.888   6.579   2.468
 1094SOL    HW1 4181   0.880   6.520   2.388
 1094SOL    HW2 4182   0.802   6.627   2.483
 1095SOL     OW 4183   0.763   3.677   6.289
 1095SOL    HW1 4184   0.728   3.664   6.196
 1095SOL    HW2 4185   0.847   3.624   6.300
 1096SOL     OW 4186   3.776   3.054   1.723
 1096SOL    HW1 4187   3.691   3.052   1.775
 1096SOL    HW2 4188   3.772   3.128   1.656
 1097SOL     OW 4189   2.497   4.542   5.898
 1097SOL    HW1 4190   2.567   4.577   5.960
 1097SOL    HW2 4191   2.408   4.581   5.921
 1098SOL     OW 4192   3.909   0.426   2.583
 1098SOL    HW1 4193   3.832   0.484   2.608
 1098SOL    HW2 4194   3.925   0.433   2.484
 1099SOL     OW 4195   3.554   0.233   2.350
 1099SOL    HW1 4196   3.461   0.239   2.387
 1099SOL    HW2 4197   3.616   0.202   2.422
 1100SOL     OW 4198   6.460   1.285   6.694
 1100SOL    HW1 4199   6.523   1.361   6.675
 1100SOL    HW2 4200   6.481   1.246   6.784
 1101SOL     OW 4201   5.409   2.928   1.189
 1101SOL    HW1 4202   5.455   2.885   1.267
 1101SOL    HW2 4203   5.355   3.006   1.222
 1102SOL     OW 4204   0.081   3.882   4.194
 1102SOL    HW1 4205   0.170   3.889   4.240
 1102SOL    HW2 4206   0.094   3.855   4.099
 1103SOL     OW 4207   0.101   3.330   6.757
 1103SOL    HW1 4208   0.174   3.293   6.815
 1103SOL    HW2 4209   0.012   3.311   6.799
 1104SOL     OW 4210   2.528   5.332   6.009
 1104SOL    HW1 4211   2.542   5.241   5.970
 1104SOL    HW2 4212   2.470   5.386   5.948
 1105SOL     OW 4213   3.861   5.194   0.942
 1105SOL    HW1 4214   3.768   5.173   0.970
 1105SOL    HW2 4215   3.912   5.230   1.020
 1106SOL     OW 4216   1.172   1.176   6.638
 1106SOL    HW1 4217   1.153   1.086   6.677
 1106SOL    HW2 4218   1.190   1.241   6.712
 1107SOL     OW 4219   6.724   0.626   1.337
 1107SOL    HW1 4220   6.800   0.688   1.356
 1107SOL    HW2 4221   6.716   0.559   1.411
 1108SOL     OW 4222   1.566   1.043   6.723
 1108SOL    HW1 4223   1.663   1.050   6.744
 1108SOL    HW2 4224   1.513   1.056   6.807
 1109SOL     OW 4225   4.705   0.855   4.030
 1109SOL    HW1 4226   4.804   0.841   4.038
 1109SOL    HW2 4227   4.658   0.809   4.105
 1110SOL     OW 4228   3.418   2.916   2.837
 1110SOL    HW1 4229   3.426   2.892   2.740
 1110SOL    HW2 4230   3.328   2.957   2.853
 1111SOL     OW 4231   4.444   6.954   0.420
 1111SOL    HW1 4232   4.457   0.026   0.397
 1111SOL    HW2 4233   4.384   6.911   0.352
 1112SOL     OW 4234   0.861   1.341   2.697
 1112SOL    HW1 4235   0.814   1.258   2.727
 1112SOL    HW2 4236   0.908   1.323   2.610
 1113SOL     OW 4237   6.389   3.748   1.252
 1113SOL    HW1 4238   6.316   3.780   1.313
 1113SOL    HW2 4239   6.386   3.799   1.166
 1114SOL     OW 4240   5.730   1.213   5.221
 1114SOL    HW1 4241   5.759   1.192   5.314
 1114SOL    HW2 4242   5.698   1.129   5.177
 1115SOL     OW 4243   2.238   4.617   0.659
 1115SOL    HW1 4244   2.257   4.715   0.664
 1115SOL    HW2 4245   2.229   4.589   0.564
 1116SOL     OW 4246   3.603   6.312   6.715
 1116SOL    HW1 4247   3.683   6.356   6.756
 1116SOL    HW2 4248   3.547   6.381   6.669
 1117SOL     OW 4249   2.408   3.209   1.082
 1117SOL    HW1 4250   2.368   3.292   1.044
 1117SOL    HW2 4251   2.339   3.137   1.085
 1118SOL     OW 4252   1.693   3.158   1.622
 1118SOL    HW1 4253   1.606   3.149   1.574
 1118SOL    HW2 4254   1.683   3.227   1.694
 1119SOL     OW 4255   2.997   3.781   3.168
 1119SOL    HW1 4256   2.953   3.757   3.254
 1119SOL    HW2 4257   3.037   3.873   3.176
 1120SOL     OW 4258   4.431   0.854   3.889
 1120SOL    HW1 4259   4.523   0.876   3.922
 1120SOL    HW2 4260   4.379   0.810   3.963
 1121SOL     OW 4261   5.460   3.239   3.067
 1121SOL    HW1 4262   5.523   3.298   3.117
 1121SOL    HW2 4263   5.511   3.166   3.021
 1122SOL     OW 4264   4.650   5.259   6.351
 1122SOL    HW1 4265   4.668   5.353   6.382
 1122SOL    HW2 4266   4.678   5.195   6.423
 1123SOL     OW 4267   4.062   1.125   1.663
 1123SOL    HW1 4268   3.976   1.087   1.629
 1123SOL    HW2 4269   4.071   1.104   1.761
 1124SOL     OW 4270   1.471   5.300   4.394
 1124SOL    HW1 4271   1.534   5.259   4.460
 1124SOL    HW2 4272   1.505   5.283   4.301
 1125SOL     OW 4273   3.014   3.448   4.924
 1125SOL    HW1 4274   2.982   3.363   4.967
 1125SOL    HW2 4275   3.113   3.455   4.935
 1126SOL     OW 4276   6.490   0.157   2.432
 1126SOL    HW1 4277   6.521   0.252   2.442
 1126SOL    HW2 4278   6.528   0.102   2.506
 1127SOL     OW 4279   2.014   5.835   6.139
 1127SOL    HW1 4280   1.959   5.916   6.122
 1127SOL    HW2 4281   2.106   5.862   6.165
 1128SOL     OW 4282   2.171   2.362   4.510
 1128SOL    HW1 4283   2.208   2.274   4.479
 1128SOL    HW2 4284   2.120   2.405   4.436
 1129SOL     OW 4285   4.370   6.704   6.221
 1129SOL    HW1 4286   4.336   6.714   6.128
 1129SOL    HW2 4287   4.469   6.719   6.222
 1130SOL     OW 4288   0.335   5.615   5.722
 1130SOL    HW1 4289   0.277   5.600   5.642
 1130SOL    HW2 4290   0.415   5.556   5.717
 1131SOL     OW 4291   0.275   5.312   5.577
 1131SOL    HW1 4292   0.371   5.340   5.581
 1131SOL    HW2 4293   0.259   5.260   5.494
 1132SOL     OW 4294   5.694   6.326   4.879
 1132SOL    HW1 4295   5.621   6.264   4.905
 1132SOL    HW2 4296   5.683   6.413   4.926
 1133SOL     OW 4297   6.650   2.696   6.602
 1133SOL    HW1 4298   6.653   2.796   6.595
 1133SOL    HW2 4299   6.556   2.666   6.615
 1134SOL     OW 4300   6.942   2.377   5.827
 1134SOL    HW1 4301   0.000   2.433   5.822
 1134SOL    HW2 4302   6.914   2.367   5.923
 1135SOL     OW 4303   6.639   1.608   4.751
 1135SOL    HW1 4304   6.552   1.625   4.704
 1135SOL    HW2 4305   6.625   1.612   4.850
 1136SOL     OW 4306   3.470   5.173   4.128
 1136SOL    HW1 4307   3.529   5.221   4.193
 1136SOL    HW2 4308   3.520   5.154   4.044
 1137SOL     OW 4309   1.565   0.935   6.442
 1137SOL    HW1 4310   1.661   0.963   6.437
 1137SOL    HW2 4311   1.537   0.926   6.537
 1138SOL     OW 4312   1.226   3.878   5.910
 1138SOL    HW1 4313   1.245   3.924   5.996
 1138SOL    HW2 4314   1.167   3.936   5.853
 1139SOL     OW 4315   1.022   0.073   2.311
 1139SOL    HW1 4316   1.115   0.110   2.300
 1139SOL    HW2 4317   0.957   0.149   2.320
 1140SOL     OW 4318   3.564   1.948   3.227
 1140SOL    HW1 4319   3.537   1.933   3.132
 1140SOL    HW2 4320   3.662   1.967   3.232
 1141SOL     OW 4321   6.567   5.855   6.015
 1141SOL    HW1 4322   6.638   5.794   6.051
 1141SOL    HW2 4323   6.569   5.852   5.915
 1142SOL     OW 4324   6.889   0.490   4.414
 1142SOL    HW1 4325   6.964   0.430   4.386
 1142SOL    HW2 4326   6.873   0.479   4.512
 1143SOL     OW 4327   4.544   1.978   1.370
 1143SOL    HW1 4328   4.467   1.931   1.412
 1143SOL    HW2 4329   4.521   2.001   1.276
 1144SOL     OW 4330   0.738   6.486   5.114
 1144SOL    HW1 4331   0.803   6.562   5.111
 1144SOL    HW2 4332   0.648   6.518   5.086
 1145SOL     OW 4333   1.849   4.691   4.982
 1145SOL    HW1 4334   1.794   4.621   5.028
 1145SOL    HW2 4335   1.945   4.666   4.986
 1146SOL     OW 4336   5.851   1.619   1.194
 1146SOL    HW1 4337   5.841   1.520   1.182
 1146SOL    HW2 4338   5.868   1.661   1.105
 1147SOL     OW 4339   6.547   3.328   1.911
 1147SOL    HW1 4340   6.636   3.333   1.866
 1147SOL    HW2 4341   6.527   3.232   1.933
 1148SOL     OW 4342   5.666   0.990   6.558
 1148SOL    HW1 4343   5.737   0.921   6.561
 1148SOL    HW2 4344   5.587   0.955   6.508
 1149SOL     OW 4345   5.581   2.388   3.211
 1149SOL    HW1 4346   5.540   2.425   3.128
 1149SOL    HW2 4347   5.509   2.367   3.277
 1150SOL     OW 4348   1.252   5.408   5.645
 1150SOL    HW1 4349   1.332   5.465   5.663
 1150SOL    HW2 4350   1.230   5.411   5.547
 1151SOL     OW 4351   2.520   5.211   0.454
 1151SOL    HW1 4352   2.579   5.146   0.406
 1151SOL    HW2 4353   2.549   5.217   0.549
 1152SOL     OW 4354   0.882   0.865   4.035
 1152SOL    HW1 4355   0.891   0.952   3.985
 1152SOL    HW2 4356   0.846   0.882   4.126
 1153SOL     OW 4357   2.580   4.681   2.644
 1153SOL    HW1 4358   2.641   4.706   2.570
 1153SOL    HW2 4359   2.630   4.680   2.731
 1154SOL     OW 4360   1.777   3.978   2.222
 1154SOL    HW1 4361   1.724   4.018   2.147
 1154SOL    HW2 4362   1.798   4.049   2.290
 1155SOL     OW 4363   4.130   0.065   2.562
 1155SOL    HW1 4364   4.092   7.000   2.539
 1155SOL    HW2 4365   4.158   0.112   2.478
 1156SOL     OW 4366   1.797   1.207   4.155
 1156SOL    HW1 4367   1.736   1.261   4.213
 1156SOL    HW2 4368   1.870   1.168   4.211
 1157SOL     OW 4369   1.572   2.956   4.420
 1157SOL    HW1 4370   1.563   2.976   4.518
 1157SOL    HW2 4371   1.622   3.030   4.375
 1158SOL     OW 4372   4.348   5.717   5.973
 1158SOL    HW1 4373   4.305   5.681   5.890
 1158SOL    HW2 4374   4.358   5.643   6.040
 1159SOL     OW 4375   5.994   4.295   2.455
 1159SOL    HW1 4376   6.026   4.343   2.373
 1159SOL    HW2 4377   5.938   4.216   2.428
 1160SOL     OW 4378   2.702   3.034   1.280
 1160SOL    HW1 4379   2.736   3.118   1.323
 1160SOL    HW2 4380   2.688   3.050   1.183
 1161SOL     OW 4381   4.304   0.710   4.065
 1161SOL    HW1 4382   4.313   0.620   4.022
 1161SOL    HW2 4383   4.322   0.701   4.163
 1162SOL     OW 4384   3.633   5.124   1.539
 1162SOL    HW1 4385   3.553   5.174   1.503
 1162SOL    HW2 4386   3.716   5.174   1.516
 1163SOL     OW 4387   5.161   0.164   2.283
 1163SOL    HW1 4388   5.104   0.229   2.333
 1163SOL    HW2 4389   5.207   0.210   2.208
 1164SOL     OW 4390   6.467   3.606   4.658
 1164SOL    HW1 4391   6.563   3.577   4.661
 1164SOL    HW2 4392   6.459   3.689   4.604
 1165SOL     OW 4393   1.152   4.879   2.359
 1165SOL    HW1 4394   1.154   4.826   2.444
 1165SOL    HW2 4395   1.159   4.818   2.281
 1166SOL     OW 4396   3.460   1.912   6.805
 1166SOL    HW1 4397   3.508   2.000   6.801
 1166SOL    HW2 4398   3.461   1.879   6.900
 1167SOL     OW 4399   3.883   1.788   5.433
 1167SOL    HW1 4400   3.801   1.788   5.377
 1167SOL    HW2 4401   3.905   1.695   5.461
 1168SOL     OW 4402   6.053   0.156   3.477
 1168SOL    HW1 4403   5.995   0.102   3.416
 1168SOL    HW2 4404   5.999   0.186   3.556
 1169SOL     OW 4405   1.366   2.841   1.219
 1169SOL    HW1 4406   1.342   2.889   1.302
 1169SOL    HW2 4407   1.371   2.905   1.143
 1170SOL     OW 4408   2.855   0.867   1.028
 1170SOL    HW1 4409   2.892   0.841   0.939
 1170SOL    HW2 4410   2.756   0.875   1.022
 1171SOL     OW 4411   3.046   0.795   0.282
 1171SOL    HW1 4412   3.078   0.713   0.234
 1171SOL    HW2 4413   3.029   0.868   0.215
 1172SOL     OW 4414   3.312   3.579   5.246
 1172SOL    HW1 4415   3.267   3.666   5.265
 1172SOL    HW2 4416   3.298   3.517   5.324
 1173SOL     OW 4417   5.528   7.001   5.901
 1173SOL    HW1 4418   5.628   7.005   5.891
 1173SOL    HW2 4419   5.484   7.017   5.813
 1174SOL     OW 4420   3.647   5.615   6.570
 1174SOL    HW1 4421   3.597   5.552   6.629
 1174SOL    HW2 4422   3.597   5.626   6.484
 1175SOL     OW 4423   0.066   4.981   4.417
 1175SOL    HW1 4424   0.042   4.898   4.468
 1175SOL    HW2 4425   0.165   4.989   4.412
 1176SOL     OW 4426   6.285   2.744   1.197
 1176SOL    HW1 4427   6.228   2.742   1.279
 1176SOL    HW2 4428   6.264   2.666   1.139
 1177SOL     OW 4429   6.283   3.694   6.945
 1177SOL    HW1 4430   6.297   3.772   6.884
 1177SOL    HW2 4431   6.321   3.715   0.011
 1178SOL     OW 4432   5.457   4.353   2.645
 1178SOL    HW1 4433   5.422   4.267   2.607
 1178SOL    HW2 4434   5.478   4.339   2.742
 1179SOL     OW 4435   1.740   5.654   6.013
 1179SOL    HW1 4436   1.812   5.662   5.944
 1179SOL    HW2 4437   1.728   5.558   6.039
 1180SOL     OW 4438   1.866   0.777   4.052
 1180SOL    HW1 4439   1.780   0.827   4.064
 1180SOL    HW2 4440   1.877   0.751   3.956
 1181SOL     OW 4441   1.672   4.435   2.606
 1181SOL    HW1 4442   1.597   4.461   2.546
 1181SOL    HW2 4443   1.679   4.335   2.610
 1182SOL     OW 4444   1.797   4.122   3.867
 1182SOL    HW1 4445   1.818   4.145   3.962
 1182SOL    HW2 4446   1.831   4.030   3.847
 1183SOL     OW 4447   4.113   5.803   1.082
 1183SOL    HW1 4448   4.185   5.843   1.138
 1183SOL    HW2 4449   4.111   5.848   0.993
 1184SOL     OW 4450   3.361   2.967   6.267
 1184SOL    HW1 4451   3.460   2.970   6.275
 1184SOL    HW2 4452   3.320   3.034   6.329
 1185SOL     OW 4453   2.725   1.225   6.500
 1185SOL    HW1 4454   2.729   1.125   6.506
 1185SOL    HW2 4455   2.740   1.265   6.590
 1186SOL     OW 4456   3.612   1.079   5.076
 1186SOL    HW1 4457   3.626   1.080   5.175
 1186SOL    HW2 4458   3.688   1.031   5.032
 1187SOL     OW 4459   1.184   1.881   4.732
 1187SOL    HW1 4460   1.274   1.883   4.688
 1187SOL    HW2 4461   1.187   1.935   4.816
 1188SOL     OW 4462   1.561   0.643   5.184
 1188SOL    HW1 4463   1.630   0.639   5.256
 1188SOL    HW2 4464   1.599   0.609   5.098
 1189SOL     OW 4465   0.091   1.012   1.654
 1189SOL    HW1 4466   0.044   1.098   1.674
 1189SOL    HW2 4467   0.043   0.937   1.701
 1190SOL     OW 4468   4.208   5.322   1.880
 1190SOL    HW1 4469   4.196   5.398   1.816
 1190SOL    HW2 4470   4.216   5.236   1.829
 1191SOL     OW 4471   2.633   4.646   1.457
 1191SOL    HW1 4472   2.680   4.566   1.496
 1191SOL    HW2 4473   2.584   4.694   1.530
 1192SOL     OW 4474   4.015   5.180   2.629
 1192SOL    HW1 4475   4.040   5.165   2.533
 1192SOL    HW2 4476   4.050   5.104   2.684
 1193SOL     OW 4477   3.539   0.082   4.205
 1193SOL    HW1 4478   3.448   0.105   4.238
 1193SOL    HW2 4479   3.554   0.126   4.116
 1194SOL     OW 4480   6.155   1.632   1.760
 1194SOL    HW1 4481   6.058   1.610   1.769
 1194SOL    HW2 4482   6.165   1.720   1.714
 1195SOL     OW 4483   3.121   6.564   0.147
 1195SOL    HW1 4484   3.182   6.610   0.083
 1195SOL    HW2 4485   3.032   6.608   0.147
 1196SOL     OW 4486   1.401   5.357   3.518
 1196SOL    HW1 4487   1.412   5.258   3.523
 1196SOL    HW2 4488   1.467   5.401   3.578
 1197SOL     OW 4489   3.447   4.916   6.991
 1197SOL    HW1 4490   3.537   4.952   7.015
 1197SOL    HW2 4491   3.446   4.817   7.002
 1198SOL     OW 4492   3.455   0.791   2.503
 1198SOL    HW1 4493   3.415   0.836   2.582
 1198SOL    HW2 4494   3.555   0.800   2.506
 1199SOL     OW 4495   3.218   3.599   3.627
 1199SOL    HW1 4496   3.255   3.631   3.539
 1199SOL    HW2 4497   3.231   3.500   3.634
 1200SOL     OW 4498   5.038   3.430   1.443
 1200SOL    HW1 4499   5.009   3.335   1.459
 1200SOL    HW2 4500   4.973   3.475   1.382
 1201SOL     OW 4501   1.578   1.920   4.825
 1201SOL    HW1 4502   1.626   2.002   4.796
 1201SOL    HW2 4503   1.536   1.935   4.914
 1202SOL     OW 4504   6.464   0.170   4.813
 1202SOL    HW1 4505   6.398   0.102   4.843
 1202SOL    HW2 4506   6.531   0.185   4.886
 1203SOL     OW 4507   6.503   6.610   2.399
 1203SOL    HW1 4508   6.509   6.613   2.499
 1203SOL    HW2 4509   6.566   6.541   2.364
 1204SOL     OW 4510   1.331   0.017   0.103
 1204SOL    HW1 4511   1.333   0.003   0.004
 1204SOL    HW2 4512   1.285   0.104   0.123
 1205SOL     OW 4513   0.626   3.049   5.704
 1205SOL    HW1 4514   0.702   2.988   5.681
 1205SOL    HW2 4515   0.555   2.997   5.752
 1206SOL     OW 4516   6.997   1.464   4.402
 1206SOL    HW1 4517   6.970   1.369   4.383
 1206SOL    HW2 4518   6.948   1.497   4.483
 1207SOL     OW 4519   6.012   6.603   6.823
 1207SOL    HW1 4520   5.978   6.668   6.756
 1207SOL    HW2 4521   6.099   6.634   6.859
 1208SOL     OW 4522   3.796   3.619   2.779
 1208SOL    HW1 4523   3.756   3.698   2.825
 1208SOL    HW2 4524   3.766   3.617   2.684
 1209SOL     OW 4525   6.859   4.221   4.794
 1209SOL    HW1 4526   6.910   4.137   4.775
 1209SOL    HW2 4527   6.923   4.295   4.815
 1210SOL     OW 4528   2.347   6.961   2.872
 1210SOL    HW1 4529   2.256   6.974   2.911
 1210SOL    HW2 4530   2.347   6.994   2.778
 1211SOL     OW 4531   1.052   2.993   3.114
 1211SOL    HW1 4532   1.032   3.076   3.063
 1211SOL    HW2 4533   0.966   2.954   3.147
 1212SOL     OW 4534   1.111   4.670   3.634
 1212SOL    HW1 4535   1.203   4.633   3.624
 1212SOL    HW2 4536   1.116   4.765   3.665
 1213SOL     OW 4537   5.989   3.769   5.200
 1213SOL    HW1 4538   5.895   3.738   5.189
 1213SOL    HW2 4539   5.990   3.852   5.256
 1214SOL     OW 4540   1.478   1.769   1.541
 1214SOL    HW1 4541   1.504   1.860   1.509
 1214SOL    HW2 4542   1.378   1.763   1.546
 1215SOL     OW 4543   0.442   5.476   1.901
 1215SOL    HW1 4544   0.373   5.514   1.961
 1215SOL    HW2 4545   0.525   5.455   1.954
 1216SOL     OW 4546   2.373   0.148   1.432
 1216SOL    HW1 4547   2.443   0.209   1.469
 1216SOL    HW2 4548   2.327   0.194   1.356
 1217SOL     OW 4549   2.002   2.765   2.877
 1217SOL    HW1 4550   2.074   2.834   2.891
 1217SOL    HW2 4551   2.044   2.680   2.844
 1218SOL     OW 4552   0.709   3.497   3.449
 1218SOL    HW1 4553   0.754   3.433   3.513
 1218SOL    HW2 4554   0.669   3.445   3.374
 1219SOL     OW 4555   2.833   5.699   3.329
 1219SOL    HW1 4556   2.741   5.675   3.297
 1219SOL    HW2 4557   2.826   5.770   3.399
 1220SOL     OW 4558   6.618   4.582   2.131
 1220SOL    HW1 4559   6.639   4.537   2.218
 1220SOL    HW2 4560   6.519   4.590   2.120
 1221SOL     OW 4561   4.970   4.802   5.863
 1221SOL    HW1 4562   4.973   4.869   5.788
 1221SOL    HW2 4563   5.057   4.753   5.866
 1222SOL     OW 4564   6.352   4.442   1.275
 1222SOL    HW1 4565   6.444   4.412   1.298
 1222SOL    HW2 4566   6.355   4.509   1.201
 1223SOL     OW 4567   6.981   4.805   4.989
 1223SOL    HW1 4568   6.928   4.870   5.043
 1223SOL    HW2 4569   6.971   4.713   5.028
 1224SOL     OW 4570   3.939   4.698   0.895
 1224SOL    HW1 4571   3.843   4.679   0.917
 1224SOL    HW2 4572   3.953   4.796   0.888
 1225SOL     OW 4573   4.159   1.461   0.110
 1225SOL    HW1 4574   4.129   1.541   0.162
 1225SOL    HW2 4575   4.259   1.456   0.111
 1226SOL     OW 4576   6.022   5.620   1.153
 1226SOL    HW1 4577   6.008   5.582   1.062
 1226SOL    HW2 4578   5.944   5.598   1.211
 1227SOL     OW 4579   4.953   4.495   0.075
 1227SOL    HW1 4580   4.975   4.571   0.014
 1227SOL    HW2 4581   4.855   4.495   0.095
 1228SOL     OW 4582   3.730   4.129   4.234
 1228SOL    HW1 4583   3.803   4.197   4.246
 1228SOL    HW2 4584   3.658   4.147   4.300
 1229SOL     OW 4585   2.633   5.163   2.790
 1229SOL    HW1 4586   2.568   5.233   2.763
 1229SOL    HW2 4587   2.634   5.089   2.722
 1230SOL     OW 4588   4.187   4.733   0.966
 1230SOL    HW1 4589   4.111   4.681   0.927
 1230SOL    HW2 4590   4.191   4.823   0.923
 1231SOL     OW 4591   2.123   1.555   0.208
 1231SOL    HW1 4592   2.092   1.460   0.207
 1231SOL    HW2 4593   2.140   1.583   0.302
 1232SOL     OW 4594   2.472   1.894   5.405
 1232SOL    HW1 4595   2.449   1.834   5.329
 1232SOL    HW2 4596   2.557   1.942   5.386
 1233SOL     OW 4597   0.227   5.180   4.782
 1233SOL    HW1 4598   0.295   5.249   4.759
 1233SOL    HW2 4599   0.140   5.225   4.805
 1234SOL     OW 4600   6.257   4.587   6.830
 1234SOL    HW1 4601   6.286   4.535   6.911
 1234SOL    HW2 4602   6.160   4.570   6.814
 1235SOL     OW 4603   6.103   4.696   1.062
 1235SOL    HW1 4604   6.123   4.780   1.113
 1235SOL    HW2 4605   6.004   4.687   1.050
 1236SOL     OW 4606   0.940   0.967   2.966
 1236SOL    HW1 4607   0.960   1.052   3.016
 1236SOL    HW2 4608   1.021   0.939   2.915
 1237SOL     OW 4609   1.009   0.573   4.084
 1237SOL    HW1 4610   1.063   0.652   4.057
 1237SOL    HW2 4611   1.028   0.551   4.180
 1238SOL     OW 4612   0.680   0.562   4.120
 1238SOL    HW1 4613   0.767   0.605   4.099
 1238SOL    HW2 4614   0.688   0.463   4.106
 1239SOL     OW 4615   4.986   4.279   3.970
 1239SOL    HW1 4616   5.024   4.189   3.948
 1239SOL    HW2 4617   5.017   4.306   4.061
 1240SOL     OW 4618   0.428   3.579   0.632
 1240SOL    HW1 4619   0.406   3.618   0.543
 1240SOL    HW2 4620   0.374   3.624   0.703
 1241SOL     OW 4621   3.604   5.190   5.915
 1241SOL    HW1 4622   3.507   5.196   5.892
 1241SOL    HW2 4623   3.624   5.252   5.992
 1242SOL     OW 4624   1.958   5.260   0.509
 1242SOL    HW1 4625   1.935   5.304   0.595
 1242SOL    HW2 4626   2.055   5.238   0.506
 1243SOL     OW 4627   1.191   3.837   3.327
 1243SOL    HW1 4628   1.268   3.898   3.308
 1243SOL    HW2 4629   1.225   3.743   3.337
 1244SOL     OW 4630   6.574   6.582   4.867
 1244SOL    HW1 4631   6.537   6.656   4.923
 1244SOL    HW2 4632   6.670   6.568   4.890
 1245SOL     OW 4633   4.563   6.382   1.196
 1245SOL    HW1 4634   4.569   6.330   1.111
 1245SOL    HW2 4635   4.531   6.475   1.177
 1246SOL     OW 4636   5.988   1.966   1.484
 1246SOL    HW1 4637   5.926   1.965   1.563
 1246SOL    HW2 4638   5.974   2.051   1.433
 1247SOL     OW 4639   5.184   6.909   2.895
 1247SOL    HW1 4640   5.256   6.880   2.958
 1247SOL    HW2 4641   5.135   6.829   2.862
 1248SOL     OW 4642   0.575   6.953   4.839
 1248SOL    HW1 4643   0.547   6.865   4.800
 1248SOL    HW2 4644   0.665   6.944   4.881
 1249SOL     OW 4645   5.873   6.508   0.084
 1249SOL    HW1 4646   5.955   6.544   0.038
 1249SOL    HW2 4647   5.863   6.553   0.173
 1250SOL     OW 4648   0.244   4.255   5.045
 1250SOL    HW1 4649   0.292   4.301   4.970
 1250SOL    HW2 4650   0.235   4.318   5.122
 1251SOL     OW 4651   2.974   0.295   2.713
 1251SOL    HW1 4652   3.017   0.251   2.792
 1251SOL    HW2 4653   2.981   0.236   2.633
 1252SOL     OW 4654   2.276   5.188   6.099
 1252SOL    HW1 4655   2.307   5.236   6.017
 1252SOL    HW2 4656   2.355   5.163   6.154
 1253SOL     OW 4657   2.670   6.286   0.141
 1253SOL    HW1 4658   2.753   6.300   0.196
 1253SOL    HW2 4659   2.598   6.248   0.198
 1254SOL     OW 4660   6.287   1.571   3.722
 1254SOL    HW1 4661   6.251   1.499   3.781
 1254SOL    HW2 4662   6.245   1.566   3.632
 1255SOL     OW 4663   6.083   1.821   5.750
 1255SOL    HW1 4664   6.071   1.906   5.801
 1255SOL    HW2 4665   6.100   1.841   5.654
 1256SOL     OW 4666   6.925   5.918   5.112
 1256SOL    HW1 4667   6.998   5.985   5.127
 1256SOL    HW2 4668   6.964   5.835   5.072
 1257SOL     OW 4669   0.273   6.288   3.257
 1257SOL    HW1 4670   0.310   6.354   3.191
 1257SOL    HW2 4671   0.289   6.196   3.223
 1258SOL     OW 4672   4.374   5.590   6.469
 1258SOL    HW1 4673   4.302   5.615   6.534
 1258SOL    HW2 4674   4.447   5.659   6.471
 1259SOL     OW 4675   5.629   6.565   4.999
 1259SOL    HW1 4676   5.587   6.606   4.918
 1259SOL    HW2 4677   5.616   6.626   5.077
 1260SOL     OW 4678   3.163   1.448   0.608
 1260SOL    HW1 4679   3.085   1.384   0.611
 1260SOL    HW2 4680   3.219   1.434   0.689
 1261SOL     OW 4681   6.897   4.461   4.141
 1261SOL    HW1 4682   6.831   4.536   4.144
 1261SOL    HW2 4683   6.975   4.487   4.085
 1262SOL     OW 4684   3.899   5.538   1.563
 1262SOL    HW1 4685   3.985   5.487   1.569
 1262SOL    HW2 4686   3.833   5.486   1.510
 1263SOL     OW 4687   6.902   1.737   1.470
 1263SOL    HW1 4688   6.895   1.789   1.385
 1263SOL    HW2 4689   6.966   1.661   1.457
 1264SOL     OW 4690   6.435   2.586   4.859
 1264SOL    HW1 4691   6.425   2.648   4.781
 1264SOL    HW2 4692   6.489   2.507   4.832
 1265SOL     OW 4693   6.039   5.687   4.757
 1265SOL    HW1 4694   6.039   5.650   4.850
 1265SOL    HW2 4695   5.950   5.669   4.714
 1266SOL     OW 4696   3.263   0.650   3.872
 1266SOL    HW1 4697   3.220   0.739   3.854
 1266SOL    HW2 4698   3.194   0.578   3.869
 1267SOL     OW 4699   0.420   4.661   2.357
 1267SOL    HW1 4700   0.350   4.710   2.305
 1267SOL    HW2 4701   0.378   4.582   2.402
 1268SOL     OW 4702   5.967   4.580   6.837
 1268SOL    HW1 4703   5.940   4.676   6.840
 1268SOL    HW2 4704   5.942   4.535   6.922
 1269SOL     OW 4705   6.710   4.915   6.742
 1269SOL    HW1 4706   6.713   4.847   6.816
 1269SOL    HW2 4707   6.715   4.868   6.654
 1270SOL     OW 4708   1.497   1.683   4.213
 1270SOL    HW1 4709   1.486   1.681   4.313
 1270SOL    HW2 4710   1.528   1.774   4.186
 1271SOL     OW 4711   5.116   2.614   3.549
 1271SOL    HW1 4712   5.147   2.702   3.515
 1271SOL    HW2 4713   5.026   2.592   3.509
 1272SOL     OW 4714   6.080   6.387   0.510
 1272SOL    HW1 4715   6.162   6.443   0.500
 1272SOL    HW2 4716   6.000   6.447   0.520
 1273SOL     OW 4717   2.486   6.897   5.511
 1273SOL    HW1 4718   2.512   6.862   5.601
 1273SOL    HW2 4719   2.415   6.967   5.521
 1274SOL     OW 4720   6.184   2.075   2.194
 1274SOL    HW1 4721   6.163   2.171   2.177
 1274SOL    HW2 4722   6.234   2.067   2.281
 1275SOL     OW 4723   4.181   1.571   3.917
 1275SOL    HW1 4724   4.234   1.531   3.843
 1275SOL    HW2 4725   4.194   1.518   4.001
 1276SOL     OW 4726   6.381   7.002   2.262
 1276SOL    HW1 4727   6.291   0.002   2.227
 1276SOL    HW2 4728   6.414   0.050   2.323
 1277SOL     OW 4729   1.140   1.478   4.365
 1277SOL    HW1 4730   1.081   1.539   4.418
 1277SOL    HW2 4731   1.110   1.476   4.270
 1278SOL     OW 4732   2.801   1.323   5.552
 1278SOL    HW1 4733   2.801   1.368   5.463
 1278SOL    HW2 4734   2.880   1.354   5.605
 1279SOL     OW 4735   2.074   5.119   0.253
 1279SOL    HW1 4736   2.087   5.100   0.350
 1279SOL    HW2 4737   2.111   5.209   0.232
 1280SOL     OW 4738   1.209   5.948   2.955
 1280SOL    HW1 4739   1.269   5.983   2.884
 1280SOL    HW2 4740   1.149   5.878   2.916
 1281SOL     OW 4741   0.637   0.022   3.963
 1281SOL    HW1 4742   0.585   6.970   3.924
 1281SOL    HW2 4743   0.722   0.034   3.913
 1282SOL     OW 4744   0.939   6.461   2.708
 1282SOL    HW1 4745   0.859   6.455   2.769
 1282SOL    HW2 4746   0.911   6.500   2.620
 1283SOL     OW 4747   4.950   4.032   4.857
 1283SOL    HW1 4748   5.033   3.977   4.863
 1283SOL    HW2 4749   4.968   4.124   4.892
 1284SOL     OW 4750   3.021   1.902   3.288
 1284SOL    HW1 4751   2.969   1.818   3.301
 1284SOL    HW2 4752   3.033   1.948   3.376
 1285SOL     OW 4753   5.808   3.043   5.806
 1285SOL    HW1 4754   5.770   2.953   5.784
 1285SOL    HW2 4755   5.858   3.038   5.893
 1286SOL     OW 4756   5.994   6.237   1.698
 1286SOL    HW1 4757   5.973   6.147   1.662
 1286SOL    HW2 4758   6.087   6.263   1.672
 1287SOL     OW 4759   6.409   4.188   5.883
 1287SOL    HW1 4760   6.505   4.187   5.856
 1287SOL    HW2 4761   6.357   4.248   5.823
 1288SOL     OW 4762   6.624   2.885   3.873
 1288SOL    HW1 4763   6.608   2.846   3.963
 1288SOL    HW2 4764   6.536   2.901   3.827
 1289SOL     OW 4765   0.406   5.137   2.699
 1289SOL    HW1 4766   0.418   5.198   2.777
 1289SOL    HW2 4767   0.340   5.065   2.722
 1290SOL     OW 4768   0.684   0.356   0.950
 1290SOL    HW1 4769   0.606   0.397   0.999
 1290SOL    HW2 4770   0.750   0.320   1.016
 1291SOL     OW 4771   1.651   6.575   0.917
 1291SOL    HW1 4772   1.580   6.619   0.971
 1291SOL    HW2 4773   1.712   6.524   0.977
 1292SOL     OW 4774   0.975   5.887   6.381
 1292SOL    HW1 4775   0.983   5.807   6.441
 1292SOL    HW2 4776   0.966   5.969   6.437
 1293SOL     OW 4777   6.104   2.536   6.361
 1293SOL    HW1 4778   6.060   2.453   6.397
 1293SOL    HW2 4779   6.060   2.562   6.275
 1294SOL     OW 4780   0.458   1.652   3.537
 1294SOL    HW1 4781   0.556   1.667   3.524
 1294SOL    HW2 4782   0.411   1.662   3.449
 1295SOL     OW 4783   5.251   3.455   1.211
 1295SOL    HW1 4784   5.201   3.399   1.276
 1295SOL    HW2 4785   5.190   3.525   1.173
 1296SOL     OW 4786   3.669   2.360   0.389
 1296SOL    HW1 4787   3.624   2.293   0.447
 1296SOL    HW2 4788   3.619   2.446   0.392
 1297SOL     OW 4789   6.738   0.650   6.447
 1297SOL    HW1 4790   6.795   0.629   6.367
 1297SOL    HW2 4791   6.718   0.748   6.448
 1298SOL     OW 4792   6.542   2.333   3.486
 1298SOL    HW1 4793   6.578   2.403   3.424
 1298SOL    HW2 4794   6.482   2.375   3.554
 1299SOL     OW 4795   1.255   2.992   4.006
 1299SOL    HW1 4796   1.323   2.934   4.052
 1299SOL    HW2 4797   1.299   3.039   3.930
 1300SOL     OW 4798   3.942   3.439   1.959
 1300SOL    HW1 4799   3.971   3.533   1.979
 1300SOL    HW2 4800   4.013   3.375   1.989
 1301SOL     OW 4801   1.182   1.175   2.304
 1301SOL    HW1 4802   1.168   1.182   2.403
 1301SOL    HW2 4803   1.099   1.139   2.261
 1302SOL     OW 4804   2.670   5.871   5.455
 1302SOL    HW1 4805   2.695   5.902   5.363
 1302SOL    HW2 4806   2.752   5.860   5.510
 1303SOL     OW 4807   2.921   0.405   1.063
 1303SOL    HW1 4808   2.998   0.443   1.114
 1303SOL    HW2 4809   2.853   0.476   1.047
 1304SOL     OW 4810   3.645   1.195   6.287
 1304SOL    HW1 4811   3.736   1.155   6.297
 1304SOL    HW2 4812   3.628   1.257   6.364
 1305SOL     OW 4813   6.007   5.857   3.928
 1305SOL    HW1 4814   6.104   5.879   3.942
 1305SOL    HW2 4815   5.953   5.941   3.932
 1306SOL     OW 4816   1.267   5.100   4.796
 1306SOL    HW1 4817   1.199   5.101   4.870
 1306SOL    HW2 4818   1.243   5.170   4.729
 1307SOL     OW 4819   0.985   1.588   4.057
 1307SOL    HW1 4820   1.054   1.530   4.013
 1307SOL    HW2 4821   1.030   1.665   4.102
 1308SOL     OW 4822   4.507   6.073   3.317
 1308SOL    HW1 4823   4.516   6.122   3.230
 1308SOL    HW2 4824   4.414   6.082   3.351
 1309SOL     OW 4825   5.523   3.071   4.745
 1309SOL    HW1 4826   5.483   3.139   4.683
 1309SOL    HW2 4827   5.473   2.985   4.737
 1310SOL     OW 4828   5.510   3.712   5.287
 1310SOL    HW1 4829   5.571   3.763   5.347
 1310SOL    HW2 4830   5.450   3.775   5.239
 1311SOL     OW 4831   5.046   5.042   5.062
 1311SOL    HW1 4832   5.032   5.069   4.967
 1311SOL    HW2 4833   4.988   5.097   5.122
 1312SOL     OW 4834   6.260   0.154   1.668
 1312SOL    HW1 4835   6.346   0.104   1.681
 1312SOL    HW2 4836   6.224   0.134   1.577
 1313SOL     OW 4837   3.078   4.990   4.730
 1313SOL    HW1 4838   3.028   5.001   4.644
 1313SOL    HW2 4839   3.012   4.977   4.804
 1314SOL     OW 4840   6.405   1.417   5.778
 1314SOL    HW1 4841   6.345   1.484   5.734
 1314SOL    HW2 4842   6.370   1.395   5.869
 1315SOL     OW 4843   1.749   6.992   3.288
 1315SOL    HW1 4844   1.698   0.049   3.259
 1315SOL    HW2 4845   1.847   7.013   3.289
 1316SOL     OW 4846   3.851   6.375   2.977
 1316SOL    HW1 4847   3.853   6.298   2.913
 1316SOL    HW2 4848   3.758   6.387   3.012
 1317SOL     OW 4849   0.253   3.497   4.148
 1317SOL    HW1 4850   0.324   3.428   4.136
 1317SOL    HW2 4851   0.241   3.548   4.062
 1318SOL     OW 4852   1.213   6.386   1.485
 1318SOL    HW1 4853   1.236   6.333   1.403
 1318SOL    HW2 4854   1.257   6.476   1.480
 1319SOL     OW 4855   6.206   0.653   0.536
 1319SOL    HW1 4856   6.107   0.663   0.551
 1319SOL    HW2 4857   6.225   0.653   0.438
 1320SOL     OW 4858   5.060   5.954   4.979
 1320SOL    HW1 4859   4.987   5.974   5.044
 1320SOL    HW2 4860   5.086   5.857   4.986
 1321SOL     OW 4861   3.204   1.709   6.901
 1321SOL    HW1 4862   3.272   1.651   6.855
 1321SOL    HW2 4863   3.251   1.774   6.961
 1322SOL     OW 4864   5.067   1.932   6.161
 1322SOL    HW1 4865   5.136   1.908   6.093
 1322SOL    HW2 4866   4.976   1.908   6.127
 1323SOL     OW 4867   6.257   1.272   4.324
 1323SOL    HW1 4868   6.190   1.203   4.297
 1323SOL    HW2 4869   6.253   1.349   4.260
 1324SOL     OW 4870   1.297   2.899   0.527
 1324SOL    HW1 4871   1.383   2.938   0.494
 1324SOL    HW2 4872   1.230   2.900   0.454
 1325SOL     OW 4873   4.407   5.447   3.645
 1325SOL    HW1 4874   4.419   5.534   3.692
 1325SOL    HW2 4875   4.347   5.387   3.699
 1326SOL     OW 4876   5.320   4.131   4.496
 1326SOL    HW1 4877   5.283   4.067   4.428
 1326SOL    HW2 4878   5.389   4.188   4.452
 1327SOL     OW 4879   2.848   6.117   4.395
 1327SOL    HW1 4880   2.840   6.017   4.398
 1327SOL    HW2 4881   2.815   6.151   4.307
 1328SOL     OW 4882   2.291   1.510   1.043
 1328SOL    HW1 4883   2.377   1.486   1.088
 1328SOL    HW2 4884   2.305   1.519   0.945
 1329SOL     OW 4885   0.852   6.686   1.905
 1329SOL    HW1 4886   0.809   6.723   1.987
 1329SOL    HW2 4887   0.910   6.756   1.863
 1330SOL     OW 4888   4.568   6.296   0.868
 1330SOL    HW1 4889   4.531   6.204   0.862
 1330SOL    HW2 4890   4.659   6.298   0.825
 1331SOL     OW 4891   0.428   1.747   1.853
 1331SOL    HW1 4892   0.357   1.768   1.920
 1331SOL    HW2 4893   0.513   1.725   1.900
 1332SOL     OW 4894   4.027   1.848   1.545
 1332SOL    HW1 4895   4.049   1.775   1.609
 1332SOL    HW2 4896   3.974   1.919   1.592
 1333SOL     OW 4897   3.970   3.641   4.399
 1333SOL    HW1 4898   3.893   3.637   4.334
 1333SOL    HW2 4899   3.979   3.734   4.434
 1334SOL     OW 4900   0.978   3.772   3.835
 1334SOL    HW1 4901   0.993   3.869   3.820
 1334SOL    HW2 4902   1.063   3.722   3.815
 1335SOL     OW 4903   2.264   5.580   2.814
 1335SOL    HW1 4904   2.170   5.548   2.822
 1335SOL    HW2 4905   2.310   5.573   2.902
 1336SOL     OW 4906   0.327   0.591   5.473
 1336SOL    HW1 4907   0.407   0.650   5.457
 1336SOL    HW2 4908   0.249   0.628   5.423
 1337SOL     OW 4909   3.487   0.173   6.927
 1337SOL    HW1 4910   3.500   0.271   6.942
 1337SOL    HW2 4911   3.568   0.124   6.959
 1338SOL     OW 4912   2.984   5.098   1.280
 1338SOL    HW1 4913   2.929   5.099   1.196
 1338SOL    HW2 4914   3.074   5.139   1.261
 1339SOL     OW 4915   0.137   4.327   6.751
 1339SOL    HW1 4916   0.041   4.349   6.764
 1339SOL    HW2 4917   0.180   4.396   6.693
 1340SOL     OW 4918   1.940   1.250   6.122
 1340SOL    HW1 4919   1.860   1.190   6.127
 1340SOL    HW2 4920   2.021   1.200   6.154
 1341SOL     OW 4921   5.678   2.703   4.250
 1341SOL    HW1 4922   5.639   2.618   4.213
 1341SOL    HW2 4923   5.724   2.753   4.176
 1342SOL     OW 4924   0.580   6.564   1.538
 1342SOL    HW1 4925   0.649   6.495   1.558
 1342SOL    HW2 4926   0.613   6.624   1.465
 1343SOL     OW 4927   2.885   5.521   4.291
 1343SOL    HW1 4928   2.805   5.467   4.266
 1343SOL    HW2 4929   2.912   5.500   4.385
 1344SOL     OW 4930   5.046   1.583   2.852
 1344SOL    HW1 4931   4.969   1.585   2.789
 1344SOL    HW2 4932   5.067   1.488   2.876
 1345SOL     OW 4933   0.652   5.661   2.844
 1345SOL    HW1 4934   0.665   5.562   2.853
 1345SOL    HW2 4935   0.739   5.704   2.820
 1346SOL     OW 4936   0.267   1.402   3.564
 1346SOL    HW1 4937   0.289   1.464   3.640
 1346SOL    HW2 4938   0.228   1.454   3.488
 1347SOL     OW 4939   4.638   0.326   3.734
 1347SOL    HW1 4940   4.633   0.320   3.834
 1347SOL    HW2 4941   4.571   0.394   3.702
 1348SOL     OW 4942   4.358   6.097   4.659
 1348SOL    HW1 4943   4.351   6.121   4.562
 1348SOL    HW2 4944   4.447   6.056   4.677
 1349SOL     OW 4945   4.237   2.296   0.124
 1349SOL    HW1 4946   4.258   2.199   0.134
 1349SOL    HW2 4947   4.277   2.347   0.199
 1350SOL     OW 4948   3.388   0.940   5.140
 1350SOL    HW1 4949   3.327   1.014   5.113
 1350SOL    HW2 4950   3.483   0.967   5.123
 1351SOL     OW 4951   2.062   1.765   4.041
 1351SOL    HW1 4952   2.074   1.682   3.986
 1351SOL    HW2 4953   1.965   1.780   4.059
 1352SOL     OW 4954   0.769   6.382   4.012
 1352SOL    HW1 4955   0.721   6.297   3.991
 1352SOL    HW2 4956   0.713   6.460   3.985
 1353SOL     OW 4957   2.147   2.974   5.523
 1353SOL    HW1 4958   2.149   3.058   5.577
 1353SOL    HW2 4959   2.144   2.997   5.426
 1354SOL     OW 4960   0.252   0.072   0.269
 1354SOL    HW1 4961   0.165   0.054   0.314
 1354SOL    HW2 4962   0.322   0.092   0.337
 1355SOL     OW 4963   3.764   3.205   6.924
 1355SOL    HW1 4964   3.807   3.282   6.876
 1355SOL    HW2 4965   3.771   3.123   6.868
 1356SOL     OW 4966   3.184   2.975   1.850
 1356SOL    HW1 4967   3.240   2.936   1.924
 1356SOL    HW2 4968   3.101   2.921   1.839
 1357SOL     OW 4969   3.195   2.722   5.697
 1357SOL    HW1 4970   3.214   2.775   5.779
 1357SOL    HW2 4971   3.141   2.777   5.633
 1358SOL     OW 4972   1.724   3.772   6.273
 1358SOL    HW1 4973   1.641   3.805   6.318
 1358SOL    HW2 4974   1.750   3.683   6.312
 1359SOL     OW 4975   7.015   1.710   6.977
 1359SOL    HW1 4976   6.980   1.764   6.901
 1359SOL    HW2 4977   6.955   1.719   0.032
 1360SOL     OW 4978   3.152   3.061   4.085
 1360SOL    HW1 4979   3.086   3.102   4.149
 1360SOL    HW2 4980   3.189   3.133   4.025
 1361SOL     OW 4981   0.871   6.180   1.205
 1361SOL    HW1 4982   0.867   6.091   1.159
 1361SOL    HW2 4983   0.815   6.177   1.288
 1362SOL     OW 4984   3.158   2.044   6.798
 1362SOL    HW1 4985   3.241   2.029   6.853
 1362SOL    HW2 4986   3.134   1.959   6.751
 1363SOL     OW 4987   6.766   6.727   1.106
 1363SOL    HW1 4988   6.695   6.791   1.135
 1363SOL    HW2 4989   6.729   6.634   1.108
 1364SOL     OW 4990   0.653   3.389   0.711
 1364SOL    HW1 4991   0.632   3.304   0.663
 1364SOL    HW2 4992   0.595   3.463   0.677
 1365SOL     OW 4993   1.034   3.667   5.475
 1365SOL    HW1 4994   1.009   3.665   5.378
 1365SOL    HW2 4995   1.087   3.750   5.494
 1366SOL     OW 4996   3.634   0.617   1.474
 1366SOL    HW1 4997   3.635   0.714   1.449
 1366SOL    HW2 4998   3.715   0.596   1.528
 1367SOL     OW 4999   1.247   0.097   4.562
 1367SOL    HW1 5000   1.323   0.052   4.515
 1367SOL    HW2 5001   1.165   0.090   4.507
 1368SOL     OW 5002   1.585   6.209   4.846
 1368SOL    HW1 5003   1.592   6.179   4.941
 1368SOL    HW2 5004   1.512   6.276   4.837
 1369SOL     OW 5005   2.610   5.575   3.592
 1369SOL    HW1 5006   2.543   5.505   3.617
 1369SOL    HW2 5007   2.672   5.591   3.670
 1370SOL     OW 5008   0.004   2.677   3.193
 1370SOL    HW1 5009   7.001   2.581   3.188
 1370SOL    HW2 5010   0.082   2.686   3.255
 1371SOL     OW 5011   6.078   1.937   5.508
 1371SOL    HW1 5012   6.167   1.934   5.463
 1371SOL    HW2 5013   6.007   1.908   5.444
 1372SOL     OW 5014   6.093   2.742   1.425
 1372SOL    HW1 5015   6.010   2.708   1.469
 1372SOL    HW2 5016   6.173   2.706   1.473
 1373SOL     OW 5017   6.132   3.365   1.925
 1373SOL    HW1 5018   6.187   3.293   1.968
 1373SOL    HW2 5019   6.039   3.332   1.911
 1374SOL     OW 5020   3.841   3.012   2.140
 1374SOL    HW1 5021   3.772   2.949   2.106
 1374SOL    HW2 5022   3.925   3.002   2.086
 1375SOL     OW 5023   4.866   4.752   4.619
 1375SOL    HW1 5024   4.931   4.781   4.549
 1375SOL    HW2 5025   4.909   4.759   4.709
 1376SOL     OW 5026   3.347   4.169   5.607
 1376SOL    HW1 5027   3.437   4.134   5.634
 1376SOL    HW2 5028   3.300   4.100   5.553
 1377SOL     OW 5029   1.661   1.472   2.990
 1377SOL    HW1 5030   1.615   1.398   2.940
 1377SOL    HW2 5031   1.684   1.545   2.926
 1378SOL     OW 5032   5.086   2.116   4.193
 1378SOL    HW1 5033   5.000   2.165   4.178
 1378SOL    HW2 5034   5.115   2.128   4.288
 1379SOL     OW 5035   4.424   5.369   6.973
 1379SOL    HW1 5036   4.328   5.370   7.000
 1379SOL    HW2 5037   4.456   5.274   6.966
 1380SOL     OW 5038   0.268   6.178   3.539
 1380SOL    HW1 5039   0.249   6.257   3.597
 1380SOL    HW2 5040   0.286   6.209   3.446
 1381SOL     OW 5041   6.642   2.422   5.845
 1381SOL    HW1 5042   6.733   2.440   5.808
 1381SOL    HW2 5043   6.648   2.357   5.920
 1382SOL     OW 5044   4.570   2.253   6.653
 1382SOL    HW1 5045   4.603   2.347   6.654
 1382SOL    HW2 5046   4.471   2.252   6.644
 1383SOL     OW 5047   6.641   0.403   0.529
 1383SOL    HW1 5048   6.723   0.460   0.539
 1383SOL    HW2 5049   6.568   0.440   0.587
 1384SOL     OW 5050   6.230   2.248   1.934
 1384SOL    HW1 5051   6.312   2.300   1.959
 1384SOL    HW2 5052   6.248   2.150   1.944
 1385SOL     OW 5053   0.191   5.960   1.528
 1385SOL    HW1 5054   0.188   5.989   1.624
 1385SOL    HW2 5055   0.285   5.966   1.495
 1386SOL     OW 5056   2.129   5.677   4.045
 1386SOL    HW1 5057   2.032   5.697   4.030
 1386SOL    HW2 5058   2.184   5.726   3.977
 1387SOL     OW 5059   2.335   5.878   1.951
 1387SOL    HW1 5060   2.313   5.816   2.026
 1387SOL    HW2 5061   2.339   5.972   1.985
 1388SOL     OW 5062   6.543   0.365   1.644
 1388SOL    HW1 5063   6.533   0.321   1.734
 1388SOL    HW2 5064   6.470   0.333   1.584
 1389SOL     OW 5065   5.748   0.712   2.098
 1389SOL    HW1 5066   5.684   0.786   2.118
 1389SOL    HW2 5067   5.838   0.736   2.134
 1390SOL     OW 5068   1.533   1.661   4.525
 1390SOL    HW1 5069   1.498   1.751   4.550
 1390SOL    HW2 5070   1.466   1.591   4.550
 1391SOL     OW 5071   0.555   3.272   3.313
 1391SOL    HW1 5072   0.465   3.259   3.354
 1391SOL    HW2 5073   0.606   3.186   3.318
 1392SOL     OW 5074   5.289   4.477   4.222
 1392SOL    HW1 5075   5.191   4.457   4.225
 1392SOL    HW2 5076   5.303   4.576   4.232
 1393SOL     OW 5077   3.491   5.469   6.698
 1393SOL    HW1 5078   3.413   5.489   6.757
 1393SOL    HW2 5079   3.462   5.406   6.626
 1394SOL     OW 5080   1.546   6.038   6.934
 1394SOL    HW1 5081   1.615   6.080   6.874
 1394SOL    HW2 5082   1.462   6.092   6.930
 1395SOL     OW 5083   4.235   4.720   5.908
 1395SOL    HW1 5084   4.167   4.774   5.957
 1395SOL    HW2 5085   4.323   4.725   5.956
 1396SOL     OW 5086   5.952   6.489   3.631
 1396SOL    HW1 5087   5.859   6.525   3.639
 1396SOL    HW2 5088   5.962   6.410   3.691
 1397SOL     OW 5089   5.161   6.299   5.351
 1397SOL    HW1 5090   5.163   6.325   5.447
 1397SOL    HW2 5091   5.232   6.230   5.334
 1398SOL     OW 5092   2.212   0.973   4.182
 1398SOL    HW1 5093   2.153   0.990   4.262
 1398SOL    HW2 5094   2.227   1.058   4.133
 1399SOL     OW 5095   3.168   5.930   2.211
 1399SOL    HW1 5096   3.203   6.005   2.156
 1399SOL    HW2 5097   3.093   5.885   2.163
 1400SOL     OW 5098   1.806   6.800   2.308
 1400SOL    HW1 5099   1.833   6.718   2.258
 1400SOL    HW2 5100   1.777   6.870   2.242
 1401SOL     OW 5101   6.258   1.643   4.194
 1401SOL    HW1 5102   6.353   1.635   4.164
 1401SOL    HW2 5103   6.237   1.739   4.213
 1402SOL     OW 5104   6.186   3.148   0.261
 1402SOL    HW1 5105   6.165   3.156   0.164
 1402SOL    HW2 5106   6.108   3.178   0.315
 1403SOL     OW 5107   3.587   0.476   1.912
 1403SOL    HW1 5108   3.567   0.482   2.010
 1403SOL    HW2 5109   3.549   0.390   1.876
 1404SOL     OW 5110   5.327   1.903   0.205
 1404SOL    HW1 5111   5.383   1.953   0.272
 1404SOL    HW2 5112   5.232   1.903   0.234
 1405SOL     OW 5113   3.321   2.908   1.302
 1405SOL    HW1 5114   3.259   2.949   1.235
 1405SOL    HW2 5115   3.268   2.860   1.372
 1406SOL     OW 5116   1.652   4.593   1.679
 1406SOL    HW1 5117   1.607   4.601   1.768
 1406SOL    HW2 5118   1.604   4.525   1.623
 1407SOL     OW 5119   6.362   2.313   2.824
 1407SOL    HW1 5120   6.446   2.364   2.844
 1407SOL    HW2 5121   6.300   2.319   2.903
 1408SOL     OW 5122   6.332   6.473   6.524
 1408SOL    HW1 5123   6.426   6.494   6.551
 1408SOL    HW2 5124   6.327   6.465   6.425
 1409SOL     OW 5125   0.522   1.468   3.755
 1409SOL    HW1 5126   0.599   1.418   3.717
 1409SOL    HW2 5127   0.496   1.542   3.693
 1410SOL     OW 5128   6.437   2.692   6.814
 1410SOL    HW1 5129   6.361   2.638   6.851
 1410SOL    HW2 5130   6.449   2.775   6.868
 1411SOL     OW 5131   2.065   0.524   1.766
 1411SOL    HW1 5132   2.083   0.457   1.838
 1411SOL    HW2 5133   2.152   0.556   1.728
 1412SOL     OW 5134   1.439   2.736   6.690
 1412SOL    HW1 5135   1.522   2.694   6.652
 1412SOL    HW2 5136   1.465   2.800   6.762
 1413SOL     OW 5137   3.289   6.830   3.431
 1413SOL    HW1 5138   3.279   6.866   3.524
 1413SOL    HW2 5139   3.283   6.730   3.433
 1414SOL     OW 5140   3.154   0.724   1.943
 1414SOL    HW1 5141   3.117   0.814   1.918
 1414SOL    HW2 5142   3.244   0.737   1.986
 1415SOL     OW 5143   4.628   6.404   5.171
 1415SOL    HW1 5144   4.603   6.492   5.210
 1415SOL    HW2 5145   4.639   6.337   5.245
 1416SOL     OW 5146   4.481   5.802   3.286
 1416SOL    HW1 5147   4.486   5.899   3.312
 1416SOL    HW2 5148   4.573   5.763   3.288
 1417SOL     OW 5149   3.135   2.760   6.242
 1417SOL    HW1 5150   3.132   2.689   6.313
 1417SOL    HW2 5151   3.221   2.811   6.249
 1418SOL     OW 5152   3.852   4.046   2.737
 1418SOL    HW1 5153   3.760   4.011   2.719
 1418SOL    HW2 5154   3.875   4.116   2.670
 1419SOL     OW 5155   4.313   6.213   4.421
 1419SOL    HW1 5156   4.368   6.227   4.339
 1419SOL    HW2 5157   4.274   6.301   4.450
 1420SOL     OW 5158   0.519   5.566   1.668
 1420SOL    HW1 5159   0.508   5.543   1.764
 1420SOL    HW2 5160   0.477   5.494   1.612
 1421SOL     OW 5161   3.983   0.990   2.865
 1421SOL    HW1 5162   4.040   0.920   2.823
 1421SOL    HW2 5163   3.918   1.025   2.797
 1422SOL     OW 5164   2.605   6.845   0.180
 1422SOL    HW1 5165   2.566   6.779   0.245
 1422SOL    HW2 5166   2.597   6.937   0.218
 1423SOL     OW 5167   5.226   0.481   2.079
 1423SOL    HW1 5168   5.235   0.381   2.074
 1423SOL    HW2 5169   5.269   0.515   2.163
 1424SOL     OW 5170   7.007   4.976   2.394
 1424SOL    HW1 5171   7.017   5.042   2.320
 1424SOL    HW2 5172   6.955   5.017   2.469
 1425SOL     OW 5173   1.848   6.821   4.383
 1425SOL    HW1 5174   1.806   6.734   4.357
 1425SOL    HW2 5175   1.941   6.805   4.415
 1426SOL     OW 5176   1.820   1.165   5.643
 1426SOL    HW1 5177   1.818   1.197   5.548
 1426SOL    HW2 5178   1.726   1.165   5.679
 1427SOL     OW 5179   6.339   0.733   5.057
 1427SOL    HW1 5180   6.303   0.791   4.984
 1427SOL    HW2 5181   6.395   0.788   5.118
 1428SOL     OW 5182   5.415   1.248   0.240
 1428SOL    HW1 5183   5.369   1.269   0.327
 1428SOL    HW2 5184   5.491   1.311   0.227
 1429SOL     OW 5185   5.613   6.608   7.020
 1429SOL    HW1 5186   5.617   6.706   7.002
 1429SOL    HW2 5187   5.704   6.568   7.015
 1430SOL     OW 5188   1.991   4.105   3.239
 1430SOL    HW1 5189   1.976   4.086   3.142
 1430SOL    HW2 5190   2.075   4.157   3.251
 1431SOL     OW 5191   1.558   0.521   1.316
 1431SOL    HW1 5192   1.511   0.605   1.289
 1431SOL    HW2 5193   1.633   0.502   1.253
 1432SOL     OW 5194   2.670   0.118   1.100
 1432SOL    HW1 5195   2.745   0.064   1.138
 1432SOL    HW2 5196   2.695   0.151   1.009
 1433SOL     OW 5197   4.398   0.319   4.582
 1433SOL    HW1 5198   4.355   0.366   4.506
 1433SOL    HW2 5199   4.472   0.262   4.548
 1434SOL     OW 5200   0.899   0.754   5.112
 1434SOL    HW1 5201   0.919   0.732   5.016
 1434SOL    HW2 5202   0.948   0.836   5.139
 1435SOL     OW 5203   6.707   1.885   3.170
 1435SOL    HW1 5204   6.738   1.814   3.233
 1435SOL    HW2 5205   6.618   1.920   3.201
 1436SOL     OW 5206   4.138   3.921   0.942
 1436SOL    HW1 5207   4.228   3.965   0.948
 1436SOL    HW2 5208   4.134   3.843   1.004
 1437SOL     OW 5209   4.138   1.338   2.282
 1437SOL    HW1 5210   4.042   1.327   2.256
 1437SOL    HW2 5211   4.147   1.323   2.381
 1438SOL     OW 5212   2.667   1.006   1.428
 1438SOL    HW1 5213   2.763   1.034   1.432
 1438SOL    HW2 5214   2.640   0.996   1.332
 1439SOL     OW 5215   0.819   5.646   2.019
 1439SOL    HW1 5216   0.868   5.681   1.938
 1439SOL    HW2 5217   0.754   5.714   2.050
 1440SOL     OW 5218   2.323   3.044   1.717
 1440SOL    HW1 5219   2.258   3.120   1.723
 1440SOL    HW2 5220   2.274   2.958   1.727
 1441SOL     OW 5221   5.219   6.017   0.786
 1441SOL    HW1 5222   5.126   5.985   0.772
 1441SOL    HW2 5223   5.281   5.938   0.794
 1442SOL     OW 5224   5.147   5.197   0.836
 1442SOL    HW1 5225   5.122   5.240   0.749
 1442SOL    HW2 5226   5.192   5.109   0.817
 1443SOL     OW 5227   0.579   2.563   2.421
 1443SOL    HW1 5228   0.640   2.505   2.367
 1443SOL    HW2 5229   0.520   2.615   2.360
 1444SOL     OW 5230   0.565   5.170   6.256
 1444SOL    HW1 5231   0.549   5.246   6.193
 1444SOL    HW2 5232   0.545   5.084   6.209
 1445SOL     OW 5233   1.090   3.536   1.256
 1445SOL    HW1 5234   1.042   3.494   1.333
 1445SOL    HW2 5235   1.174   3.579   1.289
 1446SOL     OW 5236   6.417   5.972   1.152
 1446SOL    HW1 5237   6.450   5.884   1.185
 1446SOL    HW2 5238   6.399   6.032   1.230
 1447SOL     OW 5239   5.852   5.505   4.330
 1447SOL    HW1 5240   5.792   5.578   4.296
 1447SOL    HW2 5241   5.941   5.511   4.284
 1448SOL     OW 5242   1.094   2.651   5.533
 1448SOL    HW1 5243   1.145   2.732   5.505
 1448SOL    HW2 5244   1.069   2.659   5.629
 1449SOL     OW 5245   2.013   3.232   2.865
 1449SOL    HW1 5246   2.028   3.214   2.963
 1449SOL    HW2 5247   1.919   3.210   2.841
 1450SOL     OW 5248   3.044   2.209   4.126
 1450SOL    HW1 5249   3.097   2.221   4.210
 1450SOL    HW2 5250   3.105   2.219   4.047
 1451SOL     OW 5251   3.075   1.294   2.814
 1451SOL    HW1 5252   3.064   1.381   2.862
 1451SOL    HW2 5253   2.987   1.245   2.813
 1452SOL     OW 5254   4.399   2.751   6.638
 1452SOL    HW1 5255   4.391   2.781   6.733
 1452SOL    HW2 5256   4.308   2.745   6.597
 1453SOL     OW 5257   0.100   4.121   5.293
 1453SOL    HW1 5258   0.195   4.131   5.321
 1453SOL    HW2 5259   0.091   4.045   5.229
 1454SOL     OW 5260   3.465   1.873   2.962
 1454SOL    HW1 5261   3.404   1.798   2.937
 1454SOL    HW2 5262   3.464   1.943   2.890
 1455SOL     OW 5263   0.434   5.728   2.221
 1455SOL    HW1 5264   0.360   5.795   2.223
 1455SOL    HW2 5265   0.509   5.763   2.164
 1456SOL     OW 5266   6.397   5.398   4.227
 1456SOL    HW1 5267   6.467   5.470   4.233
 1456SOL    HW2 5268   6.425   5.330   4.159
 1457SOL     OW 5269   1.310   4.978   6.237
 1457SOL    HW1 5270   1.340   5.057   6.183
 1457SOL    HW2 5271   1.240   5.007   6.303
 1458SOL     OW 5272   5.720   5.070   5.302
 1458SOL    HW1 5273   5.644   5.036   5.248
 1458SOL    HW2 5274   5.708   5.168   5.319
 1459SOL     OW 5275   6.187   6.544   5.550
 1459SOL    HW1 5276   6.144   6.496   5.473
 1459SOL    HW2 5277   6.120   6.601   5.596
 1460SOL     OW 5278   1.572   6.511   4.837
 1460SOL    HW1 5279   1.623   6.456   4.903
 1460SOL    HW2 5280   1.522   6.584   4.885
 1461SOL     OW 5281   6.072   2.970   3.768
 1461SOL    HW1 5282   5.991   2.935   3.815
 1461SOL    HW2 5283   6.141   2.898   3.762
 1462SOL     OW 5284   0.307   1.295   1.646
 1462SOL    HW1 5285   0.376   1.235   1.685
 1462SOL    HW2 5286   0.349   1.382   1.620
 1463SOL     OW 5287   1.905   6.246   6.599
 1463SOL    HW1 5288   1.881   6.267   6.504
 1463SOL    HW2 5289   1.977   6.308   6.630
 1464SOL     OW 5290   0.972   4.388   4.132
 1464SOL    HW1 5291   0.955   4.420   4.039
 1464SOL    HW2 5292   1.047   4.440   4.172
 1465SOL     OW 5293   1.054   3.201   4.336
 1465SOL    HW1 5294   1.133   3.186   4.395
 1465SOL    HW2 5295   0.971   3.206   4.392
 1466SOL     OW 5296   5.576   1.393   2.377
 1466SOL    HW1 5297   5.631   1.471   2.408
 1466SOL    HW2 5298   5.509   1.424   2.310
 1467SOL     OW 5299   0.374   0.552   3.843
 1467SOL    HW1 5300   0.449   0.603   3.887
 1467SOL    HW2 5301   0.313   0.517   3.914
 1468SOL     OW 5302   3.247   5.527   2.645
 1468SOL    HW1 5303   3.174   5.596   2.639
 1468SOL    HW2 5304   3.271   5.512   2.741
 1469SOL     OW 5305   5.816   4.093   3.586
 1469SOL    HW1 5306   5.725   4.113   3.550
 1469SOL    HW2 5307   5.882   4.155   3.544
 1470SOL     OW 5308   6.178   1.532   2.382
 1470SOL    HW1 5309   6.133   1.617   2.354
 1470SOL    HW2 5310   6.224   1.546   2.470
 1471SOL     OW 5311   4.658   6.951   0.622
 1471SOL    HW1 5312   4.695   0.001   0.679
 1471SOL    HW2 5313   4.573   6.981   0.578
 1472SOL     OW 5314   1.638   0.493   6.181
 1472SOL    HW1 5315   1.602   0.537   6.099
 1472SOL    HW2 5316   1.715   0.434   6.157
 1473SOL     OW 5317   1.860   5.828   3.666
 1473SOL    HW1 5318   1.842   5.783   3.579
 1473SOL    HW2 5319   1.824   5.921   3.664
 1474SOL     OW 5320   2.904   4.915   1.550
 1474SOL    HW1 5321   2.866   4.846   1.612
 1474SOL    HW2 5322   3.004   4.908   1.550
 1475SOL     OW 5323   6.234   0.222   6.518
 1475SOL    HW1 5324   6.172   0.293   6.486
 1475SOL    HW2 5325   6.326   0.242   6.485
 1476SOL     OW 5326   5.149   0.335   6.619
 1476SOL    HW1 5327   5.084   0.330   6.695
 1476SOL    HW2 5328   5.165   0.243   6.584
 1477SOL     OW 5329   3.440   4.129   1.754
 1477SOL    HW1 5330   3.376   4.161   1.685
 1477SOL    HW2 5331   3.390   4.079   1.825
 1478SOL     OW 5332   4.571   4.849   6.797
 1478SOL    HW1 5333   4.648   4.816   6.852
 1478SOL    HW2 5334   4.598   4.932   6.749
 1479SOL     OW 5335   4.733   3.325   1.441
 1479SOL    HW1 5336   4.771   3.408   1.482
 1479SOL    HW2 5337   4.806   3.269   1.403
 1480SOL     OW 5338   2.819   0.549   4.615
 1480SOL    HW1 5339   2.899   0.517   4.564
 1480SOL    HW2 5340   2.779   0.627   4.567
 1481SOL     OW 5341   4.709   2.758   5.961
 1481SOL    HW1 5342   4.736   2.687   5.896
 1481SOL    HW2 5343   4.786   2.821   5.975
 1482SOL     OW 5344   5.783   1.372   1.233
 1482SOL    HW1 5345   5.745   1.381   1.325
 1482SOL    HW2 5346   5.876   1.338   1.238
 1483SOL     OW 5347   6.433   1.139   0.248
 1483SOL    HW1 5348   6.526   1.142   0.213
 1483SOL    HW2 5349   6.371   1.105   0.177
 1484SOL     OW 5350   3.354   5.475   5.403
 1484SOL    HW1 5351   3.451   5.482   5.425
 1484SOL    HW2 5352   3.322   5.562   5.366
 1485SOL     OW 5353   4.915   3.206   3.237
 1485SOL    HW1 5354   4.938   3.247   3.148
 1485SOL    HW2 5355   4.864   3.121   3.221
 1486SOL     OW 5356   4.695   5.645   3.887
 1486SOL    HW1 5357   4.689   5.719   3.820
 1486SOL    HW2 5358   4.699   5.557   3.838
 1487SOL     OW 5359   6.857   1.058   0.671
 1487SOL    HW1 5360   6.794   1.080   0.745
 1487SOL    HW2 5361   6.902   0.971   0.690
 1488SOL     OW 5362   6.256   2.135   2.649
 1488SOL    HW1 5363   6.237   2.175   2.559
 1488SOL    HW2 5364   6.294   2.205   2.709
 1489SOL     OW 5365   3.005   4.963   0.085
 1489SOL    HW1 5366   3.086   5.012   0.054
 1489SOL    HW2 5367   2.937   4.959   0.011
 1490SOL     OW 5368   6.120   2.864   2.718
 1490SOL    HW1 5369   6.210   2.835   2.684
 1490SOL    HW2 5370   6.062   2.890   2.641
 1491SOL     OW 5371   5.892   2.312   3.406
 1491SOL    HW1 5372   5.832   2.363   3.468
 1491SOL    HW2 5373   5.837   2.266   3.336
 1492SOL     OW 5374   6.912   2.102   2.774
 1492SOL    HW1 5375   6.816   2.128   2.773
 1492SOL    HW2 5376   6.931   2.040   2.698
 1493SOL     OW 5377   5.825   2.125   6.267
 1493SOL    HW1 5378   5.886   2.046   6.273
 1493SOL    HW2 5379   5.791   2.133   6.173
 1494SOL     OW 5380   0.280   4.787   6.604
 1494SOL    HW1 5381   0.249   4.880   6.584
 1494SOL    HW2 5382   0.203   4.724   6.601
 1495SOL     OW 5383   6.597   3.655   4.316
 1495SOL    HW1 5384   6.618   3.583   4.382
 1495SOL    HW2 5385   6.522   3.712   4.350
 1496SOL     OW 5386   6.440   6.523   5.865
 1496SOL    HW1 5387   6.507   6.562   5.802
 1496SOL    HW2 5388   6.357   6.578   5.864
 1497SOL     OW 5389   6.230   2.323   2.432
 1497SOL    HW1 5390   6.211   2.324   2.334
 1497SOL    HW2 5391   6.144   2.333   2.482
 1498SOL     OW 5392   3.338   4.090   0.700
 1498SOL    HW1 5393   3.363   4.122   0.609
 1498SOL    HW2 5394   3.335   3.990   0.701
 1499SOL     OW 5395   0.238   4.691   4.220
 1499SOL    HW1 5396   0.218   4.731   4.131
 1499SOL    HW2 5397   0.292   4.608   4.208
 1500SOL     OW 5398   0.991   5.944   1.995
 1500SOL    HW1 5399   1.055   5.867   2.000
 1500SOL    HW2 5400   1.018   6.014   2.061
 1501SOL     OW 5401   6.593   1.783   0.807
 1501SOL    HW1 5402   6.567   1.836   0.726
 1501SOL    HW2 5403   6.687   1.751   0.797
 1502SOL     OW 5404   6.875   6.894   6.417
 1502SOL    HW1 5405   6.855   6.824   6.349
 1502SOL    HW2 5406   6.790   6.935   6.449
 1503SOL     OW 5407   0.474   4.647   1.670
 1503SOL    HW1 5408   0.397   4.712   1.672
 1503SOL    HW2 5409   0.560   4.697   1.678
 1504SOL     OW 5410   2.210   6.912   2.447
 1504SOL    HW1 5411   2.276   6.856   2.497
 1504SOL    HW2 5412   2.122   6.910   2.495
 1505SOL     OW 5413   6.336   5.203   5.090
 1505SOL    HW1 5414   6.426   5.247   5.083
 1505SOL    HW2 5415   6.288   5.213   5.003
 1506SOL     OW 5416   0.776   0.875   0.592
 1506SOL    HW1 5417   0.680   0.869   0.620
 1506SOL    HW2 5418   0.797   0.801   0.529
 1507SOL     OW 5419   2.768   2.332   3.552
 1507SOL    HW1 5420   2.677   2.292   3.543
 1507SOL    HW2 5421   2.793   2.379   3.467
 1508SOL     OW 5422   2.068   0.856   1.630
 1508SOL    HW1 5423   2.116   0.930   1.676
 1508SOL    HW2 5424   2.065   0.873   1.532
 1509SOL     OW 5425   5.564   0.959   4.241
 1509SOL    HW1 5426   5.541   0.962   4.143
 1509SOL    HW2 5427   5.532   1.042   4.285
 1510SOL     OW 5428   3.494   5.926   5.106
 1510SOL    HW1 5429   3.467   6.022   5.102
 1510SOL    HW2 5430   3.588   5.919   5.139
 1511SOL     OW 5431   2.961   3.798   5.224
 1511SOL    HW1 5432   2.928   3.708   5.252
 1511SOL    HW2 5433   2.894   3.868   5.249
 1512SOL     OW 5434   5.354   6.317   1.049
 1512SOL    HW1 5435   5.296   6.368   1.112
 1512SOL    HW2 5436   5.312   6.315   0.959
 1513SOL     OW 5437   2.485   0.325   5.663
 1513SOL    HW1 5438   2.529   0.252   5.715
 1513SOL    HW2 5439   2.508   0.414   5.703
 1514SOL     OW 5440   2.983   2.511   6.683
 1514SOL    HW1 5441   3.016   2.538   6.593
 1514SOL    HW2 5442   2.883   2.502   6.680
 1515SOL     OW 5443   3.761   0.647   2.707
 1515SOL    HW1 5444   3.849   0.682   2.741
 1515SOL    HW2 5445   3.699   0.633   2.784
 1516SOL     OW 5446   6.200   6.659   5.917
 1516SOL    HW1 5447   6.157   6.750   5.913
 1516SOL    HW2 5448   6.136   6.594   5.957
 1517SOL     OW 5449   2.849   6.318   3.477
 1517SOL    HW1 5450   2.896   6.281   3.397
 1517SOL    HW2 5451   2.912   6.322   3.554
 1518SOL     OW 5452   0.743   3.152   6.470
 1518SOL    HW1 5453   0.694   3.086   6.413
 1518SOL    HW2 5454   0.738   3.243   6.427
 1519SOL     OW 5455   6.945   5.078   0.066
 1519SOL    HW1 5456   6.911   5.081   6.996
 1519SOL    HW2 5457   6.963   5.171   0.098
 1520SOL     OW 5458   0.665   6.374   3.563
 1520SOL    HW1 5459   0.724   6.454   3.554
 1520SOL    HW2 5460   0.587   6.383   3.501
 1521SOL     OW 5461   2.005   5.208   6.096
 1521SOL    HW1 5462   2.102   5.222   6.119
 1521SOL    HW2 5463   1.983   5.258   6.013
 1522SOL     OW 5464   5.712   5.992   4.251
 1522SOL    HW1 5465   5.788   6.058   4.250
 1522SOL    HW2 5466   5.638   6.027   4.308
 1523SOL     OW 5467   3.142   6.374   0.807
 1523SOL    HW1 5468   3.052   6.355   0.769
 1523SOL    HW2 5469   3.143   6.350   0.904
 1524SOL     OW 5470   2.190   1.581   3.899
 1524SOL    HW1 5471   2.185   1.601   3.801
 1524SOL    HW2 5472   2.283   1.600   3.932
 1525SOL     OW 5473   5.299   4.453   6.917
 1525SOL    HW1 5474   5.399   4.452   6.911
 1525SOL    HW2 5475   5.262   4.511   6.844
 1526SOL     OW 5476   1.296   1.600   0.833
 1526SOL    HW1 5477   1.254   1.614   0.922
 1526SOL    HW2 5478   1.275   1.507   0.801
 1527SOL     OW 5479   4.881   2.040   4.535
 1527SOL    HW1 5480   4.800   2.071   4.485
 1527SOL    HW2 5481   4.962   2.086   4.498
 1528SOL     OW 5482   3.398   3.614   2.424
 1528SOL    HW1 5483   3.347   3.573   2.349
 1528SOL    HW2 5484   3.373   3.569   2.510
 1529SOL     OW 5485   4.818   1.869   6.039
 1529SOL    HW1 5486   4.738   1.866   6.099
 1529SOL    HW2 5487   4.820   1.786   5.983
 1530SOL     OW 5488   2.279   6.778   1.148
 1530SOL    HW1 5489   2.185   6.780   1.113
 1530SOL    HW2 5490   2.338   6.832   1.088
 1531SOL     OW 5491   4.768   5.730   4.452
 1531SOL    HW1 5492   4.724   5.730   4.362
 1531SOL    HW2 5493   4.725   5.799   4.510
 1532SOL     OW 5494   3.014   5.653   0.921
 1532SOL    HW1 5495   3.053   5.694   0.839
 1532SOL    HW2 5496   3.050   5.560   0.932
 1533SOL     OW 5497   5.550   5.837   1.117
 1533SOL    HW1 5498   5.457   5.807   1.093
 1533SOL    HW2 5499   5.616   5.791   1.058
 1534SOL     OW 5500   2.711   5.059   6.704
 1534SOL    HW1 5501   2.731   5.013   6.617
 1534SOL    HW2 5502   2.615   5.088   6.704
 1535SOL     OW 5503   5.610   4.336   3.785
 1535SOL    HW1 5504   5.527   4.376   3.825
 1535SOL    HW2 5505   5.592   4.312   3.690
 1536SOL     OW 5506   4.451   3.790   6.997
 1536SOL    HW1 5507   4.544   3.820   7.015
 1536SOL    HW2 5508   4.452   3.725   6.920
 1537SOL     OW 5509   3.012   5.211   2.613
 1537SOL    HW1 5510   3.014   5.219   2.513
 1537SOL    HW2 5511   2.931   5.259   2.648
 1538SOL     OW 5512   2.606   1.269   0.553
 1538SOL    HW1 5513   2.623   1.286   0.651
 1538SOL    HW2 5514   2.638   1.177   0.529
 1539SOL     OW 5515   5.770   3.237   0.707
 1539SOL    HW1 5516   5.815   3.182   0.637
 1539SOL    HW2 5517   5.699   3.183   0.751
 1540SOL     OW 5518   3.863   6.814   3.211
 1540SOL    HW1 5519   3.814   6.852   3.133
 1540SOL    HW2 5520   3.864   6.880   3.286
 1541SOL     OW 5521   4.113   2.699   5.793
 1541SOL    HW1 5522   4.174   2.652   5.856
 1541SOL    HW2 5523   4.069   2.775   5.840
 1542SOL     OW 5524   0.198   5.348   2.684
 1542SOL    HW1 5525   0.294   5.329   2.666
 1542SOL    HW2 5526   0.186   5.446   2.698
 1543SOL     OW 5527   2.940   5.313   0.513
 1543SOL    HW1 5528   3.022   5.365   0.489
 1543SOL    HW2 5529   2.930   5.237   0.449
 1544SOL     OW 5530   3.793   3.383   3.933
 1544SOL    HW1 5531   3.857   3.392   4.010
 1544SOL    HW2 5532   3.708   3.431   3.955
 1545SOL     OW 5533   5.393   5.538   1.795
 1545SOL    HW1 5534   5.449   5.480   1.736
 1545SOL    HW2 5535   5.312   5.488   1.825
 1546SOL     OW 5536   5.755   6.176   5.642
 1546SOL    HW1 5537   5.703   6.092   5.632
 1546SOL    HW2 5538   5.849   6.161   5.612
 1547SOL     OW 5539   2.186   3.314   6.483
 1547SOL    HW1 5540   2.229   3.347   6.400
 1547SOL    HW2 5541   2.108   3.257   6.460
 1548SOL     OW 5542   6.837   2.540   0.868
 1548SOL    HW1 5543   6.796   2.628   0.844
 1548SOL    HW2 5544   6.896   2.552   0.947
 1549SOL     OW 5545   5.167   1.117   4.608
 1549SOL    HW1 5546   5.240   1.068   4.561
 1549SOL    HW2 5547   5.202   1.156   4.693
 1550SOL     OW 5548   3.742   3.035   4.096
 1550SOL    HW1 5549   3.675   3.004   4.028
 1550SOL    HW2 5550   3.722   3.129   4.122
 1551SOL     OW 5551   6.800   4.939   5.325
 1551SOL    HW1 5552   6.740   4.965   5.249
 1551SOL    HW2 5553   6.759   4.969   5.411
 1552SOL     OW 5554   2.064   4.043   1.411
 1552SOL    HW1 5555   2.056   4.131   1.365
 1552SOL    HW2 5556   2.092   4.057   1.506
 1553SOL     OW 5557   1.879   2.165   6.221
 1553SOL    HW1 5558   1.794   2.121   6.191
 1553SOL    HW2 5559   1.896   2.245   6.165
 1554SOL     OW 5560   3.833   1.803   3.667
 1554SOL    HW1 5561   3.821   1.900   3.649
 1554SOL    HW2 5562   3.743   1.760   3.681
 1555SOL     OW 5563   5.940   4.940   5.407
 1555SOL    HW1 5564   6.002   5.003   5.454
 1555SOL    HW2 5565   5.876   4.992   5.350
 1556SOL     OW 5566   2.045   1.052   5.740
 1556SOL    HW1 5567   1.971   1.118   5.730
 1556SOL    HW2 5568   2.084   1.032   5.650
 1557SOL     OW 5569   0.242   2.362   4.943
 1557SOL    HW1 5570   0.225   2.297   4.869
 1557SOL    HW2 5571   0.308   2.323   5.008
 1558SOL     OW 5572   0.531   6.695   4.676
 1558SOL    HW1 5573   0.609   6.649   4.633
 1558SOL    HW2 5574   0.472   6.734   4.605
 1559SOL     OW 5575   1.300   1.444   5.831
 1559SOL    HW1 5576   1.211   1.404   5.810
 1559SOL    HW2 5577   1.360   1.433   5.752
 1560SOL     OW 5578   0.259   0.527   0.041
 1560SOL    HW1 5579   0.357   0.510   0.046
 1560SOL    HW2 5580   0.233   0.548   6.971
 1561SOL     OW 5581   6.113   6.182   2.189
 1561SOL    HW1 5582   6.054   6.140   2.258
 1561SOL    HW2 5583   6.059   6.204   2.108
 1562SOL     OW 5584   6.194   0.665   3.888
 1562SOL    HW1 5585   6.139   0.733   3.839
 1562SOL    HW2 5586   6.242   0.709   3.963
 1563SOL     OW 5587   3.245   6.917   5.855
 1563SOL    HW1 5588   3.336   6.879   5.872
 1563SOL    HW2 5589   3.186   6.847   5.816
 1564SOL     OW 5590   0.731   2.094   3.108
 1564SOL    HW1 5591   0.824   2.122   3.135
 1564SOL    HW2 5592   0.693   2.033   3.177
 1565SOL     OW 5593   6.457   4.054   1.512
 1565SOL    HW1 5594   6.554   4.079   1.519
 1565SOL    HW2 5595   6.428   4.010   1.597
 1566SOL     OW 5596   6.127   4.394   3.173
 1566SOL    HW1 5597   6.069   4.314   3.156
 1566SOL    HW2 5598   6.143   4.442   3.086
 1567SOL     OW 5599   6.463   5.710   5.255
 1567SOL    HW1 5600   6.382   5.744   5.206
 1567SOL    HW2 5601   6.541   5.768   5.235
 1568SOL     OW 5602   0.382   6.925   6.862
 1568SOL    HW1 5603   0.467   6.958   6.903
 1568SOL    HW2 5604   0.321   7.003   6.845
 1569SOL     OW 5605   3.266   6.361   4.952
 1569SOL    HW1 5606   3.231   6.423   5.023
 1569SOL    HW2 5607   3.295   6.414   4.873
 1570SOL     OW 5608   3.144   2.041   2.022
 1570SOL    HW1 5609   3.086   2.072   2.097
 1570SOL    HW2 5610   3.114   2.084   1.937
 1571SOL     OW 5611   6.917   3.853   0.624
 1571SOL    HW1 5612   6.939   3.757   0.640
 1571SOL    HW2 5613   6.999   3.909   0.639
 1572SOL     OW 5614   1.562   5.643   2.620
 1572SOL    HW1 5615   1.535   5.591   2.539
 1572SOL    HW2 5616   1.607   5.582   2.685
 1573SOL     OW 5617   4.449   0.403   0.503
 1573SOL    HW1 5618   4.505   0.366   0.577
 1573SOL    HW2 5619   4.480   0.496   0.482
 1574SOL     OW 5620   5.800   2.284   1.976
 1574SOL    HW1 5621   5.885   2.290   1.923
 1574SOL    HW2 5622   5.722   2.296   1.916
 1575SOL     OW 5623   3.284   1.967   0.267
 1575SOL    HW1 5624   3.260   2.064   0.258
 1575SOL    HW2 5625   3.205   1.916   0.301
 1576SOL     OW 5626   6.203   5.526   3.307
 1576SOL    HW1 5627   6.226   5.513   3.404
 1576SOL    HW2 5628   6.123   5.470   3.284
 1577SOL     OW 5629   1.264   0.275   0.160
 1577SOL    HW1 5630   1.194   0.300   0.093
 1577SOL    HW2 5631   1.222   0.264   0.249
 1578SOL     OW 5632   6.002   5.376   4.958
 1578SOL    HW1 5633   5.947   5.355   5.039
 1578SOL    HW2 5634   5.951   5.351   4.876
 1579SOL     OW 5635   0.094   0.105   3.367
 1579SOL    HW1 5636   0.029   0.167   3.322
 1579SOL    HW2 5637   0.187   0.129   3.341
 1580SOL     OW 5638   3.012   3.758   6.017
 1580SOL    HW1 5639   2.976   3.778   6.108
 1580SOL    HW2 5640   2.937   3.747   5.952
 1581SOL     OW 5641   6.044   3.889   4.710
 1581SOL    HW1 5642   5.951   3.917   4.690
 1581SOL    HW2 5643   6.108   3.934   4.648
 1582SOL     OW 5644   5.939   6.241   5.116
 1582SOL    HW1 5645   5.975   6.235   5.022
 1582SOL    HW2 5646   5.918   6.336   5.137
 1583SOL     OW 5647   2.111   1.916   2.316
 1583SOL    HW1 5648   2.042   1.973   2.270
 1583SOL    HW2 5649   2.190   1.972   2.339
 1584SOL     OW 5650   2.443   0.771   6.257
 1584SOL    HW1 5651   2.490   0.859   6.258
 1584SOL    HW2 5652   2.427   0.742   6.163
 1585SOL     OW 5653   5.679   1.129   5.829
 1585SOL    HW1 5654   5.580   1.145   5.830
 1585SOL    HW2 5655   5.725   1.210   5.794
 1586SOL     OW 5656   3.832   4.064   3.217
 1586SOL    HW1 5657   3.913   4.017   3.182
 1586SOL    HW2 5658   3.832   4.063   3.317
 1587SOL     OW 5659   2.382   6.631   6.436
 1587SOL    HW1 5660   2.348   6.651   6.344
 1587SOL    HW2 5661   2.369   6.711   6.495
 1588SOL     OW 5662   5.747   3.989   1.651
 1588SOL    HW1 5663   5.814   3.930   1.696
 1588SOL    HW2 5664   5.754   4.081   1.689
 1589SOL     OW 5665   5.090   4.656   3.195
 1589SOL    HW1 5666   4.992   4.654   3.173
 1589SOL    HW2 5667   5.108   4.593   3.270
 1590SOL     OW 5668   2.049   6.908   5.103
 1590SOL    HW1 5669   1.960   6.863   5.115
 1590SOL    HW2 5670   2.060   6.978   5.174
 1591SOL     OW 5671   1.151   3.573   0.944
 1591SOL    HW1 5672   1.083   3.538   0.880
 1591SOL    HW2 5673   1.144   3.524   1.031
 1592SOL     OW 5674   3.226   4.058   3.753
 1592SOL    HW1 5675   3.308   4.104   3.720
 1592SOL    HW2 5676   3.222   4.062   3.853
 1593SOL     OW 5677   1.243   5.007   4.369
 1593SOL    HW1 5678   1.206   4.984   4.459
 1593SOL    HW2 5679   1.341   4.989   4.367
 1594SOL     OW 5680   1.268   4.882   3.198
 1594SOL    HW1 5681   1.211   4.866   3.278
 1594SOL    HW2 5682   1.227   4.838   3.118
 1595SOL     OW 5683   6.746   4.983   5.060
 1595SOL    HW1 5684   6.656   4.941   5.074
 1595SOL    HW2 5685   6.764   4.992   4.962
 1596SOL     OW 5686   2.862   5.580   0.068
 1596SOL    HW1 5687   2.895   5.491   0.100
 1596SOL    HW2 5688   2.895   5.596   7.000
 1597SOL     OW 5689   2.075   0.322   0.113
 1597SOL    HW1 5690   2.006   0.360   0.052
 1597SOL    HW2 5691   2.032   0.258   0.177
 1598SOL     OW 5692   6.688   4.945   1.608
 1598SOL    HW1 5693   6.723   4.852   1.619
 1598SOL    HW2 5694   6.740   5.007   1.667
 1599SOL     OW 5695   2.976   4.896   0.346
 1599SOL    HW1 5696   2.988   4.933   0.254
 1599SOL    HW2 5697   2.900   4.943   0.391
 1600SOL     OW 5698   2.867   1.003   5.322
 1600SOL    HW1 5699   2.964   1.025   5.312
 1600SOL    HW2 5700   2.815   1.086   5.338
 1601SOL     OW 5701   1.123   5.102   5.049
 1601SOL    HW1 5702   1.041   5.158   5.039
 1601SOL    HW2 5703   1.194   5.154   5.095
 1602SOL     OW 5704   0.855   3.484   2.213
 1602SOL    HW1 5705   0.817   3.493   2.305
 1602SOL    HW2 5706   0.831   3.395   2.175
 1603SOL     OW 5707   5.598   6.434   0.581
 1603SOL    HW1 5708   5.581   6.359   0.646
 1603SOL    HW2 5709   5.695   6.459   0.585
 1604SOL     OW 5710   0.415   5.432   4.770
 1604SOL    HW1 5711   0.471   5.507   4.806
 1604SOL    HW2 5712   0.409   5.439   4.671
 1605SOL     OW 5713   5.362   6.312   3.049
 1605SOL    HW1 5714   5.303   6.392   3.047
 1605SOL    HW2 5715   5.401   6.296   2.958
 1606SOL     OW 5716   5.527   6.356   5.191
 1606SOL    HW1 5717   5.554   6.413   5.269
 1606SOL    HW2 5718   5.490   6.414   5.119
 1607SOL     OW 5719   4.621   2.920   0.948
 1607SOL    HW1 5720   4.720   2.927   0.965
 1607SOL    HW2 5721   4.580   3.010   0.954
 1608SOL     OW 5722   2.584   0.677   0.387
 1608SOL    HW1 5723   2.522   0.609   0.348
 1608SOL    HW2 5724   2.554   0.701   0.479
 1609SOL     OW 5725   5.191   1.029   5.728
 1609SOL    HW1 5726   5.112   1.033   5.789
 1609SOL    HW2 5727   5.161   1.045   5.634
 1610SOL     OW 5728   5.316   6.392   3.819
 1610SOL    HW1 5729   5.362   6.399   3.908
 1610SOL    HW2 5730   5.381   6.358   3.750
 1611SOL     OW 5731   4.153   2.865   1.724
 1611SOL    HW1 5732   4.116   2.774   1.706
 1611SOL    HW2 5733   4.252   2.864   1.713
 1612SOL     OW 5734   3.514   0.875   4.493
 1612SOL    HW1 5735   3.494   0.861   4.590
 1612SOL    HW2 5736   3.537   0.972   4.478
 1613SOL     OW 5737   2.013   0.118   0.806
 1613SOL    HW1 5738   2.012   0.039   0.745
 1613SOL    HW2 5739   1.938   0.111   0.871
 1614SOL     OW 5740   0.465   2.857   5.815
 1614SOL    HW1 5741   0.456   2.789   5.743
 1614SOL    HW2 5742   0.375   2.894   5.838
 1615SOL     OW 5743   6.351   5.046   5.709
 1615SOL    HW1 5744   6.366   4.980   5.636
 1615SOL    HW2 5745   6.355   5.000   5.798
 1616SOL     OW 5746   2.652   1.825   5.778
 1616SOL    HW1 5747   2.555   1.827   5.753
 1616SOL    HW2 5748   2.707   1.857   5.701
 1617SOL     OW 5749   4.225   0.387   4.314
 1617SOL    HW1 5750   4.265   0.404   4.225
 1617SOL    HW2 5751   4.177   0.300   4.314
 1618SOL     OW 5752   5.878   2.572   1.827
 1618SOL    HW1 5753   5.885   2.623   1.742
 1618SOL    HW2 5754   5.947   2.500   1.829
 1619SOL     OW 5755   1.942   2.926   4.896
 1619SOL    HW1 5756   2.041   2.927   4.882
 1619SOL    HW2 5757   1.897   2.973   4.821
 1620SOL     OW 5758   3.644   5.771   1.491
 1620SOL    HW1 5759   3.709   5.791   1.564
 1620SOL    HW2 5760   3.564   5.725   1.528
 1621SOL     OW 5761   2.040   1.578   2.214
 1621SOL    HW1 5762   2.127   1.623   2.192
 1621SOL    HW2 5763   1.974   1.647   2.244
 1622SOL     OW 5764   1.858   2.442   4.804
 1622SOL    HW1 5765   1.858   2.504   4.883
 1622SOL    HW2 5766   1.922   2.368   4.820
 1623SOL     OW 5767   2.344   1.958   4.864
 1623SOL    HW1 5768   2.374   1.969   4.769
 1623SOL    HW2 5769   2.420   1.979   4.925
 1624SOL     OW 5770   2.108   0.806   0.885
 1624SOL    HW1 5771   2.206   0.796   0.898
 1624SOL    HW2 5772   2.078   0.747   0.810
 1625SOL     OW 5773   0.459   5.715   1.434
 1625SOL    HW1 5774   0.447   5.698   1.532
 1625SOL    HW2 5775   0.400   5.653   1.382
 1626SOL     OW 5776   2.035   2.842   5.912
 1626SOL    HW1 5777   2.011   2.881   5.823
 1626SOL    HW2 5778   2.135   2.838   5.921
 1627SOL     OW 5779   5.200   3.041   3.743
 1627SOL    HW1 5780   5.172   2.999   3.656
 1627SOL    HW2 5781   5.221   2.969   3.809
 1628SOL     OW 5782   2.886   3.320   0.220
 1628SOL    HW1 5783   2.850   3.317   0.127
 1628SOL    HW2 5784   2.978   3.280   0.222
 1629SOL     OW 5785   3.250   2.145   2.908
 1629SOL    HW1 5786   3.257   2.126   3.006
 1629SOL    HW2 5787   3.340   2.168   2.872
 1630SOL     OW 5788   6.377   5.009   4.463
 1630SOL    HW1 5789   6.344   5.101   4.485
 1630SOL    HW2 5790   6.341   4.981   4.373
 1631SOL     OW 5791   0.532   6.233   5.747
 1631SOL    HW1 5792   0.542   6.181   5.662
 1631SOL    HW2 5793   0.607   6.298   5.755
 1632SOL     OW 5794   4.859   0.143   0.457
 1632SOL    HW1 5795   4.931   0.212   0.469
 1632SOL    HW2 5796   4.895   0.067   0.403
 1633SOL     OW 5797   5.728   3.312   3.421
 1633SOL    HW1 5798   5.739   3.376   3.497
 1633SOL    HW2 5799   5.809   3.254   3.414
 1634SOL     OW 5800   3.924   0.697   0.479
 1634SOL    HW1 5801   3.969   0.645   0.551
 1634SOL    HW2 5802   3.825   0.684   0.485
 1635SOL     OW 5803   0.909   4.734   4.286
 1635SOL    HW1 5804   0.923   4.684   4.371
 1635SOL    HW2 5805   0.891   4.669   4.211
 1636SOL     OW 5806   2.411   6.366   0.884
 1636SOL    HW1 5807   2.460   6.425   0.819
 1636SOL    HW2 5808   2.403   6.274   0.846
 1637SOL     OW 5809   0.961   2.376   2.888
 1637SOL    HW1 5810   0.982   2.419   2.976
 1637SOL    HW2 5811   0.889   2.308   2.900
 1638SOL     OW 5812   1.330   2.881   5.748
 1638SOL    HW1 5813   1.277   2.859   5.830
 1638SOL    HW2 5814   1.270   2.883   5.668
 1639SOL     OW 5815   4.626   4.891   2.930
 1639SOL    HW1 5816   4.544   4.928   2.972
 1639SOL    HW2 5817   4.606   4.800   2.892
 1640SOL     OW 5818   5.454   0.480   1.019
 1640SOL    HW1 5819   5.545   0.497   0.983
 1640SOL    HW2 5820   5.389   0.542   0.974
 1641SOL     OW 5821   6.611   2.986   5.479
 1641SOL    HW1 5822   6.693   3.018   5.526
 1641SOL    HW2 5823   6.619   2.888   5.461
 1642SOL     OW 5824   0.461   2.293   1.450
 1642SOL    HW1 5825   0.522   2.218   1.476
 1642SOL    HW2 5826   0.408   2.267   1.370
 1643SOL     OW 5827   4.038   0.891   5.832
 1643SOL    HW1 5828   3.995   0.808   5.796
 1643SOL    HW2 5829   4.115   0.865   5.891
 1644SOL     OW 5830   3.336   1.051   0.345
 1644SOL    HW1 5831   3.429   1.038   0.379
 1644SOL    HW2 5832   3.334   1.038   0.246
 1645SOL     OW 5833   1.835   6.294   6.032
 1645SOL    HW1 5834   1.786   6.367   6.079
 1645SOL    HW2 5835   1.787   6.271   5.947
 1646SOL     OW 5836   1.562   4.178   0.277
 1646SOL    HW1 5837   1.487   4.209   0.334
 1646SOL    HW2 5838   1.574   4.080   0.288
 1647SOL     OW 5839   5.718   2.695   2.817
 1647SOL    HW1 5840   5.695   2.655   2.728
 1647SOL    HW2 5841   5.782   2.635   2.865
 1648SOL     OW 5842   4.147   0.309   2.718
 1648SOL    HW1 5843   4.158   0.244   2.643
 1648SOL    HW2 5844   4.059   0.356   2.709
 1649SOL     OW 5845   2.559   0.052   3.031
 1649SOL    HW1 5846   2.596   6.996   3.077
 1649SOL    HW2 5847   2.476   0.026   2.981
 1650SOL     OW 5848   3.182   6.923   4.029
 1650SOL    HW1 5849   3.188   6.938   4.127
 1650SOL    HW2 5850   3.261   6.870   3.998
 1651SOL     OW 5851   1.714   0.214   1.596
 1651SOL    HW1 5852   1.748   0.304   1.623
 1651SOL    HW2 5853   1.789   0.162   1.554
 1652SOL     OW 5854   2.926   3.171   1.744
 1652SOL    HW1 5855   2.975   3.257   1.729
 1652SOL    HW2 5856   2.837   3.175   1.697
 1653SOL     OW 5857   1.465   5.030   1.027
 1653SOL    HW1 5858   1.558   5.021   1.063
 1653SOL    HW2 5859   1.432   4.940   1.000
 1654SOL     OW 5860   0.407   2.006   3.548
 1654SOL    HW1 5861   0.461   2.047   3.622
 1654SOL    HW2 5862   0.341   1.942   3.587
 1655SOL     OW 5863   4.746   4.514   5.556
 1655SOL    HW1 5864   4.698   4.566   5.626
 1655SOL    HW2 5865   4.804   4.444   5.598
 1656SOL     OW 5866   0.592   4.235   2.538
 1656SOL    HW1 5867   0.504   4.239   2.491
 1656SOL    HW2 5868   0.587   4.166   2.611
 1657SOL     OW 5869   1.238   6.987   5.227
 1657SOL    HW1 5870   1.338   6.982   5.220
 1657SOL    HW2 5871   1.208   0.055   5.204
 1658SOL     OW 5872   6.544   6.676   3.033
 1658SOL    HW1 5873   6.603   6.620   2.975
 1658SOL    HW2 5874   6.455   6.631   3.044
 1659SOL     OW 5875   5.005   2.218   6.209
 1659SOL    HW1 5876   5.025   2.121   6.192
 1659SOL    HW2 5877   4.991   2.232   6.307
 1660SOL     OW 5878   2.337   6.198   3.267
 1660SOL    HW1 5879   2.367   6.139   3.342
 1660SOL    HW2 5880   2.243   6.177   3.243
 1661SOL     OW 5881   3.114   0.076   3.016
 1661SOL    HW1 5882   3.156   0.071   2.925
 1661SOL    HW2 5883   3.157   0.149   3.068
 1662SOL     OW 5884   0.050   0.743   2.992
 1662SOL    HW1 5885   0.032   0.813   2.923
 1662SOL    HW2 5886   0.009   0.770   3.079
 1663SOL     OW 5887   1.904   0.303   3.616
 1663SOL    HW1 5888   1.806   0.302   3.634
 1663SOL    HW2 5889   1.927   0.383   3.561
 1664SOL     OW 5890   2.396   4.715   4.336
 1664SOL    HW1 5891   2.388   4.616   4.346
 1664SOL    HW2 5892   2.491   4.738   4.312
 1665SOL     OW 5893   1.207   0.731   3.956
 1665SOL    HW1 5894   1.139   0.701   3.889
 1665SOL    HW2 5895   1.186   0.825   3.984
 1666SOL     OW 5896   5.154   3.504   6.466
 1666SOL    HW1 5897   5.152   3.437   6.540
 1666SOL    HW2 5898   5.114   3.465   6.384
 1667SOL     OW 5899   6.875   0.964   6.739
 1667SOL    HW1 5900   6.872   0.936   6.835
 1667SOL    HW2 5901   6.787   1.004   6.714
 1668SOL     OW 5902   2.004   0.398   4.830
 1668SOL    HW1 5903   2.022   0.372   4.925
 1668SOL    HW2 5904   1.962   0.321   4.782
 1669SOL     OW 5905   6.160   6.154   6.484
 1669SOL    HW1 5906   6.183   6.059   6.505
 1669SOL    HW2 5907   6.195   6.213   6.556
 1670SOL     OW 5908   6.261   3.558   6.717
 1670SOL    HW1 5909   6.245   3.626   6.789
 1670SOL    HW2 5910   6.354   3.570   6.680
 1671SOL     OW 5911   6.321   4.984   0.413
 1671SOL    HW1 5912   6.411   4.993   0.456
 1671SOL    HW2 5913   6.284   5.075   0.394
 1672SOL     OW 5914   2.033   5.456   2.156
 1672SOL    HW1 5915   2.068   5.545   2.185
 1672SOL    HW2 5916   2.058   5.387   2.225
 1673SOL     OW 5917   6.532   2.106   3.346
 1673SOL    HW1 5918   6.500   2.195   3.380
 1673SOL    HW2 5919   6.476   2.077   3.269
 1674SOL     OW 5920   2.055   5.387   6.948
 1674SOL    HW1 5921   2.050   5.453   7.023
 1674SOL    HW2 5922   2.082   5.298   6.984
 1675SOL     OW 5923   4.796   2.193   0.527
 1675SOL    HW1 5924   4.780   2.241   0.441
 1675SOL    HW2 5925   4.755   2.245   0.602
 1676SOL     OW 5926   2.788   1.181   4.142
 1676SOL    HW1 5927   2.721   1.177   4.216
 1676SOL    HW2 5928   2.876   1.148   4.176
 1677SOL     OW 5929   5.905   0.546   5.525
 1677SOL    HW1 5930   5.869   0.573   5.436
 1677SOL    HW2 5931   5.924   0.448   5.526
 1678SOL     OW 5932   5.122   0.377   1.493
 1678SOL    HW1 5933   5.136   0.348   1.398
 1678SOL    HW2 5934   5.065   0.309   1.540
 1679SOL     OW 5935   5.578   4.494   0.318
 1679SOL    HW1 5936   5.559   4.590   0.340
 1679SOL    HW2 5937   5.675   4.476   0.334
 1680SOL     OW 5938   1.276   2.286   4.929
 1680SOL    HW1 5939   1.188   2.310   4.887
 1680SOL    HW2 5940   1.273   2.305   5.027
 1681SOL     OW 5941   4.711   5.481   0.396
 1681SOL    HW1 5942   4.612   5.469   0.410
 1681SOL    HW2 5943   4.759   5.456   0.480
 1682SOL     OW 5944   6.773   3.693   5.508
 1682SOL    HW1 5945   6.682   3.657   5.529
 1682SOL    HW2 5946   6.789   3.686   5.410
 1683SOL     OW 5947   5.393   5.551   6.043
 1683SOL    HW1 5948   5.321   5.490   6.012
 1683SOL    HW2 5949   5.391   5.559   6.143
 1684SOL     OW 5950   0.046   6.253   4.164
 1684SOL    HW1 5951   0.011   6.179   4.222
 1684SOL    HW2 5952   0.001   6.339   4.188
 1685SOL     OW 5953   1.212   1.172   0.467
 1685SOL    HW1 5954   1.285   1.165   0.400
 1685SOL    HW2 5955   1.123   1.173   0.420
 1686SOL     OW 5956   2.317   6.152   6.671
 1686SOL    HW1 5957   2.401   6.097   6.673
 1686SOL    HW2 5958   2.305   6.197   6.759
 1687SOL     OW 5959   2.643   5.866   2.139
 1687SOL    HW1 5960   2.668   5.780   2.184
 1687SOL    HW2 5961   2.606   5.930   2.207
 1688SOL     OW 5962   0.840   1.367   3.354
 1688SOL    HW1 5963   0.927   1.357   3.305
 1688SOL    HW2 5964   0.815   1.280   3.396
 1689SOL     OW 5965   3.187   1.901   2.349
 1689SOL    HW1 5966   3.207   1.970   2.419
 1689SOL    HW2 5967   3.137   1.825   2.391
 1690SOL     OW 5968   1.191   2.177   0.501
 1690SOL    HW1 5969   1.134   2.135   0.431
 1690SOL    HW2 5970   1.262   2.112   0.530
 1691SOL     OW 5971   4.294   4.992   2.467
 1691SOL    HW1 5972   4.370   5.050   2.439
 1691SOL    HW2 5973   4.209   5.027   2.426
 1692SOL     OW 5974   1.905   6.973   2.835
 1692SOL    HW1 5975   1.858   0.025   2.880
 1692SOL    HW2 5976   1.875   6.887   2.877
 1693SOL     OW 5977   3.212   1.692   4.006
 1693SOL    HW1 5978   3.172   1.769   3.957
 1693SOL    HW2 5979   3.307   1.713   4.029
 1694SOL     OW 5980   5.297   5.723   5.500
 1694SOL    HW1 5981   5.333   5.709   5.408
 1694SOL    HW2 5982   5.352   5.671   5.565
 1695SOL     OW 5983   3.994   1.154   6.032
 1695SOL    HW1 5984   4.078   1.109   6.063
 1695SOL    HW2 5985   3.919   1.088   6.031
 1696SOL     OW 5986   3.550   5.673   1.984
 1696SOL    HW1 5987   3.511   5.693   1.895
 1696SOL    HW2 5988   3.509   5.732   2.054
 1697SOL     OW 5989   1.463   1.633   2.041
 1697SOL    HW1 5990   1.453   1.563   2.111
 1697SOL    HW2 5991   1.470   1.589   1.951
 1698SOL     OW 5992   5.056   2.164   1.081
 1698SOL    HW1 5993   4.998   2.214   1.017
 1698SOL    HW2 5994   4.999   2.102   1.136
 1699SOL     OW 5995   2.940   4.653   0.496
 1699SOL    HW1 5996   2.984   4.589   0.433
 1699SOL    HW2 5997   2.947   4.746   0.460
 1700SOL     OW 5998   6.397   2.576   4.481
 1700SOL    HW1 5999   6.496   2.590   4.483
 1700SOL    HW2 6000   6.374   2.494   4.532
 1701SOL     OW 6001   6.115   3.018   5.065
 1701SOL    HW1 6002   6.066   3.003   5.151
 1701SOL    HW2 6003   6.084   2.951   4.998
 1702SOL     OW 6004   4.456   2.884   1.724
 1702SOL    HW1 6005   4.493   2.865   1.633
 1702SOL    HW2 6006   4.491   2.972   1.756
 1703SOL     OW 6007   1.579   3.888   0.247
 1703SOL    HW1 6008   1.560   3.849   0.157
 1703SOL    HW2 6009   1.525   3.839   0.316
 1704SOL     OW 6010   7.009   0.768   1.932
 1704SOL    HW1 6011   6.915   0.782   1.963
 1704SOL    HW2 6012   0.036   0.717   2.000
 1705SOL     OW 6013   3.750   3.335   2.664
 1705SOL    HW1 6014   3.787   3.368   2.578
 1705SOL    HW2 6015   3.792   3.246   2.686
 1706SOL     OW 6016   2.297   0.747   6.501
 1706SOL    HW1 6017   2.359   0.713   6.572
 1706SOL    HW2 6018   2.350   0.766   6.418
 1707SOL     OW 6019   5.229   1.338   2.538
 1707SOL    HW1 6020   5.262   1.339   2.443
 1707SOL    HW2 6021   5.184   1.425   2.559
 1708SOL     OW 6022   0.219   4.334   1.417
 1708SOL    HW1 6023   0.277   4.371   1.490
 1708SOL    HW2 6024   0.230   4.390   1.335
 1709SOL     OW 6025   2.563   5.164   4.852
 1709SOL    HW1 6026   2.603   5.080   4.889
 1709SOL    HW2 6027   2.524   5.218   4.926
 1710SOL     OW 6028   6.970   5.123   4.175
 1710SOL    HW1 6029   6.928   5.057   4.113
 1710SOL    HW2 6030   6.994   5.078   4.261
 1711SOL     OW 6031   1.795   4.332   5.382
 1711SOL    HW1 6032   1.822   4.239   5.357
 1711SOL    HW2 6033   1.831   4.396   5.314
 1712SOL     OW 6034   2.243   5.085   1.507
 1712SOL    HW1 6035   2.171   5.022   1.479
 1712SOL    HW2 6036   2.228   5.113   1.602
 1713SOL     OW 6037   1.904   3.276   0.694
 1713SOL    HW1 6038   1.998   3.306   0.711
 1713SOL    HW2 6039   1.903   3.177   0.678
 1714SOL     OW 6040   4.078   1.301   1.440
 1714SOL    HW1 6041   4.124   1.252   1.514
 1714SOL    HW2 6042   4.011   1.240   1.397
 1715SOL     OW 6043   0.272   2.938   3.642
 1715SOL    HW1 6044   0.318   2.997   3.709
 1715SOL    HW2 6045   0.174   2.957   3.642
 1716SOL     OW 6046   0.146   0.212   0.068
 1716SOL    HW1 6047   0.176   0.297   0.111
 1716SOL    HW2 6048   0.196   0.135   0.108
 1717SOL     OW 6049   3.174   6.948   6.932
 1717SOL    HW1 6050   3.182   6.927   0.005
 1717SOL    HW2 6051   3.087   6.995   6.915
 1718SOL     OW 6052   1.488   4.395   5.596
 1718SOL    HW1 6053   1.416   4.442   5.546
 1718SOL    HW2 6054   1.575   4.404   5.547
 1719SOL     OW 6055   2.215   3.555   1.417
 1719SOL    HW1 6056   2.201   3.569   1.319
 1719SOL    HW2 6057   2.140   3.596   1.469
 1720SOL     OW 6058   6.852   1.705   2.411
 1720SOL    HW1 6059   6.768   1.750   2.439
 1720SOL    HW2 6060   6.860   1.616   2.457
 1721SOL     OW 6061   1.757   6.177   4.031
 1721SOL    HW1 6062   1.702   6.233   4.093
 1721SOL    HW2 6063   1.708   6.092   4.010
 1722SOL     OW 6064   5.701   0.491   1.715
 1722SOL    HW1 6065   5.619   0.481   1.771
 1722SOL    HW2 6066   5.711   0.412   1.655
 1723SOL     OW 6067   5.899   0.837   2.727
 1723SOL    HW1 6068   5.902   0.796   2.818
 1723SOL    HW2 6069   5.820   0.899   2.721
 1724SOL     OW 6070   5.532   0.462   0.010
 1724SOL    HW1 6071   5.477   0.464   6.950
 1724SOL    HW2 6072   5.581   0.375   0.015
 1725SOL     OW 6073   3.779   5.510   2.136
 1725SOL    HW1 6074   3.846   5.438   2.120
 1725SOL    HW2 6075   3.720   5.485   2.213
 1726SOL     OW 6076   6.917   3.886   4.550
 1726SOL    HW1 6077   6.954   3.802   4.511
 1726SOL    HW2 6078   6.893   3.949   4.476
 1727SOL     OW 6079   2.626   3.403   5.414
 1727SOL    HW1 6080   2.590   3.492   5.440
 1727SOL    HW2 6081   2.698   3.415   5.346
 1728SOL     OW 6082   4.652   4.925   3.506
 1728SOL    HW1 6083   4.698   5.008   3.536
 1728SOL    HW2 6084   4.696   4.890   3.424
 1729SOL     OW 6085   1.768   3.855   2.510
 1729SOL    HW1 6086   1.674   3.880   2.534
 1729SOL    HW2 6087   1.770   3.818   2.417
 1730SOL     OW 6088   5.791   2.303   4.792
 1730SOL    HW1 6089   5.837   2.215   4.781
 1730SOL    HW2 6090   5.853   2.376   4.762
 1731SOL     OW 6091   6.821   6.683   0.634
 1731SOL    HW1 6092   6.869   6.763   0.671
 1731SOL    HW2 6093   6.826   6.608   0.700
 1732SOL     OW 6094   0.663   4.397   0.126
 1732SOL    HW1 6095   0.716   4.376   0.044
 1732SOL    HW2 6096   0.615   4.484   0.114
 1733SOL     OW 6097   1.013   3.712   0.203
 1733SOL    HW1 6098   0.997   3.617   0.230
 1733SOL    HW2 6099   0.968   3.729   0.114
 1734SOL     OW 6100   4.885   3.765   1.607
 1734SOL    HW1 6101   4.849   3.759   1.514
 1734SOL    HW2 6102   4.958   3.696   1.619
 1735SOL     OW 6103   4.978   5.935   0.587
 1735SOL    HW1 6104   5.000   5.851   0.537
 1735SOL    HW2 6105   4.952   5.911   0.681
 1736SOL     OW 6106   2.891   3.729   0.342
 1736SOL    HW1 6107   2.970   3.710   0.401
 1736SOL    HW2 6108   2.816   3.667   0.367
 1737SOL     OW 6109   0.975   5.572   3.581
 1737SOL    HW1 6110   0.888   5.578   3.530
 1737SOL    HW2 6111   1.051   5.566   3.516
 1738SOL     OW 6112   1.038   1.350   1.813
 1738SOL    HW1 6113   1.085   1.394   1.736
 1738SOL    HW2 6114   1.101   1.288   1.860
 1739SOL     OW 6115   4.400   2.476   5.988
 1739SOL    HW1 6116   4.387   2.382   5.958
 1739SOL    HW2 6117   4.464   2.478   6.065
 1740SOL     OW 6118   0.774   1.415   5.230
 1740SOL    HW1 6119   0.865   1.419   5.270
 1740SOL    HW2 6120   0.782   1.402   5.131
 1741SOL     OW 6121   2.329   1.069   2.370
 1741SOL    HW1 6122   2.233   1.095   2.375
 1741SOL    HW2 6123   2.381   1.115   2.442
 1742SOL     OW 6124   5.860   6.894   4.462
 1742SOL    HW1 6125   5.843   6.975   4.518
 1742SOL    HW2 6126   5.914   6.920   4.382
 1743SOL     OW 6127   4.698   1.024   0.681
 1743SOL    HW1 6128   4.660   0.986   0.597
 1743SOL    HW2 6129   4.709   0.951   0.749
 1744SOL     OW 6130   3.010   6.469   1.686
 1744SOL    HW1 6131   3.072   6.425   1.752
 1744SOL    HW2 6132   2.927   6.414   1.677
 1745SOL     OW 6133   6.909   3.166   5.306
 1745SOL    HW1 6134   6.948   3.074   5.311
 1745SOL    HW2 6135   6.858   3.175   5.220
 1746SOL     OW 6136   3.009   1.073   5.760
 1746SOL    HW1 6137   2.962   1.061   5.673
 1746SOL    HW2 6138   3.049   1.165   5.764
 1747SOL     OW 6139   5.191   6.842   5.430
 1747SOL    HW1 6140   5.139   6.926   5.413
 1747SOL    HW2 6141   5.132   6.774   5.473
 1748SOL     OW 6142   5.683   1.326   1.477
 1748SOL    HW1 6143   5.633   1.242   1.455
 1748SOL    HW2 6144   5.751   1.306   1.547
 1749SOL     OW 6145   4.561   0.053   5.896
 1749SOL    HW1 6146   4.510   0.007   5.968
 1749SOL    HW2 6147   4.654   0.072   5.928
 1750SOL     OW 6148   4.762   0.468   4.296
 1750SOL    HW1 6149   4.841   0.476   4.235
 1750SOL    HW2 6150   4.793   0.466   4.390
 1751SOL     OW 6151   2.300   5.401   3.910
 1751SOL    HW1 6152   2.307   5.357   4.000
 1751SOL    HW2 6153   2.227   5.470   3.912
 1752SOL     OW 6154   6.775   2.037   6.432
 1752SOL    HW1 6155   6.781   2.134   6.455
 1752SOL    HW2 6156   6.864   1.994   6.443
 1753SOL     OW 6157   2.907   6.158   2.607
 1753SOL    HW1 6158   2.827   6.131   2.553
 1753SOL    HW2 6159   2.878   6.217   2.683
 1754SOL     OW 6160   3.584   2.839   1.807
 1754SOL    HW1 6161   3.513   2.845   1.737
 1754SOL    HW2 6162   3.636   2.754   1.795
 1755SOL     OW 6163   6.236   4.492   0.246
 1755SOL    HW1 6164   6.245   4.406   0.297
 1755SOL    HW2 6165   6.298   4.560   0.285
 1756SOL     OW 6166   5.600   5.485   4.797
 1756SOL    HW1 6167   5.653   5.408   4.832
 1756SOL    HW2 6168   5.662   5.560   4.773
 1757SOL     OW 6169   3.673   0.965   5.672
 1757SOL    HW1 6170   3.693   0.925   5.582
 1757SOL    HW2 6171   3.576   0.991   5.676
 1758SOL     OW 6172   2.929   1.653   3.334
 1758SOL    HW1 6173   2.959   1.609   3.250
 1758SOL    HW2 6174   2.833   1.631   3.352
 1759SOL     OW 6175   0.440   5.415   6.178
 1759SOL    HW1 6176   0.448   5.511   6.153
 1759SOL    HW2 6177   0.343   5.392   6.192
 1760SOL     OW 6178   4.939   0.120   2.063
 1760SOL    HW1 6179   4.926   0.023   2.046
 1760SOL    HW2 6180   5.026   0.134   2.111
 1761SOL     OW 6181   5.644   2.838   1.567
 1761SOL    HW1 6182   5.589   2.771   1.518
 1761SOL    HW2 6183   5.584   2.901   1.618
 1762SOL     OW 6184   5.377   2.950   0.748
 1762SOL    HW1 6185   5.381   2.851   0.758
 1762SOL    HW2 6186   5.282   2.981   0.754
 1763SOL     OW 6187   2.181   3.238   3.747
 1763SOL    HW1 6188   2.183   3.232   3.847
 1763SOL    HW2 6189   2.127   3.317   3.720
 1764SOL     OW 6190   6.257   3.394   4.259
 1764SOL    HW1 6191   6.242   3.367   4.164
 1764SOL    HW2 6192   6.349   3.369   4.288
 1765SOL     OW 6193   2.047   3.419   6.211
 1765SOL    HW1 6194   1.974   3.364   6.172
 1765SOL    HW2 6195   2.071   3.493   6.147
 1766SOL     OW 6196   6.004   3.550   5.775
 1766SOL    HW1 6197   6.062   3.519   5.699
 1766SOL    HW2 6198   6.015   3.649   5.787
 1767SOL     OW 6199   6.619   4.363   1.698
 1767SOL    HW1 6200   6.643   4.342   1.793
 1767SOL    HW2 6201   6.659   4.294   1.638
 1768SOL     OW 6202   6.368   6.679   3.745
 1768SOL    HW1 6203   6.302   6.631   3.688
 1768SOL    HW2 6204   6.322   6.749   3.799
 1769SOL     OW 6205   5.145   1.057   3.588
 1769SOL    HW1 6206   5.143   1.126   3.516
 1769SOL    HW2 6207   5.234   1.060   3.634
 1770SOL     OW 6208   3.064   5.450   5.303
 1770SOL    HW1 6209   3.050   5.404   5.391
 1770SOL    HW2 6210   3.021   5.540   5.306
 1771SOL     OW 6211   4.618   7.007   6.941
 1771SOL    HW1 6212   4.655   6.959   6.861
 1771SOL    HW2 6213   4.687   7.009   7.013
 1772SOL     OW 6214   3.564   6.083   3.482
 1772SOL    HW1 6215   3.536   6.158   3.422
 1772SOL    HW2 6216   3.559   5.996   3.432
 1773SOL     OW 6217   0.733   6.779   0.197
 1773SOL    HW1 6218   0.640   6.795   0.232
 1773SOL    HW2 6219   0.768   6.693   0.234
 1774SOL     OW 6220   3.125   4.905   2.400
 1774SOL    HW1 6221   3.187   4.980   2.378
 1774SOL    HW2 6222   3.178   4.821   2.415
 1775SOL     OW 6223   0.755   3.986   1.569
 1775SOL    HW1 6224   0.784   3.976   1.474
 1775SOL    HW2 6225   0.834   4.014   1.624
 1776SOL     OW 6226   2.758   6.431   5.822
 1776SOL    HW1 6227   2.789   6.413   5.915
 1776SOL    HW2 6228   2.745   6.344   5.774
 1777SOL     OW 6229   3.312   6.213   0.465
 1777SOL    HW1 6230   3.247   6.138   0.456
 1777SOL    HW2 6231   3.274   6.296   0.425
 1778SOL     OW 6232   6.980   3.538   5.901
 1778SOL    HW1 6233   0.026   3.482   5.943
 1778SOL    HW2 6234   7.019   3.591   5.826
 1779SOL     OW 6235   3.907   0.638   5.780
 1779SOL    HW1 6236   3.879   0.646   5.876
 1779SOL    HW2 6237   3.835   0.593   5.728
 1780SOL     OW 6238   3.278   3.457   6.766
 1780SOL    HW1 6239   3.233   3.373   6.794
 1780SOL    HW2 6240   3.374   3.438   6.745
 1781SOL     OW 6241   3.437   5.396   3.850
 1781SOL    HW1 6242   3.535   5.414   3.849
 1781SOL    HW2 6243   3.396   5.442   3.928
 1782SOL     OW 6244   3.241   1.618   4.494
 1782SOL    HW1 6245   3.207   1.525   4.511
 1782SOL    HW2 6246   3.278   1.623   4.401
 1783SOL     OW 6247   1.633   6.067   6.590
 1783SOL    HW1 6248   1.691   6.130   6.642
 1783SOL    HW2 6249   1.681   6.041   6.506
 1784SOL     OW 6250   3.384   0.179   6.205
 1784SOL    HW1 6251   3.406   0.276   6.217
 1784SOL    HW2 6252   3.458   0.134   6.156
 1785SOL     OW 6253   0.103   4.844   1.834
 1785SOL    HW1 6254   0.051   4.930   1.841
 1785SOL    HW2 6255   0.197   4.860   1.863
 1786SOL     OW 6256   4.011   2.180   1.447
 1786SOL    HW1 6257   3.959   2.139   1.373
 1786SOL    HW2 6258   4.109   2.167   1.431
 1787SOL     OW 6259   3.949   1.057   5.589
 1787SOL    HW1 6260   4.007   1.133   5.618
 1787SOL    HW2 6261   3.898   1.022   5.667
 1788SOL     OW 6262   1.465   4.688   6.188
 1788SOL    HW1 6263   1.526   4.614   6.160
 1788SOL    HW2 6264   1.477   4.706   6.286
 1789SOL     OW 6265   5.759   0.135   0.380
 1789SOL    HW1 6266   5.683   0.136   0.445
 1789SOL    HW2 6267   5.769   0.044   0.342
 1790SOL     OW 6268   2.983   6.525   2.614
 1790SOL    HW1 6269   3.016   6.504   2.522
 1790SOL    HW2 6270   3.040   6.597   2.654
 1791SOL     OW 6271   0.363   6.434   2.791
 1791SOL    HW1 6272   0.298   6.361   2.813
 1791SOL    HW2 6273   0.317   6.505   2.738
 1792SOL     OW 6274   1.073   4.368   4.476
 1792SOL    HW1 6275   1.100   4.375   4.380
 1792SOL    HW2 6276   1.027   4.452   4.504
 1793SOL     OW 6277   7.012   0.927   3.295
 1793SOL    HW1 6278   6.991   0.989   3.371
 1793SOL    HW2 6279   0.044   0.852   3.329
 1794SOL     OW 6280   4.578   5.756   6.460
 1794SOL    HW1 6281   4.597   5.842   6.412
 1794SOL    HW2 6282   4.624   5.756   6.549
 1795SOL     OW 6283   0.957   2.801   0.150
 1795SOL    HW1 6284   0.888   2.733   0.123
 1795SOL    HW2 6285   0.993   2.779   0.241
 1796SOL     OW 6286   3.781   0.774   6.452
 1796SOL    HW1 6287   3.730   0.840   6.506
 1796SOL    HW2 6288   3.731   0.688   6.449
 1797SOL     OW 6289   1.075   0.739   1.188
 1797SOL    HW1 6290   1.070   0.828   1.143
 1797SOL    HW2 6291   1.040   0.669   1.127
 1798SOL     OW 6292   5.531   1.803   2.838
 1798SOL    HW1 6293   5.435   1.783   2.818
 1798SOL    HW2 6294   5.565   1.739   2.906
 1799SOL     OW 6295   2.048   2.104   0.099
 1799SOL    HW1 6296   2.056   2.039   0.174
 1799SOL    HW2 6297   2.083   2.062   0.015
 1800SOL     OW 6298   3.432   4.964   2.560
 1800SOL    HW1 6299   3.353   4.913   2.594
 1800SOL    HW2 6300   3.406   5.014   2.477
 1801SOL     OW 6301   5.611   6.771   0.867
 1801SOL    HW1 6302   5.640   6.849   0.922
 1801SOL    HW2 6303   5.641   6.686   0.911
 1802SOL     OW 6304   6.015   4.930   3.442
 1802SOL    HW1 6305   5.955   4.908   3.365
 1802SOL    HW2 6306   6.111   4.917   3.415
 1803SOL     OW 6307   5.568   5.366   1.120
 1803SOL    HW1 6308   5.506   5.336   1.047
 1803SOL    HW2 6309   5.573   5.294   1.190
 1804SOL     OW 6310   3.353   3.325   5.988
 1804SOL    HW1 6311   3.333   3.366   5.899
 1804SOL    HW2 6312   3.267   3.298   6.032
 1805SOL     OW 6313   5.411   3.142   5.979
 1805SOL    HW1 6314   5.378   3.047   5.985
 1805SOL    HW2 6315   5.366   3.197   6.049
 1806SOL     OW 6316   6.918   0.470   0.540
 1806SOL    HW1 6317   6.957   0.560   0.524
 1806SOL    HW2 6318   6.890   0.463   0.636
 1807SOL     OW 6319   6.321   2.125   5.868
 1807SOL    HW1 6320   6.332   2.169   5.958
 1807SOL    HW2 6321   6.385   2.050   5.860
 1808SOL     OW 6322   2.026   4.743   4.247
 1808SOL    HW1 6323   2.085   4.711   4.321
 1808SOL    HW2 6324   2.081   4.791   4.178
 1809SOL     OW 6325   3.763   0.485   6.417
 1809SOL    HW1 6326   3.707   0.410   6.381
 1809SOL    HW2 6327   3.860   0.462   6.406
 1810SOL     OW 6328   3.607   6.059   2.910
 1810SOL    HW1 6329   3.548   5.979   2.922
 1810SOL    HW2 6330   3.648   6.084   2.998
 1811SOL     OW 6331   5.997   5.850   2.554
 1811SOL    HW1 6332   6.057   5.771   2.570
 1811SOL    HW2 6333   5.908   5.833   2.595
 1812SOL     OW 6334   4.416   5.053   6.347
 1812SOL    HW1 6335   4.480   5.122   6.380
 1812SOL    HW2 6336   4.421   5.047   6.248
 1813SOL     OW 6337   6.779   5.616   5.491
 1813SOL    HW1 6338   6.813   5.553   5.561
 1813SOL    HW2 6339   6.748   5.564   5.412
 1814SOL     OW 6340   5.034   6.705   2.809
 1814SOL    HW1 6341   4.937   6.729   2.799
 1814SOL    HW2 6342   5.046   6.607   2.794
 1815SOL     OW 6343   0.224   1.233   2.315
 1815SOL    HW1 6344   0.323   1.231   2.298
 1815SOL    HW2 6345   0.206   1.203   2.409
 1816SOL     OW 6346   1.176   4.599   0.466
 1816SOL    HW1 6347   1.205   4.559   0.379
 1816SOL    HW2 6348   1.241   4.575   0.538
 1817SOL     OW 6349   1.279   5.771   1.651
 1817SOL    HW1 6350   1.322   5.798   1.565
 1817SOL    HW2 6351   1.310   5.833   1.724
 1818SOL     OW 6352   1.386   1.287   3.133
 1818SOL    HW1 6353   1.400   1.207   3.192
 1818SOL    HW2 6354   1.464   1.349   3.141
 1819SOL     OW 6355   0.844   4.163   2.136
 1819SOL    HW1 6356   0.944   4.174   2.138
 1819SOL    HW2 6357   0.809   4.190   2.046
 1820SOL     OW 6358   5.957   0.419   2.680
 1820SOL    HW1 6359   5.921   0.442   2.770
 1820SOL    HW2 6360   5.881   0.402   2.617
 1821SOL     OW 6361   1.664   1.674   3.773
 1821SOL    HW1 6362   1.705   1.658   3.862
 1821SOL    HW2 6363   1.735   1.688   3.704
 1822SOL     OW 6364   3.209   3.533   1.879
 1822SOL    HW1 6365   3.233   3.453   1.824
 1822SOL    HW2 6366   3.270   3.609   1.856
 1823SOL     OW 6367   4.445   0.452   2.585
 1823SOL    HW1 6368   4.427   0.401   2.669
 1823SOL    HW2 6369   4.488   0.392   2.518
 1824SOL     OW 6370   4.966   2.340   1.505
 1824SOL    HW1 6371   4.915   2.426   1.498
 1824SOL    HW2 6372   5.052   2.356   1.555
 1825SOL     OW 6373   1.081   0.982   1.793
 1825SOL    HW1 6374   1.140   0.965   1.872
 1825SOL    HW2 6375   1.117   1.058   1.740
 1826SOL     OW 6376   3.095   5.934   6.297
 1826SOL    HW1 6377   3.077   5.945   6.395
 1826SOL    HW2 6378   3.071   5.841   6.269
 1827SOL     OW 6379   6.304   6.909   1.490
 1827SOL    HW1 6380   6.213   6.898   1.529
 1827SOL    HW2 6381   6.367   6.939   1.561
 1828SOL     OW 6382   1.770   2.535   0.066
 1828SOL    HW1 6383   1.789   2.615   0.009
 1828SOL    HW2 6384   1.697   2.557   0.132
 1829SOL     OW 6385   6.214   4.986   1.944
 1829SOL    HW1 6386   6.148   5.057   1.919
 1829SOL    HW2 6387   6.195   4.903   1.893
 1830SOL     OW 6388   5.501   5.997   3.961
 1830SOL    HW1 6389   5.461   6.069   4.018
 1830SOL    HW2 6390   5.428   5.941   3.922
 1831SOL     OW 6391   5.236   0.621   3.515
 1831SOL    HW1 6392   5.241   0.522   3.496
 1831SOL    HW2 6393   5.169   0.663   3.455
 1832SOL     OW 6394   4.992   2.390   0.260
 1832SOL    HW1 6395   4.895   2.364   0.271
 1832SOL    HW2 6396   5.020   2.443   0.340
 1833SOL     OW 6397   5.641   2.001   5.811
 1833SOL    HW1 6398   5.564   1.944   5.842
 1833SOL    HW2 6399   5.653   1.989   5.713
 1834SOL     OW 6400   2.457   4.200   0.679
 1834SOL    HW1 6401   2.456   4.288   0.727
 1834SOL    HW2 6402   2.551   4.166   0.673
 1835SOL     OW 6403   1.058   4.720   6.969
 1835SOL    HW1 6404   1.149   4.726   6.930
 1835SOL    HW2 6405   1.039   4.626   6.997
 1836SOL     OW 6406   0.854   6.047   0.352
 1836SOL    HW1 6407   0.784   6.062   0.422
 1836SOL    HW2 6408   0.925   6.117   0.361
 1837SOL     OW 6409   0.987   2.271   4.850
 1837SOL    HW1 6410   0.961   2.200   4.916
 1837SOL    HW2 6411   0.967   2.238   4.758
 1838SOL     OW 6412   0.713   2.415   4.412
 1838SOL    HW1 6413   0.668   2.387   4.327
 1838SOL    HW2 6414   0.668   2.497   4.447
 1839SOL     OW 6415   0.182   1.543   6.405
 1839SOL    HW1 6416   0.246   1.467   6.415
 1839SOL    HW2 6417   0.180   1.573   6.309
 1840SOL     OW 6418   1.506   5.395   0.665
 1840SOL    HW1 6419   1.421   5.392   0.612
 1840SOL    HW2 6420   1.544   5.303   0.673
 1841SOL     OW 6421   1.267   3.088   2.892
 1841SOL    HW1 6422   1.289   3.002   2.936
 1841SOL    HW2 6423   1.175   3.118   2.918
 1842SOL     OW 6424   0.692   5.243   6.621
 1842SOL    HW1 6425   0.601   5.283   6.620
 1842SOL    HW2 6426   0.719   5.221   6.714
 1843SOL     OW 6427   3.983   1.998   4.726
 1843SOL    HW1 6428   4.022   2.045   4.805
 1843SOL    HW2 6429   3.969   2.064   4.652
 1844SOL     OW 6430   5.566   3.401   3.689
 1844SOL    HW1 6431   5.492   3.358   3.741
 1844SOL    HW2 6432   5.527   3.453   3.613
 1845SOL     OW 6433   4.288   6.717   0.891
 1845SOL    HW1 6434   4.224   6.745   0.819
 1845SOL    HW2 6435   4.254   6.748   0.980
 1846SOL     OW 6436   3.446   1.319   5.635
 1846SOL    HW1 6437   3.415   1.365   5.552
 1846SOL    HW2 6438   3.435   1.381   5.713
 1847SOL     OW 6439   1.711   6.697   0.034
 1847SOL    HW1 6440   1.756   6.651   6.981
 1847SOL    HW2 6441   1.669   6.782   0.002
 1848SOL     OW 6442   2.771   0.021   2.449
 1848SOL    HW1 6443   2.747   0.003   2.544
 1848SOL    HW2 6444   2.756   6.963   2.394
 1849SOL     OW 6445   2.963   0.848   6.702
 1849SOL    HW1 6446   3.006   0.780   6.761
 1849SOL    HW2 6447   2.959   0.814   6.608
 1850SOL     OW 6448   5.237   1.761   1.643
 1850SOL    HW1 6449   5.251   1.697   1.568
 1850SOL    HW2 6450   5.282   1.848   1.622
 1851SOL     OW 6451   6.526   3.721   2.827
 1851SOL    HW1 6452   6.451   3.707   2.892
 1851SOL    HW2 6453   6.489   3.730   2.734
 1852SOL     OW 6454   4.991   2.629   5.847
 1852SOL    HW1 6455   4.993   2.572   5.930
 1852SOL    HW2 6456   4.982   2.571   5.767
 1853SOL     OW 6457   1.013   4.292   0.620
 1853SOL    HW1 6458   0.977   4.333   0.536
 1853SOL    HW2 6459   0.956   4.215   0.647
 1854SOL     OW 6460   2.640   5.835   3.935
 1854SOL    HW1 6461   2.556   5.845   3.881
 1854SOL    HW2 6462   2.694   5.760   3.898
 1855SOL     OW 6463   5.599   4.371   1.774
 1855SOL    HW1 6464   5.682   4.316   1.785
 1855SOL    HW2 6465   5.615   4.441   1.704
 1856SOL     OW 6466   4.940   3.153   6.789
 1856SOL    HW1 6467   4.857   3.204   6.810
 1856SOL    HW2 6468   5.000   3.209   6.732
 1857SOL     OW 6469   4.843   1.545   3.562
 1857SOL    HW1 6470   4.857   1.521   3.465
 1857SOL    HW2 6471   4.863   1.642   3.575
 1858SOL     OW 6472   5.695   3.397   3.174
 1858SOL    HW1 6473   5.672   3.494   3.188
 1858SOL    HW2 6474   5.696   3.350   3.262
 1859SOL     OW 6475   5.680   1.436   2.786
 1859SOL    HW1 6476   5.620   1.450   2.865
 1859SOL    HW2 6477   5.771   1.407   2.818
 1860SOL     OW 6478   3.904   2.182   5.193
 1860SOL    HW1 6479   3.939   2.213   5.281
 1860SOL    HW2 6480   3.811   2.147   5.204
 1861SOL     OW 6481   5.734   6.242   2.539
 1861SOL    HW1 6482   5.813   6.298   2.515
 1861SOL    HW2 6483   5.683   6.286   2.613
 1862SOL     OW 6484   1.905   1.377   0.777
 1862SOL    HW1 6485   1.941   1.295   0.821
 1862SOL    HW2 6486   1.843   1.350   0.703
 1863SOL     OW 6487   2.098   2.639   1.503
 1863SOL    HW1 6488   2.008   2.596   1.498
 1863SOL    HW2 6489   2.136   2.647   1.411
 1864SOL     OW 6490   1.113   6.871   3.234
 1864SOL    HW1 6491   1.075   6.951   3.281
 1864SOL    HW2 6492   1.103   6.791   3.292
 1865SOL     OW 6493   5.041   2.417   6.717
 1865SOL    HW1 6494   4.979   2.492   6.694
 1865SOL    HW2 6495   4.992   2.348   6.771
 1866SOL     OW 6496   5.202   5.672   2.319
 1866SOL    HW1 6497   5.183   5.588   2.268
 1866SOL    HW2 6498   5.299   5.693   2.315
 1867SOL     OW 6499   0.743   4.782   6.753
 1867SOL    HW1 6500   0.763   4.783   6.655
 1867SOL    HW2 6501   0.646   4.799   6.768
 1868SOL     OW 6502   6.665   4.210   5.747
 1868SOL    HW1 6503   6.648   4.153   5.666
 1868SOL    HW2 6504   6.759   4.243   5.745
 1869SOL     OW 6505   5.963   1.567   4.736
 1869SOL    HW1 6506   5.866   1.548   4.723
 1869SOL    HW2 6507   6.005   1.587   4.648
 1870SOL     OW 6508   2.300   4.257   4.545
 1870SOL    HW1 6509   2.329   4.340   4.593
 1870SOL    HW2 6510   2.254   4.195   4.608
 1871SOL     OW 6511   1.582   0.438   0.624
 1871SOL    HW1 6512   1.621   0.378   0.694
 1871SOL    HW2 6513   1.542   0.383   0.551
 1872SOL     OW 6514   2.336   4.995   0.112
 1872SOL    HW1 6515   2.255   5.038   0.073
 1872SOL    HW2 6516   2.418   5.034   0.069
 1873SOL     OW 6517   5.355   0.979   0.606
 1873SOL    HW1 6518   5.298   1.057   0.631
 1873SOL    HW2 6519   5.451   1.007   0.604
 1874SOL     OW 6520   1.301   3.932   2.484
 1874SOL    HW1 6521   1.234   3.895   2.419
 1874SOL    HW2 6522   1.275   3.904   2.577
 1875SOL     OW 6523   1.351   0.256   1.080
 1875SOL    HW1 6524   1.293   0.176   1.065
 1875SOL    HW2 6525   1.430   0.230   1.136
 1876SOL     OW 6526   2.282   6.756   4.150
 1876SOL    HW1 6527   2.256   6.734   4.244
 1876SOL    HW2 6528   2.212   6.814   4.108
 1877SOL     OW 6529   0.413   0.294   3.649
 1877SOL    HW1 6530   0.402   0.392   3.668
 1877SOL    HW2 6531   0.415   0.243   3.735
 1878SOL     OW 6532   5.947   2.622   5.615
 1878SOL    HW1 6533   5.866   2.586   5.568
 1878SOL    HW2 6534   5.956   2.719   5.597
 1879SOL     OW 6535   1.860   4.796   5.742
 1879SOL    HW1 6536   1.882   4.722   5.679
 1879SOL    HW2 6537   1.857   4.761   5.836
 1880SOL     OW 6538   6.243   0.329   4.906
 1880SOL    HW1 6539   6.260   0.262   4.834
 1880SOL    HW2 6540   6.179   0.399   4.873
 1881SOL     OW 6541   0.245   2.720   6.982
 1881SOL    HW1 6542   0.287   2.800   6.938
 1881SOL    HW2 6543   0.147   2.738   6.997
 1882SOL     OW 6544   1.285   6.337   6.675
 1882SOL    HW1 6545   1.281   6.435   6.696
 1882SOL    HW2 6546   1.195   6.305   6.645
 1883SOL     OW 6547   0.463   2.141   4.186
 1883SOL    HW1 6548   0.459   2.211   4.115
 1883SOL    HW2 6549   0.438   2.052   4.148
 1884SOL     OW 6550   0.484   2.458   1.043
 1884SOL    HW1 6551   0.413   2.433   1.108
 1884SOL    HW2 6552   0.486   2.558   1.033
 1885SOL     OW 6553   2.301   0.919   4.494
 1885SOL    HW1 6554   2.369   0.846   4.497
 1885SOL    HW2 6555   2.347   1.007   4.490
 1886SOL     OW 6556   0.976   6.654   3.371
 1886SOL    HW1 6557   0.971   6.719   3.447
 1886SOL    HW2 6558   0.998   6.563   3.406
 1887SOL     OW 6559   2.995   6.171   6.119
 1887SOL    HW1 6560   3.089   6.137   6.112
 1887SOL    HW2 6561   2.933   6.095   6.138
 1888SOL     OW 6562   2.753   0.831   3.450
 1888SOL    HW1 6563   2.833   0.821   3.509
 1888SOL    HW2 6564   2.708   0.918   3.469
 1889SOL     OW 6565   0.559   3.427   2.439
 1889SOL    HW1 6566   0.629   3.493   2.469
 1889SOL    HW2 6567   0.488   3.420   2.509
 1890SOL     OW 6568   1.224   6.148   4.730
 1890SOL    HW1 6569   1.263   6.060   4.759
 1890SOL    HW2 6570   1.283   6.223   4.761
 1891SOL     OW 6571   3.229   3.488   3.263
 1891SOL    HW1 6572   3.249   3.569   3.319
 1891SOL    HW2 6573   3.210   3.516   3.169
 1892SOL     OW 6574   1.294   0.325   2.622
 1892SOL    HW1 6575   1.247   0.413   2.613
 1892SOL    HW2 6576   1.226   0.252   2.618
 1893SOL     OW 6577   4.146   3.439   4.399
 1893SOL    HW1 6578   4.081   3.510   4.426
 1893SOL    HW2 6579   4.239   3.470   4.416
 1894SOL     OW 6580   3.197   3.421   4.320
 1894SOL    HW1 6581   3.256   3.355   4.274
 1894SOL    HW2 6582   3.251   3.501   4.347
 1895SOL     OW 6583   1.635   5.868   0.079
 1895SOL    HW1 6584   1.598   5.932   0.012
 1895SOL    HW2 6585   1.581   5.784   0.080
 1896SOL     OW 6586   6.353   2.378   1.493
 1896SOL    HW1 6587   6.345   2.310   1.420
 1896SOL    HW2 6588   6.376   2.333   1.579
 1897SOL     OW 6589   1.155   4.552   4.244
 1897SOL    HW1 6590   1.214   4.562   4.164
 1897SOL    HW2 6591   1.179   4.621   4.313
 1898SOL     OW 6592   1.452   6.128   2.858
 1898SOL    HW1 6593   1.517   6.052   2.866
 1898SOL    HW2 6594   1.500   6.211   2.831
 1899SOL     OW 6595   0.156   1.211   2.048
 1899SOL    HW1 6596   0.147   1.193   2.146
 1899SOL    HW2 6597   0.076   1.175   2.000
 1900SOL     OW 6598   2.669   6.979   6.754
 1900SOL    HW1 6599   2.631   0.010   6.828
 1900SOL    HW2 6600   2.605   6.906   6.731
 1901SOL     OW 6601   2.760   3.758   1.725
 1901SOL    HW1 6602   2.783   3.848   1.687
 1901SOL    HW2 6603   2.838   3.723   1.776
 1902SOL     OW 6604   1.418   6.680   5.227
 1902SOL    HW1 6605   1.420   6.702   5.129
 1902SOL    HW2 6606   1.361   6.599   5.242
 1903SOL     OW 6607   1.084   2.098   4.264
 1903SOL    HW1 6608   1.102   2.021   4.203
 1903SOL    HW2 6609   1.099   2.184   4.215
 1904SOL     OW 6610   5.686   6.214   2.061
 1904SOL    HW1 6611   5.669   6.145   1.990
 1904SOL    HW2 6612   5.773   6.260   2.043
 1905SOL     OW 6613   0.691   1.762   3.968
 1905SOL    HW1 6614   0.613   1.708   4.000
 1905SOL    HW2 6615   0.759   1.701   3.927
 1906SOL     OW 6616   1.115   6.205   4.458
 1906SOL    HW1 6617   1.142   6.300   4.441
 1906SOL    HW2 6618   1.128   6.184   4.555
 1907SOL     OW 6619   4.875   3.285   0.603
 1907SOL    HW1 6620   4.906   3.228   0.679
 1907SOL    HW2 6621   4.944   3.286   0.531
 1908SOL     OW 6622   3.853   0.949   1.611
 1908SOL    HW1 6623   3.932   0.894   1.584
 1908SOL    HW2 6624   3.774   0.924   1.555
 1909SOL     OW 6625   6.238   5.261   4.842
 1909SOL    HW1 6626   6.194   5.194   4.782
 1909SOL    HW2 6627   6.170   5.328   4.873
 1910SOL     OW 6628   0.315   6.101   5.886
 1910SOL    HW1 6629   0.321   6.026   5.951
 1910SOL    HW2 6630   0.407   6.131   5.861
 1911SOL     OW 6631   6.275   5.860   3.940
 1911SOL    HW1 6632   6.272   5.945   3.889
 1911SOL    HW2 6633   6.338   5.870   4.018
 1912SOL     OW 6634   3.633   5.035   1.990
 1912SOL    HW1 6635   3.570   5.047   1.913
 1912SOL    HW2 6636   3.652   4.938   2.002
 1913SOL     OW 6637   3.272   4.280   7.019
 1913SOL    HW1 6638   3.236   4.222   0.068
 1913SOL    HW2 6639   3.210   4.356   7.002
 1914SOL     OW 6640   3.520   4.289   6.925
 1914SOL    HW1 6641   3.422   4.297   6.944
 1914SOL    HW2 6642   3.539   4.199   6.885
 1915SOL     OW 6643   3.345   2.848   6.649
 1915SOL    HW1 6644   3.326   2.800   6.735
 1915SOL    HW2 6645   3.275   2.917   6.633
 1916SOL     OW 6646   4.555   0.688   2.625
 1916SOL    HW1 6647   4.505   0.602   2.631
 1916SOL    HW2 6648   4.613   0.687   2.544
 1917SOL     OW 6649   2.064   4.326   1.324
 1917SOL    HW1 6650   2.161   4.346   1.327
 1917SOL    HW2 6651   2.014   4.394   1.378
 1918SOL     OW 6652   5.594   2.033   3.402
 1918SOL    HW1 6653   5.551   1.945   3.384
 1918SOL    HW2 6654   5.651   2.027   3.484
 1919SOL     OW 6655   6.374   2.231   6.157
 1919SOL    HW1 6656   6.464   2.243   6.113
 1919SOL    HW2 6657   6.375   2.276   6.247
 1920SOL     OW 6658   4.495   3.039   0.574
 1920SOL    HW1 6659   4.469   3.010   0.482
 1920SOL    HW2 6660   4.537   2.962   0.622
 1921SOL     OW 6661   2.403   2.210   0.395
 1921SOL    HW1 6662   2.462   2.142   0.437
 1921SOL    HW2 6663   2.399   2.291   0.454
 1922SOL     OW 6664   3.136   3.005   3.796
 1922SOL    HW1 6665   3.136   2.966   3.888
 1922SOL    HW2 6666   3.081   3.088   3.794
 1923SOL     OW 6667   3.262   0.539   4.397
 1923SOL    HW1 6668   3.173   0.569   4.362
 1923SOL    HW2 6669   3.333   0.603   4.368
 1924SOL     OW 6670   5.278   1.161   0.973
 1924SOL    HW1 6671   5.353   1.099   0.998
 1924SOL    HW2 6672   5.316   1.242   0.929
 1925SOL     OW 6673   1.141   3.900   1.266
 1925SOL    HW1 6674   1.185   3.839   1.201
 1925SOL    HW2 6675   1.205   3.972   1.293
 1926SOL     OW 6676   3.909   0.576   1.564
 1926SOL    HW1 6677   3.989   0.635   1.553
 1926SOL    HW2 6678   3.938   0.480   1.566
 1927SOL     OW 6679   2.166   5.199   1.218
 1927SOL    HW1 6680   2.206   5.135   1.152
 1927SOL    HW2 6681   2.200   5.292   1.198
 1928SOL     OW 6682   6.736   4.557   2.742
 1928SOL    HW1 6683   6.808   4.523   2.682
 1928SOL    HW2 6684   6.663   4.597   2.687
 1929SOL     OW 6685   3.438   6.841   3.188
 1929SOL    HW1 6686   3.504   6.775   3.223
 1929SOL    HW2 6687   3.368   6.858   3.258
 1930SOL     OW 6688   3.855   3.472   0.304
 1930SOL    HW1 6689   3.856   3.431   0.213
 1930SOL    HW2 6690   3.939   3.446   0.353
 1931SOL     OW 6691   7.009   2.670   4.006
 1931SOL    HW1 6692   0.068   2.725   4.014
 1931SOL    HW2 6693   6.956   2.679   4.090
 1932SOL     OW 6694   4.622   1.670   2.314
 1932SOL    HW1 6695   4.542   1.615   2.339
 1932SOL    HW2 6696   4.638   1.739   2.384
 1933SOL     OW 6697   1.534   1.056   1.332
 1933SOL    HW1 6698   1.540   0.956   1.334
 1933SOL    HW2 6699   1.590   1.091   1.257
 1934SOL     OW 6700   0.052   1.129   0.057
 1934SOL    HW1 6701   0.025   1.034   0.072
 1934SOL    HW2 6702   0.058   1.148   6.983
 1935SOL     OW 6703   6.306   5.122   3.184
 1935SOL    HW1 6704   6.214   5.140   3.149
 1935SOL    HW2 6705   6.300   5.075   3.272
 1936SOL     OW 6706   4.822   3.295   6.023
 1936SOL    HW1 6707   4.799   3.214   5.969
 1936SOL    HW2 6708   4.913   3.327   5.998
 1937SOL     OW 6709   6.459   5.001   6.561
 1937SOL    HW1 6710   6.371   4.997   6.513
 1937SOL    HW2 6711   6.469   4.920   6.618
 1938SOL     OW 6712   6.691   2.585   6.916
 1938SOL    HW1 6713   6.654   2.656   6.856
 1938SOL    HW2 6714   6.632   2.577   6.997
 1939SOL     OW 6715   0.158   0.639   4.354
 1939SOL    HW1 6716   0.127   0.553   4.395
 1939SOL    HW2 6717   0.247   0.625   4.311
 1940SOL     OW 6718   0.379   4.943   0.572
 1940SOL    HW1 6719   0.390   5.016   0.504
 1940SOL    HW2 6720   0.468   4.921   0.612
 1941SOL     OW 6721   5.679   1.542   4.755
 1941SOL    HW1 6722   5.667   1.479   4.678
 1941SOL    HW2 6723   5.601   1.537   4.816
 1942SOL     OW 6724   0.403   4.934   1.695
 1942SOL    HW1 6725   0.422   5.009   1.759
 1942SOL    HW2 6726   0.327   4.961   1.636
 1943SOL     OW 6727   0.617   3.088   3.627
 1943SOL    HW1 6728   0.686   3.033   3.675
 1943SOL    HW2 6729   0.571   3.148   3.691
 1944SOL     OW 6730   0.868   3.310   3.616
 1944SOL    HW1 6731   0.952   3.289   3.668
 1944SOL    HW2 6732   0.789   3.303   3.677
 1945SOL     OW 6733   5.261   1.548   1.468
 1945SOL    HW1 6734   5.261   1.490   1.550
 1945SOL    HW2 6735   5.200   1.508   1.400
 1946SOL     OW 6736   5.952   5.509   0.898
 1946SOL    HW1 6737   5.915   5.449   0.969
 1946SOL    HW2 6738   5.902   5.495   0.813
 1947SOL     OW 6739   5.996   5.021   2.668
 1947SOL    HW1 6740   6.094   5.037   2.661
 1947SOL    HW2 6741   5.966   5.042   2.761
 1948SOL     OW 6742   5.032   3.232   3.481
 1948SOL    HW1 6743   4.984   3.236   3.393
 1948SOL    HW2 6744   5.099   3.158   3.479
 1949SOL     OW 6745   3.236   4.083   6.762
 1949SOL    HW1 6746   3.257   3.987   6.741
 1949SOL    HW2 6747   3.285   4.142   6.699
 1950SOL     OW 6748   4.052   3.821   3.494
 1950SOL    HW1 6749   3.988   3.744   3.500
 1950SOL    HW2 6750   4.139   3.794   3.535
 1951SOL     OW 6751   6.344   5.376   5.794
 1951SOL    HW1 6752   6.362   5.297   5.736
 1951SOL    HW2 6753   6.429   5.427   5.810
 1952SOL     OW 6754   5.687   4.329   6.970
 1952SOL    HW1 6755   5.778   4.345   7.009
 1952SOL    HW2 6756   5.656   4.412   6.923
 1953SOL     OW 6757   0.853   0.933   0.243
 1953SOL    HW1 6758   0.839   0.965   0.337
 1953SOL    HW2 6759   0.826   1.004   0.179
 1954SOL     OW 6760   3.625   6.615   2.143
 1954SOL    HW1 6761   3.656   6.581   2.054
 1954SOL    HW2 6762   3.585   6.540   2.195
 1955SOL     OW 6763   6.696   2.440   4.101
 1955SOL    HW1 6764   6.757   2.433   4.022
 1955SOL    HW2 6765   6.632   2.363   4.101
 1956SOL     OW 6766   5.083   0.961   1.472
 1956SOL    HW1 6767   5.118   0.985   1.381
 1956SOL    HW2 6768   5.074   0.862   1.479
 1957SOL     OW 6769   6.663   2.554   4.481
 1957SOL    HW1 6770   6.754   2.514   4.495
 1957SOL    HW2 6771   6.673   2.645   4.441
 1958SOL     OW 6772   3.880   1.669   0.432
 1958SOL    HW1 6773   3.879   1.689   0.530
 1958SOL    HW2 6774   3.806   1.720   0.387
 1959SOL     OW 6775   1.347   1.704   5.930
 1959SOL    HW1 6776   1.360   1.632   5.998
 1959SOL    HW2 6777   1.336   1.664   5.840
 1960SOL     OW 6778   5.463   4.026   3.197
 1960SOL    HW1 6779   5.498   4.112   3.158
 1960SOL    HW2 6780   5.430   4.043   3.290
 1961SOL     OW 6781   0.724   3.825   4.481
 1961SOL    HW1 6782   0.801   3.784   4.531
 1961SOL    HW2 6783   0.673   3.885   4.542
 1962SOL     OW 6784   0.502   0.086   1.814
 1962SOL    HW1 6785   0.494   7.020   1.855
 1962SOL    HW2 6786   0.559   0.144   1.873
 1963SOL     OW 6787   1.130   2.985   0.027
 1963SOL    HW1 6788   1.046   2.952   0.069
 1963SOL    HW2 6789   1.162   2.920   6.983
 1964SOL     OW 6790   5.503   3.408   0.423
 1964SOL    HW1 6791   5.418   3.402   0.369
 1964SOL    HW2 6792   5.488   3.368   0.513
 1965SOL     OW 6793   6.192   4.565   3.593
 1965SOL    HW1 6794   6.206   4.584   3.495
 1965SOL    HW2 6795   6.106   4.605   3.623
 1966SOL     OW 6796   1.005   4.668   6.656
 1966SOL    HW1 6797   0.958   4.700   6.738
 1966SOL    HW2 6798   1.033   4.573   6.668
 1967SOL     OW 6799   6.634   3.308   4.890
 1967SOL    HW1 6800   6.718   3.305   4.944
 1967SOL    HW2 6801   6.589   3.219   4.893
 1968SOL     OW 6802   2.208   1.290   5.874
 1968SOL    HW1 6803   2.245   1.327   5.789
 1968SOL    HW2 6804   2.109   1.283   5.867
 1969SOL     OW 6805   1.142   5.927   0.574
 1969SOL    HW1 6806   1.105   5.869   0.647
 1969SOL    HW2 6807   1.231   5.893   0.545
 1970SOL     OW 6808   5.389   4.416   3.937
 1970SOL    HW1 6809   5.325   4.403   4.013
 1970SOL    HW2 6810   5.439   4.502   3.949
 1971SOL     OW 6811   1.638   4.529   4.526
 1971SOL    HW1 6812   1.679   4.442   4.499
 1971SOL    HW2 6813   1.582   4.516   4.607
 1972SOL     OW 6814   6.301   1.929   2.432
 1972SOL    HW1 6815   6.383   1.872   2.429
 1972SOL    HW2 6816   6.287   1.962   2.526
 1973SOL     OW 6817   3.365   1.980   1.228
 1973SOL    HW1 6818   3.386   1.891   1.187
 1973SOL    HW2 6819   3.270   2.003   1.210
 1974SOL     OW 6820   2.613   6.644   4.891
 1974SOL    HW1 6821   2.572   6.648   4.799
 1974SOL    HW2 6822   2.546   6.671   4.959
 1975SOL     OW 6823   2.001   2.922   2.560
 1975SOL    HW1 6824   1.982   2.836   2.512
 1975SOL    HW2 6825   1.924   2.985   2.548
 1976SOL     OW 6826   1.410   0.817   5.332
 1976SOL    HW1 6827   1.463   0.748   5.281
 1976SOL    HW2 6828   1.380   0.889   5.269
 1977SOL     OW 6829   1.541   3.564   6.841
 1977SOL    HW1 6830   1.519   3.625   6.917
 1977SOL    HW2 6831   1.469   3.571   6.772
 1978SOL     OW 6832   3.004   0.233   2.028
 1978SOL    HW1 6833   2.927   0.264   1.974
 1978SOL    HW2 6834   3.090   0.261   1.984
 1979SOL     OW 6835   5.581   4.559   6.559
 1979SOL    HW1 6836   5.658   4.499   6.539
 1979SOL    HW2 6837   5.507   4.541   6.495
 1980SOL     OW 6838   4.138   0.402   0.871
 1980SOL    HW1 6839   4.107   0.307   0.868
 1980SOL    HW2 6840   4.238   0.404   0.865
 1981SOL     OW 6841   4.040   2.029   2.290
 1981SOL    HW1 6842   4.065   1.944   2.245
 1981SOL    HW2 6843   3.941   2.040   2.288
 1982SOL     OW 6844   1.560   3.206   6.108
 1982SOL    HW1 6845   1.504   3.186   6.027
 1982SOL    HW2 6846   1.563   3.125   6.167
 1983SOL     OW 6847   6.357   1.394   1.918
 1983SOL    HW1 6848   6.321   1.321   1.859
 1983SOL    HW2 6849   6.298   1.404   1.998
 1984SOL     OW 6850   4.802   3.718   6.078
 1984SOL    HW1 6851   4.790   3.748   6.173
 1984SOL    HW2 6852   4.835   3.624   6.077
 1985SOL     OW 6853   6.171   4.531   3.910
 1985SOL    HW1 6854   6.115   4.467   3.962
 1985SOL    HW2 6855   6.172   4.504   3.814
 1986SOL     OW 6856   2.859   3.466   1.999
 1986SOL    HW1 6857   2.771   3.436   1.965
 1986SOL    HW2 6858   2.881   3.556   1.962
 1987SOL     OW 6859   2.646   0.911   1.936
 1987SOL    HW1 6860   2.726   0.868   1.896
 1987SOL    HW2 6861   2.669   0.951   2.025
 1988SOL     OW 6862   0.601   1.937   2.275
 1988SOL    HW1 6863   0.678   1.876   2.297
 1988SOL    HW2 6864   0.556   1.964   2.360
 1989SOL     OW 6865   2.956   5.769   5.066
 1989SOL    HW1 6866   2.946   5.763   5.166
 1989SOL    HW2 6867   3.044   5.812   5.044
 1990SOL     OW 6868   3.969   0.085   0.142
 1990SOL    HW1 6869   3.988   0.153   0.213
 1990SOL    HW2 6870   3.970   0.130   0.052
 1991SOL     OW 6871   2.420   5.326   1.792
 1991SOL    HW1 6872   2.349   5.263   1.761
 1991SOL    HW2 6873   2.425   5.403   1.729
 1992SOL     OW 6874   1.012   6.718   2.982
 1992SOL    HW1 6875   1.079   6.712   2.908
 1992SOL    HW2 6876   1.060   6.723   3.070
 1993SOL     OW 6877   1.973   1.697   2.880
 1993SOL    HW1 6878   2.029   1.752   2.818
 1993SOL    HW2 6879   1.893   1.663   2.831
 1994SOL     OW 6880   3.885   3.406   1.366
 1994SOL    HW1 6881   3.825   3.406   1.447
 1994SOL    HW2 6882   3.967   3.353   1.386
 1995SOL     OW 6883   5.614   1.802   4.154
 1995SOL    HW1 6884   5.709   1.834   4.154
 1995SOL    HW2 6885   5.593   1.761   4.065
 1996SOL     OW 6886   5.160   0.807   0.675
 1996SOL    HW1 6887   5.092   0.798   0.602
 1996SOL    HW2 6888   5.232   0.870   0.646
 1997SOL     OW 6889   3.680   1.160   3.806
 1997SOL    HW1 6890   3.644   1.242   3.761
 1997SOL    HW2 6891   3.633   1.079   3.770
 1998SOL     OW 6892   2.769   3.973   1.347
 1998SOL    HW1 6893   2.708   3.972   1.426
 1998SOL    HW2 6894   2.736   3.908   1.278
 1999SOL     OW 6895   0.720   6.755   6.763
 1999SOL    HW1 6896   0.627   6.721   6.779
 1999SOL    HW2 6897   0.738   6.754   6.664
 2000SOL     OW 6898   4.320   4.361   6.079
 2000SOL    HW1 6899   4.371   4.303   6.016
 2000SOL    HW2 6900   4.272   4.432   6.027
 2001SOL     OW 6901   1.453   2.326   0.689
 2001SOL    HW1 6902   1.503   2.366   0.767
 2001SOL    HW2 6903   1.355   2.342   0.702
 2002SOL     OW 6904   6.273   5.495   1.046
 2002SOL    HW1 6905   6.198   5.539   1.095
 2002SOL    HW2 6906   6.359   5.542   1.068
 2003SOL     OW 6907   5.853   5.611   1.589
 2003SOL    HW1 6908   5.801   5.696   1.602
 2003SOL    HW2 6909   5.947   5.625   1.617
 2004SOL     OW 6910   4.133   0.188   3.169
 2004SOL    HW1 6911   4.225   0.223   3.151
 2004SOL    HW2 6912   4.081   0.257   3.219
 2005SOL     OW 6913   1.288   6.923   0.336
 2005SOL    HW1 6914   1.282   6.956   0.241
 2005SOL    HW2 6915   1.313   6.826   0.335
 2006SOL     OW 6916   6.055   6.827   2.124
 2006SOL    HW1 6917   6.090   6.914   2.160
 2006SOL    HW2 6918   5.956   6.836   2.108
 2007SOL     OW 6919   5.718   4.931   5.886
 2007SOL    HW1 6920   5.758   4.877   5.961
 2007SOL    HW2 6921   5.623   4.953   5.909
 2008SOL     OW 6922   1.796   3.234   2.721
 2008SOL    HW1 6923   1.796   3.273   2.629
 2008SOL    HW2 6924   1.804   3.134   2.715
 2009SOL     OW 6925   6.311   6.957   2.710
 2009SOL    HW1 6926   6.240   7.005   2.761
 2009SOL    HW2 6927   6.273   6.925   2.623
 2010SOL     OW 6928   0.161   1.878   1.713
 2010SOL    HW1 6929   0.106   1.812   1.764
 2010SOL    HW2 6930   0.195   1.835   1.630
 2011SOL     OW 6931   1.152   6.810   5.007
 2011SOL    HW1 6932   1.151   6.866   4.924
 2011SOL    HW2 6933   1.181   6.867   5.084
 2012SOL     OW 6934   0.479   2.976   0.810
 2012SOL    HW1 6935   0.579   2.974   0.801
 2012SOL    HW2 6936   0.438   2.986   0.720
 2013SOL     OW 6937   0.478   2.346   2.143
 2013SOL    HW1 6938   0.548   2.297   2.092
 2013SOL    HW2 6939   0.487   2.444   2.125
 2014SOL     OW 6940   3.804   1.702   4.161
 2014SOL    HW1 6941   3.847   1.612   4.156
 2014SOL    HW2 6942   3.705   1.692   4.168
 2015SOL     OW 6943   3.894   6.357   2.325
 2015SOL    HW1 6944   3.847   6.361   2.414
 2015SOL    HW2 6945   3.829   6.331   2.254
 2016SOL     OW 6946   1.733   0.680   5.404
 2016SOL    HW1 6947   1.807   0.614   5.406
 2016SOL    HW2 6948   1.740   0.741   5.482
 2017SOL     OW 6949   3.051   6.353   3.986
 2017SOL    HW1 6950   3.040   6.297   4.068
 2017SOL    HW2 6951   3.000   6.313   3.910
 2018SOL     OW 6952   0.443   0.529   4.587
 2018SOL    HW1 6953   0.366   0.488   4.635
 2018SOL    HW2 6954   0.424   0.532   4.489
 2019SOL     OW 6955   6.774   5.129   6.884
 2019SOL    HW1 6956   6.684   5.173   6.891
 2019SOL    HW2 6957   6.769   5.051   6.822
 2020SOL     OW 6958   1.854   6.604   0.731
 2020SOL    HW1 6959   1.760   6.612   0.766
 2020SOL    HW2 6960   1.900   6.527   0.777
 2021SOL     OW 6961   0.230   5.775   4.371
 2021SOL    HW1 6962   0.223   5.681   4.336
 2021SOL    HW2 6963   0.311   5.783   4.428
 2022SOL     OW 6964   1.338   3.441   4.197
 2022SOL    HW1 6965   1.243   3.470   4.199
 2022SOL    HW2 6966   1.355   3.376   4.271
 2023SOL     OW 6967   6.619   5.756   6.796
 2023SOL    HW1 6968   6.594   5.813   6.718
 2023SOL    HW2 6969   6.622   5.812   6.879
 2024SOL     OW 6970   6.931   5.483   3.858
 2024SOL    HW1 6971   6.959   5.503   3.764
 2024SOL    HW2 6972   7.002   5.513   3.921
 2025SOL     OW 6973   1.748   6.062   4.389
 2025SOL    HW1 6974   1.803   6.119   4.451
 2025SOL    HW2 6975   1.807   6.019   4.322
 2026SOL     OW 6976   1.191   6.794   5.406
 2026SOL    HW1 6977   1.267   6.816   5.467
 2026SOL    HW2 6978   1.191   6.857   5.328
 2027SOL     OW 6979   6.905   5.998   2.492
 2027SOL    HW1 6980   6.916   5.916   2.436
 2027SOL    HW2 6981   6.808   6.023   2.496
 2028SOL     OW 6982   2.775   5.622   4.869
 2028SOL    HW1 6983   2.683   5.662   4.873
 2028SOL    HW2 6984   2.830   5.658   4.944
 2029SOL     OW 6985   6.200   2.614   6.892
 2029SOL    HW1 6986   6.153   2.648   6.974
 2029SOL    HW2 6987   6.178   2.518   6.879
 2030SOL     OW 6988   2.336   6.561   2.756
 2030SOL    HW1 6989   2.295   6.478   2.794
 2030SOL    HW2 6990   2.388   6.608   2.827
 2031SOL     OW 6991   0.413   6.242   5.320
 2031SOL    HW1 6992   0.445   6.330   5.286
 2031SOL    HW2 6993   0.485   6.198   5.373
 2032SOL     OW 6994   2.231   3.081   6.073
 2032SOL    HW1 6995   2.327   3.106   6.073
 2032SOL    HW2 6996   2.221   2.983   6.056
 2033SOL     OW 6997   2.124   1.260   1.143
 2033SOL    HW1 6998   2.182   1.339   1.125
 2033SOL    HW2 6999   2.181   1.183   1.170
 2034SOL     OW 7000   0.603   4.775   5.081
 2034SOL    HW1 7001   0.565   4.789   5.173
 2034SOL    HW2 7002   0.589   4.680   5.053
 2035SOL     OW 7003   5.582   5.592   2.764
 2035SOL    HW1 7004   5.572   5.499   2.800
 2035SOL    HW2 7005   5.543   5.657   2.828
 2036SOL     OW 7006   0.141   4.286   6.415
 2036SOL    HW1 7007   0.188   4.359   6.365
 2036SOL    HW2 7008   0.044   4.310   6.424
 2037SOL     OW 7009   1.220   2.780   6.498
 2037SOL    HW1 7010   1.277   2.821   6.569
 2037SOL    HW2 7011   1.126   2.771   6.531
 2038SOL     OW 7012   1.058   1.341   6.073
 2038SOL    HW1 7013   1.138   1.347   6.133
 2038SOL    HW2 7014   1.084   1.297   5.987
 2039SOL     OW 7015   5.719   5.789   3.169
 2039SOL    HW1 7016   5.790   5.791   3.099
 2039SOL    HW2 7017   5.691   5.883   3.191
 2040SOL     OW 7018   2.560   2.057   0.540
 2040SOL    HW1 7019   2.599   1.969   0.513
 2040SOL    HW2 7020   2.633   2.125   0.547
 2041SOL     OW 7021   2.277   6.591   0.088
 2041SOL    HW1 7022   2.287   6.497   0.120
 2041SOL    HW2 7023   2.244   6.648   0.163
 2042SOL     OW 7024   6.307   0.123   6.209
 2042SOL    HW1 7025   6.394   0.159   6.244
 2042SOL    HW2 7026   6.296   0.029   6.239
 2043SOL     OW 7027   0.564   4.216   0.302
 2043SOL    HW1 7028   0.621   4.266   0.236
 2043SOL    HW2 7029   0.605   4.126   0.319
 2044SOL     OW 7030   4.221   0.336   1.846
 2044SOL    HW1 7031   4.247   0.382   1.761
 2044SOL    HW2 7032   4.149   0.270   1.828
 2045SOL     OW 7033   2.042   5.888   3.875
 2045SOL    HW1 7034   2.130   5.908   3.832
 2045SOL    HW2 7035   1.978   5.855   3.805
 2046SOL     OW 7036   0.813   2.876   5.594
 2046SOL    HW1 7037   0.906   2.841   5.601
 2046SOL    HW2 7038   0.770   2.838   5.512
 2047SOL     OW 7039   6.442   6.737   1.762
 2047SOL    HW1 7040   6.450   6.813   1.827
 2047SOL    HW2 7041   6.346   6.718   1.744
 2048SOL     OW 7042   2.313   0.747   4.034
 2048SOL    HW1 7043   2.378   0.766   3.960
 2048SOL    HW2 7044   2.302   0.829   4.090
 2049SOL     OW 7045   4.506   2.784   5.279
 2049SOL    HW1 7046   4.447   2.817   5.353
 2049SOL    HW2 7047   4.593   2.832   5.282
 2050SOL     OW 7048   0.739   0.916   3.126
 2050SOL    HW1 7049   0.819   0.932   3.069
 2050SOL    HW2 7050   0.723   0.817   3.135
 2051SOL     OW 7051   2.970   6.761   6.807
 2051SOL    HW1 7052   2.909   6.836   6.835
 2051SOL    HW2 7053   3.065   6.787   6.825
 2052SOL     OW 7054   0.376   3.709   1.079
 2052SOL    HW1 7055   0.338   3.708   0.986
 2052SOL    HW2 7056   0.428   3.625   1.094
 2053SOL     OW 7057   6.027   4.755   2.627
 2053SOL    HW1 7058   5.972   4.696   2.685
 2053SOL    HW2 7059   5.994   4.849   2.634
 2054SOL     OW 7060   3.176   3.944   2.864
 2054SOL    HW1 7061   3.126   3.867   2.825
 2054SOL    HW2 7062   3.127   3.981   2.943
 2055SOL     OW 7063   3.999   2.652   5.546
 2055SOL    HW1 7064   4.035   2.664   5.639
 2055SOL    HW2 7065   4.058   2.699   5.481
 2056SOL     OW 7066   2.801   4.738   1.709
 2056SOL    HW1 7067   2.818   4.714   1.805
 2056SOL    HW2 7068   2.792   4.654   1.655
 2057SOL     OW 7069   5.791   2.834   4.031
 2057SOL    HW1 7070   5.717   2.805   3.970
 2057SOL    HW2 7071   5.877   2.796   3.999
 2058SOL     OW 7072   5.532   6.951   3.592
 2058SOL    HW1 7073   5.618   7.003   3.595
 2058SOL    HW2 7074   5.474   6.988   3.519
 2059SOL     OW 7075   2.259   2.096   5.397
 2059SOL    HW1 7076   2.335   2.033   5.407
 2059SOL    HW2 7077   2.224   2.121   5.487
 2060SOL     OW 7078   1.701   2.352   6.530
 2060SOL    HW1 7079   1.603   2.333   6.542
 2060SOL    HW2 7080   1.717   2.387   6.438
 2061SOL     OW 7081   2.101   2.205   3.775
 2061SOL    HW1 7082   2.163   2.277   3.744
 2061SOL    HW2 7083   2.150   2.142   3.835
 2062SOL     OW 7084   5.800   4.964   4.334
 2062SOL    HW1 7085   5.802   5.016   4.249
 2062SOL    HW2 7086   5.748   4.880   4.321
 2063SOL     OW 7087   1.173   2.021   3.921
 2063SOL    HW1 7088   1.073   2.018   3.920
 2063SOL    HW2 7089   1.209   1.929   3.912
 2064SOL     OW 7090   0.515   4.117   4.571
 2064SOL    HW1 7091   0.456   4.142   4.494
 2064SOL    HW2 7092   0.609   4.145   4.552
 2065SOL     OW 7093   3.903   3.564   5.583
 2065SOL    HW1 7094   3.958   3.594   5.662
 2065SOL    HW2 7095   3.889   3.466   5.589
 2066SOL     OW 7096   1.497   2.417   4.835
 2066SOL    HW1 7097   1.523   2.470   4.916
 2066SOL    HW2 7098   1.411   2.369   4.852
 2067SOL     OW 7099   6.627   4.506   2.385
 2067SOL    HW1 7100   6.624   4.407   2.399
 2067SOL    HW2 7101   6.568   4.552   2.452
 2068SOL     OW 7102   3.932   6.302   4.182
 2068SOL    HW1 7103   3.920   6.268   4.089
 2068SOL    HW2 7104   3.922   6.401   4.183
 2069SOL     OW 7105   6.372   1.042   3.675
 2069SOL    HW1 7106   6.468   1.014   3.683
 2069SOL    HW2 7107   6.342   1.086   3.760
 2070SOL     OW 7108   1.107   4.777   1.515
 2070SOL    HW1 7109   1.145   4.716   1.585
 2070SOL    HW2 7110   1.152   4.758   1.427
 2071SOL     OW 7111   6.848   2.644   4.845
 2071SOL    HW1 7112   6.879   2.640   4.940
 2071SOL    HW2 7113   6.830   2.551   4.813
 2072SOL     OW 7114   5.758   3.665   5.153
 2072SOL    HW1 7115   5.741   3.670   5.054
 2072SOL    HW2 7116   5.671   3.650   5.200
 2073SOL     OW 7117   3.405   5.288   6.504
 2073SOL    HW1 7118   3.470   5.240   6.445
 2073SOL    HW2 7119   3.359   5.221   6.563
 2074SOL     OW 7120   3.282   4.611   5.493
 2074SOL    HW1 7121   3.215   4.656   5.434
 2074SOL    HW2 7122   3.372   4.653   5.478
 2075SOL     OW 7123   5.400   2.246   1.681
 2075SOL    HW1 7124   5.372   2.297   1.600
 2075SOL    HW2 7125   5.325   2.246   1.748
 2076SOL     OW 7126   6.818   6.408   3.955
 2076SOL    HW1 7127   6.903   6.455   3.932
 2076SOL    HW2 7128   6.743   6.447   3.901
 2077SOL     OW 7129   6.855   4.484   0.759
 2077SOL    HW1 7130   6.892   4.438   0.678
 2077SOL    HW2 7131   6.898   4.574   0.769
 2078SOL     OW 7132   0.923   2.778   6.464
 2078SOL    HW1 7133   0.885   2.850   6.522
 2078SOL    HW2 7134   0.899   2.689   6.503
 2079SOL     OW 7135   5.390   1.368   2.838
 2079SOL    HW1 7136   5.482   1.366   2.799
 2079SOL    HW2 7137   5.327   1.410   2.773
 2080SOL     OW 7138   2.300   3.432   6.273
 2080SOL    HW1 7139   2.344   3.425   6.184
 2080SOL    HW2 7140   2.201   3.424   6.262
 2081SOL     OW 7141   0.458   6.048   2.416
 2081SOL    HW1 7142   0.504   5.981   2.475
 2081SOL    HW2 7143   0.511   6.133   2.414
 2082SOL     OW 7144   7.019   5.748   3.824
 2082SOL    HW1 7145   0.030   5.680   3.760
 2082SOL    HW2 7146   6.954   5.808   3.777
 2083SOL     OW 7147   0.405   5.858   4.074
 2083SOL    HW1 7148   0.325   5.907   4.041
 2083SOL    HW2 7149   0.438   5.900   4.158
 2084SOL     OW 7150   6.620   2.588   1.224
 2084SOL    HW1 7151   6.696   2.653   1.215
 2084SOL    HW2 7152   6.534   2.638   1.235
 2085SOL     OW 7153   6.201   5.803   0.388
 2085SOL    HW1 7154   6.277   5.741   0.366
 2085SOL    HW2 7155   6.238   5.890   0.422
 2086SOL     OW 7156   5.874   0.024   6.155
 2086SOL    HW1 7157   5.793   7.023   6.208
 2086SOL    HW2 7158   5.929   0.090   6.207
 2087SOL     OW 7159   4.719   1.452   6.734
 2087SOL    HW1 7160   4.767   1.430   6.820
 2087SOL    HW2 7161   4.741   1.383   6.665
 2088SOL     OW 7162   0.278   4.279   6.076
 2088SOL    HW1 7163   0.273   4.209   6.147
 2088SOL    HW2 7164   0.367   4.275   6.030
 2089SOL     OW 7165   2.686   4.750   5.873
 2089SOL    HW1 7166   2.738   4.831   5.899
 2089SOL    HW2 7167   2.634   4.769   5.789
 2090SOL     OW 7168   4.911   2.596   0.048
 2090SOL    HW1 7169   4.938   2.515   0.099
 2090SOL    HW2 7170   4.990   2.635   0.002
 2091SOL     OW 7171   5.048   6.417   1.018
 2091SOL    HW1 7172   5.022   6.500   0.969
 2091SOL    HW2 7173   5.113   6.365   0.963
 2092SOL     OW 7174   3.451   3.238   1.977
 2092SOL    HW1 7175   3.390   3.238   1.898
 2092SOL    HW2 7176   3.398   3.244   2.061
 2093SOL     OW 7177   4.664   0.256   0.634
 2093SOL    HW1 7178   4.735   0.211   0.579
 2093SOL    HW2 7179   4.649   0.205   0.718
 2094SOL     OW 7180   5.290   2.254   1.239
 2094SOL    HW1 7181   5.196   2.241   1.207
 2094SOL    HW2 7182   5.353   2.234   1.164
 2095SOL     OW 7183   5.241   4.945   4.109
 2095SOL    HW1 7184   5.229   5.025   4.050
 2095SOL    HW2 7185   5.154   4.896   4.118
 2096SOL     OW 7186   4.545   6.927   2.795
 2096SOL    HW1 7187   4.449   6.900   2.795
 2096SOL    HW2 7188   4.565   6.981   2.713
 2097SOL     OW 7189   0.956   6.137   5.558
 2097SOL    HW1 7190   0.908   6.071   5.499
 2097SOL    HW2 7191   0.987   6.091   5.641
 2098SOL     OW 7192   2.121   7.003   3.480
 2098SOL    HW1 7193   2.111   6.904   3.491
 2098SOL    HW2 7194   2.086   0.025   3.562
 2099SOL     OW 7195   4.473   1.410   0.078
 2099SOL    HW1 7196   4.500   1.501   0.045
 2099SOL    HW2 7197   4.523   1.390   0.162
 2100SOL     OW 7198   4.958   0.710   0.057
 2100SOL    HW1 7199   4.963   0.761   6.995
 2100SOL    HW2 7200   5.049   0.705   0.098
 2101SOL     OW 7201   1.972   0.491   2.495
 2101SOL    HW1 7202   1.988   0.393   2.483
 2101SOL    HW2 7203   1.907   0.522   2.426
 2102SOL     OW 7204   3.717   2.614   1.753
 2102SOL    HW1 7205   3.696   2.602   1.656
 2102SOL    HW2 7206   3.702   2.528   1.802
 2103SOL     OW 7207   1.493   7.010   0.777
 2103SOL    HW1 7208   1.540   6.999   0.864
 2103SOL    HW2 7209   1.395   7.022   0.793
 2104SOL     OW 7210   1.694   4.132   2.457
 2104SOL    HW1 7211   1.596   4.141   2.442
 2104SOL    HW2 7212   1.744   4.174   2.381
 2105SOL     OW 7213   5.256   7.010   5.010
 2105SOL    HW1 7214   5.336   7.003   4.951
 2105SOL    HW2 7215   5.214   6.920   5.021
 2106SOL     OW 7216   3.541   2.199   1.199
 2106SOL    HW1 7217   3.573   2.207   1.293
 2106SOL    HW2 7218   3.457   2.145   1.197
 2107SOL     OW 7219   4.892   4.262   4.574
 2107SOL    HW1 7220   4.830   4.304   4.640
 2107SOL    HW2 7221   4.873   4.164   4.568
 2108SOL     OW 7222   4.531   6.866   4.890
 2108SOL    HW1 7223   4.631   6.865   4.900
 2108SOL    HW2 7224   4.492   6.787   4.937
 2109SOL     OW 7225   2.524   5.750   1.789
 2109SOL    HW1 7226   2.461   5.797   1.849
 2109SOL    HW2 7227   2.599   5.812   1.763
 2110SOL     OW 7228   3.629   5.754   6.804
 2110SOL    HW1 7229   3.643   5.682   6.736
 2110SOL    HW2 7230   3.703   5.751   6.872
 2111SOL     OW 7231   0.934   2.580   6.870
 2111SOL    HW1 7232   0.880   2.583   6.953
 2111SOL    HW2 7233   0.973   2.671   6.851
 2112SOL     OW 7234   0.935   0.306   6.521
 2112SOL    HW1 7235   0.980   0.333   6.606
 2112SOL    HW2 7236   0.870   0.232   6.539
 2113SOL     OW 7237   6.596   1.658   5.003
 2113SOL    HW1 7238   6.584   1.658   5.102
 2113SOL    HW2 7239   6.604   1.752   4.970
 2114SOL     OW 7240   2.546   1.050   5.297
 2114SOL    HW1 7241   2.469   0.990   5.275
 2114SOL    HW2 7242   2.516   1.145   5.291
 2115SOL     OW 7243   0.026   6.577   3.533
 2115SOL    HW1 7244   6.954   6.551   3.523
 2115SOL    HW2 7245   0.034   6.648   3.603
 2116SOL     OW 7246   2.172   1.420   6.468
 2116SOL    HW1 7247   2.271   1.410   6.468
 2116SOL    HW2 7248   2.142   1.451   6.558
 2117SOL     OW 7249   6.060   2.592   2.375
 2117SOL    HW1 7250   6.091   2.515   2.320
 2117SOL    HW2 7251   6.133   2.661   2.381
 2118SOL     OW 7252   0.306   2.986   2.465
 2118SOL    HW1 7253   0.305   3.071   2.412
 2118SOL    HW2 7254   0.330   3.007   2.560
 2119SOL     OW 7255   1.096   3.252   0.421
 2119SOL    HW1 7256   1.141   3.267   0.509
 2119SOL    HW2 7257   1.027   3.180   0.431
 2120SOL     OW 7258   5.517   1.991   0.415
 2120SOL    HW1 7259   5.505   1.922   0.486
 2120SOL    HW2 7260   5.500   2.082   0.453
 2121SOL     OW 7261   2.711   6.522   1.585
 2121SOL    HW1 7262   2.716   6.622   1.581
 2121SOL    HW2 7263   2.638   6.495   1.648
 2122SOL     OW 7264   6.837   0.515   4.697
 2122SOL    HW1 7265   6.760   0.455   4.719
 2122SOL    HW2 7266   6.911   0.499   4.762
 2123SOL     OW 7267   1.103   4.729   3.360
 2123SOL    HW1 7268   1.125   4.692   3.451
 2123SOL    HW2 7269   1.072   4.654   3.301
 2124SOL     OW 7270   4.853   3.249   6.357
 2124SOL    HW1 7271   4.813   3.317   6.419
 2124SOL    HW2 7272   4.782   3.185   6.329
 2125SOL     OW 7273   1.368   5.894   4.753
 2125SOL    HW1 7274   1.406   5.814   4.800
 2125SOL    HW2 7275   1.430   5.920   4.678
 2126SOL     OW 7276   2.902   4.623   0.758
 2126SOL    HW1 7277   2.916   4.646   0.661
 2126SOL    HW2 7278   2.985   4.644   0.810
 2127SOL     OW 7279   1.309   3.729   4.599
 2127SOL    HW1 7280   1.357   3.643   4.617
 2127SOL    HW2 7281   1.213   3.720   4.624
 2128SOL     OW 7282   5.278   3.208   1.552
 2128SOL    HW1 7283   5.316   3.290   1.596
 2128SOL    HW2 7284   5.251   3.142   1.622
 2129SOL     OW 7285   5.638   3.975   3.812
 2129SOL    HW1 7286   5.570   4.046   3.829
 2129SOL    HW2 7287   5.720   4.016   3.771
 2130SOL     OW 7288   2.160   0.701   2.218
 2130SOL    HW1 7289   2.106   0.758   2.155
 2130SOL    HW2 7290   2.173   0.751   2.304
 2131SOL     OW 7291   5.953   0.610   6.891
 2131SOL    HW1 7292   5.880   0.580   6.952
 2131SOL    HW2 7293   5.914   0.640   6.804
 2132SOL     OW 7294   2.555   2.826   0.440
 2132SOL    HW1 7295   2.476   2.844   0.381
 2132SOL    HW2 7296   2.634   2.804   0.383
 2133SOL     OW 7297   4.109   2.401   1.783
 2133SOL    HW1 7298   4.118   2.371   1.878
 2133SOL    HW2 7299   4.199   2.424   1.746
 2134SOL     OW 7300   2.274   0.060   5.576
 2134SOL    HW1 7301   2.210   0.000   5.624
 2134SOL    HW2 7302   2.251   0.156   5.597
 2135SOL     OW 7303   1.103   6.098   4.204
 2135SOL    HW1 7304   1.061   6.166   4.143
 2135SOL    HW2 7305   1.100   6.132   4.298
 2136SOL     OW 7306   1.055   5.217   3.527
 2136SOL    HW1 7307   1.034   5.276   3.604
 2136SOL    HW2 7308   0.971   5.196   3.476
 2137SOL     OW 7309   0.168   0.141   4.762
 2137SOL    HW1 7310   0.253   0.129   4.814
 2137SOL    HW2 7311   0.099   0.077   4.796
 2138SOL     OW 7312   1.286   2.497   6.193
 2138SOL    HW1 7313   1.328   2.536   6.276
 2138SOL    HW2 7314   1.198   2.541   6.177
 2139SOL     OW 7315   2.959   6.808   4.576
 2139SOL    HW1 7316   3.012   6.864   4.640
 2139SOL    HW2 7317   2.937   6.720   4.618
 2140SOL     OW 7318   1.407   5.912   3.688
 2140SOL    HW1 7319   1.430   5.816   3.671
 2140SOL    HW2 7320   1.335   5.918   3.757
 2141SOL     OW 7321   6.704   1.805   6.541
 2141SOL    HW1 7322   6.754   1.736   6.488
 2141SOL    HW2 7323   6.708   1.893   6.493
 2142SOL     OW 7324   3.666   1.150   3.402
 2142SOL    HW1 7325   3.754   1.122   3.440
 2142SOL    HW2 7326   3.678   1.175   3.306
 2143SOL     OW 7327   2.944   5.728   0.619
 2143SOL    HW1 7328   3.036   5.710   0.584
 2143SOL    HW2 7329   2.878   5.675   0.567
 2144SOL     OW 7330   1.391   1.058   1.794
 2144SOL    HW1 7331   1.488   1.034   1.791
 2144SOL    HW2 7332   1.363   1.067   1.890
 2145SOL     OW 7333   2.601   5.405   3.017
 2145SOL    HW1 7334   2.619   5.379   3.111
 2145SOL    HW2 7335   2.589   5.505   3.012
 2146SOL     OW 7336   2.823   2.715   0.744
 2146SOL    HW1 7337   2.865   2.754   0.826
 2146SOL    HW2 7338   2.835   2.615   0.745
 2147SOL     OW 7339   0.204   0.612   4.989
 2147SOL    HW1 7340   0.207   0.712   4.979
 2147SOL    HW2 7341   0.180   0.589   5.083
 2148SOL     OW 7342   6.179   4.000   4.469
 2148SOL    HW1 7343   6.245   3.927   4.492
 2148SOL    HW2 7344   6.219   4.060   4.400
 2149SOL     OW 7345   3.115   0.453   3.142
 2149SOL    HW1 7346   3.131   0.375   3.203
 2149SOL    HW2 7347   3.026   0.494   3.163
 2150SOL     OW 7348   5.133   0.121   3.150
 2150SOL    HW1 7349   5.078   0.038   3.140
 2150SOL    HW2 7350   5.102   0.190   3.085
 2151SOL     OW 7351   4.682   4.752   6.299
 2151SOL    HW1 7352   4.601   4.758   6.358
 2151SOL    HW2 7353   4.677   4.668   6.245
 2152SOL     OW 7354   0.036   6.745   2.455
 2152SOL    HW1 7355   0.080   6.820   2.406
 2152SOL    HW2 7356   6.997   6.698   2.395
 2153SOL     OW 7357   4.640   1.646   3.850
 2153SOL    HW1 7358   4.607   1.552   3.859
 2153SOL    HW2 7359   4.631   1.676   3.755
 2154SOL     OW 7360   3.438   6.587   5.167
 2154SOL    HW1 7361   3.520   6.531   5.155
 2154SOL    HW2 7362   3.368   6.535   5.215
 2155SOL     OW 7363   5.748   3.433   0.303
 2155SOL    HW1 7364   5.736   3.414   0.205
 2155SOL    HW2 7365   5.663   3.414   0.352
 2156SOL     OW 7366   6.847   0.060   2.359
 2156SOL    HW1 7367   6.861   6.999   2.310
 2156SOL    HW2 7368   6.835   0.041   2.456
 2157SOL     OW 7369   5.921   1.038   4.119
 2157SOL    HW1 7370   5.886   1.127   4.149
 2157SOL    HW2 7371   5.886   1.018   4.027
 2158SOL     OW 7372   4.544   0.293   4.001
 2158SOL    HW1 7373   4.587   0.206   3.977
 2158SOL    HW2 7374   4.558   0.311   4.098
 2159SOL     OW 7375   2.656   0.331   5.437
 2159SOL    HW1 7376   2.607   0.416   5.418
 2159SOL    HW2 7377   2.611   0.283   5.512
 2160SOL     OW 7378   2.599   3.418   1.159
 2160SOL    HW1 7379   2.527   3.350   1.146
 2160SOL    HW2 7380   2.655   3.424   1.076
 2161SOL     OW 7381   4.978   2.741   3.825
 2161SOL    HW1 7382   4.973   2.674   3.751
 2161SOL    HW2 7383   4.895   2.797   3.825
 2162SOL     OW 7384   2.534   1.473   1.885
 2162SOL    HW1 7385   2.466   1.421   1.834
 2162SOL    HW2 7386   2.503   1.483   1.980
 2163SOL     OW 7387   3.074   1.782   1.058
 2163SOL    HW1 7388   3.112   1.699   1.100
 2163SOL    HW2 7389   2.977   1.767   1.038
 2164SOL     OW 7390   6.848   0.861   1.429
 2164SOL    HW1 7391   6.854   0.888   1.525
 2164SOL    HW2 7392   6.752   0.854   1.401
 2165SOL     OW 7393   2.893   0.040   1.715
 2165SOL    HW1 7394   2.985   0.071   1.741
 2165SOL    HW2 7395   2.884   0.042   1.616
 2166SOL     OW 7396   5.469   2.169   5.251
 2166SOL    HW1 7397   5.421   2.191   5.335
 2166SOL    HW2 7398   5.493   2.072   5.251
 2167SOL     OW 7399   3.175   1.148   0.912
 2167SOL    HW1 7400   3.134   1.061   0.884
 2167SOL    HW2 7401   3.239   1.178   0.841
 2168SOL     OW 7402   6.168   6.272   4.356
 2168SOL    HW1 7403   6.234   6.201   4.379
 2168SOL    HW2 7404   6.077   6.233   4.350
 2169SOL     OW 7405   5.407   1.220   5.852
 2169SOL    HW1 7406   5.374   1.182   5.938
 2169SOL    HW2 7407   5.346   1.192   5.778
 2170SOL     OW 7408   5.103   4.590   4.037
 2170SOL    HW1 7409   5.084   4.665   4.101
 2170SOL    HW2 7410   5.163   4.623   3.964
 2171SOL     OW 7411   0.075   3.850   0.193
 2171SOL    HW1 7412   0.100   3.894   0.106
 2171SOL    HW2 7413   0.008   3.906   0.241
 2172SOL     OW 7414   2.692   0.613   2.145
 2172SOL    HW1 7415   2.669   0.517   2.128
 2172SOL    HW2 7416   2.608   0.668   2.142
 2173SOL     OW 7417   4.551   2.435   4.822
 2173SOL    HW1 7418   4.532   2.509   4.887
 2173SOL    HW2 7419   4.473   2.373   4.817
 2174SOL     OW 7420   1.122   5.629   4.409
 2174SOL    HW1 7421   1.174   5.578   4.341
 2174SOL    HW2 7422   1.151   5.724   4.410
 2175SOL     OW 7423   1.675   6.290   5.822
 2175SOL    HW1 7424   1.659   6.262   5.727
 2175SOL    HW2 7425   1.588   6.314   5.865
 2176SOL     OW 7426   2.015   2.325   2.894
 2176SOL    HW1 7427   2.089   2.258   2.897
 2176SOL    HW2 7428   2.047   2.410   2.853
 2177SOL     OW 7429   1.240   1.862   1.268
 2177SOL    HW1 7430   1.320   1.897   1.317
 2177SOL    HW2 7431   1.157   1.893   1.313
 2178SOL     OW 7432   6.412   6.395   0.637
 2178SOL    HW1 7433   6.382   6.489   0.650
 2178SOL    HW2 7434   6.458   6.386   0.549
 2179SOL     OW 7435   2.122   4.054   3.871
 2179SOL    HW1 7436   2.175   4.081   3.790
 2179SOL    HW2 7437   2.029   4.031   3.843
 2180SOL     OW 7438   3.305   2.626   1.772
 2180SOL    HW1 7439   3.324   2.687   1.848
 2180SOL    HW2 7440   3.206   2.624   1.755
 2181SOL     OW 7441   3.651   6.696   1.505
 2181SOL    HW1 7442   3.656   6.702   1.605
 2181SOL    HW2 7443   3.677   6.604   1.477
 2182SOL     OW 7444   4.597   2.808   0.706
 2182SOL    HW1 7445   4.590   2.853   0.795
 2182SOL    HW2 7446   4.687   2.763   0.699
 2183SOL     OW 7447   3.689   2.379   0.986
 2183SOL    HW1 7448   3.782   2.395   1.017
 2183SOL    HW2 7449   3.644   2.313   1.046
 2184SOL     OW 7450   5.448   3.188   6.518
 2184SOL    HW1 7451   5.353   3.170   6.544
 2184SOL    HW2 7452   5.476   3.122   6.449
 2185SOL     OW 7453   6.886   6.950   2.101
 2185SOL    HW1 7454   6.950   6.951   2.024
 2185SOL    HW2 7455   6.829   6.868   2.097
 2186SOL     OW 7456   0.687   4.171   3.258
 2186SOL    HW1 7457   0.718   4.122   3.176
 2186SOL    HW2 7458   0.625   4.244   3.230
 2187SOL     OW 7459   6.684   1.388   0.308
 2187SOL    HW1 7460   6.670   1.308   0.251
 2187SOL    HW2 7461   6.725   1.360   0.395
 2188SOL     OW 7462   5.053   1.638   3.935
 2188SOL    HW1 7463   5.064   1.666   4.031
 2188SOL    HW2 7464   5.017   1.715   3.882
 2189SOL     OW 7465   3.391   0.012   0.128
 2189SOL    HW1 7466   3.405   0.086   0.194
 2189SOL    HW2 7467   3.388   0.050   0.036
 2190SOL     OW 7468   5.090   3.065   0.784
 2190SOL    HW1 7469   5.011   3.014   0.750
 2190SOL    HW2 7470   5.112   3.036   0.877
 2191SOL     OW 7471   2.928   1.213   7.010
 2191SOL    HW1 7472   3.015   1.231   6.964
 2191SOL    HW2 7473   2.865   1.289   6.993
 2192SOL     OW 7474   4.186   5.594   2.275
 2192SOL    HW1 7475   4.218   5.679   2.234
 2192SOL    HW2 7476   4.232   5.516   2.232
 2193SOL     OW 7477   6.896   6.138   4.519
 2193SOL    HW1 7478   6.876   6.089   4.435
 2193SOL    HW2 7479   6.880   6.236   4.505
 2194SOL     OW 7480   2.848   6.793   1.581
 2194SOL    HW1 7481   2.947   6.804   1.591
 2194SOL    HW2 7482   2.808   6.877   1.545
 2195SOL     OW 7483   0.641   4.537   1.944
 2195SOL    HW1 7484   0.662   4.488   1.860
 2195SOL    HW2 7485   0.640   4.472   2.021
 2196SOL     OW 7486   4.483   3.765   0.441
 2196SOL    HW1 7487   4.546   3.825   0.392
 2196SOL    HW2 7488   4.515   3.752   0.535
 2197SOL     OW 7489   4.377   3.579   0.239
 2197SOL    HW1 7490   4.415   3.666   0.206
 2197SOL    HW2 7491   4.344   3.526   0.161
 2198SOL     OW 7492   6.812   4.554   0.175
 2198SOL    HW1 7493   6.738   4.587   0.234
 2198SOL    HW2 7494   6.871   4.630   0.148
 2199SOL     OW 7495   4.276   1.227   3.258
 2199SOL    HW1 7496   4.245   1.152   3.316
 2199SOL    HW2 7497   4.199   1.262   3.205
 2200SOL     OW 7498   3.022   6.621   4.219
 2200SOL    HW1 7499   3.006   6.523   4.236
 2200SOL    HW2 7500   3.119   6.635   4.200
 2201SOL     OW 7501   4.636   4.356   4.156
 2201SOL    HW1 7502   4.579   4.385   4.234
 2201SOL    HW2 7503   4.713   4.419   4.147
 2202SOL     OW 7504   4.589   5.306   3.461
 2202SOL    HW1 7505   4.517   5.360   3.505
 2202SOL    HW2 7506   4.677   5.352   3.471
 2203SOL     OW 7507   2.747   2.094   2.668
 2203SOL    HW1 7508   2.679   2.041   2.719
 2203SOL    HW2 7509   2.839   2.062   2.692
 2204SOL     OW 7510   2.827   1.980   0.713
 2204SOL    HW1 7511   2.772   2.059   0.684
 2204SOL    HW2 7512   2.893   1.958   0.641
 2205SOL     OW 7513   3.332   1.115   2.443
 2205SOL    HW1 7514   3.292   1.117   2.535
 2205SOL    HW2 7515   3.365   1.206   2.419
 2206SOL     OW 7516   1.839   3.662   0.533
 2206SOL    HW1 7517   1.865   3.726   0.461
 2206SOL    HW2 7518   1.764   3.604   0.501
 2207SOL     OW 7519   6.480   4.898   5.118
 2207SOL    HW1 7520   6.479   4.803   5.085
 2207SOL    HW2 7521   6.387   4.926   5.141
 2208SOL     OW 7522   6.682   5.407   1.722
 2208SOL    HW1 7523   6.701   5.502   1.697
 2208SOL    HW2 7524   6.586   5.387   1.706
 2209SOL     OW 7525   6.911   6.410   1.689
 2209SOL    HW1 7526   6.989   6.405   1.626
 2209SOL    HW2 7527   6.852   6.486   1.662
 2210SOL     OW 7528   1.829   4.981   4.089
 2210SOL    HW1 7529   1.917   4.995   4.134
 2210SOL    HW2 7530   1.840   4.989   3.990
 2211SOL     OW 7531   0.080   1.815   5.127
 2211SOL    HW1 7532   0.118   1.730   5.164
 2211SOL    HW2 7533   0.014   1.793   5.055
 2212SOL     OW 7534   2.939   6.983   5.843
 2212SOL    HW1 7535   2.998   6.904   5.823
 2212SOL    HW2 7536   2.874   6.958   5.915
 2213SOL     OW 7537   4.803   0.431   3.156
 2213SOL    HW1 7538   4.848   0.473   3.235
 2213SOL    HW2 7539   4.872   0.406   3.088
 2214SOL     OW 7540   3.691   0.095   5.226
 2214SOL    HW1 7541   3.609   0.059   5.271
 2214SOL    HW2 7542   3.762   0.025   5.224
 2215SOL     OW 7543   5.794   2.218   5.283
 2215SOL    HW1 7544   5.705   2.264   5.280
 2215SOL    HW2 7545   5.809   2.182   5.375
 2216SOL     OW 7546   3.415   1.758   2.623
 2216SOL    HW1 7547   3.468   1.766   2.539
 2216SOL    HW2 7548   3.387   1.662   2.636
 2217SOL     OW 7549   3.637   0.341   1.657
 2217SOL    HW1 7550   3.568   0.400   1.699
 2217SOL    HW2 7551   3.655   0.372   1.564
 2218SOL     OW 7552   0.641   0.388   2.513
 2218SOL    HW1 7553   0.630   0.465   2.450
 2218SOL    HW2 7554   0.654   0.422   2.606
 2219SOL     OW 7555   2.840   2.076   3.124
 2219SOL    HW1 7556   2.909   2.040   3.186
 2219SOL    HW2 7557   2.884   2.135   3.056
 2220SOL     OW 7558   1.182   0.309   1.937
 2220SOL    HW1 7559   1.089   0.338   1.961
 2220SOL    HW2 7560   1.190   0.210   1.946
 2221SOL     OW 7561   0.435   0.154   5.739
 2221SOL    HW1 7562   0.533   0.166   5.754
 2221SOL    HW2 7563   0.384   0.201   5.811
 2222SOL     OW 7564   6.377   4.888   3.763
 2222SOL    HW1 7565   6.307   4.948   3.725
 2222SOL    HW2 7566   6.340   4.841   3.843
 2223SOL     OW 7567   6.825   6.379   1.312
 2223SOL    HW1 7568   6.824   6.456   1.376
 2223SOL    HW2 7569   6.900   6.317   1.336
 2224SOL     OW 7570   0.715   5.387   0.486
 2224SOL    HW1 7571   0.773   5.408   0.407
 2224SOL    HW2 7572   0.741   5.298   0.523
 2225SOL     OW 7573   0.325   3.867   0.350
 2225SOL    HW1 7574   0.249   3.848   0.288
 2225SOL    HW2 7575   0.411   3.838   0.307
 2226SOL     OW 7576   3.823   3.447   2.421
 2226SOL    HW1 7577   3.855   3.370   2.365
 2226SOL    HW2 7578   3.887   3.523   2.414
 2227SOL     OW 7579   0.759   2.117   4.227
 2227SOL    HW1 7580   0.796   2.035   4.271
 2227SOL    HW2 7581   0.660   2.109   4.219
 2228SOL     OW 7582   2.722   4.787   3.834
 2228SOL    HW1 7583   2.686   4.739   3.914
 2228SOL    HW2 7584   2.817   4.762   3.819
 2229SOL     OW 7585   6.334   6.318   3.028
 2229SOL    HW1 7586   6.328   6.402   3.082
 2229SOL    HW2 7587   6.426   6.309   2.990
 2230SOL     OW 7588   1.959   5.609   2.432
 2230SOL    HW1 7589   2.006   5.533   2.478
 2230SOL    HW2 7590   1.864   5.583   2.413
 2231SOL     OW 7591   2.313   5.675   1.138
 2231SOL    HW1 7592   2.229   5.662   1.191
 2231SOL    HW2 7593   2.323   5.602   1.071
 2232SOL     OW 7594   5.475   2.160   3.782
 2232SOL    HW1 7595   5.507   2.123   3.869
 2232SOL    HW2 7596   5.382   2.127   3.764
 2233SOL     OW 7597   3.227   1.333   0.080
 2233SOL    HW1 7598   3.260   1.255   0.133
 2233SOL    HW2 7599   3.233   1.312   7.006
 2234SOL     OW 7600   3.776   2.547   1.223
 2234SOL    HW1 7601   3.720   2.564   1.304
 2234SOL    HW2 7602   3.751   2.612   1.151
 2235SOL     OW 7603   2.059   1.778   2.572
 2235SOL    HW1 7604   2.105   1.815   2.492
 2235SOL    HW2 7605   1.969   1.821   2.583
 2236SOL     OW 7606   1.071   4.523   5.395
 2236SOL    HW1 7607   1.001   4.456   5.418
 2236SOL    HW2 7608   1.121   4.548   5.478
 2237SOL     OW 7609   6.694   2.832   4.393
 2237SOL    HW1 7610   6.661   2.909   4.338
 2237SOL    HW2 7611   6.673   2.848   4.490
 2238SOL     OW 7612   5.202   6.423   0.140
 2238SOL    HW1 7613   5.192   6.324   0.148
 2238SOL    HW2 7614   5.297   6.445   0.116
 2239SOL     OW 7615   6.068   5.654   1.770
 2239SOL    HW1 7616   6.124   5.734   1.749
 2239SOL    HW2 7617   6.013   5.673   1.851
 2240SOL     OW 7618   5.962   3.897   1.812
 2240SOL    HW1 7619   5.990   3.990   1.835
 2240SOL    HW2 7620   6.040   3.848   1.773
 2241SOL     OW 7621   1.282   0.252   3.898
 2241SOL    HW1 7622   1.357   0.188   3.879
 2241SOL    HW2 7623   1.313   0.322   3.962
 2242SOL     OW 7624   2.990   1.420   3.177
 2242SOL    HW1 7625   2.953   1.453   3.089
 2242SOL    HW2 7626   3.089   1.410   3.169
 2243SOL     OW 7627   2.273   0.178   4.836
 2243SOL    HW1 7628   2.193   0.126   4.866
 2243SOL    HW2 7629   2.249   0.237   4.759
 2244SOL     OW 7630   4.122   0.746   5.078
 2244SOL    HW1 7631   4.126   0.741   5.178
 2244SOL    HW2 7632   4.176   0.670   5.039
 2245SOL     OW 7633   0.244   2.174   2.226
 2245SOL    HW1 7634   0.313   2.245   2.209
 2245SOL    HW2 7635   0.235   2.160   2.325
 2246SOL     OW 7636   0.870   4.331   5.313
 2246SOL    HW1 7637   0.924   4.251   5.340
 2246SOL    HW2 7638   0.788   4.301   5.265
 2247SOL     OW 7639   1.748   1.183   4.533
 2247SOL    HW1 7640   1.741   1.088   4.504
 2247SOL    HW2 7641   1.688   1.240   4.477
 2248SOL     OW 7642   5.588   4.219   5.921
 2248SOL    HW1 7643   5.616   4.258   6.009
 2248SOL    HW2 7644   5.633   4.130   5.909
 2249SOL     OW 7645   4.848   5.955   5.464
 2249SOL    HW1 7646   4.852   6.055   5.466
 2249SOL    HW2 7647   4.923   5.917   5.519
 2250SOL     OW 7648   4.714   5.081   1.564
 2250SOL    HW1 7649   4.628   5.072   1.514
 2250SOL    HW2 7650   4.696   5.070   1.662
 2251SOL     OW 7651   0.611   0.985   6.008
 2251SOL    HW1 7652   0.672   1.031   6.074
 2251SOL    HW2 7653   0.655   0.985   5.918
 2252SOL     OW 7654   3.497   0.945   6.726
 2252SOL    HW1 7655   3.426   0.961   6.657
 2252SOL    HW2 7656   3.464   0.878   6.792
 2253SOL     OW 7657   0.661   3.970   6.972
 2253SOL    HW1 7658   0.586   3.915   6.936
 2253SOL    HW2 7659   0.643   4.067   6.956
 2254SOL     OW 7660   1.951   5.180   6.476
 2254SOL    HW1 7661   1.864   5.173   6.526
 2254SOL    HW2 7662   1.989   5.272   6.487
 2255SOL     OW 7663   6.546   3.553   6.643
 2255SOL    HW1 7664   6.635   3.548   6.598
 2255SOL    HW2 7665   6.521   3.649   6.655
 2256SOL     OW 7666   2.591   4.963   1.787
 2256SOL    HW1 7667   2.607   5.061   1.798
 2256SOL    HW2 7668   2.678   4.916   1.770
 2257SOL     OW 7669   1.355   4.061   5.168
 2257SOL    HW1 7670   1.351   4.031   5.263
 2257SOL    HW2 7671   1.339   3.983   5.107
 2258SOL     OW 7672   2.110   5.542   4.883
 2258SOL    HW1 7673   2.112   5.445   4.911
 2258SOL    HW2 7674   2.037   5.556   4.817
 2259SOL     OW 7675   6.162   2.146   6.403
 2259SOL    HW1 7676   6.098   2.090   6.350
 2259SOL    HW2 7677   6.118   2.232   6.429
 2260SOL     OW 7678   4.042   3.173   0.805
 2260SOL    HW1 7679   4.135   3.152   0.776
 2260SOL    HW2 7680   4.044   3.212   0.897
 2261SOL     OW 7681   2.287   5.975   5.063
 2261SOL    HW1 7682   2.321   5.903   5.123
 2261SOL    HW2 7683   2.286   6.062   5.113
 2262SOL     OW 7684   3.168   1.778   2.972
 2262SOL    HW1 7685   3.151   1.811   2.879
 2262SOL    HW2 7686   3.187   1.856   3.032
 2263SOL     OW 7687   1.158   4.379   6.106
 2263SOL    HW1 7688   1.087   4.330   6.055
 2263SOL    HW2 7689   1.132   4.476   6.113
 2264SOL     OW 7690   3.881   3.613   3.485
 2264SOL    HW1 7691   3.889   3.513   3.483
 2264SOL    HW2 7692   3.809   3.642   3.422
 2265SOL     OW 7693   0.866   6.560   3.636
 2265SOL    HW1 7694   0.920   6.645   3.630
 2265SOL    HW2 7695   0.925   6.485   3.664
 2266SOL     OW 7696   0.038   0.543   5.926
 2266SOL    HW1 7697   0.017   0.610   5.855
 2266SOL    HW2 7698   0.081   0.590   6.003
 2267SOL     OW 7699   5.462   1.644   5.215
 2267SOL    HW1 7700   5.403   1.658   5.295
 2267SOL    HW2 7701   5.530   1.574   5.237
 2268SOL     OW 7702   6.732   5.683   0.211
 2268SOL    HW1 7703   6.794   5.757   0.189
 2268SOL    HW2 7704   6.721   5.623   0.132
 2269SOL     OW 7705   0.314   6.990   2.880
 2269SOL    HW1 7706   0.338   6.920   2.812
 2269SOL    HW2 7707   0.320   6.950   2.972
 2270SOL     OW 7708   3.683   3.113   3.337
 2270SOL    HW1 7709   3.597   3.164   3.340
 2270SOL    HW2 7710   3.674   3.036   3.273
 2271SOL     OW 7711   1.439   4.608   3.057
 2271SOL    HW1 7712   1.428   4.576   2.963
 2271SOL    HW2 7713   1.421   4.706   3.061
 2272SOL     OW 7714   5.346   0.838   5.587
 2272SOL    HW1 7715   5.289   0.891   5.650
 2272SOL    HW2 7716   5.353   0.744   5.620
 2273SOL     OW 7717   0.799   1.346   2.229
 2273SOL    HW1 7718   0.710   1.387   2.211
 2273SOL    HW2 7719   0.799   1.306   2.321
 2274SOL     OW 7720   0.769   4.150   3.773
 2274SOL    HW1 7721   0.796   4.124   3.680
 2274SOL    HW2 7722   0.833   4.110   3.838
 2275SOL     OW 7723   5.063   6.076   3.552
 2275SOL    HW1 7724   5.059   6.121   3.641
 2275SOL    HW2 7725   5.158   6.075   3.520
 2276SOL     OW 7726   3.405   5.782   2.199
 2276SOL    HW1 7727   3.420   5.747   2.292
 2276SOL    HW2 7728   3.311   5.816   2.192
 2277SOL     OW 7729   3.262   2.911   2.276
 2277SOL    HW1 7730   3.191   2.932   2.343
 2277SOL    HW2 7731   3.348   2.892   2.322
 2278SOL     OW 7732   3.962   5.696   1.292
 2278SOL    HW1 7733   4.023   5.750   1.234
 2278SOL    HW2 7734   3.868   5.702   1.259
 2279SOL     OW 7735   5.658   3.980   5.826
 2279SOL    HW1 7736   5.654   3.893   5.874
 2279SOL    HW2 7737   5.652   3.964   5.728
 2280SOL     OW 7738   5.787   0.028   5.903
 2280SOL    HW1 7739   5.840   0.074   5.832
 2280SOL    HW2 7740   5.836   0.034   5.990
 2281SOL     OW 7741   2.089   1.271   0.129
 2281SOL    HW1 7742   2.082   1.181   0.171
 2281SOL    HW2 7743   2.162   1.270   0.060
 2282SOL     OW 7744   4.014   5.915   2.722
 2282SOL    HW1 7745   4.088   5.982   2.726
 2282SOL    HW2 7746   4.042   5.837   2.667
 2283SOL     OW 7747   0.748   3.130   1.522
 2283SOL    HW1 7748   0.844   3.123   1.495
 2283SOL    HW2 7749   0.737   3.207   1.586
 2284SOL     OW 7750   2.347   2.241   1.381
 2284SOL    HW1 7751   2.269   2.291   1.419
 2284SOL    HW2 7752   2.428   2.300   1.381
 2285SOL     OW 7753   1.579   3.301   6.641
 2285SOL    HW1 7754   1.591   3.323   6.544
 2285SOL    HW2 7755   1.666   3.317   6.689
 2286SOL     OW 7756   6.655   6.897   4.233
 2286SOL    HW1 7757   6.562   6.926   4.212
 2286SOL    HW2 7758   6.720   6.964   4.196
 2287SOL     OW 7759   2.602   1.867   0.873
 2287SOL    HW1 7760   2.521   1.915   0.840
 2287SOL    HW2 7761   2.683   1.902   0.826
 2288SOL     OW 7762   2.538   5.810   4.444
 2288SOL    HW1 7763   2.555   5.898   4.400
 2288SOL    HW2 7764   2.618   5.783   4.497
 2289SOL     OW 7765   3.993   0.363   0.015
 2289SOL    HW1 7766   3.907   0.413   0.026
 2289SOL    HW2 7767   4.037   0.391   6.954
 2290SOL     OW 7768   3.445   3.354   4.625
 2290SOL    HW1 7769   3.379   3.290   4.587
 2290SOL    HW2 7770   3.537   3.330   4.594
 2291SOL     OW 7771   2.643   2.448   0.205
 2291SOL    HW1 7772   2.548   2.473   0.224
 2291SOL    HW2 7773   2.685   2.412   0.288
 2292SOL     OW 7774   4.589   2.192   3.389
 2292SOL    HW1 7775   4.510   2.137   3.416
 2292SOL    HW2 7776   4.659   2.132   3.350
 2293SOL     OW 7777   0.914   1.006   6.616
 2293SOL    HW1 7778   0.882   1.098   6.593
 2293SOL    HW2 7779   0.978   1.011   6.692
 2294SOL     OW 7780   6.186   1.988   5.117
 2294SOL    HW1 7781   6.232   1.976   5.205
 2294SOL    HW2 7782   6.222   1.923   5.052
 2295SOL     OW 7783   5.166   6.143   0.189
 2295SOL    HW1 7784   5.135   6.130   0.283
 2295SOL    HW2 7785   5.146   6.061   0.135
 2296SOL     OW 7786   3.627   5.378   5.030
 2296SOL    HW1 7787   3.556   5.427   5.079
 2296SOL    HW2 7788   3.586   5.324   4.956
 2297SOL     OW 7789   6.020   2.939   6.328
 2297SOL    HW1 7790   6.002   2.873   6.401
 2297SOL    HW2 7791   5.977   3.027   6.352
 2298SOL     OW 7792   2.622   3.721   5.481
 2298SOL    HW1 7793   2.622   3.789   5.553
 2298SOL    HW2 7794   2.673   3.755   5.402
 2299SOL     OW 7795   5.921   3.551   4.697
 2299SOL    HW1 7796   5.886   3.575   4.788
 2299SOL    HW2 7797   6.015   3.582   4.688
 2300SOL     OW 7798   5.068   0.105   2.817
 2300SOL    HW1 7799   5.143   0.159   2.780
 2300SOL    HW2 7800   5.102   0.014   2.843
 2301SOL     OW 7801   3.897   3.348   5.194
 2301SOL    HW1 7802   3.896   3.264   5.248
 2301SOL    HW2 7803   3.803   3.376   5.175
 2302SOL     OW 7804   6.554   3.907   5.764
 2302SOL    HW1 7805   6.510   3.991   5.734
 2302SOL    HW2 7806   6.544   3.897   5.863
 2303SOL     OW 7807   2.676   1.840   6.571
 2303SOL    HW1 7808   2.599   1.900   6.595
 2303SOL    HW2 7809   2.704   1.859   6.477
 2304SOL     OW 7810   6.113   0.058   2.199
 2304SOL    HW1 7811   6.053   0.099   2.268
 2304SOL    HW2 7812   6.083   0.086   2.108
 2305SOL     OW 7813   3.140   6.858   5.199
 2305SOL    HW1 7814   3.091   6.911   5.129
 2305SOL    HW2 7815   3.238   6.861   5.181
 2306SOL     OW 7816   0.718   4.404   4.832
 2306SOL    HW1 7817   0.779   4.467   4.879
 2306SOL    HW2 7818   0.699   4.438   4.740
 2307SOL     OW 7819   6.123   3.871   4.974
 2307SOL    HW1 7820   6.123   3.845   4.878
 2307SOL    HW2 7821   6.090   3.794   5.029
 2308SOL     OW 7822   0.882   6.037   1.771
 2308SOL    HW1 7823   0.910   5.984   1.691
 2308SOL    HW2 7824   0.904   5.986   1.855
 2309SOL     OW 7825   2.456   0.524   5.003
 2309SOL    HW1 7826   2.458   0.576   4.918
 2309SOL    HW2 7827   2.533   0.459   5.004
 2310SOL     OW 7828   4.162   6.561   0.212
 2310SOL    HW1 7829   4.152   6.528   0.306
 2310SOL    HW2 7830   4.183   6.483   0.152
 2311SOL     OW 7831   2.378   5.818   0.811
 2311SOL    HW1 7832   2.430   5.885   0.758
 2311SOL    HW2 7833   2.348   5.860   0.897
 2312SOL     OW 7834   2.835   4.748   2.823
 2312SOL    HW1 7835   2.887   4.692   2.887
 2312SOL    HW2 7836   2.877   4.839   2.817
 2313SOL     OW 7837   4.467   5.009   1.457
 2313SOL    HW1 7838   4.419   5.083   1.503
 2313SOL    HW2 7839   4.432   5.000   1.363
 2314SOL     OW 7840   2.453   4.359   3.261
 2314SOL    HW1 7841   2.472   4.392   3.353
 2314SOL    HW2 7842   2.483   4.427   3.194
 2315SOL     OW 7843   4.573   1.979   6.472
 2315SOL    HW1 7844   4.474   1.979   6.459
 2315SOL    HW2 7845   4.601   2.060   6.523
 2316SOL     OW 7846   4.874   3.346   1.868
 2316SOL    HW1 7847   4.922   3.299   1.942
 2316SOL    HW2 7848   4.837   3.279   1.804
 2317SOL     OW 7849   0.934   5.974   3.826
 2317SOL    HW1 7850   0.896   5.921   3.901
 2317SOL    HW2 7851   0.878   5.961   3.744
 2318SOL     OW 7852   0.094   1.596   3.393
 2318SOL    HW1 7853   0.059   1.627   3.481
 2318SOL    HW2 7854   0.114   1.676   3.335
 2319SOL     OW 7855   1.470   4.988   1.585
 2319SOL    HW1 7856   1.496   4.926   1.511
 2319SOL    HW2 7857   1.503   5.080   1.566
 2320SOL     OW 7858   6.322   4.685   4.228
 2320SOL    HW1 7859   6.349   4.592   4.254
 2320SOL    HW2 7860   6.248   4.716   4.288
 2321SOL     OW 7861   3.772   4.974   4.085
 2321SOL    HW1 7862   3.724   5.025   4.014
 2321SOL    HW2 7863   3.715   4.972   4.167
 2322SOL     OW 7864   2.642   0.971   4.535
 2322SOL    HW1 7865   2.636   0.986   4.634
 2322SOL    HW2 7866   2.736   0.987   4.504
 2323SOL     OW 7867   5.135   3.495   1.984
 2323SOL    HW1 7868   5.146   3.592   1.960
 2323SOL    HW2 7869   5.050   3.461   1.944
 2324SOL     OW 7870   0.302   5.404   3.866
 2324SOL    HW1 7871   0.229   5.381   3.931
 2324SOL    HW2 7872   0.333   5.498   3.882
 2325SOL     OW 7873   6.994   2.388   0.119
 2325SOL    HW1 7874   7.023   2.483   0.118
 2325SOL    HW2 7875   0.038   2.332   0.164
 2326SOL     OW 7876   0.410   4.462   0.687
 2326SOL    HW1 7877   0.447   4.429   0.600
 2326SOL    HW2 7878   0.311   4.472   0.678
 2327SOL     OW 7879   4.817   1.248   3.267
 2327SOL    HW1 7880   4.735   1.194   3.249
 2327SOL    HW2 7881   4.898   1.190   3.259
 2328SOL     OW 7882   6.294   5.144   3.682
 2328SOL    HW1 7883   6.308   5.166   3.585
 2328SOL    HW2 7884   6.352   5.203   3.738
 2329SOL     OW 7885   1.074   6.205   3.038
 2329SOL    HW1 7886   1.091   6.246   2.948
 2329SOL    HW2 7887   1.108   6.111   3.038
 2330SOL     OW 7888   1.262   4.494   0.205
 2330SOL    HW1 7889   1.189   4.481   0.139
 2330SOL    HW2 7890   1.333   4.553   0.165
 2331SOL     OW 7891   0.848   4.920   5.116
 2331SOL    HW1 7892   0.898   4.907   5.030
 2331SOL    HW2 7893   0.763   4.868   5.113
 2332SOL     OW 7894   6.154   3.193   5.598
 2332SOL    HW1 7895   6.140   3.280   5.551
 2332SOL    HW2 7896   6.182   3.211   5.693
 2333SOL     OW 7897   2.496   4.780   3.311
 2333SOL    HW1 7898   2.574   4.797   3.250
 2333SOL    HW2 7899   2.523   4.712   3.380
 2334SOL     OW 7900   2.396   0.660   6.004
 2334SOL    HW1 7901   2.343   0.746   6.006
 2334SOL    HW2 7902   2.333   0.583   5.996
 2335SOL     OW 7903   4.823   4.550   4.086
 2335SOL    HW1 7904   4.920   4.538   4.065
 2335SOL    HW2 7905   4.813   4.616   4.161
 2336SOL     OW 7906   4.148   2.320   5.661
 2336SOL    HW1 7907   4.109   2.229   5.648
 2336SOL    HW2 7908   4.076   2.389   5.649
 2337SOL     OW 7909   5.679   0.517   4.543
 2337SOL    HW1 7910   5.731   0.460   4.479
 2337SOL    HW2 7911   5.734   0.596   4.569
 2338SOL     OW 7912   1.263   0.136   6.718
 2338SOL    HW1 7913   1.334   0.079   6.761
 2338SOL    HW2 7914   1.306   0.208   6.664
 2339SOL     OW 7915   4.012   4.868   7.021
 2339SOL    HW1 7916   4.091   4.927   0.014
 2339SOL    HW2 7917   3.956   4.908   6.950
 2340SOL     OW 7918   3.484   5.288   4.807
 2340SOL    HW1 7919   3.490   5.194   4.774
 2340SOL    HW2 7920   3.395   5.302   4.852
 2341SOL     OW 7921   6.435   4.755   6.779
 2341SOL    HW1 7922   6.378   4.675   6.800
 2341SOL    HW2 7923   6.405   4.833   6.835
 2342SOL     OW 7924   6.708   1.398   5.925
 2342SOL    HW1 7925   6.781   1.333   5.906
 2342SOL    HW2 7926   6.632   1.351   5.970
 2343SOL     OW 7927   1.576   6.487   0.416
 2343SOL    HW1 7928   1.569   6.515   0.512
 2343SOL    HW2 7929   1.520   6.405   0.402
 2344SOL     OW 7930   2.647   0.770   2.837
 2344SOL    HW1 7931   2.720   0.735   2.780
 2344SOL    HW2 7932   2.565   0.714   2.826
 2345SOL     OW 7933   1.108   2.075   2.044
 2345SOL    HW1 7934   1.031   2.042   1.990
 2345SOL    HW2 7935   1.141   2.002   2.104
 2346SOL     OW 7936   4.716   2.960   5.252
 2346SOL    HW1 7937   4.728   3.040   5.310
 2346SOL    HW2 7938   4.772   2.970   5.170
 2347SOL     OW 7939   1.802   3.910   0.713
 2347SOL    HW1 7940   1.856   3.843   0.662
 2347SOL    HW2 7941   1.785   3.990   0.655
 2348SOL     OW 7942   2.485   6.920   1.478
 2348SOL    HW1 7943   2.443   6.837   1.441
 2348SOL    HW2 7944   2.435   7.000   1.447
 2349SOL     OW 7945   5.408   3.400   6.780
 2349SOL    HW1 7946   5.461   3.479   6.749
 2349SOL    HW2 7947   5.417   3.326   6.713
 2350SOL     OW 7948   1.883   6.240   4.557
 2350SOL    HW1 7949   1.932   6.161   4.594
 2350SOL    HW2 7950   1.936   6.323   4.574
 2351SOL     OW 7951   1.464   4.800   2.682
 2351SOL    HW1 7952   1.464   4.755   2.593
 2351SOL    HW2 7953   1.498   4.894   2.672
 2352SOL     OW 7954   5.672   5.441   0.394
 2352SOL    HW1 7955   5.580   5.428   0.429
 2352SOL    HW2 7956   5.672   5.516   0.327
 2353SOL     OW 7957   2.535   3.112   6.108
 2353SOL    HW1 7958   2.602   3.038   6.108
 2353SOL    HW2 7959   2.566   3.185   6.046
 2354SOL     OW 7960   4.219   1.812   2.334
 2354SOL    HW1 7961   4.278   1.887   2.364
 2354SOL    HW2 7962   4.190   1.759   2.414
 2355SOL     OW 7963   0.646   1.545   1.617
 2355SOL    HW1 7964   0.670   1.639   1.595
 2355SOL    HW2 7965   0.647   1.532   1.716
 2356SOL     OW 7966   3.185   5.197   4.131
 2356SOL    HW1 7967   3.116   5.246   4.078
 2356SOL    HW2 7968   3.275   5.232   4.109
 2357SOL     OW 7969   1.020   5.209   0.871
 2357SOL    HW1 7970   1.116   5.210   0.899
 2357SOL    HW2 7971   0.964   5.176   0.946
 2358SOL     OW 7972   2.986   0.656   5.583
 2358SOL    HW1 7973   2.938   0.568   5.584
 2358SOL    HW2 7974   3.062   0.652   5.520
 2359SOL     OW 7975   2.517   2.098   5.744
 2359SOL    HW1 7976   2.570   2.180   5.760
 2359SOL    HW2 7977   2.517   2.077   5.646
 2360SOL     OW 7978   3.250   4.903   0.466
 2360SOL    HW1 7979   3.152   4.916   0.448
 2360SOL    HW2 7980   3.283   4.975   0.527
 2361SOL     OW 7981   3.421   5.309   1.459
 2361SOL    HW1 7982   3.346   5.252   1.494
 2361SOL    HW2 7983   3.400   5.336   1.365
 2362SOL     OW 7984   2.935   5.091   4.506
 2362SOL    HW1 7985   2.860   5.153   4.479
 2362SOL    HW2 7986   2.920   5.001   4.465
 2363SOL     OW 7987   2.188   4.154   1.148
 2363SOL    HW1 7988   2.182   4.055   1.144
 2363SOL    HW2 7989   2.177   4.192   1.056
 2364SOL     OW 7990   4.524   1.048   2.394
 2364SOL    HW1 7991   4.491   0.960   2.360
 2364SOL    HW2 7992   4.557   1.103   2.317
 2365SOL     OW 7993   5.499   4.337   2.922
 2365SOL    HW1 7994   5.545   4.329   3.010
 2365SOL    HW2 7995   5.405   4.370   2.936
 2366SOL     OW 7996   2.916   5.223   5.229
 2366SOL    HW1 7997   2.983   5.292   5.258
 2366SOL    HW2 7998   2.932   5.199   5.133
 2367SOL     OW 7999   6.276   5.229   5.366
 2367SOL    HW1 8000   6.339   5.288   5.415
 2367SOL    HW2 8001   6.281   5.249   5.268
 2368SOL     OW 8002   5.404   0.241   4.829
 2368SOL    HW1 8003   5.355   0.317   4.787
 2368SOL    HW2 8004   5.431   0.267   4.922
 2369SOL     OW 8005   4.008   1.661   4.358
 2369SOL    HW1 8006   3.968   1.573   4.335
 2369SOL    HW2 8007   3.985   1.686   4.452
 2370SOL     OW 8008   4.779   1.840   1.854
 2370SOL    HW1 8009   4.692   1.859   1.808
 2370SOL    HW2 8010   4.763   1.829   1.952
 2371SOL     OW 8011   1.431   6.914   1.697
 2371SOL    HW1 8012   1.460   6.980   1.767
 2371SOL    HW2 8013   1.509   6.856   1.673
 2372SOL     OW 8014   6.862   6.981   5.572
 2372SOL    HW1 8015   6.872   6.969   5.473
 2372SOL    HW2 8016   6.950   6.964   5.617
 2373SOL     OW 8017   5.835   4.191   5.726
 2373SOL    HW1 8018   5.845   4.290   5.731
 2373SOL    HW2 8019   5.739   4.168   5.707
 2374SOL     OW 8020   0.197   6.458   2.392
 2374SOL    HW1 8021   0.127   6.410   2.445
 2374SOL    HW2 8022   0.198   6.554   2.418
 2375SOL     OW 8023   1.512   0.113   4.179
 2375SOL    HW1 8024   1.537   0.037   4.118
 2375SOL    HW2 8025   1.580   0.186   4.171
 2376SOL     OW 8026   5.082   2.927   3.530
 2376SOL    HW1 8027   4.997   2.929   3.584
 2376SOL    HW2 8028   5.064   2.885   3.441
 2377SOL     OW 8029   4.171   3.833   5.617
 2377SOL    HW1 8030   4.113   3.896   5.669
 2377SOL    HW2 8031   4.121   3.801   5.537
 2378SOL     OW 8032   0.273   0.451   0.880
 2378SOL    HW1 8033   0.345   0.472   0.813
 2378SOL    HW2 8034   0.262   0.529   0.941
 2379SOL     OW 8035   0.450   4.854   2.570
 2379SOL    HW1 8036   0.374   4.794   2.597
 2379SOL    HW2 8037   0.524   4.799   2.532
 2380SOL     OW 8038   4.143   5.343   6.465
 2380SOL    HW1 8039   4.093   5.276   6.520
 2380SOL    HW2 8040   4.225   5.372   6.514
 2381SOL     OW 8041   2.195   3.634   4.118
 2381SOL    HW1 8042   2.212   3.728   4.090
 2381SOL    HW2 8043   2.123   3.632   4.187
 2382SOL     OW 8044   6.923   5.518   3.002
 2382SOL    HW1 8045   6.980   5.444   3.037
 2382SOL    HW2 8046   6.972   5.567   2.930
 2383SOL     OW 8047   4.887   3.918   5.909
 2383SOL    HW1 8048   4.863   3.848   5.977
 2383SOL    HW2 8049   4.973   3.961   5.935
 2384SOL     OW 8050   0.755   2.610   3.166
 2384SOL    HW1 8051   0.764   2.646   3.073
 2384SOL    HW2 8052   0.662   2.629   3.199
 2385SOL     OW 8053   0.559   1.324   0.081
 2385SOL    HW1 8054   0.607   1.396   0.030
 2385SOL    HW2 8055   0.608   1.304   0.165
 2386SOL     OW 8056   6.610   5.483   5.304
 2386SOL    HW1 8057   6.566   5.572   5.291
 2386SOL    HW2 8058   6.605   5.430   5.220
 2387SOL     OW 8059   0.518   1.042   3.558
 2387SOL    HW1 8060   0.422   1.036   3.531
 2387SOL    HW2 8061   0.526   1.098   3.640
 2388SOL     OW 8062   0.806   3.514   4.976
 2388SOL    HW1 8063   0.711   3.534   5.001
 2388SOL    HW2 8064   0.806   3.453   4.896
 2389SOL     OW 8065   3.679   6.131   3.195
 2389SOL    HW1 8066   3.625   6.048   3.211
 2389SOL    HW2 8067   3.771   6.119   3.234
 2390SOL     OW 8068   5.342   2.529   6.066
 2390SOL    HW1 8069   5.318   2.538   6.162
 2390SOL    HW2 8070   5.381   2.438   6.049
 2391SOL     OW 8071   3.045   3.978   6.929
 2391SOL    HW1 8072   3.101   4.031   6.865
 2391SOL    HW2 8073   3.087   3.982   7.020
 2392SOL     OW 8074   4.048   4.758   6.119
 2392SOL    HW1 8075   4.016   4.674   6.162
 2392SOL    HW2 8076   4.115   4.803   6.179
 2393SOL     OW 8077   3.708   4.426   0.156
 2393SOL    HW1 8078   3.756   4.494   0.101
 2393SOL    HW2 8079   3.673   4.354   0.097
 2394SOL     OW 8080   6.313   1.820   3.809
 2394SOL    HW1 8081   6.345   1.873   3.730
 2394SOL    HW2 8082   6.300   1.724   3.782
 2395SOL     OW 8083   1.653   2.651   3.815
 2395SOL    HW1 8084   1.684   2.675   3.907
 2395SOL    HW2 8085   1.667   2.553   3.800
 2396SOL     OW 8086   0.054   0.415   6.681
 2396SOL    HW1 8087   0.039   0.508   6.715
 2396SOL    HW2 8088   0.118   0.367   6.741
 2397SOL     OW 8089   2.258   4.409   5.279
 2397SOL    HW1 8090   2.203   4.492   5.294
 2397SOL    HW2 8091   2.299   4.381   5.365
 2398SOL     OW 8092   4.178   5.885   4.994
 2398SOL    HW1 8093   4.098   5.913   4.940
 2398SOL    HW2 8094   4.151   5.819   5.064
 2399SOL     OW 8095   2.945   1.229   2.376
 2399SOL    HW1 8096   2.851   1.194   2.377
 2399SOL    HW2 8097   3.008   1.154   2.358
 2400SOL     OW 8098   1.327   2.656   0.307
 2400SOL    HW1 8099   1.328   2.750   0.276
 2400SOL    HW2 8100   1.233   2.630   0.331
 2401SOL     OW 8101   1.807   6.092   0.238
 2401SOL    HW1 8102   1.879   6.135   0.292
 2401SOL    HW2 8103   1.759   6.024   0.294
 2402SOL     OW 8104   0.573   3.976   1.907
 2402SOL    HW1 8105   0.598   4.073   1.899
 2402SOL    HW2 8106   0.577   3.933   1.817
 2403SOL     OW 8107   3.304   4.086   5.302
 2403SOL    HW1 8108   3.251   4.136   5.234
 2403SOL    HW2 8109   3.401   4.107   5.291
 2404SOL     OW 8110   6.340   1.474   1.639
 2404SOL    HW1 8111   6.421   1.455   1.695
 2404SOL    HW2 8112   6.277   1.531   1.691
 2405SOL     OW 8113   1.939   2.974   0.878
 2405SOL    HW1 8114   1.985   3.007   0.961
 2405SOL    HW2 8115   1.969   3.027   0.799
 2406SOL     OW 8116   3.849   5.432   4.881
 2406SOL    HW1 8117   3.754   5.450   4.906
 2406SOL    HW2 8118   3.910   5.472   4.950
 2407SOL     OW 8119   2.203   1.926   3.823
 2407SOL    HW1 8120   2.196   1.878   3.736
 2407SOL    HW2 8121   2.143   1.882   3.890
 2408SOL     OW 8122   3.680   0.240   6.338
 2408SOL    HW1 8123   3.592   0.248   6.291
 2408SOL    HW2 8124   3.747   0.198   6.278
 2409SOL     OW 8125   0.606   3.083   6.721
 2409SOL    HW1 8126   0.570   3.136   6.644
 2409SOL    HW2 8127   0.698   3.116   6.744
 2410SOL     OW 8128   0.049   3.631   4.458
 2410SOL    HW1 8129   0.022   3.554   4.401
 2410SOL    HW2 8130   0.046   3.604   4.554
 2411SOL     OW 8131   2.793   1.458   6.964
 2411SOL    HW1 8132   2.845   1.484   6.882
 2411SOL    HW2 8133   2.702   1.499   6.961
 2412SOL     OW 8134   3.165   2.581   6.451
 2412SOL    HW1 8135   3.256   2.622   6.453
 2412SOL    HW2 8136   3.174   2.482   6.434
 2413SOL     OW 8137   6.920   3.753   6.975
 2413SOL    HW1 8138   6.879   3.713   0.032
 2413SOL    HW2 8139   6.851   3.803   6.923
 2414SOL     OW 8140   0.309   1.322   5.446
 2414SOL    HW1 8141   0.302   1.294   5.350
 2414SOL    HW2 8142   0.384   1.387   5.457
 2415SOL     OW 8143   3.356   4.174   6.546
 2415SOL    HW1 8144   3.405   4.256   6.574
 2415SOL    HW2 8145   3.378   4.152   6.451
 2416SOL     OW 8146   0.011   2.981   3.614
 2416SOL    HW1 8147   0.001   3.050   3.543
 2416SOL    HW2 8148   6.956   2.920   3.614
 2417SOL     OW 8149   3.396   2.444   1.434
 2417SOL    HW1 8150   3.297   2.458   1.434
 2417SOL    HW2 8151   3.426   2.412   1.524
 2418SOL     OW 8152   5.189   4.193   6.619
 2418SOL    HW1 8153   5.282   4.174   6.650
 2418SOL    HW2 8154   5.182   4.172   6.521
 2419SOL     OW 8155   3.450   1.065   3.200
 2419SOL    HW1 8156   3.502   1.005   3.261
 2419SOL    HW2 8157   3.513   1.127   3.153
 2420SOL     OW 8158   1.532   3.896   2.698
 2420SOL    HW1 8159   1.522   3.833   2.774
 2420SOL    HW2 8160   1.464   3.970   2.706
 2421SOL     OW 8161   2.813   6.494   3.153
 2421SOL    HW1 8162   2.771   6.539   3.232
 2421SOL    HW2 8163   2.911   6.515   3.152
 2422SOL     OW 8164   3.746   6.104   0.313
 2422SOL    HW1 8165   3.657   6.107   0.358
 2422SOL    HW2 8166   3.764   6.192   0.270
 2423SOL     OW 8167   3.233   4.889   4.351
 2423SOL    HW1 8168   3.288   4.874   4.268
 2423SOL    HW2 8169   3.283   4.948   4.414
 2424SOL     OW 8170   4.971   6.772   6.617
 2424SOL    HW1 8171   4.921   6.769   6.531
 2424SOL    HW2 8172   4.922   6.829   6.683
 2425SOL     OW 8173   3.995   5.410   5.328
 2425SOL    HW1 8174   3.946   5.372   5.250
 2425SOL    HW2 8175   3.946   5.490   5.363
 2426SOL     OW 8176   3.015   2.399   5.377
 2426SOL    HW1 8177   3.097   2.425   5.327
 2426SOL    HW2 8178   2.938   2.454   5.344
 2427SOL     OW 8179   4.348   1.724   0.556
 2427SOL    HW1 8180   4.298   1.792   0.611
 2427SOL    HW2 8181   4.366   1.643   0.612
 2428SOL     OW 8182   1.733   1.444   3.280
 2428SOL    HW1 8183   1.822   1.486   3.264
 2428SOL    HW2 8184   1.661   1.500   3.240
 2429SOL     OW 8185   5.621   6.031   1.267
 2429SOL    HW1 8186   5.709   6.071   1.242
 2429SOL    HW2 8187   5.599   5.957   1.204
 2430SOL     OW 8188   6.402   0.358   6.679
 2430SOL    HW1 8189   6.476   0.335   6.743
 2430SOL    HW2 8190   6.319   0.308   6.705
 2431SOL     OW 8191   1.997   2.870   1.946
 2431SOL    HW1 8192   2.051   2.829   1.873
 2431SOL    HW2 8193   2.014   2.822   2.032
 2432SOL     OW 8194   2.918   5.943   2.393
 2432SOL    HW1 8195   2.868   5.997   2.324
 2432SOL    HW2 8196   3.008   5.918   2.357
 2433SOL     OW 8197   0.157   4.118   4.809
 2433SOL    HW1 8198   0.257   4.117   4.815
 2433SOL    HW2 8199   0.123   4.211   4.826
 2434SOL     OW 8200   4.647   1.477   3.255
 2434SOL    HW1 8201   4.701   1.394   3.270
 2434SOL    HW2 8202   4.702   1.544   3.206
 2435SOL     OW 8203   6.080   6.979   6.753
 2435SOL    HW1 8204   5.986   7.005   6.731
 2435SOL    HW2 8205   6.137   6.984   6.671
 2436SOL     OW 8206   6.815   2.862   0.352
 2436SOL    HW1 8207   6.760   2.940   0.382
 2436SOL    HW2 8208   6.802   2.847   0.254
 2437SOL     OW 8209   0.376   4.018   0.941
 2437SOL    HW1 8210   0.452   4.059   0.991
 2437SOL    HW2 8211   0.316   3.969   1.005
 2438SOL     OW 8212   3.347   1.398   5.055
 2438SOL    HW1 8213   3.420   1.378   4.989
 2438SOL    HW2 8214   3.325   1.495   5.053
 2439SOL     OW 8215   0.090   5.571   0.608
 2439SOL    HW1 8216   7.023   5.530   0.603
 2439SOL    HW2 8217   0.152   5.508   0.655
 2440SOL     OW 8218   6.519   1.728   5.644
 2440SOL    HW1 8219   6.600   1.670   5.649
 2440SOL    HW2 8220   6.544   1.817   5.605
 2441SOL     OW 8221   6.388   1.045   0.517
 2441SOL    HW1 8222   6.299   1.009   0.541
 2441SOL    HW2 8223   6.391   1.064   0.419
 2442SOL     OW 8224   5.343   2.997   2.171
 2442SOL    HW1 8225   5.323   3.091   2.195
 2442SOL    HW2 8226   5.287   2.970   2.093
 2443SOL     OW 8227   0.320   2.885   1.277
 2443SOL    HW1 8228   0.310   2.980   1.248
 2443SOL    HW2 8229   0.414   2.868   1.306
 2444SOL     OW 8230   3.241   5.557   3.343
 2444SOL    HW1 8231   3.152   5.558   3.390
 2444SOL    HW2 8232   3.272   5.651   3.329
 2445SOL     OW 8233   0.918   2.383   0.592
 2445SOL    HW1 8234   0.927   2.303   0.533
 2445SOL    HW2 8235   0.991   2.382   0.661
 2446SOL     OW 8236   0.098   5.673   2.046
 2446SOL    HW1 8237   0.154   5.590   2.046
 2446SOL    HW2 8238   0.139   5.741   2.107
 2447SOL     OW 8239   1.773   7.015   0.578
 2447SOL    HW1 8240   1.761   0.051   0.499
 2447SOL    HW2 8241   1.699   0.005   0.643
 2448SOL     OW 8242   5.823   1.022   3.868
 2448SOL    HW1 8243   5.757   0.974   3.810
 2448SOL    HW2 8244   5.838   1.114   3.833
 2449SOL     OW 8245   1.564   4.309   1.097
 2449SOL    HW1 8246   1.544   4.406   1.111
 2449SOL    HW2 8247   1.641   4.281   1.154
 2450SOL     OW 8248   0.767   6.351   5.353
 2450SOL    HW1 8249   0.835   6.405   5.403
 2450SOL    HW2 8250   0.743   6.398   5.268
 2451SOL     OW 8251   2.338   6.558   5.916
 2451SOL    HW1 8252   2.274   6.488   5.947
 2451SOL    HW2 8253   2.296   6.648   5.927
 2452SOL     OW 8254   2.050   1.867   4.571
 2452SOL    HW1 8255   2.149   1.865   4.557
 2452SOL    HW2 8256   2.013   1.951   4.531
 2453SOL     OW 8257   1.439   1.892   6.093
 2453SOL    HW1 8258   1.405   1.986   6.091
 2453SOL    HW2 8259   1.397   1.839   6.020
 2454SOL     OW 8260   3.196   6.076   1.115
 2454SOL    HW1 8261   3.295   6.065   1.120
 2454SOL    HW2 8262   3.165   6.128   1.195
 2455SOL     OW 8263   4.206   1.818   0.758
 2455SOL    HW1 8264   4.155   1.897   0.722
 2455SOL    HW2 8265   4.143   1.758   0.806
 2456SOL     OW 8266   0.711   3.955   6.346
 2456SOL    HW1 8267   0.619   3.995   6.342
 2456SOL    HW2 8268   0.703   3.856   6.353
 2457SOL     OW 8269   4.446   1.698   5.726
 2457SOL    HW1 8270   4.480   1.730   5.814
 2457SOL    HW2 8271   4.472   1.763   5.654
 2458SOL     OW 8272   0.838   0.254   2.343
 2458SOL    HW1 8273   0.802   0.304   2.422
 2458SOL    HW2 8274   0.764   0.203   2.301
 2459SOL     OW 8275   2.131   6.819   1.470
 2459SOL    HW1 8276   2.130   6.899   1.529
 2459SOL    HW2 8277   2.218   6.770   1.481
 2460SOL     OW 8278   0.620   0.786   4.346
 2460SOL    HW1 8279   0.681   0.709   4.365
 2460SOL    HW2 8280   0.675   0.866   4.321
 2461SOL     OW 8281   3.466   1.418   4.014
 2461SOL    HW1 8282   3.525   1.439   3.936
 2461SOL    HW2 8283   3.391   1.359   3.984
 2462SOL     OW 8284   0.738   5.790   1.001
 2462SOL    HW1 8285   0.683   5.788   1.084
 2462SOL    HW2 8286   0.727   5.878   0.956
 2463SOL     OW 8287   6.595   6.961   0.993
 2463SOL    HW1 8288   6.567   6.870   0.964
 2463SOL    HW2 8289   6.589   6.968   1.092
 2464SOL     OW 8290   0.693   3.016   4.673
 2464SOL    HW1 8291   0.672   2.987   4.766
 2464SOL    HW2 8292   0.735   2.940   4.623
 2465SOL     OW 8293   6.301   1.035   0.009
 2465SOL    HW1 8294   6.232   0.962   0.014
 2465SOL    HW2 8295   6.263   1.113   6.984
 2466SOL     OW 8296   0.807   2.240   1.756
 2466SOL    HW1 8297   0.879   2.175   1.782
 2466SOL    HW2 8298   0.842   2.333   1.765
 2467SOL     OW 8299   5.187   2.961   4.841
 2467SOL    HW1 8300   5.206   3.045   4.789
 2467SOL    HW2 8301   5.118   2.908   4.793
 2468SOL     OW 8302   3.555   7.021   5.441
 2468SOL    HW1 8303   3.541   6.922   5.437
 2468SOL    HW2 8304   3.491   0.037   5.507
 2469SOL     OW 8305   3.298   2.050   6.088
 2469SOL    HW1 8306   3.351   2.130   6.116
 2469SOL    HW2 8307   3.234   2.077   6.016
 2470SOL     OW 8308   2.146   5.939   6.672
 2470SOL    HW1 8309   2.206   6.020   6.666
 2470SOL    HW2 8310   2.164   5.890   6.757
 2471SOL     OW 8311   3.113   5.561   2.275
 2471SOL    HW1 8312   3.115   5.482   2.214
 2471SOL    HW2 8313   3.082   5.642   2.224
 2472SOL     OW 8314   4.809   1.377   3.002
 2472SOL    HW1 8315   4.909   1.370   3.003
 2472SOL    HW2 8316   4.775   1.383   3.096
 2473SOL     OW 8317   0.548   3.876   3.945
 2473SOL    HW1 8318   0.629   3.866   3.886
 2473SOL    HW2 8319   0.560   3.818   4.026
 2474SOL     OW 8320   1.306   6.661   1.490
 2474SOL    HW1 8321   1.310   6.668   1.589
 2474SOL    HW2 8322   1.275   6.749   1.452
 2475SOL     OW 8323   5.219   1.715   0.750
 2475SOL    HW1 8324   5.295   1.778   0.735
 2475SOL    HW2 8325   5.238   1.628   0.705
 2476SOL     OW 8326   4.218   0.110   0.577
 2476SOL    HW1 8327   4.257   0.118   0.485
 2476SOL    HW2 8328   4.129   0.156   0.580
 2477SOL     OW 8329   3.944   0.332   3.751
 2477SOL    HW1 8330   3.880   0.298   3.682
 2477SOL    HW2 8331   3.895   0.389   3.817
 2478SOL     OW 8332   3.699   0.140   4.832
 2478SOL    HW1 8333   3.691   0.183   4.922
 2478SOL    HW2 8334   3.779   0.081   4.831
 2479SOL     OW 8335   5.290   3.282   0.974
 2479SOL    HW1 8336   5.280   3.357   1.040
 2479SOL    HW2 8337   5.386   3.272   0.950
 2480SOL     OW 8338   3.717   2.240   1.450
 2480SOL    HW1 8339   3.810   2.213   1.475
 2480SOL    HW2 8340   3.700   2.334   1.481
 2481SOL     OW 8341   3.350   0.127   2.029
 2481SOL    HW1 8342   3.306   0.155   2.115
 2481SOL    HW2 8343   3.446   0.106   2.047
 2482SOL     OW 8344   6.426   3.043   0.452
 2482SOL    HW1 8345   6.348   3.083   0.404
 2482SOL    HW2 8346   6.428   3.078   0.546
 2483SOL     OW 8347   2.151   2.328   0.726
 2483SOL    HW1 8348   2.122   2.240   0.690
 2483SOL    HW2 8349   2.229   2.362   0.673
 2484SOL     OW 8350   4.224   0.302   0.156
 2484SOL    HW1 8351   4.240   0.393   0.194
 2484SOL    HW2 8352   4.134   0.300   0.111
 2485SOL     OW 8353   0.267   2.257   6.051
 2485SOL    HW1 8354   0.212   2.287   5.973
 2485SOL    HW2 8355   0.354   2.221   6.019
 2486SOL     OW 8356   0.064   5.546   3.632
 2486SOL    HW1 8357   0.150   5.495   3.627
 2486SOL    HW2 8358   0.005   5.519   3.557
 2487SOL     OW 8359   4.162   6.331   0.036
 2487SOL    HW1 8360   4.101   6.288   6.993
 2487SOL    HW2 8361   4.188   6.264   0.105
 2488SOL     OW 8362   6.875   4.093   0.484
 2488SOL    HW1 8363   6.832   4.044   0.408
 2488SOL    HW2 8364   6.886   4.030   0.562
 2489SOL     OW 8365   6.261   4.989   4.201
 2489SOL    HW1 8366   6.188   5.055   4.185
 2489SOL    HW2 8367   6.304   4.963   4.114
 2490SOL     OW 8368   2.600   5.776   3.224
 2490SOL    HW1 8369   2.607   5.818   3.314
 2490SOL    HW2 8370   2.626   5.843   3.154
 2491SOL     OW 8371   3.764   4.544   1.639
 2491SOL    HW1 8372   3.667   4.556   1.622
 2491SOL    HW2 8373   3.777   4.475   1.711
 2492SOL     OW 8374   6.550   5.138   1.453
 2492SOL    HW1 8375   6.598   5.061   1.497
 2492SOL    HW2 8376   6.489   5.181   1.519
 2493SOL     OW 8377   5.262   6.704   1.004
 2493SOL    HW1 8378   5.324   6.714   0.926
 2493SOL    HW2 8379   5.185   6.647   0.978
 2494SOL     OW 8380   6.579   3.412   1.284
 2494SOL    HW1 8381   6.578   3.492   1.223
 2494SOL    HW2 8382   6.613   3.333   1.234
 2495SOL     OW 8383   0.433   3.670   1.538
 2495SOL    HW1 8384   0.513   3.708   1.492
 2495SOL    HW2 8385   0.380   3.744   1.580
 2496SOL     OW 8386   5.550   4.553   6.849
 2496SOL    HW1 8387   5.567   4.548   6.751
 2496SOL    HW2 8388   5.579   4.642   6.884
 2497SOL     OW 8389   0.122   6.945   2.286
 2497SOL    HW1 8390   0.187   6.940   2.211
 2497SOL    HW2 8391   0.037   6.986   2.254
 2498SOL     OW 8392   1.941   3.412   5.047
 2498SOL    HW1 8393   1.845   3.393   5.068
 2498SOL    HW2 8394   1.948   3.497   4.995
 2499SOL     OW 8395   6.841   3.633   2.163
 2499SOL    HW1 8396   6.748   3.610   2.136
 2499SOL    HW2 8397   6.839   3.692   2.244
 2500SOL     OW 8398   4.095   3.087   1.575
 2500SOL    HW1 8399   4.013   3.137   1.603
 2500SOL    HW2 8400   4.105   3.005   1.632
 2501SOL     OW 8401   6.400   5.376   6.218
 2501SOL    HW1 8402   6.449   5.425   6.290
 2501SOL    HW2 8403   6.308   5.414   6.209
 2502SOL     OW 8404   2.064   6.447   4.581
 2502SOL    HW1 8405   2.150   6.443   4.632
 2502SOL    HW2 8406   2.004   6.517   4.621
 2503SOL     OW 8407   2.857   0.081   5.621
 2503SOL    HW1 8408   2.879   0.020   5.697
 2503SOL    HW2 8409   2.837   0.027   5.539
 2504SOL     OW 8410   3.606   0.275   3.627
 2504SOL    HW1 8411   3.569   0.299   3.717
 2504SOL    HW2 8412   3.593   0.177   3.610
 2505SOL     OW 8413   0.125   4.039   3.777
 2505SOL    HW1 8414   0.037   4.054   3.733
 2505SOL    HW2 8415   0.166   3.955   3.743
 2506SOL     OW 8416   5.477   5.293   6.298
 2506SOL    HW1 8417   5.505   5.283   6.203
 2506SOL    HW2 8418   5.544   5.347   6.348
 2507SOL     OW 8419   0.083   3.347   2.545
 2507SOL    HW1 8420   0.079   3.339   2.445
 2507SOL    HW2 8421   0.027   3.276   2.587
 2508SOL     OW 8422   5.901   0.893   4.358
 2508SOL    HW1 8423   5.881   0.938   4.271
 2508SOL    HW2 8424   5.984   0.931   4.398
 2509SOL     OW 8425   0.278   3.284   5.774
 2509SOL    HW1 8426   0.308   3.350   5.705
 2509SOL    HW2 8427   0.304   3.317   5.865
 2510SOL     OW 8428   2.957   3.893   2.443
 2510SOL    HW1 8429   3.040   3.882   2.498
 2510SOL    HW2 8430   2.908   3.975   2.472
 2511SOL     OW 8431   2.249   0.630   4.269
 2511SOL    HW1 8432   2.309   0.646   4.347
 2511SOL    HW2 8433   2.269   0.697   4.197
 2512SOL     OW 8434   4.189   4.766   3.950
 2512SOL    HW1 8435   4.272   4.814   3.981
 2512SOL    HW2 8436   4.211   4.670   3.933
 2513SOL     OW 8437   1.978   5.456   5.869
 2513SOL    HW1 8438   1.986   5.468   5.968
 2513SOL    HW2 8439   1.963   5.545   5.825
 2514SOL     OW 8440   1.519   1.627   3.261
 2514SOL    HW1 8441   1.464   1.626   3.344
 2514SOL    HW2 8442   1.459   1.627   3.181
 2515SOL     OW 8443   0.698   1.799   1.552
 2515SOL    HW1 8444   0.734   1.808   1.459
 2515SOL    HW2 8445   0.614   1.853   1.560
 2516SOL     OW 8446   5.935   2.474   4.653
 2516SOL    HW1 8447   6.029   2.507   4.639
 2516SOL    HW2 8448   5.877   2.508   4.578
 2517SOL     OW 8449   1.128   1.167   3.798
 2517SOL    HW1 8450   1.185   1.092   3.767
 2517SOL    HW2 8451   1.094   1.219   3.720
 2518SOL     OW 8452   2.235   4.598   1.379
 2518SOL    HW1 8453   2.221   4.667   1.449
 2518SOL    HW2 8454   2.300   4.632   1.311
 2519SOL     OW 8455   1.231   1.327   0.857
 2519SOL    HW1 8456   1.134   1.347   0.874
 2519SOL    HW2 8457   1.239   1.248   0.796
 2520SOL     OW 8458   2.385   1.928   0.750
 2520SOL    HW1 8459   2.290   1.951   0.726
 2520SOL    HW2 8460   2.443   1.939   0.670
 2521SOL     OW 8461   5.389   0.703   4.930
 2521SOL    HW1 8462   5.461   0.765   4.897
 2521SOL    HW2 8463   5.363   0.729   5.023
 2522SOL     OW 8464   1.361   1.766   6.929
 2522SOL    HW1 8465   1.454   1.758   6.963
 2522SOL    HW2 8466   1.346   1.860   6.896
 2523SOL     OW 8467   1.446   5.340   6.488
 2523SOL    HW1 8468   1.532   5.320   6.535
 2523SOL    HW2 8469   1.464   5.350   6.390
 2524SOL     OW 8470   1.215   0.682   4.493
 2524SOL    HW1 8471   1.304   0.638   4.496
 2524SOL    HW2 8472   1.143   0.613   4.484
 2525SOL     OW 8473   6.431   2.746   5.824
 2525SOL    HW1 8474   6.449   2.808   5.747
 2525SOL    HW2 8475   6.453   2.793   5.909
 2526SOL     OW 8476   1.809   0.079   0.986
 2526SOL    HW1 8477   1.852   0.111   1.070
 2526SOL    HW2 8478   1.739   0.011   1.008
 2527SOL     OW 8479   4.397   5.102   5.858
 2527SOL    HW1 8480   4.335   5.072   5.786
 2527SOL    HW2 8481   4.352   5.091   5.947
 2528SOL     OW 8482   4.646   5.674   6.115
 2528SOL    HW1 8483   4.580   5.599   6.114
 2528SOL    HW2 8484   4.599   5.759   6.140
 2529SOL     OW 8485   0.510   6.717   6.406
 2529SOL    HW1 8486   0.604   6.749   6.417
 2529SOL    HW2 8487   0.499   6.676   6.316
 2530SOL     OW 8488   2.516   5.739   6.639
 2530SOL    HW1 8489   2.502   5.836   6.660
 2530SOL    HW2 8490   2.504   5.685   6.722
 2531SOL     OW 8491   6.818   5.222   6.348
 2531SOL    HW1 8492   6.731   5.220   6.397
 2531SOL    HW2 8493   6.879   5.290   6.390
 2532SOL     OW 8494   5.478   6.383   1.641
 2532SOL    HW1 8495   5.419   6.392   1.560
 2532SOL    HW2 8496   5.520   6.292   1.640
 2533SOL     OW 8497   4.581   0.673   4.272
 2533SOL    HW1 8498   4.626   0.585   4.256
 2533SOL    HW2 8499   4.486   0.658   4.300
 2534SOL     OW 8500   4.037   1.472   2.736
 2534SOL    HW1 8501   4.075   1.513   2.818
 2534SOL    HW2 8502   3.993   1.542   2.680
 2535SOL     OW 8503   3.870   2.551   6.373
 2535SOL    HW1 8504   3.938   2.515   6.436
 2535SOL    HW2 8505   3.834   2.637   6.408
 2536SOL     OW 8506   1.630   0.835   0.995
 2536SOL    HW1 8507   1.626   0.735   0.993
 2536SOL    HW2 8508   1.538   0.872   1.001
 2537SOL     OW 8509   3.976   0.586   6.047
 2537SOL    HW1 8510   3.953   0.662   6.109
 2537SOL    HW2 8511   4.050   0.532   6.087
 2538SOL     OW 8512   6.291   3.366   3.913
 2538SOL    HW1 8513   6.259   3.280   3.954
 2538SOL    HW2 8514   6.372   3.348   3.857
 2539SOL     OW 8515   5.132   2.634   5.328
 2539SOL    HW1 8516   5.215   2.665   5.282
 2539SOL    HW2 8517   5.077   2.714   5.355
 2540SOL     OW 8518   2.699   1.536   1.655
 2540SOL    HW1 8519   2.653   1.510   1.740
 2540SOL    HW2 8520   2.711   1.456   1.597
 2541SOL     OW 8521   3.497   6.735   4.525
 2541SOL    HW1 8522   3.561   6.743   4.448
 2541SOL    HW2 8523   3.416   6.684   4.496
 2542SOL     OW 8524   2.056   5.527   6.126
 2542SOL    HW1 8525   2.115   5.493   6.199
 2542SOL    HW2 8526   2.052   5.627   6.130
 2543SOL     OW 8527   0.859   1.119   3.922
 2543SOL    HW1 8528   0.956   1.141   3.917
 2543SOL    HW2 8529   0.819   1.165   4.002
 2544SOL     OW 8530   0.777   5.117   6.869
 2544SOL    HW1 8531   0.865   5.156   6.896
 2544SOL    HW2 8532   0.791   5.024   6.834
 2545SOL     OW 8533   3.069   5.799   3.657
 2545SOL    HW1 8534   3.132   5.724   3.677
 2545SOL    HW2 8535   3.021   5.826   3.740
 2546SOL     OW 8536   6.780   1.297   1.337
 2546SOL    HW1 8537   6.735   1.287   1.426
 2546SOL    HW2 8538   6.710   1.304   1.265
 2547SOL     OW 8539   0.867   3.592   5.248
 2547SOL    HW1 8540   0.838   3.558   5.158
 2547SOL    HW2 8541   0.786   3.612   5.303
 2548SOL     OW 8542   0.932   0.097   4.749
 2548SOL    HW1 8543   0.924   0.052   4.838
 2548SOL    HW2 8544   0.926   0.196   4.762
 2549SOL     OW 8545   6.194   2.829   2.022
 2549SOL    HW1 8546   6.264   2.762   1.997
 2549SOL    HW2 8547   6.191   2.839   2.122
 2550SOL     OW 8548   6.133   5.560   0.183
 2550SOL    HW1 8549   6.101   5.467   0.163
 2550SOL    HW2 8550   6.145   5.610   0.098
 2551SOL     OW 8551   1.080   4.436   0.016
 2551SOL    HW1 8552   1.057   4.351   0.065
 2551SOL    HW2 8553   1.099   4.415   6.945
 2552SOL     OW 8554   1.981   5.505   3.586
 2552SOL    HW1 8555   2.042   5.429   3.562
 2552SOL    HW2 8556   1.983   5.573   3.513
 2553SOL     OW 8557   4.238   3.785   6.677
 2553SOL    HW1 8558   4.244   3.854   6.749
 2553SOL    HW2 8559   4.245   3.830   6.587
 2554SOL     OW 8560   1.544   1.360   0.505
 2554SOL    HW1 8561   1.612   1.288   0.520
 2554SOL    HW2 8562   1.558   1.434   0.571
 2555SOL     OW 8563   6.091   0.818   0.031
 2555SOL    HW1 8564   6.063   0.724   0.013
 2555SOL    HW2 8565   6.012   0.879   0.021
 2556SOL     OW 8566   3.606   5.103   0.971
 2556SOL    HW1 8567   3.588   5.009   1.000
 2556SOL    HW2 8568   3.598   5.109   0.872
 2557SOL     OW 8569   2.212   4.865   6.793
 2557SOL    HW1 8570   2.149   4.877   6.716
 2557SOL    HW2 8571   2.285   4.802   6.766
 2558SOL     OW 8572   4.139   0.570   5.639
 2558SOL    HW1 8573   4.105   0.583   5.546
 2558SOL    HW2 8574   4.061   0.566   5.702
 2559SOL     OW 8575   0.266   4.915   4.710
 2559SOL    HW1 8576   0.205   4.883   4.637
 2559SOL    HW2 8577   0.231   5.002   4.746
 2560SOL     OW 8578   6.090   1.444   0.160
 2560SOL    HW1 8579   6.015   1.392   0.119
 2560SOL    HW2 8580   6.137   1.387   0.228
 2561SOL     OW 8581   2.786   5.367   4.782
 2561SOL    HW1 8582   2.792   5.465   4.801
 2561SOL    HW2 8583   2.707   5.329   4.830
 2562SOL     OW 8584   2.789   4.047   6.916
 2562SOL    HW1 8585   2.740   3.963   6.891
 2562SOL    HW2 8586   2.887   4.033   6.904
 2563SOL     OW 8587   2.026   1.160   0.891
 2563SOL    HW1 8588   2.066   1.196   0.975
 2563SOL    HW2 8589   1.986   1.070   0.909
 2564SOL     OW 8590   1.822   6.481   2.181
 2564SOL    HW1 8591   1.784   6.449   2.267
 2564SOL    HW2 8592   1.753   6.472   2.109
 2565SOL     OW 8593   1.202   0.788   1.512
 2565SOL    HW1 8594   1.225   0.883   1.531
 2565SOL    HW2 8595   1.285   0.738   1.486
 2566SOL     OW 8596   2.272   6.871   5.894
 2566SOL    HW1 8597   2.237   6.913   5.810
 2566SOL    HW2 8598   2.284   6.942   5.964
 2567SOL     OW 8599   0.918   0.594   0.558
 2567SOL    HW1 8600   0.960   0.506   0.584
 2567SOL    HW2 8601   0.889   0.590   0.463
 2568SOL     OW 8602   5.349   3.815   0.082
 2568SOL    HW1 8603   5.288   3.750   0.126
 2568SOL    HW2 8604   5.307   3.906   0.083
 2569SOL     OW 8605   2.908   0.750   2.693
 2569SOL    HW1 8606   2.943   0.802   2.772
 2569SOL    HW2 8607   2.941   0.792   2.609
 2570SOL     OW 8608   5.346   2.899   6.065
 2570SOL    HW1 8609   5.340   2.883   6.163
 2570SOL    HW2 8610   5.386   2.818   6.021
 2571SOL     OW 8611   0.801   4.147   4.708
 2571SOL    HW1 8612   0.778   4.216   4.777
 2571SOL    HW2 8613   0.829   4.062   4.753
 2572SOL     OW 8614   1.205   4.839   3.955
 2572SOL    HW1 8615   1.150   4.871   4.033
 2572SOL    HW2 8616   1.157   4.861   3.870
 2573SOL     OW 8617   1.218   0.082   0.814
 2573SOL    HW1 8618   1.183   0.174   0.832
 2573SOL    HW2 8619   1.196   0.055   0.721
 2574SOL     OW 8620   5.872   3.462   0.606
 2574SOL    HW1 8621   5.827   3.382   0.644
 2574SOL    HW2 8622   5.823   3.494   0.525
 2575SOL     OW 8623   0.275   5.987   6.196
 2575SOL    HW1 8624   0.285   5.989   6.295
 2575SOL    HW2 8625   0.179   5.980   6.172
 2576SOL     OW 8626   4.033   5.756   4.474
 2576SOL    HW1 8627   4.026   5.682   4.541
 2576SOL    HW2 8628   4.062   5.840   4.520
 2577SOL     OW 8629   2.254   4.179   2.283
 2577SOL    HW1 8630   2.277   4.260   2.338
 2577SOL    HW2 8631   2.259   4.097   2.341
 2578SOL     OW 8632   4.217   2.030   3.005
 2578SOL    HW1 8633   4.194   1.965   3.077
 2578SOL    HW2 8634   4.162   2.113   3.016
 2579SOL     OW 8635   0.720   6.603   3.319
 2579SOL    HW1 8636   0.806   6.655   3.318
 2579SOL    HW2 8637   0.658   6.638   3.249
 2580SOL     OW 8638   2.412   2.189   6.009
 2580SOL    HW1 8639   2.462   2.171   5.924
 2580SOL    HW2 8640   2.465   2.155   6.086
 2581SOL     OW 8641   3.529   0.861   5.361
 2581SOL    HW1 8642   3.471   0.911   5.297
 2581SOL    HW2 8643   3.471   0.811   5.426
 2582SOL     OW 8644   6.754   3.201   1.541
 2582SOL    HW1 8645   6.809   3.242   1.468
 2582SOL    HW2 8646   6.779   3.243   1.628
 2583SOL     OW 8647   5.872   0.365   0.913
 2583SOL    HW1 8648   5.911   0.380   0.822
 2583SOL    HW2 8649   5.820   0.446   0.941
 2584SOL     OW 8650   3.933   4.300   6.172
 2584SOL    HW1 8651   3.842   4.324   6.205
 2584SOL    HW2 8652   3.940   4.323   6.075
 2585SOL     OW 8653   3.156   4.502   6.650
 2585SOL    HW1 8654   3.103   4.435   6.597
 2585SOL    HW2 8655   3.093   4.563   6.698
 2586SOL     OW 8656   2.898   0.588   4.011
 2586SOL    HW1 8657   2.803   0.584   4.042
 2586SOL    HW2 8658   2.899   0.592   3.911
 2587SOL     OW 8659   6.810   0.753   4.031
 2587SOL    HW1 8660   6.869   0.673   4.020
 2587SOL    HW2 8661   6.762   0.747   4.119
 2588SOL     OW 8662   4.638   0.609   6.355
 2588SOL    HW1 8663   4.678   0.687   6.402
 2588SOL    HW2 8664   4.707   0.570   6.293
 2589SOL     OW 8665   2.220   6.697   0.321
 2589SOL    HW1 8666   2.311   6.739   0.328
 2589SOL    HW2 8667   2.152   6.766   0.298
 2590SOL     OW 8668   2.961   6.006   0.642
 2590SOL    HW1 8669   2.928   5.916   0.616
 2590SOL    HW2 8670   3.002   6.002   0.734
 2591SOL     OW 8671   5.740   5.286   3.432
 2591SOL    HW1 8672   5.775   5.210   3.376
 2591SOL    HW2 8673   5.792   5.369   3.412
 2592SOL     OW 8674   2.584   4.390   0.989
 2592SOL    HW1 8675   2.612   4.465   1.049
 2592SOL    HW2 8676   2.653   4.376   0.919
 2593SOL     OW 8677   3.607   4.064   0.869
 2593SOL    HW1 8678   3.584   4.158   0.842
 2593SOL    HW2 8679   3.523   4.016   0.898
 2594SOL     OW 8680   2.202   3.155   4.463
 2594SOL    HW1 8681   2.103   3.146   4.469
 2594SOL    HW2 8682   2.232   3.133   4.370
 2595SOL     OW 8683   2.408   1.539   3.125
 2595SOL    HW1 8684   2.318   1.565   3.090
 2595SOL    HW2 8685   2.447   1.467   3.068
 2596SOL     OW 8686   0.975   1.476   0.563
 2596SOL    HW1 8687   1.056   1.526   0.531
 2596SOL    HW2 8688   0.893   1.531   0.549
 2597SOL     OW 8689   6.518   6.860   0.060
 2597SOL    HW1 8690   6.531   6.939   0.121
 2597SOL    HW2 8691   6.446   6.881   7.019
 2598SOL     OW 8692   5.349   2.401   2.342
 2598SOL    HW1 8693   5.385   2.455   2.419
 2598SOL    HW2 8694   5.394   2.430   2.258
 2599SOL     OW 8695   2.775   5.697   2.368
 2599SOL    HW1 8696   2.792   5.652   2.456
 2599SOL    HW2 8697   2.832   5.778   2.360
 2600SOL     OW 8698   5.537   3.658   4.213
 2600SOL    HW1 8699   5.447   3.682   4.174
 2600SOL    HW2 8700   5.609   3.694   4.154
 2601SOL     OW 8701   6.604   1.341   3.609
 2601SOL    HW1 8702   6.669   1.404   3.652
 2601SOL    HW2 8703   6.511   1.378   3.617
 2602SOL     OW 8704   0.889   4.547   2.487
 2602SOL    HW1 8705   0.811   4.597   2.450
 2602SOL    HW2 8706   0.969   4.563   2.429
 2603SOL     OW 8707   2.714   6.329   2.758
 2603SOL    HW1 8708   2.639   6.331   2.691
 2603SOL    HW2 8709   2.681   6.361   2.846
 2604SOL     OW 8710   4.654   2.643   3.621
 2604SOL    HW1 8711   4.602   2.672   3.701
 2604SOL    HW2 8712   4.595   2.591   3.560
 2605SOL     OW 8713   1.528   3.748   1.920
 2605SOL    HW1 8714   1.496   3.840   1.898
 2605SOL    HW2 8715   1.628   3.745   1.915
 2606SOL     OW 8716   5.041   3.875   1.000
 2606SOL    HW1 8717   4.993   3.891   0.913
 2606SOL    HW2 8718   5.038   3.958   1.055
 2607SOL     OW 8719   2.532   2.455   1.362
 2607SOL    HW1 8720   2.499   2.530   1.305
 2607SOL    HW2 8721   2.630   2.442   1.346
 2608SOL     OW 8722   2.785   5.183   5.683
 2608SOL    HW1 8723   2.715   5.213   5.617
 2608SOL    HW2 8724   2.871   5.231   5.663
 2609SOL     OW 8725   0.687   2.480   0.715
 2609SOL    HW1 8726   0.637   2.402   0.753
 2609SOL    HW2 8727   0.772   2.447   0.674
 2610SOL     OW 8728   1.718   3.824   4.627
 2610SOL    HW1 8729   1.759   3.915   4.622
 2610SOL    HW2 8730   1.723   3.790   4.721
 2611SOL     OW 8731   4.778   0.226   6.009
 2611SOL    HW1 8732   4.732   0.265   6.088
 2611SOL    HW2 8733   4.862   0.180   6.039
 2612SOL     OW 8734   6.404   6.754   6.679
 2612SOL    HW1 8735   6.371   6.831   6.624
 2612SOL    HW2 8736   6.430   6.678   6.619
 2613SOL     OW 8737   1.193   6.632   6.721
 2613SOL    HW1 8738   1.101   6.592   6.721
 2613SOL    HW2 8739   1.186   6.730   6.705
 2614SOL     OW 8740   6.081   2.123   6.982
 2614SOL    HW1 8741   6.167   2.082   7.014
 2614SOL    HW2 8742   6.042   2.066   6.910
 2615SOL     OW 8743   0.392   3.473   6.635
 2615SOL    HW1 8744   0.435   3.512   6.716
 2615SOL    HW2 8745   0.431   3.382   6.617
 2616SOL     OW 8746   1.501   0.993   5.581
 2616SOL    HW1 8747   1.541   1.019   5.493
 2616SOL    HW2 8748   1.456   0.904   5.573
 2617SOL     OW 8749   4.965   0.076   1.529
 2617SOL    HW1 8750   4.946   0.122   1.442
 2617SOL    HW2 8751   5.021   7.020   1.512
 2618SOL     OW 8752   1.199   6.816   6.098
 2618SOL    HW1 8753   1.287   6.780   6.130
 2618SOL    HW2 8754   1.159   6.873   6.170
 2619SOL     OW 8755   4.778   0.936   2.865
 2619SOL    HW1 8756   4.771   0.961   2.768
 2619SOL    HW2 8757   4.755   0.840   2.876
 2620SOL     OW 8758   6.325   2.054   1.704
 2620SOL    HW1 8759   6.275   1.997   1.769
 2620SOL    HW2 8760   6.323   2.012   1.614
 2621SOL     OW 8761   2.191   6.416   1.467
 2621SOL    HW1 8762   2.272   6.357   1.466
 2621SOL    HW2 8763   2.121   6.375   1.525
 2622SOL     OW 8764   2.628   3.992   0.122
 2622SOL    HW1 8765   2.677   4.031   0.044
 2622SOL    HW2 8766   2.692   3.969   0.195
 2623SOL     OW 8767   0.057   0.193   3.727
 2623SOL    HW1 8768   6.986   0.201   3.698
 2623SOL    HW2 8769   0.093   0.284   3.749
 2624SOL     OW 8770   1.053   1.497   5.356
 2624SOL    HW1 8771   1.077   1.405   5.387
 2624SOL    HW2 8772   1.095   1.565   5.416
 2625SOL     OW 8773   2.669   5.311   6.299
 2625SOL    HW1 8774   2.655   5.314   6.200
 2625SOL    HW2 8775   2.583   5.292   6.345
 2626SOL     OW 8776   6.558   6.654   6.890
 2626SOL    HW1 8777   6.535   6.704   6.974
 2626SOL    HW2 8778   6.505   6.691   6.814
 2627SOL     OW 8779   2.095   0.682   5.827
 2627SOL    HW1 8780   2.079   0.606   5.764
 2627SOL    HW2 8781   2.019   0.687   5.893
 2628SOL     OW 8782   0.097   4.647   1.358
 2628SOL    HW1 8783   0.110   4.669   1.455
 2628SOL    HW2 8784   0.167   4.693   1.304
 2629SOL     OW 8785   3.273   3.901   2.451
 2629SOL    HW1 8786   3.290   3.803   2.463
 2629SOL    HW2 8787   3.301   3.928   2.359
 2630SOL     OW 8788   3.659   0.357   4.121
 2630SOL    HW1 8789   3.663   0.378   4.023
 2630SOL    HW2 8790   3.747   0.323   4.152
 2631SOL     OW 8791   5.528   6.764   0.259
 2631SOL    HW1 8792   5.465   6.839   0.237
 2631SOL    HW2 8793   5.498   6.681   0.212
 2632SOL     OW 8794   5.880   4.947   2.050
 2632SOL    HW1 8795   5.817   5.020   2.076
 2632SOL    HW2 8796   5.864   4.921   1.955
 2633SOL     OW 8797   0.357   3.387   6.039
 2633SOL    HW1 8798   0.427   3.415   5.973
 2633SOL    HW2 8799   0.380   3.422   6.130
 2634SOL     OW 8800   1.094   1.653   5.576
 2634SOL    HW1 8801   1.049   1.584   5.633
 2634SOL    HW2 8802   1.075   1.744   5.613
 2635SOL     OW 8803   4.171   5.186   3.544
 2635SOL    HW1 8804   4.222   5.220   3.622
 2635SOL    HW2 8805   4.101   5.252   3.518
 2636SOL     OW 8806   3.436   6.662   6.198
 2636SOL    HW1 8807   3.434   6.665   6.298
 2636SOL    HW2 8808   3.344   6.645   6.163
 2637SOL     OW 8809   0.331   0.792   3.077
 2637SOL    HW1 8810   0.277   0.734   3.016
 2637SOL    HW2 8811   0.409   0.830   3.026
 2638SOL     OW 8812   0.822   6.885   4.551
 2638SOL    HW1 8813   0.866   6.878   4.641
 2638SOL    HW2 8814   0.744   6.947   4.556
 2639SOL     OW 8815   4.531   5.021   4.818
 2639SOL    HW1 8816   4.489   5.093   4.763
 2639SOL    HW2 8817   4.460   4.974   4.871
 2640SOL     OW 8818   2.517   1.066   3.770
 2640SOL    HW1 8819   2.445   1.136   3.766
 2640SOL    HW2 8820   2.599   1.105   3.811
 2641SOL     OW 8821   4.975   1.990   0.265
 2641SOL    HW1 8822   4.980   1.894   0.236
 2641SOL    HW2 8823   4.960   2.048   0.185
 2642SOL     OW 8824   0.069   0.057   2.741
 2642SOL    HW1 8825   0.103   0.068   2.648
 2642SOL    HW2 8826   0.146   0.039   2.803
 2643SOL     OW 8827   1.340   4.675   4.421
 2643SOL    HW1 8828   1.394   4.759   4.422
 2643SOL    HW2 8829   1.374   4.612   4.491
 2644SOL     OW 8830   5.490   5.421   4.556
 2644SOL    HW1 8831   5.503   5.445   4.652
 2644SOL    HW2 8832   5.560   5.354   4.529
 2645SOL     OW 8833   4.910   5.838   3.078
 2645SOL    HW1 8834   4.984   5.901   3.055
 2645SOL    HW2 8835   4.948   5.755   3.118
 2646SOL     OW 8836   0.682   2.369   6.478
 2646SOL    HW1 8837   0.651   2.299   6.413
 2646SOL    HW2 8838   0.615   2.444   6.480
 2647SOL     OW 8839   4.770   6.753   2.776
 2647SOL    HW1 8840   4.709   6.822   2.814
 2647SOL    HW2 8841   4.716   6.676   2.742
 2648SOL     OW 8842   1.254   0.094   6.173
 2648SOL    HW1 8843   1.346   0.132   6.184
 2648SOL    HW2 8844   1.204   0.148   6.106
 2649SOL     OW 8845   5.081   1.648   3.358
 2649SOL    HW1 8846   5.055   1.732   3.406
 2649SOL    HW2 8847   5.070   1.661   3.260
 2650SOL     OW 8848   1.967   6.824   3.813
 2650SOL    HW1 8849   1.919   6.748   3.770
 2650SOL    HW2 8850   1.935   6.910   3.774
 2651SOL     OW 8851   4.070   1.818   4.157
 2651SOL    HW1 8852   4.005   1.757   4.203
 2651SOL    HW2 8853   4.055   1.814   4.058
 2652SOL     OW 8854   5.403   4.172   5.308
 2652SOL    HW1 8855   5.410   4.256   5.255
 2652SOL    HW2 8856   5.331   4.182   5.377
 2653SOL     OW 8857   2.038   6.411   6.842
 2653SOL    HW1 8858   2.123   6.362   6.862
 2653SOL    HW2 8859   1.964   6.375   6.899
 2654SOL     OW 8860   0.248   1.299   0.826
 2654SOL    HW1 8861   0.281   1.357   0.900
 2654SOL    HW2 8862   0.326   1.255   0.781
 2655SOL     OW 8863   5.733   6.204   2.854
 2655SOL    HW1 8864   5.715   6.295   2.817
 2655SOL    HW2 8865   5.797   6.211   2.930
 2656SOL     OW 8866   4.986   5.854   3.811
 2656SOL    HW1 8867   4.969   5.855   3.713
 2656SOL    HW2 8868   4.944   5.773   3.852
 2657SOL     OW 8869   1.112   3.370   6.739
 2657SOL    HW1 8870   1.164   3.352   6.823
 2657SOL    HW2 8871   1.128   3.297   6.673
 2658SOL     OW 8872   3.694   5.002   0.023
 2658SOL    HW1 8873   3.714   5.084   6.995
 2658SOL    HW2 8874   3.776   4.975   0.074
 2659SOL     OW 8875   0.271   2.052   5.388
 2659SOL    HW1 8876   0.323   1.970   5.412
 2659SOL    HW2 8877   0.329   2.133   5.395
 2660SOL     OW 8878   0.335   1.493   1.001
 2660SOL    HW1 8879   0.303   1.458   1.089
 2660SOL    HW2 8880   0.399   1.568   1.017
 2661SOL     OW 8881   1.730   1.396   1.365
 2661SOL    HW1 8882   1.795   1.416   1.292
 2661SOL    HW2 8883   1.640   1.378   1.325
 2662SOL     OW 8884   2.555   1.971   2.142
 2662SOL    HW1 8885   2.551   1.872   2.126
 2662SOL    HW2 8886   2.640   2.007   2.105
 2663SOL     OW 8887   3.627   0.124   0.756
 2663SOL    HW1 8888   3.725   0.114   0.771
 2663SOL    HW2 8889   3.595   0.208   0.800
 2664SOL     OW 8890   4.890   3.581   5.418
 2664SOL    HW1 8891   4.816   3.517   5.401
 2664SOL    HW2 8892   4.875   3.629   5.504
 2665SOL     OW 8893   1.615   3.094   3.678
 2665SOL    HW1 8894   1.613   3.052   3.587
 2665SOL    HW2 8895   1.696   3.152   3.686
 2666SOL     OW 8896   2.115   4.320   1.866
 2666SOL    HW1 8897   2.085   4.245   1.807
 2666SOL    HW2 8898   2.192   4.290   1.922
 2667SOL     OW 8899   6.666   2.735   5.392
 2667SOL    HW1 8900   6.623   2.728   5.302
 2667SOL    HW2 8901   6.743   2.672   5.397
 2668SOL     OW 8902   6.227   0.621   3.373
 2668SOL    HW1 8903   6.312   0.665   3.343
 2668SOL    HW2 8904   6.249   0.533   3.416
 2669SOL     OW 8905   2.598   1.001   1.163
 2669SOL    HW1 8906   2.676   1.055   1.133
 2669SOL    HW2 8907   2.529   0.998   1.091
 2670SOL     OW 8908   0.496   0.130   6.938
 2670SOL    HW1 8909   0.589   0.137   6.902
 2670SOL    HW2 8910   0.497   0.148   0.012
 2671SOL     OW 8911   5.307   4.515   6.082
 2671SOL    HW1 8912   5.246   4.593   6.089
 2671SOL    HW2 8913   5.376   4.533   6.011
 2672SOL     OW 8914   2.666   1.006   2.189
 2672SOL    HW1 8915   2.700   1.004   2.284
 2672SOL    HW2 8916   2.593   1.074   2.182
 2673SOL     OW 8917   3.770   0.174   2.558
 2673SOL    HW1 8918   3.831   0.247   2.588
 2673SOL    HW2 8919   3.767   0.103   2.629
 2674SOL     OW 8920   6.953   5.967   3.141
 2674SOL    HW1 8921   6.920   6.018   3.221
 2674SOL    HW2 8922   6.944   5.869   3.159
 2675SOL     OW 8923   4.899   0.918   4.825
 2675SOL    HW1 8924   4.806   0.954   4.835
 2675SOL    HW2 8925   4.916   0.896   4.729
 2676SOL     OW 8926   4.078   3.766   4.063
 2676SOL    HW1 8927   4.127   3.784   4.149
 2676SOL    HW2 8928   4.103   3.835   3.995
 2677SOL     OW 8929   1.710   5.915   0.452
 2677SOL    HW1 8930   1.641   5.975   0.494
 2677SOL    HW2 8931   1.669   5.826   0.433
 2678SOL     OW 8932   3.471   2.069   2.500
 2678SOL    HW1 8933   3.473   2.002   2.426
 2678SOL    HW2 8934   3.387   2.124   2.492
 2679SOL     OW 8935   1.536   3.491   2.480
 2679SOL    HW1 8936   1.535   3.474   2.381
 2679SOL    HW2 8937   1.626   3.470   2.516
 2680SOL     OW 8938   5.415   2.769   0.012
 2680SOL    HW1 8939   5.458   2.859   0.009
 2680SOL    HW2 8940   5.471   2.703   6.987
 2681SOL     OW 8941   2.089   2.631   3.581
 2681SOL    HW1 8942   2.029   2.685   3.641
 2681SOL    HW2 8943   2.090   2.536   3.613
 2682SOL     OW 8944   3.672   3.734   1.818
 2682SOL    HW1 8945   3.603   3.723   1.889
 2682SOL    HW2 8946   3.678   3.650   1.764
 2683SOL     OW 8947   2.299   3.847   1.547
 2683SOL    HW1 8948   2.253   3.805   1.625
 2683SOL    HW2 8949   2.239   3.845   1.468
 2684SOL     OW 8950   6.454   0.403   3.757
 2684SOL    HW1 8951   6.474   0.476   3.691
 2684SOL    HW2 8952   6.412   0.443   3.839
 2685SOL     OW 8953   0.964   6.421   5.528
 2685SOL    HW1 8954   0.944   6.324   5.537
 2685SOL    HW2 8955   1.057   6.439   5.558
 2686SOL     OW 8956   1.764   0.843   5.656
 2686SOL    HW1 8957   1.830   0.903   5.700
 2686SOL    HW2 8958   1.678   0.893   5.641
 2687SOL     OW 8959   4.477   1.594   1.435
 2687SOL    HW1 8960   4.432   1.683   1.420
 2687SOL    HW2 8961   4.548   1.605   1.505
 2688SOL     OW 8962   4.212   2.602   0.191
 2688SOL    HW1 8963   4.151   2.628   0.116
 2688SOL    HW2 8964   4.172   2.631   0.278
 2689SOL     OW 8965   0.612   4.079   2.763
 2689SOL    HW1 8966   0.579   4.003   2.819
 2689SOL    HW2 8967   0.650   4.150   2.823
 2690SOL     OW 8968   5.347   1.077   5.401
 2690SOL    HW1 8969   5.340   1.055   5.304
 2690SOL    HW2 8970   5.358   0.993   5.454
 2691SOL     OW 8971   0.487   3.614   4.955
 2691SOL    HW1 8972   0.474   3.689   5.019
 2691SOL    HW2 8973   0.440   3.532   4.989
 2692SOL     OW 8974   2.762   5.543   1.922
 2692SOL    HW1 8975   2.757   5.538   1.822
 2692SOL    HW2 8976   2.676   5.578   1.958
 2693SOL     OW 8977   1.268   5.405   2.837
 2693SOL    HW1 8978   1.358   5.363   2.839
 2693SOL    HW2 8979   1.210   5.360   2.905
 2694SOL     OW 8980   2.613   0.347   2.184
 2694SOL    HW1 8981   2.548   0.399   2.240
 2694SOL    HW2 8982   2.563   0.296   2.114
 2695SOL     OW 8983   6.857   4.820   3.502
 2695SOL    HW1 8984   6.811   4.897   3.458
 2695SOL    HW2 8985   6.802   4.788   3.579
 2696SOL     OW 8986   4.472   4.471   6.769
 2696SOL    HW1 8987   4.483   4.435   6.861
 2696SOL    HW2 8988   4.430   4.562   6.773
 2697SOL     OW 8989   3.679   1.993   0.749
 2697SOL    HW1 8990   3.590   1.963   0.783
 2697SOL    HW2 8991   3.730   1.913   0.717
 2698SOL     OW 8992   1.433   5.665   5.966
 2698SOL    HW1 8993   1.463   5.612   5.888
 2698SOL    HW2 8994   1.512   5.690   6.022
 2699SOL     OW 8995   2.729   6.772   2.325
 2699SOL    HW1 8996   2.720   6.775   2.425
 2699SOL    HW2 8997   2.789   6.697   2.300
 2700SOL     OW 8998   4.277   2.136   1.755
 2700SOL    HW1 8999   4.183   2.167   1.737
 2700SOL    HW2 9000   4.326   2.206   1.806
 2701SOL     OW 9001   5.365   3.912   5.169
 2701SOL    HW1 9002   5.362   3.931   5.071
 2701SOL    HW2 9003   5.378   3.997   5.219
 2702SOL     OW 9004   2.692   1.246   4.827
 2702SOL    HW1 9005   2.671   1.325   4.770
 2702SOL    HW2 9006   2.637   1.249   4.910
 2703SOL     OW 9007   2.298   6.334   2.917
 2703SOL    HW1 9008   2.312   6.263   2.847
 2703SOL    HW2 9009   2.383   6.345   2.969
 2704SOL     OW 9010   4.500   0.558   3.696
 2704SOL    HW1 9011   4.580   0.617   3.699
 2704SOL    HW2 9012   4.420   0.607   3.731
 2705SOL     OW 9013   1.699   0.335   5.141
 2705SOL    HW1 9014   1.705   0.299   5.048
 2705SOL    HW2 9015   1.756   0.417   5.149
 2706SOL     OW 9016   0.058   4.473   3.934
 2706SOL    HW1 9017   0.132   4.412   3.907
 2706SOL    HW2 9018   0.095   4.565   3.952
 2707SOL     OW 9019   4.516   1.221   3.436
 2707SOL    HW1 9020   4.481   1.311   3.462
 2707SOL    HW2 9021   4.515   1.213   3.337
 2708SOL     OW 9022   5.036   3.467   5.960
 2708SOL    HW1 9023   5.058   3.562   5.942
 2708SOL    HW2 9024   5.093   3.408   5.904
 2709SOL     OW 9025   4.843   1.773   5.651
 2709SOL    HW1 9026   4.842   1.720   5.567
 2709SOL    HW2 9027   4.813   1.866   5.633
 2710SOL     OW 9028   1.179   2.598   4.108
 2710SOL    HW1 9029   1.172   2.676   4.047
 2710SOL    HW2 9030   1.274   2.584   4.134
 2711SOL     OW 9031   4.000   0.779   1.867
 2711SOL    HW1 9032   3.943   0.696   1.866
 2711SOL    HW2 9033   4.058   0.781   1.785
 2712SOL     OW 9034   5.598   6.122   1.625
 2712SOL    HW1 9035   5.503   6.093   1.634
 2712SOL    HW2 9036   5.658   6.043   1.633
 2713SOL     OW 9037   3.856   5.035   5.601
 2713SOL    HW1 9038   3.944   5.076   5.573
 2713SOL    HW2 9039   3.787   5.055   5.531
 2714SOL     OW 9040   3.262   4.532   5.932
 2714SOL    HW1 9041   3.196   4.469   5.890
 2714SOL    HW2 9042   3.354   4.497   5.917
 2715SOL     OW 9043   4.612   6.635   6.894
 2715SOL    HW1 9044   4.690   6.610   6.838
 2715SOL    HW2 9045   4.635   6.622   6.991
 2716SOL     OW 9046   4.365   0.673   3.018
 2716SOL    HW1 9047   4.355   0.755   2.961
 2716SOL    HW2 9048   4.462   0.658   3.037
 2717SOL     OW 9049   1.069   1.839   2.313
 2717SOL    HW1 9050   1.025   1.813   2.228
 2717SOL    HW2 9051   1.157   1.792   2.321
 2718SOL     OW 9052   6.262   1.381   6.020
 2718SOL    HW1 9053   6.169   1.394   6.055
 2718SOL    HW2 9054   6.326   1.375   6.098
 2719SOL     OW 9055   1.473   4.881   3.895
 2719SOL    HW1 9056   1.383   4.867   3.934
 2719SOL    HW2 9057   1.517   4.792   3.882
 2720SOL     OW 9058   1.820   5.750   6.332
 2720SOL    HW1 9059   1.810   5.842   6.372
 2720SOL    HW2 9060   1.875   5.756   6.249
 2721SOL     OW 9061   2.341   6.750   1.827
 2721SOL    HW1 9062   2.376   6.824   1.770
 2721SOL    HW2 9063   2.418   6.701   1.869
 2722SOL     OW 9064   3.690   4.615   6.607
 2722SOL    HW1 9065   3.631   4.538   6.628
 2722SOL    HW2 9066   3.762   4.623   6.676
 2723SOL     OW 9067   4.196   5.853   6.222
 2723SOL    HW1 9068   4.273   5.791   6.235
 2723SOL    HW2 9069   4.158   5.878   6.311
 2724SOL     OW 9070   6.574   5.670   1.504
 2724SOL    HW1 9071   6.620   5.677   1.593
 2724SOL    HW2 9072   6.554   5.573   1.485
 2725SOL     OW 9073   5.911   4.524   3.332
 2725SOL    HW1 9074   5.976   4.457   3.297
 2725SOL    HW2 9075   5.902   4.514   3.431
 2726SOL     OW 9076   6.375   1.911   2.765
 2726SOL    HW1 9077   6.369   2.009   2.746
 2726SOL    HW2 9078   6.285   1.869   2.751
 2727SOL     OW 9079   1.513   5.485   3.293
 2727SOL    HW1 9080   1.472   5.412   3.348
 2727SOL    HW2 9081   1.458   5.568   3.301
 2728SOL     OW 9082   4.465   5.938   6.084
 2728SOL    HW1 9083   4.417   5.864   6.038
 2728SOL    HW2 9084   4.420   6.025   6.063
 2729SOL     OW 9085   6.082   0.523   0.249
 2729SOL    HW1 9086   6.153   0.455   0.270
 2729SOL    HW2 9087   6.120   0.615   0.263
 2730SOL     OW 9088   1.261   5.927   2.635
 2730SOL    HW1 9089   1.209   5.843   2.648
 2730SOL    HW2 9090   1.355   5.904   2.610
 2731SOL     OW 9091   3.217   4.137   4.730
 2731SOL    HW1 9092   3.269   4.074   4.788
 2731SOL    HW2 9093   3.121   4.135   4.757
 2732SOL     OW 9094   5.108   0.688   1.554
 2732SOL    HW1 9095   5.075   0.728   1.640
 2732SOL    HW2 9096   5.057   0.605   1.535
 2733SOL     OW 9097   0.699   6.408   0.475
 2733SOL    HW1 9098   0.757   6.451   0.405
 2733SOL    HW2 9099   0.614   6.459   0.483
 2734SOL     OW 9100   3.730   6.401   2.534
 2734SOL    HW1 9101   3.693   6.325   2.588
 2734SOL    HW2 9102   3.658   6.466   2.514
 2735SOL     OW 9103   0.957   1.767   2.085
 2735SOL    HW1 9104   0.951   1.672   2.053
 2735SOL    HW2 9105   0.875   1.817   2.057
 2736SOL     OW 9106   5.685   4.041   2.792
 2736SOL    HW1 9107   5.686   4.032   2.692
 2736SOL    HW2 9108   5.744   4.117   2.819
 2737SOL     OW 9109   3.300   0.474   5.421
 2737SOL    HW1 9110   3.214   0.430   5.448
 2737SOL    HW2 9111   3.285   0.528   5.338
 2738SOL     OW 9112   4.782   5.420   0.976
 2738SOL    HW1 9113   4.707   5.359   1.001
 2738SOL    HW2 9114   4.868   5.384   1.012
 2739SOL     OW 9115   6.722   5.671   1.719
 2739SOL    HW1 9116   6.684   5.742   1.778
 2739SOL    HW2 9117   6.816   5.695   1.694
 2740SOL     OW 9118   0.210   4.994   3.294
 2740SOL    HW1 9119   0.145   5.021   3.365
 2740SOL    HW2 9120   0.215   4.895   3.289
 2741SOL     OW 9121   1.063   6.583   6.051
 2741SOL    HW1 9122   1.116   6.665   6.071
 2741SOL    HW2 9123   0.984   6.607   5.994
 2742SOL     OW 9124   3.461   5.546   3.153
 2742SOL    HW1 9125   3.374   5.540   3.201
 2742SOL    HW2 9126   3.447   5.529   3.056
 2743SOL     OW 9127   4.906   1.889   2.729
 2743SOL    HW1 9128   4.930   1.900   2.633
 2743SOL    HW2 9129   4.844   1.811   2.739
 2744SOL     OW 9130   3.621   4.142   2.274
 2744SOL    HW1 9131   3.677   4.077   2.325
 2744SOL    HW2 9132   3.665   4.232   2.278
 2745SOL     OW 9133   0.580   5.766   0.370
 2745SOL    HW1 9134   0.562   5.683   0.318
 2745SOL    HW2 9135   0.497   5.795   0.417
 2746SOL     OW 9136   1.745   1.063   3.768
 2746SOL    HW1 9137   1.709   1.012   3.691
 2746SOL    HW2 9138   1.833   1.103   3.744
 2747SOL     OW 9139   4.098   4.733   0.646
 2747SOL    HW1 9140   4.128   4.645   0.684
 2747SOL    HW2 9141   4.003   4.726   0.618
 2748SOL     OW 9142   3.821   0.398   0.678
 2748SOL    HW1 9143   3.893   0.460   0.707
 2748SOL    HW2 9144   3.862   0.317   0.636
 2749SOL     OW 9145   3.354   1.509   0.846
 2749SOL    HW1 9146   3.365   1.492   0.944
 2749SOL    HW2 9147   3.306   1.595   0.832
 2750SOL     OW 9148   3.062   5.921   3.300
 2750SOL    HW1 9149   3.071   5.864   3.218
 2750SOL    HW2 9150   3.004   6.000   3.279
 2751SOL     OW 9151   6.326   4.581   1.015
 2751SOL    HW1 9152   6.238   4.624   1.035
 2751SOL    HW2 9153   6.389   4.649   0.977
 2752SOL     OW 9154   3.914   5.706   6.473
 2752SOL    HW1 9155   3.834   5.691   6.531
 2752SOL    HW2 9156   3.933   5.804   6.467
 2753SOL     OW 9157   5.087   5.899   5.601
 2753SOL    HW1 9158   5.124   5.992   5.599
 2753SOL    HW2 9159   5.157   5.835   5.568
 2754SOL     OW 9160   1.414   0.346   5.944
 2754SOL    HW1 9161   1.314   0.349   5.942
 2754SOL    HW2 9162   1.451   0.439   5.946
 2755SOL     OW 9163   3.730   7.015   2.341
 2755SOL    HW1 9164   3.757   0.052   2.414
 2755SOL    HW2 9165   3.651   6.961   2.370
 2756SOL     OW 9166   4.203   6.205   0.294
 2756SOL    HW1 9167   4.121   6.203   0.351
 2756SOL    HW2 9168   4.225   6.112   0.265
 2757SOL     OW 9169   0.791   5.167   0.703
 2757SOL    HW1 9170   0.873   5.160   0.759
 2757SOL    HW2 9171   0.733   5.240   0.739
 2758SOL     OW 9172   5.037   0.765   5.264
 2758SOL    HW1 9173   5.128   0.784   5.227
 2758SOL    HW2 9174   5.041   0.766   5.364
 2759SOL     OW 9175   4.794   4.890   4.186
 2759SOL    HW1 9176   4.706   4.917   4.226
 2759SOL    HW2 9177   4.817   4.952   4.111
 2760SOL     OW 9178   1.279   6.791   3.613
 2760SOL    HW1 9179   1.301   6.755   3.522
 2760SOL    HW2 9180   1.342   6.866   3.635
 2761SOL     OW 9181   2.327   4.946   4.191
 2761SOL    HW1 9182   2.255   4.939   4.121
 2761SOL    HW2 9183   2.346   4.855   4.228
 2762SOL     OW 9184   2.067   0.692   5.326
 2762SOL    HW1 9185   2.160   0.701   5.363
 2762SOL    HW2 9186   2.035   0.782   5.296
 2763SOL     OW 9187   5.101   0.898   2.203
 2763SOL    HW1 9188   5.178   0.924   2.262
 2763SOL    HW2 9189   5.134   0.840   2.129
 2764SOL     OW 9190   6.303   0.906   1.451
 2764SOL    HW1 9191   6.365   0.854   1.510
 2764SOL    HW2 9192   6.242   0.843   1.404
 2765SOL     OW 9193   5.105   2.048   2.815
 2765SOL    HW1 9194   5.034   1.983   2.790
 2765SOL    HW2 9195   5.156   2.014   2.894
 2766SOL     OW 9196   5.778   0.022   2.709
 2766SOL    HW1 9197   5.870   0.018   2.670
 2766SOL    HW2 9198   5.711   0.038   2.637
 2767SOL     OW 9199   6.032   4.556   6.124
 2767SOL    HW1 9200   6.128   4.574   6.146
 2767SOL    HW2 9201   5.977   4.557   6.208
 2768SOL     OW 9202   6.007   1.662   6.756
 2768SOL    HW1 9203   5.940   1.651   6.829
 2768SOL    HW2 9204   6.084   1.600   6.771
 2769SOL     OW 9205   1.083   4.453   1.282
 2769SOL    HW1 9206   1.139   4.527   1.245
 2769SOL    HW2 9207   0.989   4.463   1.250
 2770SOL     OW 9208   5.994   5.791   2.010
 2770SOL    HW1 9209   6.070   5.855   2.022
 2770SOL    HW2 9210   5.951   5.773   2.098
 2771SOL     OW 9211   4.939   1.196   1.172
 2771SOL    HW1 9212   4.993   1.112   1.162
 2771SOL    HW2 9213   4.903   1.223   1.082
 2772SOL     OW 9214   3.675   2.325   6.601
 2772SOL    HW1 9215   3.620   2.302   6.521
 2772SOL    HW2 9216   3.652   2.417   6.632
 2773SOL     OW 9217   3.350   4.774   0.858
 2773SOL    HW1 9218   3.253   4.782   0.882
 2773SOL    HW2 9219   3.360   4.765   0.759
 2774SOL     OW 9220   5.547   3.148   1.976
 2774SOL    HW1 9221   5.612   3.223   1.968
 2774SOL    HW2 9222   5.455   3.185   1.992
 2775SOL     OW 9223   6.769   0.041   1.803
 2775SOL    HW1 9224   6.804   0.071   1.714
 2775SOL    HW2 9225   6.807   6.976   1.826
 2776SOL     OW 9226   3.128   6.183   6.633
 2776SOL    HW1 9227   3.222   6.161   6.659
 2776SOL    HW2 9228   3.129   6.258   6.567
 2777SOL     OW 9229   2.435   1.959   3.978
 2777SOL    HW1 9230   2.445   1.870   4.024
 2777SOL    HW2 9231   2.350   1.960   3.925
 2778SOL     OW 9232   2.403   2.526   4.503
 2778SOL    HW1 9233   2.328   2.464   4.526
 2778SOL    HW2 9234   2.487   2.474   4.490
 2779SOL     OW 9235   6.263   1.765   0.856
 2779SOL    HW1 9236   6.310   1.850   0.831
 2779SOL    HW2 9237   6.216   1.778   0.944
 2780SOL     OW 9238   3.353   6.037   0.186
 2780SOL    HW1 9239   3.380   6.032   0.282
 2780SOL    HW2 9240   3.255   6.058   0.181
 2781SOL     OW 9241   4.702   4.260   0.039
 2781SOL    HW1 9242   4.629   4.327   0.055
 2781SOL    HW2 9243   4.730   4.265   6.967
 2782SOL     OW 9244   3.054   1.413   5.974
 2782SOL    HW1 9245   2.980   1.417   6.041
 2782SOL    HW2 9246   3.142   1.404   6.021
 2783SOL     OW 9247   0.441   4.241   5.806
 2783SOL    HW1 9248   0.404   4.148   5.809
 2783SOL    HW2 9249   0.372   4.303   5.770
 2784SOL     OW 9250   2.411   2.231   1.701
 2784SOL    HW1 9251   2.509   2.220   1.687
 2784SOL    HW2 9252   2.369   2.142   1.717
 2785SOL     OW 9253   5.967   1.260   1.598
 2785SOL    HW1 9254   6.016   1.175   1.578
 2785SOL    HW2 9255   6.027   1.338   1.579
 2786SOL     OW 9256   3.235   0.346   0.121
 2786SOL    HW1 9257   3.322   0.338   0.171
 2786SOL    HW2 9258   3.168   0.283   0.161
 2787SOL     OW 9259   1.586   3.480   6.090
 2787SOL    HW1 9260   1.568   3.382   6.085
 2787SOL    HW2 9261   1.669   3.501   6.037
 2788SOL     OW 9262   0.235   3.619   6.882
 2788SOL    HW1 9263   0.210   3.707   6.840
 2788SOL    HW2 9264   0.208   3.544   6.822
 2789SOL     OW 9265   0.165   2.801   4.321
 2789SOL    HW1 9266   0.168   2.843   4.412
 2789SOL    HW2 9267   0.072   2.803   4.286
 2790SOL     OW 9268   3.392   6.081   4.425
 2790SOL    HW1 9269   3.421   6.155   4.486
 2790SOL    HW2 9270   3.456   6.005   4.431
 2791SOL     OW 9271   2.082   3.327   2.587
 2791SOL    HW1 9272   2.072   3.328   2.687
 2791SOL    HW2 9273   1.992   3.312   2.545
 2792SOL     OW 9274   1.272   2.015   4.954
 2792SOL    HW1 9275   1.279   2.114   4.940
 2792SOL    HW2 9276   1.338   1.987   5.023
 2793SOL     OW 9277   5.018   0.881   3.977
 2793SOL    HW1 9278   5.088   0.890   4.048
 2793SOL    HW2 9279   4.996   0.972   3.940
 2794SOL     OW 9280   0.800   1.190   1.717
 2794SOL    HW1 9281   0.831   1.281   1.745
 2794SOL    HW2 9282   0.875   1.141   1.672
 2795SOL     OW 9283   1.762   4.076   1.690
 2795SOL    HW1 9284   1.836   4.010   1.684
 2795SOL    HW2 9285   1.800   4.168   1.701
 2796SOL     OW 9286   5.590   4.009   2.193
 2796SOL    HW1 9287   5.555   3.920   2.221
 2796SOL    HW2 9288   5.571   4.023   2.095
 2797SOL     OW 9289   4.501   4.495   4.775
 2797SOL    HW1 9290   4.544   4.585   4.769
 2797SOL    HW2 9291   4.451   4.487   4.861
 2798SOL     OW 9292   1.867   3.615   3.321
 2798SOL    HW1 9293   1.964   3.594   3.330
 2798SOL    HW2 9294   1.854   3.679   3.245
 2799SOL     OW 9295   6.133   5.499   5.951
 2799SOL    HW1 9296   6.214   5.453   5.915
 2799SOL    HW2 9297   6.051   5.457   5.913
 2800SOL     OW 9298   2.881   2.087   6.954
 2800SOL    HW1 9299   2.926   2.124   6.873
 2800SOL    HW2 9300   2.879   1.987   6.949
 2801SOL     OW 9301   4.111   5.716   2.565
 2801SOL    HW1 9302   4.106   5.737   2.467
 2801SOL    HW2 9303   4.140   5.621   2.578
 2802SOL     OW 9304   6.236   0.591   6.027
 2802SOL    HW1 9305   6.285   0.599   6.114
 2802SOL    HW2 9306   6.283   0.645   5.958
 2803SOL     OW 9307   2.288   5.691   5.616
 2803SOL    HW1 9308   2.319   5.662   5.707
 2803SOL    HW2 9309   2.321   5.783   5.598
 2804SOL     OW 9310   0.261   4.890   2.084
 2804SOL    HW1 9311   0.333   4.828   2.053
 2804SOL    HW2 9312   0.181   4.837   2.110
 2805SOL     OW 9313   5.129   3.850   6.520
 2805SOL    HW1 9314   5.119   3.757   6.485
 2805SOL    HW2 9315   5.200   3.852   6.590
 2806SOL     OW 9316   6.551   5.505   2.636
 2806SOL    HW1 9317   6.563   5.517   2.734
 2806SOL    HW2 9318   6.566   5.409   2.612
 2807SOL     OW 9319   4.336   4.659   4.214
 2807SOL    HW1 9320   4.369   4.690   4.303
 2807SOL    HW2 9321   4.245   4.697   4.197
 2808SOL     OW 9322   4.439   5.843   4.390
 2808SOL    HW1 9323   4.435   5.926   4.335
 2808SOL    HW2 9324   4.372   5.777   4.357
 2809SOL     OW 9325   5.145   2.936   0.405
 2809SOL    HW1 9326   5.186   2.864   0.461
 2809SOL    HW2 9327   5.045   2.931   0.411
 2810SOL     OW 9328   1.534   0.614   5.978
 2810SOL    HW1 9329   1.474   0.693   5.966
 2810SOL    HW2 9330   1.602   0.613   5.905
 2811SOL     OW 9331   7.017   0.912   3.802
 2811SOL    HW1 9332   6.971   0.834   3.844
 2811SOL    HW2 9333   6.957   0.954   3.735
 2812SOL     OW 9334   4.881   4.112   2.290
 2812SOL    HW1 9335   4.870   4.014   2.274
 2812SOL    HW2 9336   4.970   4.142   2.255
 2813SOL     OW 9337   6.092   1.704   6.137
 2813SOL    HW1 9338   6.044   1.731   6.053
 2813SOL    HW2 9339   6.075   1.607   6.155
 2814SOL     OW 9340   5.065   4.512   4.771
 2814SOL    HW1 9341   5.069   4.488   4.674
 2814SOL    HW2 9342   5.052   4.611   4.780
 2815SOL     OW 9343   6.845   1.218   4.748
 2815SOL    HW1 9344   6.841   1.118   4.753
 2815SOL    HW2 9345   6.833   1.257   4.839
 2816SOL     OW 9346   6.029   6.505   2.883
 2816SOL    HW1 9347   5.989   6.436   2.944
 2816SOL    HW2 9348   5.987   6.594   2.902
 2817SOL     OW 9349   1.220   1.654   1.105
 2817SOL    HW1 9350   1.147   1.599   1.147
 2817SOL    HW2 9351   1.229   1.740   1.154
 2818SOL     OW 9352   0.740   3.462   6.614
 2818SOL    HW1 9353   0.823   3.515   6.600
 2818SOL    HW2 9354   0.691   3.453   6.527
 2819SOL     OW 9355   5.892   3.202   0.954
 2819SOL    HW1 9356   5.863   3.225   0.861
 2819SOL    HW2 9357   5.974   3.253   0.977
 2820SOL     OW 9358   5.499   2.423   3.678
 2820SOL    HW1 9359   5.436   2.484   3.725
 2820SOL    HW2 9360   5.491   2.330   3.715
 2821SOL     OW 9361   1.447   3.330   3.969
 2821SOL    HW1 9362   1.393   3.359   4.048
 2821SOL    HW2 9363   1.401   3.256   3.922
 2822SOL     OW 9364   2.570   1.769   0.455
 2822SOL    HW1 9365   2.649   1.783   0.395
 2822SOL    HW2 9366   2.574   1.676   0.494
 2823SOL     OW 9367   2.431   6.480   3.641
 2823SOL    HW1 9368   2.405   6.484   3.737
 2823SOL    HW2 9369   2.350   6.460   3.586
 2824SOL     OW 9370   2.971   2.129   5.413
 2824SOL    HW1 9371   2.963   2.225   5.387
 2824SOL    HW2 9372   3.020   2.079   5.341
 2825SOL     OW 9373   6.249   6.066   0.936
 2825SOL    HW1 9374   6.200   5.984   0.906
 2825SOL    HW2 9375   6.305   6.044   1.016
 2826SOL     OW 9376   4.668   2.566   4.267
 2826SOL    HW1 9377   4.691   2.519   4.182
 2826SOL    HW2 9378   4.724   2.649   4.275
 2827SOL     OW 9379   6.279   0.777   6.369
 2827SOL    HW1 9380   6.362   0.801   6.419
 2827SOL    HW2 9381   6.281   0.819   6.278
 2828SOL     OW 9382   3.723   2.050   6.992
 2828SOL    HW1 9383   3.653   2.079   6.926
 2828SOL    HW2 9384   3.694   2.078   0.060
 2829SOL     OW 9385   2.673   0.296   6.735
 2829SOL    HW1 9386   2.618   0.229   6.785
 2829SOL    HW2 9387   2.688   0.376   6.792
 2830SOL     OW 9388   3.259   3.822   6.729
 2830SOL    HW1 9389   3.279   3.803   6.633
 2830SOL    HW2 9390   3.180   3.767   6.759
 2831SOL     OW 9391   6.642   5.868   4.186
 2831SOL    HW1 9392   6.722   5.928   4.183
 2831SOL    HW2 9393   6.609   5.851   4.093
 2832SOL     OW 9394   0.355   0.961   1.711
 2832SOL    HW1 9395   0.271   0.982   1.761
 2832SOL    HW2 9396   0.332   0.930   1.619
 2833SOL     OW 9397   6.442   3.133   2.563
 2833SOL    HW1 9398   6.534   3.098   2.582
 2833SOL    HW2 9399   6.392   3.143   2.649
 2834SOL     OW 9400   4.331   0.735   5.755
 2834SOL    HW1 9401   4.419   0.724   5.709
 2834SOL    HW2 9402   4.262   0.680   5.708
 2835SOL     OW 9403   0.488   6.548   3.424
 2835SOL    HW1 9404   0.413   6.593   3.376
 2835SOL    HW2 9405   0.575   6.585   3.392
 2836SOL     OW 9406   6.549   0.801   0.528
 2836SOL    HW1 9407   6.486   0.878   0.533
 2836SOL    HW2 9408   6.522   0.731   0.594
 2837SOL     OW 9409   6.593   3.185   3.586
 2837SOL    HW1 9410   6.507   3.152   3.624
 2837SOL    HW2 9411   6.610   3.139   3.498
 2838SOL     OW 9412   1.773   4.640   4.068
 2838SOL    HW1 9413   1.844   4.689   4.119
 2838SOL    HW2 9414   1.691   4.630   4.124
 2839SOL     OW 9415   5.078   2.621   0.842
 2839SOL    HW1 9416   5.042   2.647   0.932
 2839SOL    HW2 9417   5.078   2.521   0.835
 2840SOL     OW 9418   6.494   2.980   5.210
 2840SOL    HW1 9419   6.557   3.005   5.283
 2840SOL    HW2 9420   6.402   2.969   5.248
 2841SOL     OW 9421   0.323   6.290   1.685
 2841SOL    HW1 9422   0.336   6.366   1.748
 2841SOL    HW2 9423   0.251   6.313   1.619
 2842SOL     OW 9424   6.212   3.256   2.714
 2842SOL    HW1 9425   6.139   3.268   2.647
 2842SOL    HW2 9426   6.208   3.164   2.753
 2843SOL     OW 9427   4.351   1.298   4.521
 2843SOL    HW1 9428   4.369   1.396   4.525
 2843SOL    HW2 9429   4.335   1.262   4.613
 2844SOL     OW 9430   0.372   3.992   5.857
 2844SOL    HW1 9431   0.451   3.957   5.906
 2844SOL    HW2 9432   0.291   3.985   5.915
 2845SOL     OW 9433   6.673   4.300   6.088
 2845SOL    HW1 9434   6.707   4.206   6.077
 2845SOL    HW2 9435   6.696   4.354   6.008
 2846SOL     OW 9436   4.691   0.908   5.867
 2846SOL    HW1 9437   4.643   0.993   5.846
 2846SOL    HW2 9438   4.689   0.892   5.966
 2847SOL     OW 9439   4.836   4.747   3.832
 2847SOL    HW1 9440   4.843   4.677   3.903
 2847SOL    HW2 9441   4.739   4.764   3.812
 2848SOL     OW 9442   1.977   6.529   5.528
 2848SOL    HW1 9443   1.885   6.490   5.529
 2848SOL    HW2 9444   2.042   6.463   5.491
 2849SOL     OW 9445   2.130   3.209   1.424
 2849SOL    HW1 9446   2.167   3.243   1.510
 2849SOL    HW2 9447   2.190   3.136   1.389
 2850SOL     OW 9448   3.583   0.994   0.402
 2850SOL    HW1 9449   3.547   0.941   0.479
 2850SOL    HW2 9450   3.666   1.042   0.431
 2851SOL     OW 9451   2.498   5.050   6.121
 2851SOL    HW1 9452   2.514   5.015   6.029
 2851SOL    HW2 9453   2.586   5.066   6.166
 2852SOL     OW 9454   0.382   3.021   6.204
 2852SOL    HW1 9455   0.363   2.923   6.211
 2852SOL    HW2 9456   0.361   3.052   6.111
 2853SOL     OW 9457   3.639   2.613   1.443
 2853SOL    HW1 9458   3.550   2.568   1.441
 2853SOL    HW2 9459   3.627   2.709   1.468
 2854SOL     OW 9460   1.154   0.846   3.478
 2854SOL    HW1 9461   1.067   0.838   3.527
 2854SOL    HW2 9462   1.146   0.915   3.407
 2855SOL     OW 9463   3.001   0.758   5.253
 2855SOL    HW1 9464   2.985   0.843   5.304
 2855SOL    HW2 9465   2.921   0.699   5.261
 2856SOL     OW 9466   2.205   1.635   5.359
 2856SOL    HW1 9467   2.136   1.580   5.407
 2856SOL    HW2 9468   2.168   1.725   5.339
 2857SOL     OW 9469   3.634   3.653   3.336
 2857SOL    HW1 9470   3.544   3.693   3.354
 2857SOL    HW2 9471   3.641   3.629   3.239
 2858SOL     OW 9472   5.524   2.259   2.884
 2858SOL    HW1 9473   5.604   2.200   2.899
 2858SOL    HW2 9474   5.460   2.212   2.823
 2859SOL     OW 9475   5.190   6.357   0.535
 2859SOL    HW1 9476   5.128   6.391   0.464
 2859SOL    HW2 9477   5.277   6.408   0.531
 2860SOL     OW 9478   4.089   1.828   1.158
 2860SOL    HW1 9479   4.040   1.772   1.225
 2860SOL    HW2 9480   4.068   1.924   1.172
 2861SOL     OW 9481   3.901   5.164   6.238
 2861SOL    HW1 9482   3.894   5.184   6.140
 2861SOL    HW2 9483   3.913   5.249   6.289
 2862SOL     OW 9484   6.278   0.192   4.302
 2862SOL    HW1 9485   6.191   0.200   4.350
 2862SOL    HW2 9486   6.314   0.284   4.283
 2863SOL     OW 9487   6.666   1.834   7.010
 2863SOL    HW1 9488   6.726   1.833   6.930
 2863SOL    HW2 9489   6.639   1.740   0.007
 2864SOL     OW 9490   3.331   1.557   0.389
 2864SOL    HW1 9491   3.358   1.573   0.294
 2864SOL    HW2 9492   3.233   1.575   0.398
 2865SOL     OW 9493   4.586   4.859   5.196
 2865SOL    HW1 9494   4.535   4.820   5.120
 2865SOL    HW2 9495   4.637   4.939   5.164
 2866SOL     OW 9496   0.065   0.055   6.363
 2866SOL    HW1 9497   0.015   7.022   6.427
 2866SOL    HW2 9498   0.046   0.025   6.269
 2867SOL     OW 9499   6.645   4.161   3.259
 2867SOL    HW1 9500   6.692   4.134   3.343
 2867SOL    HW2 9501   6.587   4.241   3.277
 2868SOL     OW 9502   1.339   4.674   5.000
 2868SOL    HW1 9503   1.355   4.576   5.013
 2868SOL    HW2 9504   1.413   4.726   5.041
 2869SOL     OW 9505   5.907   0.623   2.355
 2869SOL    HW1 9506   5.975   0.644   2.425
 2869SOL    HW2 9507   5.929   0.534   2.313
 2870SOL     OW 9508   4.943   1.963   2.134
 2870SOL    HW1 9509   4.943   2.000   2.041
 2870SOL    HW2 9510   4.867   1.899   2.145
 2871SOL     OW 9511   1.904   1.679   6.129
 2871SOL    HW1 9512   1.966   1.749   6.165
 2871SOL    HW2 9513   1.910   1.597   6.185
 2872SOL     OW 9514   2.092   6.299   3.760
 2872SOL    HW1 9515   2.108   6.240   3.838
 2872SOL    HW2 9516   1.998   6.333   3.761
 2873SOL     OW 9517   6.994   5.682   1.780
 2873SOL    HW1 9518   0.016   5.676   1.869
 2873SOL    HW2 9519   7.019   5.602   1.725
 2874SOL     OW 9520   5.946   1.488   2.521
 2874SOL    HW1 9521   6.030   1.491   2.467
 2874SOL    HW2 9522   5.909   1.580   2.532
 2875SOL     OW 9523   2.769   5.033   1.111
 2875SOL    HW1 9524   2.729   4.964   1.172
 2875SOL    HW2 9525   2.714   5.116   1.113
 2876SOL     OW 9526   7.010   1.985   2.246
 2876SOL    HW1 9527   0.052   1.920   2.209
 2876SOL    HW2 9528   7.010   2.067   2.189
 2877SOL     OW 9529   2.216   3.530   5.864
 2877SOL    HW1 9530   2.199   3.578   5.951
 2877SOL    HW2 9531   2.159   3.570   5.793
 2878SOL     OW 9532   3.455   5.129   0.276
 2878SOL    HW1 9533   3.449   5.032   0.300
 2878SOL    HW2 9534   3.546   5.163   0.299
 2879SOL     OW 9535   4.532   4.895   0.318
 2879SOL    HW1 9536   4.566   4.884   0.411
 2879SOL    HW2 9537   4.468   4.821   0.296
 2880SOL     OW 9538   1.191   0.016   1.678
 2880SOL    HW1 9539   1.270   6.981   1.662
 2880SOL    HW2 9540   1.177   0.074   1.598
 2881SOL     OW 9541   0.758   0.101   6.833
 2881SOL    HW1 9542   0.765   0.015   6.884
 2881SOL    HW2 9543   0.766   0.083   6.735
 2882SOL     OW 9544   6.745   3.136   3.821
 2882SOL    HW1 9545   6.703   3.198   3.754
 2882SOL    HW2 9546   6.687   3.055   3.831
 2883SOL     OW 9547   4.994   6.140   2.814
 2883SOL    HW1 9548   5.059   6.168   2.743
 2883SOL    HW2 9549   4.935   6.067   2.778
 2884SOL     OW 9550   1.491   5.741   3.031
 2884SOL    HW1 9551   1.519   5.759   3.125
 2884SOL    HW2 9552   1.528   5.811   2.970
 2885SOL     OW 9553   0.471   2.571   3.886
 2885SOL    HW1 9554   0.373   2.560   3.868
 2885SOL    HW2 9555   0.511   2.625   3.812
 2886SOL     OW 9556   2.522   3.087   6.388
 2886SOL    HW1 9557   2.586   3.023   6.429
 2886SOL    HW2 9558   2.536   3.092   6.290
 2887SOL     OW 9559   2.526   1.380   4.997
 2887SOL    HW1 9560   2.476   1.346   5.076
 2887SOL    HW2 9561   2.561   1.472   5.016
 2888SOL     OW 9562   0.334   5.017   6.960
 2888SOL    HW1 9563   0.323   4.941   7.023
 2888SOL    HW2 9564   0.245   5.047   6.927
 2889SOL     OW 9565   0.480   6.910   1.053
 2889SOL    HW1 9566   0.414   6.852   1.004
 2889SOL    HW2 9567   0.460   7.006   1.035
 2890SOL     OW 9568   2.937   6.957   0.532
 2890SOL    HW1 9569   2.936   7.000   0.623
 2890SOL    HW2 9570   2.969   7.023   0.464
 2891SOL     OW 9571   2.921   4.848   4.398
 2891SOL    HW1 9572   2.887   4.821   4.489
 2891SOL    HW2 9573   2.990   4.783   4.368
 2892SOL     OW 9574   4.488   4.369   5.541
 2892SOL    HW1 9575   4.487   4.287   5.598
 2892SOL    HW2 9576   4.572   4.421   5.558
 2893SOL     OW 9577   3.305   0.767   5.965
 2893SOL    HW1 9578   3.293   0.677   6.005
 2893SOL    HW2 9579   3.244   0.777   5.886
 2894SOL     OW 9580   3.415   2.493   1.165
 2894SOL    HW1 9581   3.413   2.490   1.265
 2894SOL    HW2 9582   3.393   2.402   1.128
 2895SOL     OW 9583   3.182   3.241   6.880
 2895SOL    HW1 9584   3.166   3.292   6.965
 2895SOL    HW2 9585   3.228   3.155   6.901
 2896SOL     OW 9586   2.279   5.411   0.983
 2896SOL    HW1 9587   2.308   5.394   0.888
 2896SOL    HW2 9588   2.181   5.431   0.984
 2897SOL     OW 9589   1.615   6.633   3.970
 2897SOL    HW1 9590   1.555   6.556   3.947
 2897SOL    HW2 9591   1.694   6.600   4.021
 2898SOL     OW 9592   2.399   5.018   2.608
 2898SOL    HW1 9593   2.354   4.939   2.649
 2898SOL    HW2 9594   2.444   4.990   2.523
 2899SOL     OW 9595   6.649   1.185   0.494
 2899SOL    HW1 9596   6.571   1.122   0.492
 2899SOL    HW2 9597   6.715   1.155   0.563
 2900SOL     OW 9598   2.787   5.764   6.680
 2900SOL    HW1 9599   2.687   5.772   6.681
 2900SOL    HW2 9600   2.813   5.668   6.675
 2901SOL     OW 9601   2.725   0.275   1.343
 2901SOL    HW1 9602   2.696   0.219   1.265
 2901SOL    HW2 9603   2.812   0.320   1.321
 2902SOL     OW 9604   5.634   5.166   1.271
 2902SOL    HW1 9605   5.684   5.169   1.358
 2902SOL    HW2 9606   5.644   5.075   1.231
 2903SOL     OW 9607   2.845   2.423   1.652
 2903SOL    HW1 9608   2.769   2.485   1.670
 2903SOL    HW2 9609   2.890   2.398   1.738
 2904SOL     OW 9610   1.805   3.028   4.679
 2904SOL    HW1 9611   1.848   3.088   4.612
 2904SOL    HW2 9612   1.706   3.044   4.679
 2905SOL     OW 9613   1.244   2.017   1.809
 2905SOL    HW1 9614   1.245   1.942   1.874
 2905SOL    HW2 9615   1.245   2.104   1.858
 2906SOL     OW 9616   5.096   5.927   2.217
 2906SOL    HW1 9617   5.128   5.846   2.265
 2906SOL    HW2 9618   5.000   5.916   2.193
 2907SOL     OW 9619   6.396   0.433   4.269
 2907SOL    HW1 9620   6.486   0.407   4.303
 2907SOL    HW2 9621   6.372   0.524   4.302
 2908SOL     OW 9622   4.152   6.354   4.676
 2908SOL    HW1 9623   4.063   6.337   4.718
 2908SOL    HW2 9624   4.204   6.269   4.673
 2909SOL     OW 9625   1.371   6.006   5.445
 2909SOL    HW1 9626   1.467   6.033   5.442
 2909SOL    HW2 9627   1.361   5.919   5.493
 2910SOL     OW 9628   5.209   6.534   5.154
 2910SOL    HW1 9629   5.219   6.479   5.072
 2910SOL    HW2 9630   5.230   6.479   5.235
 2911SOL     OW 9631   2.218   4.119   3.605
 2911SOL    HW1 9632   2.287   4.189   3.626
 2911SOL    HW2 9633   2.141   4.162   3.558
 2912SOL     OW 9634   2.827   5.061   0.542
 2912SOL    HW1 9635   2.799   5.146   0.587
 2912SOL    HW2 9636   2.811   4.984   0.604
 2913SOL     OW 9637   1.288   3.566   2.807
 2913SOL    HW1 9638   1.250   3.501   2.742
 2913SOL    HW2 9639   1.388   3.561   2.805
 2914SOL     OW 9640   5.012   4.941   5.607
 2914SOL    HW1 9641   5.090   5.002   5.596
 2914SOL    HW2 9642   4.931   4.983   5.564
 2915SOL     OW 9643   4.156   1.292   4.336
 2915SOL    HW1 9644   4.105   1.209   4.355
 2915SOL    HW2 9645   4.236   1.297   4.395
 2916SOL     OW 9646   4.586   5.895   4.605
 2916SOL    HW1 9647   4.518   5.871   4.536
 2916SOL    HW2 9648   4.581   5.830   4.681
 2917SOL     OW 9649   4.505   0.821   2.262
 2917SOL    HW1 9650   4.460   0.745   2.308
 2917SOL    HW2 9651   4.448   0.850   2.185
 2918SOL     OW 9652   0.449   3.313   4.084
 2918SOL    HW1 9653   0.533   3.318   4.139
 2918SOL    HW2 9654   0.410   3.222   4.092
 2919SOL     OW 9655   6.329   6.206   0.173
 2919SOL    HW1 9656   6.271   6.126   0.155
 2919SOL    HW2 9657   6.349   6.252   0.087
 2920SOL     OW 9658   4.317   2.355   2.931
 2920SOL    HW1 9659   4.232   2.311   2.959
 2920SOL    HW2 9660   4.391   2.328   2.992
 2921SOL     OW 9661   0.293   6.783   1.334
 2921SOL    HW1 9662   0.252   6.744   1.416
 2921SOL    HW2 9663   0.393   6.775   1.339
 2922SOL     OW 9664   4.180   6.359   5.381
 2922SOL    HW1 9665   4.224   6.295   5.318
 2922SOL    HW2 9666   4.223   6.351   5.471
 2923SOL     OW 9667   0.155   4.240   0.260
 2923SOL    HW1 9668   0.161   4.335   0.291
 2923SOL    HW2 9669   0.062   4.206   0.278
 2924SOL     OW 9670   6.131   0.217   5.591
 2924SOL    HW1 9671   6.169   0.256   5.675
 2924SOL    HW2 9672   6.152   0.119   5.588
 2925SOL     OW 9673   5.899   3.583   1.317
 2925SOL    HW1 9674   5.939   3.657   1.264
 2925SOL    HW2 9675   5.815   3.615   1.362
 2926SOL     OW 9676   6.974   1.372   3.604
 2926SOL    HW1 9677   0.033   1.389   3.655
 2926SOL    HW2 9678   6.906   1.441   3.627
 2927SOL     OW 9679   0.739   2.957   2.135
 2927SOL    HW1 9680   0.648   2.966   2.174
 2927SOL    HW2 9681   0.786   3.045   2.139
 2928SOL     OW 9682   5.379   6.137   1.363
 2928SOL    HW1 9683   5.380   6.237   1.365
 2928SOL    HW2 9684   5.448   6.104   1.298
 2929SOL     OW 9685   0.943   0.183   5.712
 2929SOL    HW1 9686   0.951   0.098   5.763
 2929SOL    HW2 9687   0.942   0.163   5.614
 2930SOL     OW 9688   3.293   6.609   4.403
 2930SOL    HW1 9689   3.308   6.526   4.350
 2930SOL    HW2 9690   3.240   6.587   4.485
 2931SOL     OW 9691   3.743   5.301   6.828
 2931SOL    HW1 9692   3.784   5.283   6.739
 2931SOL    HW2 9693   3.651   5.338   6.816
 2932SOL     OW 9694   1.075   4.476   1.758
 2932SOL    HW1 9695   1.163   4.524   1.765
 2932SOL    HW2 9696   1.064   4.416   1.838
 2933SOL     OW 9697   4.670   1.903   3.371
 2933SOL    HW1 9698   4.652   1.813   3.332
 2933SOL    HW2 9699   4.716   1.960   3.303
 2934SOL     OW 9700   2.091   0.976   0.209
 2934SOL    HW1 9701   2.074   0.882   0.179
 2934SOL    HW2 9702   2.187   0.986   0.234
 2935SOL     OW 9703   6.870   1.956   1.228
 2935SOL    HW1 9704   6.832   1.960   1.135
 2935SOL    HW2 9705   6.957   1.905   1.225
 2936SOL     OW 9706   3.462   5.961   1.078
 2936SOL    HW1 9707   3.476   5.907   0.995
 2936SOL    HW2 9708   3.545   6.013   1.099
 2937SOL     OW 9709   2.285   4.656   0.151
 2937SOL    HW1 9710   2.377   4.681   0.180
 2937SOL    HW2 9711   2.253   4.578   0.203
 2938SOL     OW 9712   5.262   5.017   5.245
 2938SOL    HW1 9713   5.181   4.985   5.197
 2938SOL    HW2 9714   5.246   5.013   5.344
 2939SOL     OW 9715   0.179   6.715   6.187
 2939SOL    HW1 9716   0.178   6.664   6.101
 2939SOL    HW2 9717   0.210   6.654   6.260
 2940SOL     OW 9718   4.489   0.480   5.045
 2940SOL    HW1 9719   4.390   0.475   5.032
 2940SOL    HW2 9720   4.514   0.435   5.131
 2941SOL     OW 9721   3.146   1.599   5.611
 2941SOL    HW1 9722   3.110   1.691   5.624
 2941SOL    HW2 9723   3.130   1.569   5.517
 2942SOL     OW 9724   3.548   6.361   4.296
 2942SOL    HW1 9725   3.613   6.285   4.294
 2942SOL    HW2 9726   3.469   6.340   4.239
 2943SOL     OW 9727   5.386   3.802   2.594
 2943SOL    HW1 9728   5.393   3.702   2.588
 2943SOL    HW2 9729   5.292   3.827   2.616
 2944SOL     OW 9730   4.204   6.260   6.743
 2944SOL    HW1 9731   4.129   6.230   6.803
 2944SOL    HW2 9732   4.238   6.181   6.692
 2945SOL     OW 9733   3.113   4.026   3.168
 2945SOL    HW1 9734   3.167   4.095   3.121
 2945SOL    HW2 9735   3.139   4.023   3.265
 2946SOL     OW 9736   0.102   5.594   5.899
 2946SOL    HW1 9737   0.081   5.660   5.971
 2946SOL    HW2 9738   0.175   5.630   5.841
 2947SOL     OW 9739   0.188   5.110   0.203
 2947SOL    HW1 9740   0.131   5.028   0.210
 2947SOL    HW2 9741   0.251   5.101   0.127
 2948SOL     OW 9742   5.867   4.237   5.323
 2948SOL    HW1 9743   5.821   4.204   5.405
 2948SOL    HW2 9744   5.799   4.274   5.259
 2949SOL     OW 9745   1.087   6.201   0.450
 2949SOL    HW1 9746   1.044   6.260   0.517
 2949SOL    HW2 9747   1.094   6.107   0.486
 2950SOL     OW 9748   5.179   3.523   4.722
 2950SOL    HW1 9749   5.175   3.521   4.622
 2950SOL    HW2 9750   5.122   3.598   4.756
 2951SOL     OW 9751   6.233   0.864   1.024
 2951SOL    HW1 9752   6.149   0.881   1.077
 2951SOL    HW2 9753   6.209   0.821   0.937
 2952SOL     OW 9754   1.446   4.131   2.329
 2952SOL    HW1 9755   1.412   4.064   2.395
 2952SOL    HW2 9756   1.511   4.087   2.267
 2953SOL     OW 9757   5.652   0.748   2.393
 2953SOL    HW1 9758   5.671   0.841   2.423
 2953SOL    HW2 9759   5.738   0.697   2.386
 2954SOL     OW 9760   5.956   5.983   1.578
 2954SOL    HW1 9761   5.863   5.960   1.549
 2954SOL    HW2 9762   6.019   5.971   1.502
 2955SOL     OW 9763   6.460   2.775   0.464
 2955SOL    HW1 9764   6.436   2.872   0.469
 2955SOL    HW2 9765   6.473   2.739   0.557
 2956SOL     OW 9766   6.546   5.198   2.545
 2956SOL    HW1 9767   6.469   5.192   2.482
 2956SOL    HW2 9768   6.546   5.119   2.606
 2957SOL     OW 9769   0.889   4.900   1.161
 2957SOL    HW1 9770   0.873   4.963   1.085
 2957SOL    HW2 9771   0.914   4.953   1.242
 2958SOL     OW 9772   3.356   5.052   6.648
 2958SOL    HW1 9773   3.333   4.976   6.587
 2958SOL    HW2 9774   3.440   5.029   6.699
 2959SOL     OW 9775   4.309   5.936   0.256
 2959SOL    HW1 9776   4.269   5.855   0.298
 2959SOL    HW2 9777   4.389   5.911   0.201
 2960SOL     OW 9778   2.948   1.761   6.672
 2960SOL    HW1 9779   2.996   1.810   6.599
 2960SOL    HW2 9780   2.857   1.802   6.685
 2961SOL     OW 9781   5.379   2.111   4.427
 2961SOL    HW1 9782   5.434   2.167   4.490
 2961SOL    HW2 9783   5.407   2.015   4.436
 2962SOL     OW 9784   3.835   0.965   3.089
 2962SOL    HW1 9785   3.894   0.916   3.152
 2962SOL    HW2 9786   3.884   0.982   3.003
 2963SOL     OW 9787   2.082   3.295   5.241
 2963SOL    HW1 9788   2.128   3.366   5.294
 2963SOL    HW2 9789   2.040   3.336   5.160
 2964SOL     OW 9790   2.923   6.333   0.242
 2964SOL    HW1 9791   2.919   6.277   0.325
 2964SOL    HW2 9792   3.013   6.375   0.235
 2965SOL     OW 9793   0.403   2.416   5.820
 2965SOL    HW1 9794   0.451   2.376   5.742
 2965SOL    HW2 9795   0.462   2.413   5.901
 2966SOL     OW 9796   4.828   4.199   3.351
 2966SOL    HW1 9797   4.811   4.163   3.443
 2966SOL    HW2 9798   4.800   4.295   3.347
 2967SOL     OW 9799   5.809   2.442   3.933
 2967SOL    HW1 9800   5.799   2.369   3.865
 2967SOL    HW2 9801   5.833   2.403   4.022
 2968SOL     OW 9802   6.714   4.068   3.496
 2968SOL    HW1 9803   6.647   4.042   3.567
 2968SOL    HW2 9804   6.801   4.088   3.539
 2969SOL     OW 9805   4.658   1.121   4.258
 2969SOL    HW1 9806   4.657   1.026   4.289
 2969SOL    HW2 9807   4.589   1.133   4.186
 2970SOL     OW 9808   0.915   4.881   6.400
 2970SOL    HW1 9809   0.831   4.927   6.429
 2970SOL    HW2 9810   0.983   4.887   6.472
 2971SOL     OW 9811   5.176   3.597   3.093
 2971SOL    HW1 9812   5.088   3.612   3.046
 2971SOL    HW2 9813   5.240   3.669   3.066
 2972SOL     OW 9814   1.448   4.037   6.079
 2972SOL    HW1 9815   1.504   4.108   6.122
 2972SOL    HW2 9816   1.475   3.948   6.114
 2973SOL     OW 9817   5.672   0.220   4.432
 2973SOL    HW1 9818   5.683   0.300   4.373
 2973SOL    HW2 9819   5.576   0.212   4.459
 2974SOL     OW 9820   0.260   4.094   2.045
 2974SOL    HW1 9821   0.232   4.115   1.952
 2974SOL    HW2 9822   0.301   4.175   2.087
 2975SOL     OW 9823   0.259   1.428   4.176
 2975SOL    HW1 9824   0.323   1.427   4.253
 2975SOL    HW2 9825   0.188   1.497   4.193
 2976SOL     OW 9826   2.803   6.065   1.653
 2976SOL    HW1 9827   2.789   6.119   1.736
 2976SOL    HW2 9828   2.792   5.968   1.673
 2977SOL     OW 9829   3.708   6.064   4.276
 2977SOL    HW1 9830   3.771   6.013   4.334
 2977SOL    HW2 9831   3.740   6.062   4.181
 2978SOL     OW 9832   3.504   6.536   0.191
 2978SOL    HW1 9833   3.599   6.568   0.186
 2978SOL    HW2 9834   3.500   6.440   0.165
 2979SOL     OW 9835   3.050   1.177   3.452
 2979SOL    HW1 9836   3.128   1.122   3.422
 2979SOL    HW2 9837   2.972   1.163   3.391
 2980SOL     OW 9838   6.749   6.153   4.036
 2980SOL    HW1 9839   6.732   6.099   3.953
 2980SOL    HW2 9840   6.759   6.249   4.011
 2981SOL     OW 9841   1.965   1.518   5.480
 2981SOL    HW1 9842   1.935   1.495   5.387
 2981SOL    HW2 9843   1.886   1.515   5.541
 2982SOL     OW 9844   4.791   6.552   3.061
 2982SOL    HW1 9845   4.847   6.630   3.090
 2982SOL    HW2 9846   4.840   6.467   3.080
 2983SOL     OW 9847   6.839   6.990   2.598
 2983SOL    HW1 9848   6.802   6.897   2.606
 2983SOL    HW2 9849   6.930   6.993   2.639
 2984SOL     OW 9850   5.886   5.001   1.608
 2984SOL    HW1 9851   5.969   5.057   1.610
 2984SOL    HW2 9852   5.886   4.945   1.525
 2985SOL     OW 9853   6.432   1.750   3.153
 2985SOL    HW1 9854   6.432   1.722   3.249
 2985SOL    HW2 9855   6.404   1.672   3.096
 2986SOL     OW 9856   2.242   3.749   5.245
 2986SOL    HW1 9857   2.316   3.814   5.229
 2986SOL    HW2 9858   2.175   3.757   5.171
 2987SOL     OW 9859   4.869   1.913   4.777
 2987SOL    HW1 9860   4.956   1.944   4.815
 2987SOL    HW2 9861   4.863   1.938   4.680
 2988SOL     OW 9862   0.592   0.165   1.555
 2988SOL    HW1 9863   0.558   0.151   1.648
 2988SOL    HW2 9864   0.598   0.263   1.535
 2989SOL     OW 9865   6.477   5.558   0.794
 2989SOL    HW1 9866   6.385   5.530   0.819
 2989SOL    HW2 9867   6.473   5.642   0.740
 2990SOL     OW 9868   3.221   0.470   0.927
 2990SOL    HW1 9869   3.275   0.497   0.847
 2990SOL    HW2 9870   3.124   0.468   0.902
 2991SOL     OW 9871   6.356   4.701   0.357
 2991SOL    HW1 9872   6.338   4.798   0.373
 2991SOL    HW2 9873   6.421   4.667   0.426
 2992SOL     OW 9874   4.238   4.306   6.812
 2992SOL    HW1 9875   4.311   4.343   6.755
 2992SOL    HW2 9876   4.167   4.375   6.826
 2993SOL     OW 9877   1.696   5.371   0.401
 2993SOL    HW1 9878   1.770   5.319   0.445
 2993SOL    HW2 9879   1.639   5.413   0.471
 2994SOL     OW 9880   3.763   6.477   6.883
 2994SOL    HW1 9881   3.728   6.570   6.870
 2994SOL    HW2 9882   3.818   6.474   6.967
 2995SOL     OW 9883   2.548   0.780   5.625
 2995SOL    HW1 9884   2.642   0.815   5.618
 2995SOL    HW2 9885   2.484   0.857   5.631
 2996SOL     OW 9886   4.169   5.883   5.544
 2996SOL    HW1 9887   4.086   5.928   5.512
 2996SOL    HW2 9888   4.164   5.785   5.523
 2997SOL     OW 9889   4.460   6.291   0.209
 2997SOL    HW1 9890   4.387   6.261   0.270
 2997SOL    HW2 9891   4.460   6.391   0.202
 2998SOL     OW 9892   6.041   5.067   5.117
 2998SOL    HW1 9893   6.033   4.974   5.081
 2998SOL    HW2 9894   6.129   5.106   5.091
 2999SOL     OW 9895   3.024   7.003   2.125
 2999SOL    HW1 9896   2.931   6.967   2.134
 2999SOL    HW2 9897   3.023   0.078   2.138
 3000SOL     OW 9898   1.255   2.228   4.477
 3000SOL    HW1 9899   1.196   2.179   4.540
 3000SOL    HW2 9900   1.205   2.248   4.392
 3001SOL     OW 9901   4.614   6.822   5.772
 3001SOL    HW1 9902   4.702   6.823   5.726
 3001SOL    HW2 9903   4.585   6.916   5.791
 3002SOL     OW 9904   3.172   0.420   5.759
 3002SOL    HW1 9905   3.080   0.457   5.744
 3002SOL    HW2 9906   3.169   0.320   5.753
 3003SOL     OW 9907   2.269   0.019   6.118
 3003SOL    HW1 9908   2.338   0.085   6.089
 3003SOL    HW2 9909   2.243   0.037   6.213
 3004SOL     OW 9910   6.525   3.350   5.203
 3004SOL    HW1 9911   6.583   3.300   5.267
 3004SOL    HW2 9912   6.460   3.288   5.160
 3005SOL     OW 9913   4.416   2.251   1.266
 3005SOL    HW1 9914   4.425   2.344   1.228
 3005SOL    HW2 9915   4.435   2.184   1.195
 3006SOL     OW 9916   4.995   0.523   1.028
 3006SOL    HW1 9917   4.922   0.560   1.087
 3006SOL    HW2 9918   5.063   0.594   1.011
 3007SOL     OW 9919   6.459   5.145   1.941
 3007SOL    HW1 9920   6.483   5.196   2.024
 3007SOL    HW2 9921   6.377   5.090   1.958
 3008SOL     OW 9922   4.621   5.899   5.650
 3008SOL    HW1 9923   4.610   5.806   5.684
 3008SOL    HW2 9924   4.672   5.897   5.564
 3009SOL     OW 9925   1.405   1.026   2.671
 3009SOL    HW1 9926   1.467   1.104   2.678
 3009SOL    HW2 9927   1.395   0.983   2.761
 3010SOL     OW 9928   2.745   6.479   2.505
 3010SOL    HW1 9929   2.839   6.477   2.540
 3010SOL    HW2 9930   2.706   6.387   2.509
 3011SOL     OW 9931   5.683   0.681   0.084
 3011SOL    HW1 9932   5.683   0.758   0.020
 3011SOL    HW2 9933   5.632   0.604   0.045
 3012SOL     OW 9934   0.145   4.463   2.001
 3012SOL    HW1 9935   0.183   4.420   2.083
 3012SOL    HW2 9936   0.205   4.444   1.923
 3013SOL     OW 9937   6.509   3.901   2.210
 3013SOL    HW1 9938   6.508   3.816   2.262
 3013SOL    HW2 9939   6.593   3.905   2.155
 3014SOL     OW 9940   5.281   0.434   5.268
 3014SOL    HW1 9941   5.203   0.441   5.205
 3014SOL    HW2 9942   5.250   0.446   5.362
 3015SOL     OW 9943   3.160   2.234   7.008
 3015SOL    HW1 9944   3.129   2.150   6.964
 3015SOL    HW2 9945   3.137   2.231   0.081
 3016SOL     OW 9946   3.997   6.312   3.640
 3016SOL    HW1 9947   4.097   6.308   3.651
 3016SOL    HW2 9948   3.962   6.220   3.624
 3017SOL     OW 9949   6.881   6.472   0.811
 3017SOL    HW1 9950   6.976   6.444   0.804
 3017SOL    HW2 9951   6.821   6.394   0.794
 3018SOL     OW 9952   3.689   6.906   6.321
 3018SOL    HW1 9953   3.713   6.814   6.289
 3018SOL    HW2 9954   3.635   6.952   6.250
 3019SOL     OW 9955   5.086   6.554   2.174
 3019SOL    HW1 9956   5.137   6.526   2.093
 3019SOL    HW2 9957   4.993   6.517   2.170
 3020SOL     OW 9958   2.162   1.141   1.408
 3020SOL    HW1 9959   2.143   1.076   1.334
 3020SOL    HW2 9960   2.077   1.164   1.455
 3021SOL     OW 9961   4.173   0.674   6.344
 3021SOL    HW1 9962   4.228   0.630   6.274
 3021SOL    HW2 9963   4.101   0.729   6.301
 3022SOL     OW 9964   6.082   0.127   1.946
 3022SOL    HW1 9965   5.983   0.137   1.942
 3022SOL    HW2 9966   6.113   0.071   1.869
 3023SOL     OW 9967   5.421   6.944   1.480
 3023SOL    HW1 9968   5.397   6.850   1.504
 3023SOL    HW2 9969   5.372   6.971   1.397
 3024SOL     OW 9970   2.697   6.651   6.755
 3024SOL    HW1 9971   2.645   6.650   6.840
 3024SOL    HW2 9972   2.793   6.670   6.775
 3025SOL     OW 9973   1.627   2.395   1.975
 3025SOL    HW1 9974   1.713   2.409   2.025
 3025SOL    HW2 9975   1.603   2.298   1.978
 3026SOL     OW 9976   1.858   4.989   0.471
 3026SOL    HW1 9977   1.774   4.963   0.423
 3026SOL    HW2 9978   1.865   5.088   0.473
 3027SOL     OW 9979   1.530   1.419   4.140
 3027SOL    HW1 9980   1.500   1.510   4.169
 3027SOL    HW2 9981   1.487   1.396   4.053
 3028SOL     OW 9982   1.573   0.577   4.643
 3028SOL    HW1 9983   1.647   0.634   4.608
 3028SOL    HW2 9984   1.516   0.631   4.705
 3029SOL     OW 9985   5.529   5.155   6.028
 3029SOL    HW1 9986   5.512   5.185   5.934
 3029SOL    HW2 9987   5.443   5.126   6.069
 3030SOL     OW 9988   1.013   1.452   5.760
 3030SOL    HW1 9989   0.974   1.359   5.759
 3030SOL    HW2 9990   0.991   1.496   5.847
 3031SOL     OW 9991   1.042   5.207   6.939
 3031SOL    HW1 9992   1.049   5.269   7.017
 3031SOL    HW2 9993   1.092   5.244   6.861
 3032SOL     OW 9994   4.079   0.421   5.274
 3032SOL    HW1 9995   4.108   0.383   5.362
 3032SOL    HW2 9996   3.993   0.379   5.247
 3033SOL     OW 9997   5.523   4.671   5.849
 3033SOL    HW1 9998   5.593   4.653   5.780
 3033SOL    HW2 9999   5.489   4.765   5.837
 3034SOL     OW10000   2.450   6.983   4.384
 3034SOL    HW110001   2.357   6.991   4.420
 3034SOL    HW210002   2.509   0.026   4.428
 3035SOL     OW10003   6.286   6.866   6.895
 3035SOL    HW110004   6.213   6.934   6.889
 3035SOL    HW210005   6.309   6.834   6.803
 3036SOL     OW10006   1.121   4.897   6.034
 3036SOL    HW110007   1.193   4.926   6.097
 3036SOL    HW210008   1.036   4.946   6.055
 3037SOL     OW10009   6.324   6.782   5.605
 3037SOL    HW110010   6.267   6.702   5.584
 3037SOL    HW210011   6.419   6.753   5.615
 3038SOL     OW10012   6.014   6.380   5.839
 3038SOL    HW110013   6.001   6.338   5.929
 3038SOL    HW210014   6.058   6.315   5.778
 3039SOL     OW10015   6.913   4.968   0.320
 3039SOL    HW110016   6.922   5.010   0.230
 3039SOL    HW210017   6.948   5.031   0.390
 3040SOL     OW10018   2.282   2.251   0.150
 3040SOL    HW110019   2.185   2.231   0.163
 3040SOL    HW210020   2.331   2.234   0.235
 3041SOL     OW10021   1.580   2.310   5.884
 3041SOL    HW110022   1.665   2.319   5.938
 3041SOL    HW210023   1.559   2.214   5.871
 3042SOL     OW10024   5.113   6.919   1.877
 3042SOL    HW110025   5.153   6.965   1.798
 3042SOL    HW210026   5.142   6.823   1.878
 3043SOL     OW10027   6.616   5.043   0.397
 3043SOL    HW110028   6.681   5.107   0.439
 3043SOL    HW210029   6.591   4.972   0.464
 3044SOL     OW10030   3.002   3.750   5.621
 3044SOL    HW110031   2.941   3.756   5.700
 3044SOL    HW210032   3.066   3.827   5.622
 3045SOL     OW10033   5.535   2.259   4.251
 3045SOL    HW110034   5.620   2.277   4.301
 3045SOL    HW210035   5.472   2.210   4.311
 3046SOL     OW10036   2.242   2.368   6.176
 3046SOL    HW110037   2.180   2.436   6.137
 3046SOL    HW210038   2.285   2.315   6.103
 3047SOL     OW10039   0.108   4.644   1.630
 3047SOL    HW110040   0.103   4.727   1.685
 3047SOL    HW210041   0.017   4.602   1.623
 3048SOL     OW10042   3.034   2.634   1.724
 3048SOL    HW110043   3.005   2.727   1.748
 3048SOL    HW210044   2.983   2.569   1.780
 3049SOL     OW10045   0.935   0.097   1.355
 3049SOL    HW110046   0.839   0.069   1.354
 3049SOL    HW210047   0.991   0.022   1.392
 3050SOL     OW10048   2.386   6.175   3.777
 3050SOL    HW110049   2.473   6.197   3.734
 3050SOL    HW210050   2.335   6.259   3.794
 3051SOL     OW10051   2.531   4.320   5.364
 3051SOL    HW110052   2.627   4.350   5.361
 3051SOL    HW210053   2.483   4.368   5.437
 3052SOL     OW10054   5.159   6.480   3.019
 3052SOL    HW110055   5.105   6.400   3.047
 3052SOL    HW210056   5.112   6.564   3.046
 3053SOL     OW10057   4.828   6.778   1.257
 3053SOL    HW110058   4.804   6.681   1.266
 3053SOL    HW210059   4.925   6.787   1.237
 3054SOL     OW10060   2.252   4.063   5.868
 3054SOL    HW110061   2.225   3.967   5.862
 3054SOL    HW210062   2.314   4.076   5.945
 3055SOL     OW10063   5.889   6.479   2.541
 3055SOL    HW110064   5.977   6.487   2.587
 3055SOL    HW210065   5.901   6.498   2.443
 3056SOL     OW10066   5.979   0.881   1.204
 3056SOL    HW110067   5.922   0.802   1.229
 3056SOL    HW210068   5.923   0.964   1.203
 3057SOL     OW10069   6.653   6.093   2.529
 3057SOL    HW110070   6.555   6.080   2.543
 3057SOL    HW210071   6.699   6.097   2.618
 3058SOL     OW10072   6.430   5.264   1.686
 3058SOL    HW110073   6.380   5.346   1.714
 3058SOL    HW210074   6.465   5.217   1.768
 3059SOL     OW10075   2.115   2.669   5.177
 3059SOL    HW110076   2.198   2.664   5.122
 3059SOL    HW210077   2.135   2.637   5.270
 3060SOL     OW10078   6.595   6.725   0.494
 3060SOL    HW110079   6.519   6.728   0.559
 3060SOL    HW210080   6.677   6.692   0.540
 3061SOL     OW10081   0.191   0.650   6.125
 3061SOL    HW110082   0.189   0.748   6.144
 3061SOL    HW210083   0.276   0.610   6.160
 3062SOL     OW10084   2.999   5.692   6.246
 3062SOL    HW110085   3.069   5.623   6.266
 3062SOL    HW210086   2.916   5.672   6.297
 3063SOL     OW10087   2.029   5.622   0.486
 3063SOL    HW110088   2.057   5.638   0.392
 3063SOL    HW210089   1.996   5.528   0.496
 3064SOL     OW10090   0.033   4.010   3.484
 3064SOL    HW110091   7.019   4.022   3.393
 3064SOL    HW210092   0.131   4.027   3.482
 3065SOL     OW10093   2.522   1.362   1.144
 3065SOL    HW110094   2.613   1.401   1.133
 3065SOL    HW210095   2.524   1.290   1.213
 3066SOL     OW10096   5.377   5.753   0.757
 3066SOL    HW110097   5.467   5.733   0.796
 3066SOL    HW210098   5.306   5.719   0.819
 3067SOL     OW10099   4.653   6.699   3.457
 3067SOL    HW110100   4.568   6.750   3.445
 3067SOL    HW210101   4.683   6.707   3.552
 3068SOL     OW10102   5.832   4.797   0.504
 3068SOL    HW110103   5.787   4.850   0.431
 3068SOL    HW210104   5.931   4.815   0.502
 3069SOL     OW10105   0.932   5.312   3.759
 3069SOL    HW110106   0.864   5.383   3.775
 3069SOL    HW210107   0.931   5.247   3.835
 3070SOL     OW10108   4.088   1.405   4.726
 3070SOL    HW110109   4.084   1.489   4.672
 3070SOL    HW210110   4.159   1.345   4.688
 3071SOL     OW10111   5.664   0.359   3.997
 3071SOL    HW110112   5.759   0.334   3.979
 3071SOL    HW210113   5.625   0.406   3.918
 3072SOL     OW10114   0.943   0.834   2.263
 3072SOL    HW110115   1.035   0.850   2.300
 3072SOL    HW210116   0.937   0.739   2.230
 3073SOL     OW10117   1.677   2.725   4.324
 3073SOL    HW110118   1.704   2.647   4.380
 3073SOL    HW210119   1.663   2.805   4.382
 3074SOL     OW10120   4.708   3.444   6.466
 3074SOL    HW110121   4.693   3.473   6.371
 3074SOL    HW210122   4.690   3.521   6.528
 3075SOL     OW10123   0.103   5.943   1.000
 3075SOL    HW110124   0.071   5.939   0.905
 3075SOL    HW210125   0.116   5.850   1.035
 3076SOL     OW10126   0.941   0.315   5.029
 3076SOL    HW110127   0.902   0.372   5.101
 3076SOL    HW210128   0.920   0.355   4.940
 3077SOL     OW10129   5.415   4.126   3.889
 3077SOL    HW110130   5.423   4.225   3.889
 3077SOL    HW210131   5.358   4.097   3.966
 3078SOL     OW10132   2.409   3.267   0.679
 3078SOL    HW110133   2.343   3.217   0.735
 3078SOL    HW210134   2.448   3.206   0.611
 3079SOL     OW10135   5.295   2.815   6.312
 3079SOL    HW110136   5.271   2.721   6.289
 3079SOL    HW210137   5.219   2.857   6.363
 3080SOL     OW10138   6.150   5.805   0.849
 3080SOL    HW110139   6.125   5.710   0.868
 3080SOL    HW210140   6.205   5.808   0.766
 3081SOL     OW10141   6.545   4.755   5.841
 3081SOL    HW110142   6.448   4.776   5.857
 3081SOL    HW210143   6.598   4.840   5.849
 3082SOL     OW10144   2.366   0.248   1.991
 3082SOL    HW110145   2.332   0.154   2.001
 3082SOL    HW210146   2.378   0.269   1.894
 3083SOL     OW10147   3.364   0.631   2.278
 3083SOL    HW110148   3.446   0.588   2.240
 3083SOL    HW210149   3.391   0.703   2.342
 3084SOL     OW10150   4.552   6.682   4.052
 3084SOL    HW110151   4.520   6.608   3.993
 3084SOL    HW210152   4.523   6.664   4.146
 3085SOL     OW10153   1.163   6.025   1.430
 3085SOL    HW110154   1.262   6.014   1.426
 3085SOL    HW210155   1.134   6.089   1.360
 3086SOL     OW10156   5.846   1.625   3.945
 3086SOL    HW110157   5.770   1.567   3.918
 3086SOL    HW210158   5.854   1.702   3.882
 3087SOL     OW10159   5.570   3.027   2.341
 3087SOL    HW110160   5.488   3.036   2.285
 3087SOL    HW210161   5.645   3.079   2.300
 3088SOL     OW10162   2.706   4.146   5.990
 3088SOL    HW110163   2.721   4.216   5.921
 3088SOL    HW210164   2.694   4.189   6.079
 3089SOL     OW10165   2.562   2.336   0.800
 3089SOL    HW110166   2.638   2.283   0.762
 3089SOL    HW210167   2.589   2.373   0.889
 3090SOL     OW10168   0.495   1.731   0.952
 3090SOL    HW110169   0.421   1.782   0.995
 3090SOL    HW210170   0.570   1.793   0.930
 3091SOL     OW10171   2.414   6.957   0.975
 3091SOL    HW110172   2.374   0.008   1.026
 3091SOL    HW210173   2.376   6.955   0.882
 3092SOL     OW10174   3.932   6.180   0.913
 3092SOL    HW110175   3.914   6.125   0.831
 3092SOL    HW210176   4.027   6.170   0.940
 3093SOL     OW10177   5.380   5.732   3.557
 3093SOL    HW110178   5.356   5.656   3.618
 3093SOL    HW210179   5.470   5.768   3.583
 3094SOL     OW10180   3.226   5.400   5.628
 3094SOL    HW110181   3.284   5.418   5.707
 3094SOL    HW210182   3.274   5.424   5.544
 3095SOL     OW10183   2.256   4.797   4.688
 3095SOL    HW110184   2.346   4.822   4.652
 3095SOL    HW210185   2.267   4.760   4.781
 3096SOL     OW10186   6.862   0.780   5.255
 3096SOL    HW110187   6.809   0.710   5.207
 3096SOL    HW210188   6.816   0.805   5.340
 3097SOL     OW10189   1.730   2.787   0.305
 3097SOL    HW110190   1.823   2.758   0.326
 3097SOL    HW210191   1.676   2.708   0.277
 3098SOL     OW10192   4.065   2.033   0.671
 3098SOL    HW110193   4.068   2.108   0.737
 3098SOL    HW210194   4.020   2.065   0.587
 3099SOL     OW10195   1.180   5.919   5.176
 3099SOL    HW110196   1.279   5.928   5.191
 3099SOL    HW210197   1.158   5.944   5.082
 3100SOL     OW10198   6.194   5.941   0.138
 3100SOL    HW110199   6.194   5.884   0.220
 3100SOL    HW210200   6.101   5.968   0.115
 3101SOL     OW10201   4.472   6.921   0.880
 3101SOL    HW110202   4.540   6.916   0.954
 3101SOL    HW210203   4.442   6.829   0.857
 3102SOL     OW10204   0.419   5.562   0.728
 3102SOL    HW110205   0.518   5.571   0.740
 3102SOL    HW210206   0.372   5.614   0.800
 3103SOL     OW10207   4.146   3.783   1.827
 3103SOL    HW110208   4.245   3.777   1.813
 3103SOL    HW210209   4.117   3.878   1.815
 3104SOL     OW10210   6.446   5.378   3.880
 3104SOL    HW110211   6.481   5.315   3.950
 3104SOL    HW210212   6.349   5.393   3.896
 3105SOL     OW10213   6.371   5.921   3.476
 3105SOL    HW110214   6.369   5.837   3.421
 3105SOL    HW210215   6.277   5.951   3.494
 3106SOL     OW10216   6.893   3.030   4.595
 3106SOL    HW110217   6.864   3.109   4.542
 3106SOL    HW210218   6.844   3.028   4.682
 3107SOL     OW10219   2.917   6.701   3.649
 3107SOL    HW110220   2.839   6.641   3.632
 3107SOL    HW210221   2.948   6.690   3.744
 3108SOL     OW10222   3.219   1.014   3.342
 3108SOL    HW110223   3.192   0.934   3.288
 3108SOL    HW210224   3.292   1.063   3.295
 3109SOL     OW10225   4.753   6.037   2.959
 3109SOL    HW110226   4.682   6.092   3.003
 3109SOL    HW210227   4.788   5.970   3.025
 3110SOL     OW10228   1.172   2.685   1.859
 3110SOL    HW110229   1.128   2.723   1.941
 3110SOL    HW210230   1.266   2.660   1.880
 3111SOL     OW10231   6.652   4.865   3.186
 3111SOL    HW110232   6.722   4.823   3.128
 3111SOL    HW210233   6.587   4.916   3.129
 3112SOL     OW10234   3.157   3.599   6.580
 3112SOL    HW110235   3.224   3.559   6.642
 3112SOL    HW210236   3.067   3.558   6.598
 3113SOL     OW10237   4.223   7.023   4.053
 3113SOL    HW110238   4.290   6.960   4.012
 3113SOL    HW210239   4.156   0.025   3.983
 3114SOL     OW10240   5.559   5.618   0.910
 3114SOL    HW110241   5.642   5.567   0.887
 3114SOL    HW210242   5.508   5.568   0.979
 3115SOL     OW10243   2.673   3.415   1.792
 3115SOL    HW110244   2.693   3.495   1.736
 3115SOL    HW210245   2.577   3.418   1.822
 3116SOL     OW10246   0.319   1.750   6.710
 3116SOL    HW110247   0.415   1.751   6.683
 3116SOL    HW210248   0.303   1.675   6.775
 3117SOL     OW10249   3.716   3.679   5.389
 3117SOL    HW110250   3.628   3.640   5.414
 3117SOL    HW210251   3.785   3.651   5.456
 3118SOL     OW10252   5.669   5.288   0.170
 3118SOL    HW110253   5.663   5.339   0.256
 3118SOL    HW210254   5.738   5.331   0.111
 3119SOL     OW10255   2.159   4.962   6.014
 3119SOL    HW110256   2.069   4.980   5.973
 3119SOL    HW210257   2.201   5.049   6.041
 3120SOL     OW10258   2.590   5.593   5.772
 3120SOL    HW110259   2.687   5.577   5.793
 3120SOL    HW210260   2.550   5.509   5.736
 3121SOL     OW10261   0.657   6.079   3.293
 3121SOL    HW110262   0.578   6.119   3.341
 3121SOL    HW210263   0.715   6.153   3.259
 3122SOL     OW10264   2.600   5.315   0.678
 3122SOL    HW110265   2.556   5.246   0.735
 3122SOL    HW210266   2.573   5.406   0.709
 3123SOL     OW10267   3.666   6.599   4.734
 3123SOL    HW110268   3.590   6.619   4.671
 3123SOL    HW210269   3.648   6.512   4.781
 3124SOL     OW10270   4.075   0.360   6.132
 3124SOL    HW110271   4.057   0.393   6.225
 3124SOL    HW210272   4.027   0.273   6.117
 3125SOL     OW10273   6.981   2.091   5.755
 3125SOL    HW110274   6.996   2.082   5.657
 3125SOL    HW210275   6.941   2.181   5.775
 3126SOL     OW10276   3.450   6.804   0.565
 3126SOL    HW110277   3.488   6.840   0.651
 3126SOL    HW210278   3.496   6.718   0.543
 3127SOL     OW10279   1.485   1.131   3.769
 3127SOL    HW110280   1.584   1.122   3.775
 3127SOL    HW210281   1.443   1.040   3.772
 3128SOL     OW10282   1.182   0.704   0.457
 3128SOL    HW110283   1.259   0.677   0.514
 3128SOL    HW210284   1.111   0.745   0.514
 3129SOL     OW10285   1.970   2.908   3.928
 3129SOL    HW110286   1.939   3.002   3.943
 3129SOL    HW210287   2.057   2.895   3.975
 3130SOL     OW10288   1.982   5.596   3.327
 3130SOL    HW110289   1.941   5.647   3.251
 3130SOL    HW210290   1.955   5.500   3.321
 3131SOL     OW10291   0.515   3.290   3.794
 3131SOL    HW110292   0.492   3.293   3.891
 3131SOL    HW210293   0.552   3.378   3.766
 3132SOL     OW10294   5.272   6.118   5.027
 3132SOL    HW110295   5.246   6.207   4.989
 3132SOL    HW210296   5.202   6.050   5.006
 3133SOL     OW10297   2.563   2.027   3.263
 3133SOL    HW110298   2.533   2.072   3.347
 3133SOL    HW210299   2.635   2.081   3.220
 3134SOL     OW10300   5.479   3.020   1.681
 3134SOL    HW110301   5.469   3.094   1.747
 3134SOL    HW210302   5.390   2.995   1.645
 3135SOL     OW10303   2.671   1.759   3.234
 3135SOL    HW110304   2.633   1.850   3.249
 3135SOL    HW210305   2.702   1.721   3.321
 3136SOL     OW10306   6.603   0.067   5.165
 3136SOL    HW110307   6.696   0.102   5.175
 3136SOL    HW210308   6.595   0.015   5.080
 3137SOL     OW10309   6.979   1.460   4.927
 3137SOL    HW110310   6.885   1.452   4.961
 3137SOL    HW210311   7.001   1.557   4.912
 3138SOL     OW10312   5.523   1.969   4.822
 3138SOL    HW110313   5.558   1.947   4.913
 3138SOL    HW210314   5.560   1.905   4.756
 3139SOL     OW10315   4.935   6.440   5.329
 3139SOL    HW110316   4.915   6.455   5.232
 3139SOL    HW210317   5.024   6.395   5.337
 3140SOL     OW10318   6.218   5.784   6.333
 3140SOL    HW110319   6.204   5.784   6.234
 3140SOL    HW210320   6.248   5.693   6.363
 3141SOL     OW10321   0.688   5.590   0.831
 3141SOL    HW110322   0.716   5.666   0.890
 3141SOL    HW210323   0.765   5.563   0.774
 3142SOL     OW10324   3.495   0.228   6.551
 3142SOL    HW110325   3.427   0.277   6.497
 3142SOL    HW210326   3.582   0.228   6.503
 3143SOL     OW10327   0.420   1.801   0.560
 3143SOL    HW110328   0.425   1.751   0.474
 3143SOL    HW210329   0.500   1.860   0.569
 3144SOL     OW10330   1.779   3.409   6.806
 3144SOL    HW110331   1.687   3.446   6.816
 3144SOL    HW210332   1.846   3.484   6.810
 3145SOL     OW10333   3.489   5.898   4.018
 3145SOL    HW110334   3.536   5.813   3.995
 3145SOL    HW210335   3.512   5.968   3.950
 3146SOL     OW10336   2.238   0.507   3.665
 3146SOL    HW110337   2.245   0.583   3.601
 3146SOL    HW210338   2.182   0.533   3.743
 3147SOL     OW10339   3.475   4.317   0.530
 3147SOL    HW110340   3.536   4.372   0.587
 3147SOL    HW210341   3.529   4.248   0.481
 3148SOL     OW10342   3.442   5.589   5.065
 3148SOL    HW110343   3.413   5.640   5.146
 3148SOL    HW210344   3.482   5.651   4.998
 3149SOL     OW10345   3.332   6.085   6.233
 3149SOL    HW110346   3.268   6.047   6.300
 3149SOL    HW210347   3.298   6.172   6.199
 3150SOL     OW10348   0.326   0.098   4.209
 3150SOL    HW110349   0.293   0.095   4.303
 3150SOL    HW210350   0.424   0.080   4.208
 3151SOL     OW10351   3.955   0.206   0.537
 3151SOL    HW110352   3.979   0.260   0.457
 3151SOL    HW210353   3.900   0.127   0.509
 3152SOL     OW10354   1.305   4.698   6.846
 3152SOL    HW110355   1.369   4.622   6.857
 3152SOL    HW210356   1.356   4.784   6.844
 3153SOL     OW10357   0.170   4.466   2.994
 3153SOL    HW110358   0.110   4.493   2.919
 3153SOL    HW210359   0.134   4.384   3.039
 3154SOL     OW10360   5.453   2.317   6.912
 3154SOL    HW110361   5.489   2.224   6.912
 3154SOL    HW210362   5.433   2.345   7.005
 3155SOL     OW10363   3.728   6.389   0.303
 3155SOL    HW110364   3.792   6.452   0.258
 3155SOL    HW210365   3.682   6.437   0.378
 3156SOL     OW10366   3.724   3.449   3.084
 3156SOL    HW110367   3.762   3.430   3.175
 3156SOL    HW210368   3.626   3.463   3.091
 3157SOL     OW10369   1.918   2.657   4.970
 3157SOL    HW110370   1.912   2.754   4.946
 3157SOL    HW210371   1.977   2.647   5.050
 3158SOL     OW10372   4.358   5.964   1.164
 3158SOL    HW110373   4.415   5.966   1.081
 3158SOL    HW210374   4.346   6.058   1.198
 3159SOL     OW10375   5.567   4.707   0.608
 3159SOL    HW110376   5.664   4.699   0.585
 3159SOL    HW210377   5.554   4.678   0.703
 3160SOL     OW10378   6.010   4.766   0.762
 3160SOL    HW110379   5.929   4.721   0.800
 3160SOL    HW210380   6.058   4.703   0.701
 3161SOL     OW10381   0.677   1.744   2.892
 3161SOL    HW110382   0.612   1.820   2.890
 3161SOL    HW210383   0.771   1.780   2.894
 3162SOL     OW10384   6.234   0.109   5.918
 3162SOL    HW110385   6.245   0.203   5.884
 3162SOL    HW210386   6.241   0.109   6.018
 3163SOL     OW10387   2.149   4.720   5.422
 3163SOL    HW110388   2.128   4.748   5.329
 3163SOL    HW210389   2.065   4.687   5.466
 3164SOL     OW10390   5.849   5.416   6.321
 3164SOL    HW110391   5.824   5.368   6.237
 3164SOL    HW210392   5.775   5.477   6.348
 3165SOL     OW10393   0.308   2.501   1.555
 3165SOL    HW110394   0.230   2.470   1.610
 3165SOL    HW210395   0.361   2.421   1.526
 3166SOL     OW10396   4.624   3.051   6.297
 3166SOL    HW110397   4.609   3.019   6.391
 3166SOL    HW210398   4.536   3.062   6.251
 3167SOL     OW10399   0.347   3.984   1.501
 3167SOL    HW110400   0.408   4.045   1.552
 3167SOL    HW210401   0.255   3.989   1.539
 3168SOL     OW10402   5.173   3.331   0.688
 3168SOL    HW110403   5.271   3.340   0.703
 3168SOL    HW210404   5.147   3.234   0.691
 3169SOL     OW10405   1.898   2.090   4.788
 3169SOL    HW110406   1.945   2.145   4.857
 3169SOL    HW210407   1.950   2.007   4.770
 3170SOL     OW10408   4.578   0.762   5.670
 3170SOL    HW110409   4.626   0.807   5.594
 3170SOL    HW210410   4.607   0.803   5.756
 3171SOL     OW10411   6.348   0.013   3.119
 3171SOL    HW110412   6.392   6.963   3.171
 3171SOL    HW210413   6.419   0.066   3.071
 3172SOL     OW10414   5.895   0.200   5.720
 3172SOL    HW110415   5.979   0.180   5.671
 3172SOL    HW210416   5.905   0.288   5.768
 3173SOL     OW10417   2.173   1.376   1.744
 3173SOL    HW110418   2.152   1.471   1.769
 3173SOL    HW210419   2.210   1.329   1.824
 3174SOL     OW10420   1.762   3.162   6.472
 3174SOL    HW110421   1.832   3.157   6.401
 3174SOL    HW210422   1.806   3.172   6.562
 3175SOL     OW10423   6.790   5.955   0.491
 3175SOL    HW110424   6.831   5.873   0.450
 3175SOL    HW210425   6.845   5.983   0.570
 3176SOL     OW10426   1.082   6.127   6.613
 3176SOL    HW110427   0.993   6.106   6.573
 3176SOL    HW210428   1.085   6.096   6.708
 3177SOL     OW10429   1.184   6.807   4.329
 3177SOL    HW110430   1.174   6.887   4.389
 3177SOL    HW210431   1.094   6.778   4.297
 3178SOL     OW10432   2.530   3.539   0.659
 3178SOL    HW110433   2.499   3.590   0.739
 3178SOL    HW210434   2.522   3.441   0.677
 3179SOL     OW10435   1.072   2.477   3.467
 3179SOL    HW110436   1.148   2.499   3.529
 3179SOL    HW210437   1.045   2.558   3.416
 3180SOL     OW10438   5.662   1.372   6.173
 3180SOL    HW110439   5.686   1.466   6.194
 3180SOL    HW210440   5.652   1.320   6.258
 3181SOL     OW10441   1.006   1.467   2.934
 3181SOL    HW110442   0.986   1.563   2.954
 3181SOL    HW210443   0.969   1.443   2.845
 3182SOL     OW10444   1.462   4.714   5.465
 3182SOL    HW110445   1.410   4.679   5.543
 3182SOL    HW210446   1.435   4.664   5.382
 3183SOL     OW10447   4.880   2.921   1.054
 3183SOL    HW110448   4.958   2.895   0.996
 3183SOL    HW210449   4.909   2.920   1.150
 3184SOL     OW10450   0.859   2.167   3.736
 3184SOL    HW110451   0.845   2.087   3.794
 3184SOL    HW210452   0.894   2.138   3.647
 3185SOL     OW10453   0.304   6.263   6.669
 3185SOL    HW110454   0.348   6.174   6.676
 3185SOL    HW210455   0.326   6.304   6.580
 3186SOL     OW10456   3.263   0.704   1.619
 3186SOL    HW110457   3.333   0.775   1.626
 3186SOL    HW210458   3.192   0.720   1.689
 3187SOL     OW10459   2.926   4.211   0.193
 3187SOL    HW110460   2.866   4.291   0.183
 3187SOL    HW210461   2.875   4.138   0.238
 3188SOL     OW10462   4.574   6.729   3.160
 3188SOL    HW110463   4.668   6.700   3.146
 3188SOL    HW210464   4.563   6.824   3.130
 3189SOL     OW10465   6.758   6.743   2.025
 3189SOL    HW110466   6.760   6.734   1.925
 3189SOL    HW210467   6.664   6.732   2.057
 3190SOL     OW10468   0.565   6.802   1.296
 3190SOL    HW110469   0.652   6.849   1.304
 3190SOL    HW210470   0.520   6.827   1.211
 3191SOL     OW10471   2.941   0.155   0.396
 3191SOL    HW110472   2.954   0.169   0.298
 3191SOL    HW210473   2.886   0.230   0.434
 3192SOL     OW10474   5.850   1.866   3.340
 3192SOL    HW110475   5.777   1.871   3.272
 3192SOL    HW210476   5.937   1.847   3.295
 3193SOL     OW10477   4.625   4.361   1.031
 3193SOL    HW110478   4.676   4.332   1.112
 3193SOL    HW210479   4.686   4.412   0.970
 3194SOL     OW10480   1.703   4.735   5.291
 3194SOL    HW110481   1.659   4.717   5.379
 3194SOL    HW210482   1.640   4.784   5.231
 3195SOL     OW10483   0.836   3.935   3.079
 3195SOL    HW110484   0.833   3.855   3.139
 3195SOL    HW210485   0.918   3.988   3.098
 3196SOL     OW10486   0.303   6.895   5.685
 3196SOL    HW110487   0.344   6.804   5.674
 3196SOL    HW210488   0.342   6.940   5.766
 3197SOL     OW10489   0.305   4.159   4.369
 3197SOL    HW110490   0.229   4.129   4.426
 3197SOL    HW210491   0.346   4.079   4.325
 3198SOL     OW10492   5.392   6.541   0.470
 3198SOL    HW110493   5.476   6.511   0.514
 3198SOL    HW210494   5.398   6.521   0.372
 3199SOL     OW10495   3.650   1.588   3.322
 3199SOL    HW110496   3.723   1.655   3.333
 3199SOL    HW210497   3.562   1.632   3.338
 3200SOL     OW10498   0.135   2.234   0.292
 3200SOL    HW110499   0.118   2.217   0.390
 3200SOL    HW210500   0.233   2.249   0.278
 3201SOL     OW10501   4.634   4.394   3.143
 3201SOL    HW110502   4.554   4.453   3.134
 3201SOL    HW210503   4.650   4.372   3.239
 3202SOL     OW10504   1.148   6.114   1.715
 3202SOL    HW110505   1.176   6.087   1.623
 3202SOL    HW210506   1.057   6.079   1.734
 3203SOL     OW10507   5.135   0.337   1.207
 3203SOL    HW110508   5.047   0.290   1.219
 3203SOL    HW210509   5.158   0.341   1.110
 3204SOL     OW10510   6.395   6.255   2.251
 3204SOL    HW110511   6.316   6.224   2.199
 3204SOL    HW210512   6.371   6.261   2.348
 3205SOL     OW10513   1.045   4.027   3.699
 3205SOL    HW110514   1.011   3.983   3.615
 3205SOL    HW210515   1.106   4.102   3.675
 3206SOL     OW10516   1.587   6.883   0.393
 3206SOL    HW110517   1.660   6.830   0.351
 3206SOL    HW210518   1.589   6.977   0.359
 3207SOL     OW10519   1.220   1.552   2.473
 3207SOL    HW110520   1.120   1.554   2.469
 3207SOL    HW210521   1.257   1.631   2.425
 3208SOL     OW10522   6.067   0.283   4.536
 3208SOL    HW110523   6.017   0.349   4.481
 3208SOL    HW210524   6.147   0.327   4.577
 3209SOL     OW10525   2.460   0.063   2.655
 3209SOL    HW110526   2.425   0.041   2.564
 3209SOL    HW210527   2.532   0.132   2.646
 3210SOL     OW10528   0.504   5.039   1.986
 3210SOL    HW110529   0.444   5.093   1.927
 3210SOL    HW210530   0.461   5.028   2.076
 3211SOL     OW10531   1.070   4.287   2.532
 3211SOL    HW110532   0.986   4.299   2.586
 3211SOL    HW210533   1.108   4.197   2.549
 3212SOL     OW10534   4.926   3.172   5.646
 3212SOL    HW110535   4.969   3.249   5.598
 3212SOL    HW210536   4.984   3.091   5.636
 3213SOL     OW10537   4.903   0.180   1.264
 3213SOL    HW110538   4.813   0.217   1.244
 3213SOL    HW210539   4.925   0.108   1.198
 3214SOL     OW10540   4.114   4.150   6.444
 3214SOL    HW110541   4.155   4.150   6.353
 3214SOL    HW210542   4.014   4.150   6.435
 3215SOL     OW10543   6.241   1.320   0.344
 3215SOL    HW110544   6.319   1.263   0.318
 3215SOL    HW210545   6.177   1.265   0.398
 3216SOL     OW10546   5.469   6.714   4.827
 3216SOL    HW110547   5.420   6.694   4.743
 3216SOL    HW210548   5.483   6.813   4.835
 3217SOL     OW10549   6.542   4.090   0.240
 3217SOL    HW110550   6.585   4.109   0.152
 3217SOL    HW210551   6.505   4.175   0.278
 3218SOL     OW10552   3.600   1.710   2.110
 3218SOL    HW110553   3.514   1.748   2.145
 3218SOL    HW210554   3.653   1.782   2.067
 3219SOL     OW10555   0.375   0.116   3.905
 3219SOL    HW110556   0.335   0.125   3.996
 3219SOL    HW210557   0.473   0.099   3.913
 3220SOL     OW10558   5.647   3.254   5.890
 3220SOL    HW110559   5.703   3.179   5.854
 3220SOL    HW210560   5.561   3.218   5.925
 3221SOL     OW10561   3.935   0.401   2.316
 3221SOL    HW110562   3.861   0.447   2.267
 3221SOL    HW210563   4.016   0.397   2.257
 3222SOL     OW10564   6.794   4.171   2.126
 3222SOL    HW110565   6.814   4.262   2.088
 3222SOL    HW210566   6.727   4.179   2.199
 3223SOL     OW10567   2.304   4.363   3.767
 3223SOL    HW110568   2.344   4.404   3.849
 3223SOL    HW210569   2.259   4.434   3.713
 3224SOL     OW10570   3.140   5.841   1.392
 3224SOL    HW110571   3.238   5.838   1.375
 3224SOL    HW210572   3.090   5.833   1.306
 3225SOL     OW10573   2.030   2.718   1.082
 3225SOL    HW110574   1.989   2.705   1.172
 3225SOL    HW210575   1.965   2.765   1.022
 3226SOL     OW10576   0.244   0.420   4.066
 3226SOL    HW110577   0.154   0.381   4.081
 3226SOL    HW210578   0.285   0.444   4.155
 3227SOL     OW10579   1.799   2.033   5.669
 3227SOL    HW110580   1.854   1.966   5.619
 3227SOL    HW210581   1.718   2.057   5.615
 3228SOL     OW10582   4.872   3.359   4.936
 3228SOL    HW110583   4.845   3.455   4.934
 3228SOL    HW210584   4.871   3.326   5.031
 3229SOL     OW10585   4.577   1.702   5.343
 3229SOL    HW110586   4.586   1.751   5.256
 3229SOL    HW210587   4.562   1.604   5.325
 3230SOL     OW10588   1.653   0.316   3.715
 3230SOL    HW110589   1.676   0.384   3.784
 3230SOL    HW210590   1.581   0.352   3.656
 3231SOL     OW10591   4.740   4.784   0.509
 3231SOL    HW110592   4.782   4.752   0.424
 3231SOL    HW210593   4.785   4.867   0.540
 3232SOL     OW10594   1.574   4.177   2.906
 3232SOL    HW110595   1.593   4.267   2.945
 3232SOL    HW210596   1.635   4.161   2.828
 3233SOL     OW10597   1.756   4.176   0.579
 3233SOL    HW110598   1.752   4.269   0.541
 3233SOL    HW210599   1.669   4.154   0.623
 3234SOL     OW10600   6.534   2.370   5.119
 3234SOL    HW110601   6.436   2.354   5.117
 3234SOL    HW210602   6.552   2.467   5.104
 3235SOL     OW10603   5.438   0.643   2.221
 3235SOL    HW110604   5.529   0.612   2.247
 3235SOL    HW210605   5.435   0.656   2.122
 3236SOL     OW10606   0.202   2.600   1.282
 3236SOL    HW110607   0.251   2.590   1.369
 3236SOL    HW210608   0.209   2.695   1.251
 3237SOL     OW10609   3.217   5.979   4.754
 3237SOL    HW110610   3.254   5.922   4.681
 3237SOL    HW210611   3.156   6.048   4.714
 3238SOL     OW10612   6.430   5.977   6.380
 3238SOL    HW110613   6.370   5.916   6.327
 3238SOL    HW210614   6.450   6.059   6.326
 3239SOL     OW10615   0.619   6.156   5.479
 3239SOL    HW110616   0.679   6.226   5.438
 3239SOL    HW210617   0.674   6.077   5.505
 3240SOL     OW10618   0.430   2.239   4.662
 3240SOL    HW110619   0.367   2.314   4.642
 3240SOL    HW210620   0.384   2.171   4.719
 3241SOL     OW10621   4.132   6.855   4.780
 3241SOL    HW110622   4.187   6.935   4.755
 3241SOL    HW210623   4.193   6.782   4.812
 3242SOL     OW10624   3.280   0.013   0.794
 3242SOL    HW110625   3.239   0.056   0.713
 3242SOL    HW210626   3.284   6.938   0.779
 3243SOL     OW10627   3.262   5.113   1.198
 3243SOL    HW110628   3.273   5.023   1.240
 3243SOL    HW210629   3.231   5.101   1.103
 3244SOL     OW10630   1.262   6.208   5.634
 3244SOL    HW110631   1.202   6.160   5.569
 3244SOL    HW210632   1.226   6.198   5.726
 3245SOL     OW10633   3.275   1.888   5.815
 3245SOL    HW110634   3.368   1.890   5.777
 3245SOL    HW210635   3.279   1.864   5.912
 3246SOL     OW10636   5.480   6.325   3.544
 3246SOL    HW110637   5.531   6.250   3.587
 3246SOL    HW210638   5.517   6.343   3.453
 3247SOL     OW10639   6.375   2.960   5.646
 3247SOL    HW110640   6.296   2.908   5.613
 3247SOL    HW210641   6.450   2.951   5.581
 3248SOL     OW10642   4.830   3.915   2.650
 3248SOL    HW110643   4.775   3.982   2.600
 3248SOL    HW210644   4.779   3.830   2.658
 3249SOL     OW10645   3.160   4.388   5.581
 3249SOL    HW110646   3.213   4.467   5.552
 3249SOL    HW210647   3.214   4.305   5.569
 3250SOL     OW10648   4.650   5.057   1.215
 3250SOL    HW110649   4.569   5.053   1.274
 3250SOL    HW210650   4.685   4.964   1.200
 3251SOL     OW10651   3.707   0.506   3.827
 3251SOL    HW110652   3.612   0.484   3.806
 3251SOL    HW210653   3.721   0.604   3.822
 3252SOL     OW10654   3.571   1.755   3.688
 3252SOL    HW110655   3.525   1.823   3.746
 3252SOL    HW210656   3.526   1.752   3.599
 3253SOL     OW10657   5.040   4.324   1.331
 3253SOL    HW110658   4.992   4.411   1.338
 3253SOL    HW210659   5.124   4.328   1.386
 3254SOL     OW10660   6.380   4.066   2.647
 3254SOL    HW110661   6.476   4.091   2.632
 3254SOL    HW210662   6.327   4.087   2.566
 3255SOL     OW10663   3.811   5.260   0.675
 3255SOL    HW110664   3.817   5.360   0.664
 3255SOL    HW210665   3.847   5.234   0.765
 3256SOL     OW10666   6.362   6.362   5.583
 3256SOL    HW110667   6.360   6.332   5.678
 3256SOL    HW210668   6.302   6.441   5.572
 3257SOL     OW10669   2.380   1.590   1.404
 3257SOL    HW110670   2.406   1.634   1.318
 3257SOL    HW210671   2.304   1.527   1.387
 3258SOL     OW10672   4.768   6.515   1.329
 3258SOL    HW110673   4.843   6.448   1.332
 3258SOL    HW210674   4.690   6.475   1.280
 3259SOL     OW10675   6.067   6.026   3.462
 3259SOL    HW110676   6.080   5.993   3.369
 3259SOL    HW210677   5.998   6.098   3.462
 3260SOL     OW10678   2.044   1.690   1.498
 3260SOL    HW110679   2.103   1.745   1.440
 3260SOL    HW210680   2.067   1.593   1.488
 3261SOL     OW10681   4.698   6.640   3.746
 3261SOL    HW110682   4.678   6.597   3.834
 3261SOL    HW210683   4.718   6.737   3.760
 3262SOL     OW10684   3.800   1.890   4.385
 3262SOL    HW110685   3.818   1.846   4.297
 3262SOL    HW210686   3.877   1.875   4.447
 3263SOL     OW10687   3.651   4.928   2.960
 3263SOL    HW110688   3.729   4.889   3.009
 3263SOL    HW210689   3.571   4.929   3.021
 3264SOL     OW10690   5.150   4.746   6.102
 3264SOL    HW110691   5.071   4.743   6.163
 3264SOL    HW210692   5.201   4.831   6.117
 3265SOL     OW10693   5.208   0.248   5.923
 3265SOL    HW110694   5.151   0.245   5.841
 3265SOL    HW210695   5.283   0.183   5.915
 3266SOL     OW10696   1.402   2.563   6.438
 3266SOL    HW110697   1.340   2.638   6.461
 3266SOL    HW210698   1.476   2.597   6.379
 3267SOL     OW10699   5.054   2.817   1.581
 3267SOL    HW110700   5.038   2.727   1.622
 3267SOL    HW210701   4.994   2.884   1.625
 3268SOL     OW10702   1.699   5.328   6.581
 3268SOL    HW110703   1.748   5.351   6.665
 3268SOL    HW210704   1.737   5.379   6.504
 3269SOL     OW10705   4.344   3.352   0.922
 3269SOL    HW110706   4.274   3.380   0.988
 3269SOL    HW210707   4.391   3.271   0.956
 3270SOL     OW10708   6.799   5.107   3.669
 3270SOL    HW110709   6.891   5.074   3.687
 3270SOL    HW210710   6.781   5.107   3.571
 3271SOL     OW10711   4.541   0.118   1.615
 3271SOL    HW110712   4.461   0.116   1.674
 3271SOL    HW210713   4.620   0.082   1.664
 3272SOL     OW10714   4.679   6.406   6.546
 3272SOL    HW110715   4.615   6.366   6.479
 3272SOL    HW210716   4.752   6.454   6.497
 3273SOL     OW10717   1.211   0.690   3.087
 3273SOL    HW110718   1.298   0.738   3.071
 3273SOL    HW210719   1.135   0.755   3.078
 3274SOL     OW10720   3.009   1.543   6.805
 3274SOL    HW110721   3.080   1.578   6.867
 3274SOL    HW210722   2.974   1.618   6.749
 3275SOL     OW10723   4.529   0.840   6.945
 3275SOL    HW110724   4.621   0.871   6.968
 3275SOL    HW210725   4.523   0.823   6.846
 3276SOL     OW10726   1.937   5.903   6.972
 3276SOL    HW110727   1.867   5.970   6.998
 3276SOL    HW210728   1.922   5.874   6.877
 3277SOL     OW10729   6.821   5.945   6.667
 3277SOL    HW110730   6.835   6.010   6.742
 3277SOL    HW210731   6.725   5.945   6.641
 3278SOL     OW10732   0.714   0.727   0.085
 3278SOL    HW110733   0.665   0.769   0.008
 3278SOL    HW210734   0.757   0.798   0.140
 3279SOL     OW10735   2.123   6.534   1.237
 3279SOL    HW110736   2.148   6.519   1.333
 3279SOL    HW210737   2.111   6.632   1.221
 3280SOL     OW10738   2.622   6.355   4.016
 3280SOL    HW110739   2.608   6.453   4.002
 3280SOL    HW210740   2.533   6.310   4.027
 3281SOL     OW10741   2.263   6.551   0.587
 3281SOL    HW110742   2.254   6.597   0.675
 3281SOL    HW210743   2.235   6.612   0.514
 3282SOL     OW10744   2.077   5.384   2.557
 3282SOL    HW110745   2.092   5.375   2.655
 3282SOL    HW210746   2.137   5.321   2.508
 3283SOL     OW10747   2.132   6.830   3.191
 3283SOL    HW110748   2.114   6.853   3.287
 3283SOL    HW210749   2.136   6.914   3.137
 3284SOL     OW10750   1.199   5.144   5.635
 3284SOL    HW110751   1.223   5.238   5.662
 3284SOL    HW210752   1.176   5.142   5.538
 3285SOL     OW10753   0.230   2.814   3.980
 3285SOL    HW110754   0.213   2.836   3.884
 3285SOL    HW210755   0.328   2.820   3.999
 3286SOL     OW10756   4.540   4.320   6.553
 3286SOL    HW110757   4.521   4.372   6.636
 3286SOL    HW210758   4.475   4.346   6.481
 3287SOL     OW10759   0.012   3.225   1.720
 3287SOL    HW110760   0.101   3.264   1.698
 3287SOL    HW210761   7.017   3.238   1.818
 3288SOL     OW10762   1.113   6.922   6.756
 3288SOL    HW110763   1.145   6.889   6.845
 3288SOL    HW210764   1.143   7.016   6.742
 3289SOL     OW10765   1.405   6.171   4.214
 3289SOL    HW110766   1.347   6.112   4.157
 3289SOL    HW210767   1.348   6.238   4.261
 3290SOL     OW10768   0.373   4.506   3.559
 3290SOL    HW110769   0.325   4.425   3.525
 3290SOL    HW210770   0.472   4.492   3.552
 3291SOL     OW10771   1.875   1.035   2.231
 3291SOL    HW110772   1.820   1.116   2.209
 3291SOL    HW210773   1.948   1.061   2.294
 3292SOL     OW10774   0.619   5.649   4.846
 3292SOL    HW110775   0.676   5.612   4.772
 3292SOL    HW210776   0.563   5.723   4.811
 3293SOL     OW10777   5.968   0.705   3.331
 3293SOL    HW110778   5.990   0.785   3.276
 3293SOL    HW210779   6.053   0.662   3.363
 3294SOL     OW10780   0.108   6.848   0.880
 3294SOL    HW110781   0.154   6.794   0.951
 3294SOL    HW210782   0.018   6.877   0.913
 3295SOL     OW10783   2.057   2.626   6.146
 3295SOL    HW110784   2.134   2.669   6.099
 3295SOL    HW210785   1.989   2.696   6.169
 3296SOL     OW10786   0.918   6.164   2.637
 3296SOL    HW110787   0.954   6.257   2.631
 3296SOL    HW210788   0.974   6.103   2.581
 3297SOL     OW10789   3.369   1.412   5.990
 3297SOL    HW110790   3.368   1.316   6.017
 3297SOL    HW210791   3.461   1.450   6.007
 3298SOL     OW10792   0.341   4.461   2.495
 3298SOL    HW110793   0.287   4.380   2.515
 3298SOL    HW210794   0.321   4.533   2.562
 3299SOL     OW10795   0.836   1.579   4.366
 3299SOL    HW110796   0.790   1.532   4.290
 3299SOL    HW210797   0.778   1.576   4.447
 3300SOL     OW10798   7.015   7.007   4.921
 3300SOL    HW110799   0.032   0.041   4.991
 3300SOL    HW210800   0.029   6.915   4.927
 3301SOL     OW10801   6.573   3.672   2.358
 3301SOL    HW110802   6.672   3.670   2.368
 3301SOL    HW210803   6.545   3.600   2.294
 3302SOL     OW10804   0.915   6.208   5.195
 3302SOL    HW110805   0.979   6.170   5.262
 3302SOL    HW210806   0.838   6.251   5.243
 3303SOL     OW10807   2.990   3.408   4.027
 3303SOL    HW110808   2.990   3.348   3.948
 3303SOL    HW210809   3.058   3.480   4.015
 3304SOL     OW10810   1.897   0.375   3.291
 3304SOL    HW110811   1.910   0.442   3.364
 3304SOL    HW210812   1.921   0.416   3.203
 3305SOL     OW10813   0.880   3.078   0.387
 3305SOL    HW110814   0.842   2.990   0.417
 3305SOL    HW210815   0.813   3.127   0.333
 3306SOL     OW10816   1.334   2.776   2.209
 3306SOL    HW110817   1.413   2.771   2.147
 3306SOL    HW210818   1.251   2.752   2.159
 3307SOL     OW10819   0.860   0.233   0.167
 3307SOL    HW110820   0.777   0.178   0.152
 3307SOL    HW210821   0.915   0.192   0.239
 3308SOL     OW10822   4.904   6.135   1.034
 3308SOL    HW110823   4.864   6.066   1.095
 3308SOL    HW210824   5.001   6.145   1.055
 3309SOL     OW10825   1.659   4.777   2.223
 3309SOL    HW110826   1.660   4.844   2.298
 3309SOL    HW210827   1.738   4.792   2.164
 3310SOL     OW10828   1.755   6.955   2.090
 3310SOL    HW110829   1.823   6.972   2.019
 3310SOL    HW210830   1.732   0.017   2.136
 3311SOL     OW10831   3.990   5.572   0.977
 3311SOL    HW110832   4.043   5.628   1.040
 3311SOL    HW210833   3.901   5.614   0.960
 3312SOL     OW10834   1.531   2.935   6.188
 3312SOL    HW110835   1.439   2.896   6.199
 3312SOL    HW210836   1.573   2.944   6.278
 3313SOL     OW10837   5.980   6.659   4.601
 3313SOL    HW110838   5.962   6.597   4.525
 3313SOL    HW210839   5.983   6.753   4.567
 3314SOL     OW10840   0.806   4.450   6.931
 3314SOL    HW110841   0.800   4.538   6.977
 3314SOL    HW210842   0.902   4.424   6.919
 3315SOL     OW10843   6.652   3.040   3.359
 3315SOL    HW110844   6.570   2.985   3.374
 3315SOL    HW210845   6.733   2.981   3.365
 3316SOL     OW10846   4.346   0.981   0.313
 3316SOL    HW110847   4.358   1.004   0.217
 3316SOL    HW210848   4.274   1.038   0.353
 3317SOL     OW10849   4.303   2.106   1.464
 3317SOL    HW110850   4.337   2.158   1.386
 3317SOL    HW210851   4.327   2.153   1.549
 3318SOL     OW10852   2.577   5.089   5.855
 3318SOL    HW110853   2.512   5.147   5.806
 3318SOL    HW210854   2.667   5.096   5.812
 3319SOL     OW10855   6.612   6.290   6.572
 3319SOL    HW110856   6.710   6.271   6.571
 3319SOL    HW210857   6.561   6.205   6.583
 3320SOL     OW10858   0.904   0.636   0.919
 3320SOL    HW110859   0.847   0.557   0.941
 3320SOL    HW210860   0.850   0.720   0.927
 3321SOL     OW10861   3.695   3.946   4.531
 3321SOL    HW110862   3.672   4.043   4.527
 3321SOL    HW210863   3.646   3.898   4.459
 3322SOL     OW10864   4.706   2.351   2.230
 3322SOL    HW110865   4.649   2.425   2.264
 3322SOL    HW210866   4.652   2.267   2.222
 3323SOL     OW10867   2.037   4.766   0.390
 3323SOL    HW110868   2.105   4.835   0.364
 3323SOL    HW210869   1.955   4.811   0.425
 3324SOL     OW10870   6.317   3.440   1.725
 3324SOL    HW110871   6.234   3.423   1.779
 3324SOL    HW210872   6.381   3.364   1.738
 3325SOL     OW10873   0.781   4.950   5.807
 3325SOL    HW110874   0.756   4.856   5.829
 3325SOL    HW210875   0.816   4.995   5.889
 3326SOL     OW10876   5.551   0.276   2.294
 3326SOL    HW110877   5.459   0.294   2.328
 3326SOL    HW210878   5.563   0.178   2.278
 3327SOL     OW10879   4.765   6.040   1.804
 3327SOL    HW110880   4.692   6.094   1.764
 3327SOL    HW210881   4.847   6.097   1.816
 3328SOL     OW10882   6.163   6.652   4.187
 3328SOL    HW110883   6.098   6.621   4.117
 3328SOL    HW210884   6.157   6.751   4.196
 3329SOL     OW10885   5.884   0.744   5.921
 3329SOL    HW110886   5.901   0.807   5.845
 3329SOL    HW210887   5.883   0.795   6.007
 3330SOL     OW10888   6.771   6.581   2.917
 3330SOL    HW110889   6.850   6.520   2.918
 3330SOL    HW210890   6.783   6.649   2.845
 3331SOL     OW10891   1.328   4.100   2.738
 3331SOL    HW110892   1.382   4.165   2.792
 3331SOL    HW210893   1.276   4.041   2.800
 3332SOL     OW10894   3.810   5.288   0.065
 3332SOL    HW110895   3.907   5.262   0.064
 3332SOL    HW210896   3.786   5.329   7.001
 3333SOL     OW10897   1.822   3.830   0.992
 3333SOL    HW110898   1.839   3.735   0.966
 3333SOL    HW210899   1.842   3.890   0.915
 3334SOL     OW10900   1.208   2.202   2.570
 3334SOL    HW110901   1.225   2.300   2.555
 3334SOL    HW210902   1.133   2.172   2.510
 3335SOL     OW10903   3.812   4.256   5.811
 3335SOL    HW110904   3.908   4.226   5.817
 3335SOL    HW210905   3.806   4.352   5.837
 3336SOL     OW10906   3.899   5.896   5.781
 3336SOL    HW110907   3.904   5.841   5.864
 3336SOL    HW210908   3.924   5.990   5.802
 3337SOL     OW10909   3.250   2.979   3.535
 3337SOL    HW110910   3.206   2.980   3.626
 3337SOL    HW210911   3.184   3.010   3.467
 3338SOL     OW10912   2.679   3.253   1.590
 3338SOL    HW110913   2.727   3.310   1.524
 3338SOL    HW210914   2.669   3.303   1.676
 3339SOL     OW10915   0.934   6.560   6.738
 3339SOL    HW110916   0.906   6.469   6.766
 3339SOL    HW210917   0.859   6.625   6.753
 3340SOL     OW10918   4.648   1.302   6.097
 3340SOL    HW110919   4.671   1.386   6.145
 3340SOL    HW210920   4.645   1.319   5.999
 3341SOL     OW10921   1.455   4.406   1.409
 3341SOL    HW110922   1.519   4.371   1.478
 3341SOL    HW210923   1.382   4.339   1.395
 3342SOL     OW10924   5.859   0.206   2.106
 3342SOL    HW110925   5.773   0.241   2.068
 3342SOL    HW210926   5.880   0.255   2.190
 3343SOL     OW10927   3.384   5.388   0.910
 3343SOL    HW110928   3.295   5.390   0.957
 3343SOL    HW210929   3.438   5.312   0.945
 3344SOL     OW10930   1.383   3.617   1.622
 3344SOL    HW110931   1.306   3.670   1.586
 3344SOL    HW210932   1.457   3.679   1.649
 3345SOL     OW10933   5.270   5.304   1.248
 3345SOL    HW110934   5.279   5.221   1.193
 3345SOL    HW210935   5.228   5.282   1.336
 3346SOL     OW10936   1.271   0.788   6.978
 3346SOL    HW110937   1.344   0.721   6.987
 3346SOL    HW210938   1.242   0.818   0.045
 3347SOL     OW10939   1.051   4.066   5.784
 3347SOL    HW110940   1.041   4.143   5.848
 3347SOL    HW210941   0.961   4.030   5.762
 3348SOL     OW10942   3.445   4.128   6.060
 3348SOL    HW110943   3.364   4.171   6.019
 3348SOL    HW210944   3.465   4.172   6.147
 3349SOL     OW10945   1.626   5.821   1.716
 3349SOL    HW110946   1.575   5.775   1.644
 3349SOL    HW210947   1.695   5.881   1.675
 3350SOL     OW10948   2.376   5.064   5.128
 3350SOL    HW110949   2.400   5.031   5.220
 3350SOL    HW210950   2.276   5.066   5.118
 3351SOL     OW10951   5.089   6.839   1.565
 3351SOL    HW110952   5.022   6.773   1.596
 3351SOL    HW210953   5.181   6.802   1.575
 3352SOL     OW10954   5.523   1.320   6.904
 3352SOL    HW110955   5.546   1.404   6.853
 3352SOL    HW210956   5.556   1.329   6.998
 3353SOL     OW10957   4.019   0.779   6.596
 3353SOL    HW110958   4.087   0.842   6.559
 3353SOL    HW210959   3.935   0.785   6.543
 3354SOL     OW10960   2.242   2.981   0.500
 3354SOL    HW110961   2.236   2.885   0.528
 3354SOL    HW210962   2.166   3.002   0.438
 3355SOL     OW10963   1.334   1.126   4.976
 3355SOL    HW110964   1.406   1.112   4.908
 3355SOL    HW210965   1.319   1.041   5.027
 3356SOL     OW10966   3.120   0.985   6.075
 3356SOL    HW110967   3.145   0.893   6.047
 3356SOL    HW210968   3.024   1.002   6.053
 3357SOL     OW10969   2.929   3.641   3.406
 3357SOL    HW110970   2.916   3.543   3.392
 3357SOL    HW210971   2.901   3.666   3.498
 3358SOL     OW10972   0.079   2.104   0.985
 3358SOL    HW110973   0.110   2.140   1.073
 3358SOL    HW210974   0.120   2.013   0.970
 3359SOL     OW10975   1.278   6.878   4.080
 3359SOL    HW110976   1.342   6.813   4.037
 3359SOL    HW210977   1.261   6.850   4.175
 3360SOL     OW10978   1.537   5.518   4.708
 3360SOL    HW110979   1.599   5.490   4.781
 3360SOL    HW210980   1.444   5.524   4.743
 3361SOL     OW10981   6.836   6.767   4.394
 3361SOL    HW110982   6.897   6.704   4.347
 3361SOL    HW210983   6.777   6.813   4.327
 3362SOL     OW10984   3.798   0.476   4.385
 3362SOL    HW110985   3.886   0.476   4.432
 3362SOL    HW210986   3.795   0.553   4.320
 3363SOL     OW10987   4.924   3.768   0.400
 3363SOL    HW110988   4.942   3.688   0.458
 3363SOL    HW210989   4.830   3.763   0.365
 3364SOL     OW10990   1.711   3.570   1.465
 3364SOL    HW110991   1.759   3.523   1.391
 3364SOL    HW210992   1.724   3.520   1.550
 3365SOL     OW10993   1.067   3.054   2.604
 3365SOL    HW110994   1.056   3.114   2.684
 3365SOL    HW210995   1.048   2.960   2.630
 3366SOL     OW10996   5.973   2.667   3.904
 3366SOL    HW110997   6.072   2.649   3.909
 3366SOL    HW210998   5.923   2.582   3.920
 3367SOL     OW10999   3.473   3.015   3.682
 3367SOL    HW111000   3.540   2.949   3.649
 3367SOL    HW211001   3.390   3.009   3.627
 3368SOL     OW11002   2.329   0.835   3.626
 3368SOL    HW111003   2.388   0.885   3.689
 3368SOL    HW211004   2.385   0.787   3.559
 3369SOL     OW11005   5.154   2.680   1.179
 3369SOL    HW111006   5.078   2.614   1.176
 3369SOL    HW211007   5.240   2.631   1.166
 3370SOL     OW11008   0.744   5.398   2.902
 3370SOL    HW111009   0.769   5.306   2.872
 3370SOL    HW211010   0.706   5.394   2.994
 3371SOL     OW11011   2.527   2.739   1.323
 3371SOL    HW111012   2.598   2.793   1.278
 3371SOL    HW211013   2.564   2.696   1.405
 3372SOL     OW11014   5.918   2.569   3.301
 3372SOL    HW111015   5.907   2.484   3.351
 3372SOL    HW211016   5.845   2.632   3.326
 3373SOL     OW11017   0.145   4.508   0.395
 3373SOL    HW111018   0.128   4.598   0.355
 3373SOL    HW211019   0.244   4.494   0.405
 3374SOL     OW11020   1.087   5.458   4.057
 3374SOL    HW111021   1.087   5.489   3.962
 3374SOL    HW211022   1.178   5.426   4.082
 3375SOL     OW11023   0.175   6.087   5.637
 3375SOL    HW111024   0.083   6.090   5.676
 3375SOL    HW211025   0.242   6.099   5.710
 3376SOL     OW11026   3.198   3.818   5.333
 3376SOL    HW111027   3.105   3.829   5.299
 3376SOL    HW211028   3.246   3.906   5.328
 3377SOL     OW11029   6.848   5.441   4.278
 3377SOL    HW111030   6.872   5.345   4.265
 3377SOL    HW211031   6.917   5.498   4.233
 3378SOL     OW11032   0.861   5.763   0.498
 3378SOL    HW111033   0.769   5.725   0.484
 3378SOL    HW211034   0.861   5.859   0.468
 3379SOL     OW11035   5.991   4.174   4.034
 3379SOL    HW111036   5.901   4.217   4.033
 3379SOL    HW211037   6.046   4.214   4.107
 3380SOL     OW11038   2.094   5.315   1.939
 3380SOL    HW111039   2.126   5.394   1.887
 3380SOL    HW211040   2.053   5.345   2.025
 3381SOL     OW11041   2.801   3.968   6.580
 3381SOL    HW111042   2.815   3.891   6.517
 3381SOL    HW211043   2.730   3.945   6.646
 3382SOL     OW11044   0.024   4.036   6.588
 3382SOL    HW111045   0.081   4.117   6.579
 3382SOL    HW211046   6.953   4.063   6.602
 3383SOL     OW11047   3.082   6.070   0.882
 3383SOL    HW111048   3.130   6.077   0.970
 3383SOL    HW211049   3.010   6.140   0.878
 3384SOL     OW11050   2.697   2.921   6.537
 3384SOL    HW111051   2.761   2.879   6.474
 3384SOL    HW211052   2.702   2.874   6.625
 3385SOL     OW11053   5.701   2.743   4.618
 3385SOL    HW111054   5.746   2.658   4.591
 3385SOL    HW211055   5.764   2.798   4.674
 3386SOL     OW11056   0.237   5.508   5.006
 3386SOL    HW111057   0.295   5.439   4.962
 3386SOL    HW211058   0.290   5.558   5.075
 3387SOL     OW11059   6.049   0.100   2.658
 3387SOL    HW111060   6.019   0.175   2.716
 3387SOL    HW211061   6.128   0.129   2.604
 3388SOL     OW11062   0.758   4.009   0.367
 3388SOL    HW111063   0.854   3.997   0.341
 3388SOL    HW211064   0.730   3.932   0.424
 3389SOL     OW11065   6.337   5.108   6.180
 3389SOL    HW111066   6.251   5.128   6.134
 3389SOL    HW211067   6.385   5.194   6.202
 3390SOL     OW11068   3.223   5.378   0.667
 3390SOL    HW111069   3.196   5.468   0.631
 3390SOL    HW211070   3.290   5.391   0.740
 3391SOL     OW11071   5.121   3.769   5.235
 3391SOL    HW111072   5.207   3.819   5.243
 3391SOL    HW211073   5.128   3.702   5.161
 3392SOL     OW11074   5.279   6.414   5.556
 3392SOL    HW111075   5.346   6.359   5.606
 3392SOL    HW211076   5.327   6.484   5.503
 3393SOL     OW11077   3.700   0.055   0.448
 3393SOL    HW111078   3.637   0.092   0.516
 3393SOL    HW211079   3.656   7.005   0.397
 3394SOL     OW11080   2.762   5.625   1.471
 3394SOL    HW111081   2.693   5.570   1.424
 3394SOL    HW211082   2.810   5.682   1.405
 3395SOL     OW11083   2.100   6.556   3.090
 3395SOL    HW111084   2.197   6.532   3.098
 3395SOL    HW211085   2.091   6.654   3.077
 3396SOL     OW11086   4.588   0.604   4.811
 3396SOL    HW111087   4.533   0.683   4.786
 3396SOL    HW211088   4.553   0.564   4.895
 3397SOL     OW11089   2.198   6.253   1.079
 3397SOL    HW111090   2.114   6.308   1.080
 3397SOL    HW211091   2.259   6.286   1.007
 3398SOL     OW11092   6.747   1.145   6.511
 3398SOL    HW111093   6.765   1.099   6.424
 3398SOL    HW211094   6.814   1.219   6.523
 3399SOL     OW11095   0.197   6.113   2.319
 3399SOL    HW111096   0.194   6.167   2.235
 3399SOL    HW211097   0.292   6.103   2.348
 3400SOL     OW11098   3.382   3.095   5.752
 3400SOL    HW111099   3.305   3.154   5.727
 3400SOL    HW211100   3.361   3.046   5.836
 3401SOL     OW11101   6.883   3.196   4.087
 3401SOL    HW111102   6.923   3.281   4.119
 3401SOL    HW211103   6.813   3.216   4.018
 3402SOL     OW11104   5.638   3.436   0.014
 3402SOL    HW111105   5.625   3.535   0.003
 3402SOL    HW211106   5.552   3.394   0.041
 3403SOL     OW11107   5.670   6.514   4.653
 3403SOL    HW111108   5.737   6.454   4.611
 3403SOL    HW211109   5.659   6.597   4.598
 3404SOL     OW11110   5.185   5.200   3.204
 3404SOL    HW111111   5.273   5.235   3.170
 3404SOL    HW211112   5.186   5.100   3.201
 3405SOL     OW11113   4.394   5.808   1.373
 3405SOL    HW111114   4.479   5.845   1.410
 3405SOL    HW211115   4.363   5.865   1.297
 3406SOL     OW11116   4.023   4.951   1.186
 3406SOL    HW111117   4.092   4.910   1.245
 3406SOL    HW211118   3.935   4.905   1.200
 3407SOL     OW11119   1.679   2.901   0.602
 3407SOL    HW111120   1.630   2.968   0.546
 3407SOL    HW211121   1.649   2.809   0.579
 3408SOL     OW11122   3.990   6.482   3.879
 3408SOL    HW111123   3.986   6.421   3.801
 3408SOL    HW211124   3.903   6.529   3.889
 3409SOL     OW11125   4.341   1.732   6.791
 3409SOL    HW111126   4.350   1.815   6.735
 3409SOL    HW211127   4.309   1.757   6.882
 3410SOL     OW11128   6.992   0.575   2.329
 3410SOL    HW111129   6.946   0.495   2.291
 3410SOL    HW211130   6.960   0.591   2.422
 3411SOL     OW11131   5.772   3.574   6.267
 3411SOL    HW111132   5.806   3.527   6.349
 3411SOL    HW211133   5.840   3.565   6.193
 3412SOL     OW11134   5.456   2.816   3.581
 3412SOL    HW111135   5.469   2.915   3.576
 3412SOL    HW211136   5.384   2.794   3.647
 3413SOL     OW11137   7.009   2.644   1.071
 3413SOL    HW111138   0.043   2.718   1.037
 3413SOL    HW211139   0.036   2.590   1.138
 3414SOL     OW11140   4.001   3.048   1.893
 3414SOL    HW111141   4.039   2.963   1.857
 3414SOL    HW211142   3.928   3.081   1.833
 3415SOL     OW11143   2.604   1.364   6.308
 3415SOL    HW111144   2.555   1.440   6.350
 3415SOL    HW211145   2.647   1.308   6.378
 3416SOL     OW11146   5.193   6.563   5.826
 3416SOL    HW111147   5.201   6.507   5.908
 3416SOL    HW211148   5.206   6.506   5.745
 3417SOL     OW11149   5.723   0.362   2.531
 3417SOL    HW111150   5.675   0.309   2.460
 3417SOL    HW211151   5.674   0.447   2.548
 3418SOL     OW11152   3.970   5.875   0.502
 3418SOL    HW111153   3.922   5.908   0.583
 3418SOL    HW211154   3.908   5.820   0.446
 3419SOL     OW11155   3.048   4.733   5.372
 3419SOL    HW111156   3.015   4.708   5.463
 3419SOL    HW211157   2.995   4.685   5.302
 3420SOL     OW11158   4.008   0.962   2.080
 3420SOL    HW111159   3.993   0.901   2.002
 3420SOL    HW211160   3.923   0.970   2.133
 3421SOL     OW11161   0.447   1.403   4.371
 3421SOL    HW111162   0.497   1.317   4.372
 3421SOL    HW211163   0.450   1.445   4.461
 3422SOL     OW11164   3.238   5.471   1.866
 3422SOL    HW111165   3.183   5.548   1.898
 3422SOL    HW211166   3.304   5.446   1.937
 3423SOL     OW11167   2.447   4.472   6.264
 3423SOL    HW111168   2.482   4.463   6.357
 3423SOL    HW211169   2.496   4.546   6.217
 3424SOL     OW11170   5.332   6.994   2.623
 3424SOL    HW111171   5.252   6.996   2.564
 3424SOL    HW211172   5.306   6.961   2.714
 3425SOL     OW11173   5.615   3.057   6.171
 3425SOL    HW111174   5.566   3.009   6.244
 3425SOL    HW211175   5.550   3.089   6.102
 3426SOL     OW11176   6.654   5.555   6.619
 3426SOL    HW111177   6.656   5.619   6.696
 3426SOL    HW211178   6.567   5.505   6.621
 3427SOL     OW11179   1.705   1.511   6.423
 3427SOL    HW111180   1.801   1.538   6.416
 3427SOL    HW211181   1.648   1.584   6.385
 3428SOL     OW11182   4.986   0.656   4.131
 3428SOL    HW111183   4.977   0.705   4.044
 3428SOL    HW211184   5.045   0.577   4.119
 3429SOL     OW11185   3.987   6.143   0.453
 3429SOL    HW111186   3.902   6.135   0.401
 3429SOL    HW211187   4.014   6.053   0.487
 3430SOL     OW11188   2.982   4.692   6.786
 3430SOL    HW111189   3.002   4.749   6.706
 3430SOL    HW211190   2.961   4.751   6.864
 3431SOL     OW11191   1.113   4.725   3.004
 3431SOL    HW111192   1.108   4.657   2.932
 3431SOL    HW211193   1.021   4.739   3.043
 3432SOL     OW11194   0.312   5.337   6.737
 3432SOL    HW111195   0.378   5.331   6.812
 3432SOL    HW211196   0.360   5.332   6.650
 3433SOL     OW11197   0.614   0.607   0.614
 3433SOL    HW111198   0.711   0.609   0.637
 3433SOL    HW211199   0.572   0.694   0.640
 3434SOL     OW11200   4.119   2.058   2.544
 3434SOL    HW111201   4.185   2.133   2.531
 3434SOL    HW211202   4.095   2.021   2.454
 3435SOL     OW11203   2.008   3.066   1.102
 3435SOL    HW111204   1.922   3.028   1.136
 3435SOL    HW211205   2.010   3.164   1.121
 3436SOL     OW11206   4.365   6.012   5.683
 3436SOL    HW111207   4.291   5.962   5.638
 3436SOL    HW211208   4.451   5.962   5.668
 3437SOL     OW11209   1.411   6.638   0.218
 3437SOL    HW111210   1.467   6.600   0.292
 3437SOL    HW211211   1.468   6.694   0.158
 3438SOL     OW11212   2.092   4.241   0.573
 3438SOL    HW111213   2.040   4.243   0.487
 3438SOL    HW211214   2.145   4.157   0.577
 3439SOL     OW11215   2.615   6.194   1.034
 3439SOL    HW111216   2.683   6.224   1.101
 3439SOL    HW211217   2.661   6.151   0.956
 3440SOL     OW11218   3.820   3.848   5.848
 3440SOL    HW111219   3.739   3.856   5.907
 3440SOL    HW211220   3.886   3.787   5.891
 3441SOL     OW11221   6.684   5.030   4.774
 3441SOL    HW111222   6.585   5.034   4.762
 3441SOL    HW211223   6.723   5.122   4.765
 3442SOL     OW11224   1.019   1.913   0.649
 3442SOL    HW111225   1.034   1.944   0.556
 3442SOL    HW211226   0.935   1.858   0.653
 3443SOL     OW11227   0.388   5.740   2.482
 3443SOL    HW111228   0.295   5.717   2.512
 3443SOL    HW211229   0.400   5.712   2.386
 3444SOL     OW11230   0.535   4.390   6.311
 3444SOL    HW111231   0.598   4.465   6.287
 3444SOL    HW211232   0.561   4.308   6.261
 3445SOL     OW11233   5.726   5.310   4.503
 3445SOL    HW111234   5.747   5.379   4.434
 3445SOL    HW211235   5.728   5.219   4.461
 3446SOL     OW11236   5.017   1.713   0.217
 3446SOL    HW111237   5.074   1.679   0.142
 3446SOL    HW211238   5.001   1.640   0.283
 3447SOL     OW11239   5.261   1.589   5.762
 3447SOL    HW111240   5.255   1.499   5.719
 3447SOL    HW211241   5.208   1.655   5.708
 3448SOL     OW11242   0.706   4.973   5.356
 3448SOL    HW111243   0.756   4.955   5.271
 3448SOL    HW211244   0.772   4.989   5.430
 3449SOL     OW11245   1.439   3.699   4.882
 3449SOL    HW111246   1.396   3.644   4.954
 3449SOL    HW211247   1.530   3.727   4.913
 3450SOL     OW11248   2.579   6.522   2.275
 3450SOL    HW111249   2.519   6.602   2.287
 3450SOL    HW211250   2.646   6.520   2.349
 3451SOL     OW11251   1.731   1.940   0.353
 3451SOL    HW111252   1.644   1.905   0.388
 3451SOL    HW211253   1.714   2.023   0.300
 3452SOL     OW11254   4.486   1.129   6.155
 3452SOL    HW111255   4.487   1.117   6.254
 3452SOL    HW211256   4.541   1.208   6.130
 3453SOL     OW11257   4.332   6.289   5.582
 3453SOL    HW111258   4.304   6.194   5.592
 3453SOL    HW211259   4.409   6.309   5.643
 3454SOL     OW11260   1.409   2.927   3.061
 3454SOL    HW111261   1.365   2.974   3.138
 3454SOL    HW211262   1.405   2.828   3.075
 3455SOL     OW11263   0.803   4.544   6.225
 3455SOL    HW111264   0.884   4.595   6.198
 3455SOL    HW211265   0.806   4.526   6.323
 3456SOL     OW11266   4.524   5.301   3.208
 3456SOL    HW111267   4.534   5.314   3.307
 3456SOL    HW211268   4.530   5.390   3.162
 3457SOL     OW11269   4.013   4.155   0.121
 3457SOL    HW111270   3.941   4.142   0.190
 3457SOL    HW211271   3.971   4.181   0.034
 3458SOL     OW11272   4.349   1.759   1.109
 3458SOL    HW111273   4.250   1.768   1.108
 3458SOL    HW211274   4.385   1.769   1.016
 3459SOL     OW11275   6.809   6.730   2.604
 3459SOL    HW111276   6.902   6.741   2.567
 3459SOL    HW211277   6.776   6.638   2.582
 3460SOL     OW11278   4.092   1.444   5.309
 3460SOL    HW111279   4.105   1.518   5.243
 3460SOL    HW211280   4.077   1.482   5.400
 3461SOL     OW11281   4.781   4.124   3.599
 3461SOL    HW111282   4.720   4.154   3.673
 3461SOL    HW211283   4.810   4.030   3.617
 3462SOL     OW11284   1.164   4.911   6.627
 3462SOL    HW111285   1.147   4.813   6.633
 3462SOL    HW211286   1.236   4.936   6.692
 3463SOL     OW11287   5.937   4.399   0.062
 3463SOL    HW111288   5.971   4.321   0.115
 3463SOL    HW211289   5.929   4.479   0.122
 3464SOL     OW11290   0.190   4.324   3.742
 3464SOL    HW111291   0.276   4.301   3.696
 3464SOL    HW211292   0.149   4.242   3.780
 3465SOL     OW11293   1.024   2.839   1.332
 3465SOL    HW111294   0.976   2.862   1.416
 3465SOL    HW211295   0.964   2.855   1.254
 3466SOL     OW11296   6.308   4.082   3.326
 3466SOL    HW111297   6.268   4.059   3.415
 3466SOL    HW211298   6.385   4.022   3.308
 3467SOL     OW11299   1.594   2.642   6.265
 3467SOL    HW111300   1.662   2.714   6.251
 3467SOL    HW211301   1.637   2.564   6.310
 3468SOL     OW11302   4.540   5.802   1.814
 3468SOL    HW111303   4.591   5.865   1.754
 3468SOL    HW211304   4.504   5.726   1.759
 3469SOL     OW11305   5.131   4.295   0.425
 3469SOL    HW111306   5.144   4.326   0.331
 3469SOL    HW211307   5.139   4.195   0.428
 3470SOL     OW11308   6.346   5.245   1.103
 3470SOL    HW111309   6.301   5.329   1.072
 3470SOL    HW211310   6.311   5.219   1.193
 3471SOL     OW11311   3.937   6.843   4.419
 3471SOL    HW111312   3.940   6.821   4.516
 3471SOL    HW211313   4.027   6.875   4.389
 3472SOL     OW11314   4.223   0.497   5.042
 3472SOL    HW111315   4.181   0.458   5.123
 3472SOL    HW211316   4.176   0.463   4.960
 3473SOL     OW11317   4.486   6.469   3.924
 3473SOL    HW111318   4.470   6.495   3.829
 3473SOL    HW211319   4.399   6.440   3.965
 3474SOL     OW11320   4.105   4.637   0.131
 3474SOL    HW111321   4.068   4.723   0.098
 3474SOL    HW211322   4.046   4.601   0.204
 3475SOL     OW11323   1.271   4.933   5.313
 3475SOL    HW111324   1.194   4.888   5.267
 3475SOL    HW211325   1.290   4.886   5.399
 3476SOL     OW11326   3.923   1.531   3.578
 3476SOL    HW111327   3.840   1.475   3.580
 3476SOL    HW211328   3.901   1.623   3.614
 3477SOL     OW11329   4.924   5.503   2.388
 3477SOL    HW111330   4.922   5.407   2.359
 3477SOL    HW211331   5.015   5.541   2.369
 3478SOL     OW11332   3.601   4.125   0.426
 3478SOL    HW111333   3.629   4.033   0.455
 3478SOL    HW211334   3.528   4.118   0.359
 3479SOL     OW11335   1.913   0.507   0.356
 3479SOL    HW111336   1.863   0.577   0.407
 3479SOL    HW211337   1.962   0.448   0.419
 3480SOL     OW11338   1.177   6.533   4.477
 3480SOL    HW111339   1.162   6.613   4.535
 3480SOL    HW211340   1.263   6.489   4.503
 3481SOL     OW11341   2.114   5.384   0.224
 3481SOL    HW111342   2.023   5.354   0.197
 3481SOL    HW211343   2.111   5.481   0.251
 3482SOL     OW11344   0.096   2.192   1.298
 3482SOL    HW111345   0.022   2.260   1.303
 3482SOL    HW211346   0.108   2.150   1.388
 3483SOL     OW11347   3.934   1.029   0.905
 3483SOL    HW111348   3.851   1.021   0.851
 3483SOL    HW211349   3.993   1.100   0.865
 3484SOL     OW11350   3.620   4.074   3.052
 3484SOL    HW111351   3.705   4.087   3.103
 3484SOL    HW211352   3.635   4.098   2.956
 3485SOL     OW11353   6.246   2.266   5.102
 3485SOL    HW111354   6.219   2.170   5.102
 3485SOL    HW211355   6.188   2.317   5.038
 3486SOL     OW11356   5.652   0.955   3.376
 3486SOL    HW111357   5.585   1.023   3.346
 3486SOL    HW211358   5.700   0.991   3.457
 3487SOL     OW11359   1.203   6.854   0.936
 3487SOL    HW111360   1.219   6.949   0.910
 3487SOL    HW211361   1.200   6.796   0.855
 3488SOL     OW11362   6.196   4.062   5.149
 3488SOL    HW111363   6.170   3.987   5.089
 3488SOL    HW211364   6.142   4.143   5.127
 3489SOL     OW11365   3.030   5.462   6.891
 3489SOL    HW111366   3.130   5.459   6.895
 3489SOL    HW211367   2.996   5.383   6.841
 3490SOL     OW11368   4.654   3.957   0.320
 3490SOL    HW111369   4.735   4.013   0.341
 3490SOL    HW211370   4.600   4.003   0.249
 3491SOL     OW11371   5.692   2.595   5.192
 3491SOL    HW111372   5.675   2.507   5.148
 3491SOL    HW211373   5.619   2.659   5.167
 3492SOL     OW11374   6.362   4.384   6.589
 3492SOL    HW111375   6.382   4.306   6.530
 3492SOL    HW211376   6.441   4.446   6.589
 3493SOL     OW11377   6.312   4.143   1.049
 3493SOL    HW111378   6.279   4.146   1.143
 3493SOL    HW211379   6.388   4.207   1.038
 3494SOL     OW11380   3.398   6.236   1.235
 3494SOL    HW111381   3.458   6.174   1.285
 3494SOL    HW211382   3.443   6.265   1.150
 3495SOL     OW11383   5.862   4.590   6.329
 3495SOL    HW111384   5.868   4.596   6.428
 3495SOL    HW211385   5.768   4.569   6.302
 3496SOL     OW11386   0.535   5.902   1.205
 3496SOL    HW111387   0.486   5.855   1.279
 3496SOL    HW211388   0.498   5.995   1.195
 3497SOL     OW11389   3.582   6.844   4.875
 3497SOL    HW111390   3.615   6.758   4.835
 3497SOL    HW211391   3.625   6.921   4.828
 3498SOL     OW11392   0.901   1.558   0.258
 3498SOL    HW111393   0.920   1.648   0.218
 3498SOL    HW211394   0.962   1.490   0.218
 3499SOL     OW11395   6.873   4.063   4.337
 3499SOL    HW111396   6.947   4.041   4.274
 3499SOL    HW211397   6.790   4.083   4.285
 3500SOL     OW11398   5.936   2.752   0.811
 3500SOL    HW111399   5.961   2.811   0.888
 3500SOL    HW211400   5.923   2.808   0.729
 3501SOL     OW11401   0.867   5.152   3.132
 3501SOL    HW111402   0.940   5.105   3.084
 3501SOL    HW211403   0.778   5.121   3.097
 3502SOL     OW11404   0.939   5.388   1.323
 3502SOL    HW111405   0.856   5.338   1.302
 3502SOL    HW211406   1.008   5.325   1.360
 3503SOL     OW11407   3.545   6.917   3.673
 3503SOL    HW111408   3.515   6.964   3.591
 3503SOL    HW211409   3.597   6.835   3.648
 3504SOL     OW11410   2.129   3.212   2.283
 3504SOL    HW111411   2.116   3.265   2.200
 3504SOL    HW211412   2.145   3.273   2.360
 3505SOL     OW11413   4.873   6.471   5.067
 3505SOL    HW111414   4.836   6.379   5.053
 3505SOL    HW211415   4.802   6.530   5.106
 3506SOL     OW11416   0.072   4.686   2.133
 3506SOL    HW111417   7.006   4.721   2.106
 3506SOL    HW211418   0.101   4.615   2.068
 3507SOL     OW11419   6.874   0.276   5.821
 3507SOL    HW111420   6.806   0.203   5.812
 3507SOL    HW211421   6.844   0.342   5.889
 3508SOL     OW11422   6.639   4.420   0.005
 3508SOL    HW111423   6.700   4.454   0.076
 3508SOL    HW211424   6.629   4.489   6.958
 3509SOL     OW11425   5.310   0.179   7.019
 3509SOL    HW111426   5.351   0.269   7.004
 3509SOL    HW211427   5.329   0.120   6.942
 3510SOL     OW11428   2.270   1.293   1.995
 3510SOL    HW111429   2.289   1.195   2.004
 3510SOL    HW211430   2.308   1.341   2.074
 3511SOL     OW11431   1.061   0.864   4.349
 3511SOL    HW111432   1.117   0.890   4.270
 3511SOL    HW211433   1.112   0.802   4.407
 3512SOL     OW11434   4.062   2.925   1.302
 3512SOL    HW111435   4.072   3.009   1.355
 3512SOL    HW211436   4.078   2.846   1.362
 3513SOL     OW11437   6.249   4.176   1.317
 3513SOL    HW111438   6.258   4.269   1.354
 3513SOL    HW211439   6.318   4.117   1.359
 3514SOL     OW11440   2.490   5.965   2.352
 3514SOL    HW111441   2.404   6.009   2.377
 3514SOL    HW211442   2.496   5.876   2.395
 3515SOL     OW11443   4.024   5.434   3.445
 3515SOL    HW111444   4.072   5.509   3.489
 3515SOL    HW211445   4.090   5.379   3.393
 3516SOL     OW11446   1.756   0.802   0.237
 3516SOL    HW111447   1.744   0.864   0.314
 3516SOL    HW211448   1.703   0.719   0.252
 3517SOL     OW11449   0.625   0.642   6.779
 3517SOL    HW111450   0.628   0.547   6.809
 3517SOL    HW211451   0.633   0.646   6.679
 3518SOL     OW11452   3.908   2.960   6.171
 3518SOL    HW111453   3.816   2.936   6.203
 3518SOL    HW211454   3.939   3.043   6.217
 3519SOL     OW11455   3.170   0.182   0.587
 3519SOL    HW111456   3.113   0.159   0.508
 3519SOL    HW211457   3.134   0.265   0.630
 3520SOL     OW11458   3.629   4.845   1.603
 3520SOL    HW111459   3.647   4.937   1.568
 3520SOL    HW211460   3.530   4.832   1.612
 3521SOL     OW11461   6.665   1.948   5.596
 3521SOL    HW111462   6.705   2.039   5.597
 3521SOL    HW211463   6.711   1.891   5.665
 3522SOL     OW11464   2.609   0.391   0.693
 3522SOL    HW111465   2.524   0.395   0.747
 3522SOL    HW211466   2.685   0.366   0.753
 3523SOL     OW11467   2.087   4.610   5.051
 3523SOL    HW111468   2.139   4.531   5.018
 3523SOL    HW211469   2.140   4.694   5.038
 3524SOL     OW11470   2.782   1.408   3.456
 3524SOL    HW111471   2.832   1.348   3.393
 3524SOL    HW211472   2.844   1.439   3.528
 3525SOL     OW11473   1.666   3.035   3.422
 3525SOL    HW111474   1.677   2.974   3.344
 3525SOL    HW211475   1.626   3.121   3.392
 3526SOL     OW11476   3.557   6.380   3.587
 3526SOL    HW111477   3.535   6.283   3.574
 3526SOL    HW211478   3.652   6.396   3.562
 3527SOL     OW11479   5.499   3.675   6.939
 3527SOL    HW111480   5.577   3.730   6.910
 3527SOL    HW211481   5.438   3.730   6.996
 3528SOL     OW11482   1.693   6.963   4.548
 3528SOL    HW111483   1.762   6.924   4.487
 3528SOL    HW211484   1.602   6.934   4.518
 3529SOL     OW11485   3.808   5.691   6.994
 3529SOL    HW111486   3.842   5.741   0.050
 3529SOL    HW211487   3.885   5.662   6.937
 3530SOL     OW11488   1.870   5.737   3.125
 3530SOL    HW111489   1.868   5.837   3.113
 3530SOL    HW211490   1.809   5.695   3.059
 3531SOL     OW11491   4.965   4.938   0.128
 3531SOL    HW111492   4.979   4.845   0.163
 3531SOL    HW211493   5.050   4.971   0.088
 3532SOL     OW11494   2.586   6.695   0.859
 3532SOL    HW111495   2.614   6.626   0.925
 3532SOL    HW211496   2.546   6.773   0.907
 3533SOL     OW11497   1.408   0.738   3.447
 3533SOL    HW111498   1.460   0.683   3.382
 3533SOL    HW211499   1.311   0.740   3.419
 3534SOL     OW11500   5.298   6.943   4.216
 3534SOL    HW111501   5.348   7.013   4.166
 3534SOL    HW211502   5.301   6.964   4.314
 3535SOL     OW11503   4.681   6.085   0.221
 3535SOL    HW111504   4.620   6.160   0.197
 3535SOL    HW211505   4.743   6.115   0.294
 3536SOL     OW11506   1.267   3.403   2.588
 3536SOL    HW111507   1.366   3.410   2.576
 3536SOL    HW211508   1.223   3.397   2.499
 3537SOL     OW11509   2.955   5.099   1.896
 3537SOL    HW111510   2.989   5.058   1.981
 3537SOL    HW211511   2.872   5.150   1.914
 3538SOL     OW11512   4.111   0.755   3.613
 3538SOL    HW111513   4.022   0.782   3.648
 3538SOL    HW211514   4.168   0.836   3.599
 3539SOL     OW11515   4.766   5.569   5.056
 3539SOL    HW111516   4.748   5.664   5.032
 3539SOL    HW211517   4.857   5.562   5.097
 3540SOL     OW11518   3.841   4.730   6.397
 3540SOL    HW111519   3.770   4.691   6.456
 3540SOL    HW211520   3.888   4.657   6.348
 3541SOL     OW11521   0.265   2.750   2.340
 3541SOL    HW111522   0.324   2.750   2.259
 3541SOL    HW211523   0.293   2.825   2.400
 3542SOL     OW11524   5.887   1.839   0.219
 3542SOL    HW111525   5.826   1.908   0.179
 3542SOL    HW211526   5.956   1.884   0.275
 3543SOL     OW11527   6.891   2.928   4.046
 3543SOL    HW111528   6.908   3.024   4.068
 3543SOL    HW211529   6.860   2.920   3.952
 3544SOL     OW11530   2.842   4.572   6.040
 3544SOL    HW111531   2.780   4.598   6.114
 3544SOL    HW211532   2.825   4.630   5.960
 3545SOL     OW11533   3.600   6.629   1.092
 3545SOL    HW111534   3.640   6.689   1.162
 3545SOL    HW211535   3.519   6.673   1.053
 3546SOL     OW11536   6.183   4.518   1.466
 3546SOL    HW111537   6.234   4.510   1.380
 3546SOL    HW211538   6.246   4.547   1.539
 3547SOL     OW11539   1.140   4.015   4.535
 3547SOL    HW111540   1.130   4.104   4.489
 3547SOL    HW211541   1.210   3.961   4.488
 3548SOL     OW11542   6.494   0.404   5.767
 3548SOL    HW111543   6.517   0.430   5.861
 3548SOL    HW211544   6.540   0.318   5.744
 3549SOL     OW11545   2.234   6.779   6.618
 3549SOL    HW111546   2.148   6.731   6.600
 3549SOL    HW211547   2.272   6.747   6.705
 3550SOL     OW11548   5.783   1.813   6.009
 3550SOL    HW111549   5.824   1.736   5.961
 3550SOL    HW211550   5.779   1.892   5.947
 3551SOL     OW11551   5.576   1.434   5.320
 3551SOL    HW111552   5.640   1.362   5.292
 3551SOL    HW211553   5.522   1.402   5.398
 3552SOL     OW11554   0.126   0.413   3.443
 3552SOL    HW111555   0.203   0.355   3.416
 3552SOL    HW211556   0.040   0.361   3.431
 3553SOL     OW11557   6.008   6.047   6.245
 3553SOL    HW111558   6.041   6.096   6.326
 3553SOL    HW211559   5.991   5.951   6.270
 3554SOL     OW11560   5.012   4.351   6.829
 3554SOL    HW111561   5.002   4.345   6.929
 3554SOL    HW211562   5.098   4.307   6.802
 3555SOL     OW11563   2.496   1.548   5.601
 3555SOL    HW111564   2.535   1.471   5.651
 3555SOL    HW211565   2.523   1.542   5.505
 3556SOL     OW11566   6.072   1.115   0.497
 3556SOL    HW111567   6.084   1.078   0.589
 3556SOL    HW211568   5.997   1.067   0.451
 3557SOL     OW11569   4.640   6.179   1.413
 3557SOL    HW111570   4.725   6.212   1.453
 3557SOL    HW211571   4.618   6.234   1.332
 3558SOL     OW11572   4.323   5.405   2.117
 3558SOL    HW111573   4.293   5.392   2.022
 3558SOL    HW211574   4.374   5.324   2.147
 3559SOL     OW11575   4.072   6.273   6.361
 3559SOL    HW111576   4.145   6.341   6.370
 3559SOL    HW211577   3.983   6.317   6.373
 3560SOL     OW11578   2.128   5.870   4.349
 3560SOL    HW111579   2.149   5.919   4.434
 3560SOL    HW211580   2.120   5.772   4.367
 3561SOL     OW11581   3.557   3.120   6.027
 3561SOL    HW111582   3.609   3.125   5.942
 3561SOL    HW211583   3.498   3.200   6.034
 3562SOL     OW11584   2.979   1.299   0.766
 3562SOL    HW111585   3.033   1.243   0.829
 3562SOL    HW211586   2.932   1.239   0.701
 3563SOL     OW11587   0.159   2.471   6.882
 3563SOL    HW111588   0.189   2.547   6.940
 3563SOL    HW211589   0.060   2.457   6.895
 3564SOL     OW11590   6.434   3.630   3.276
 3564SOL    HW111591   6.386   3.625   3.188
 3564SOL    HW211592   6.455   3.726   3.296
 3565SOL     OW11593   5.016   6.511   4.841
 3565SOL    HW111594   4.940   6.554   4.794
 3565SOL    HW211595   4.986   6.476   4.930
 3566SOL     OW11596   1.020   0.923   5.889
 3566SOL    HW111597   1.030   0.922   5.989
 3566SOL    HW211598   1.096   0.873   5.848
 3567SOL     OW11599   0.285   4.765   0.024
 3567SOL    HW111600   0.316   4.694   6.985
 3567SOL    HW211601   0.299   4.735   0.118
 3568SOL     OW11602   3.686   3.991   5.513
 3568SOL    HW111603   3.712   3.935   5.434
 3568SOL    HW211604   3.676   3.933   5.593
 3569SOL     OW11605   1.845   0.778   3.166
 3569SOL    HW111606   1.877   0.687   3.194
 3569SOL    HW211607   1.825   0.778   3.068
 3570SOL     OW11608   6.255   1.870   4.590
 3570SOL    HW111609   6.259   1.865   4.490
 3570SOL    HW211610   6.171   1.827   4.623
 3571SOL     OW11611   6.124   5.538   4.485
 3571SOL    HW111612   6.122   5.631   4.523
 3571SOL    HW211613   6.059   5.480   4.533
 3572SOL     OW11614   5.782   0.009   5.540
 3572SOL    HW111615   5.789   0.093   5.593
 3572SOL    HW211616   5.847   6.966   5.575
 3573SOL     OW11617   0.288   2.349   1.205
 3573SOL    HW111618   0.226   2.273   1.224
 3573SOL    HW211619   0.248   2.434   1.239
 3574SOL     OW11620   6.262   3.485   0.330
 3574SOL    HW111621   6.279   3.452   0.237
 3574SOL    HW211622   6.198   3.423   0.376
 3575SOL     OW11623   6.521   6.940   1.914
 3575SOL    HW111624   6.590   7.010   1.901
 3575SOL    HW211625   6.500   6.931   2.011
 3576SOL     OW11626   0.344   0.775   0.391
 3576SOL    HW111627   0.444   0.781   0.387
 3576SOL    HW211628   0.309   0.738   0.305
 3577SOL     OW11629   2.611   4.737   6.935
 3577SOL    HW111630   2.635   4.692   6.849
 3577SOL    HW211631   2.512   4.729   6.949
 3578SOL     OW11632   3.463   4.575   1.597
 3578SOL    HW111633   3.492   4.606   1.687
 3578SOL    HW211634   3.363   4.575   1.593
 3579SOL     OW11635   1.735   3.704   5.500
 3579SOL    HW111636   1.739   3.613   5.541
 3579SOL    HW211637   1.649   3.749   5.526
 3580SOL     OW11638   5.945   2.294   0.529
 3580SOL    HW111639   5.990   2.382   0.543
 3580SOL    HW211640   5.872   2.283   0.596
 3581SOL     OW11641   6.842   0.547   3.113
 3581SOL    HW111642   6.934   0.530   3.078
 3581SOL    HW211643   6.824   0.487   3.192
 3582SOL     OW11644   0.259   0.261   5.942
 3582SOL    HW111645   0.200   0.342   5.952
 3582SOL    HW211646   0.201   0.180   5.928
 3583SOL     OW11647   0.951   5.904   1.535
 3583SOL    HW111648   0.957   5.805   1.519
 3583SOL    HW211649   1.021   5.950   1.482
 3584SOL     OW11650   5.677   0.699   5.121
 3584SOL    HW111651   5.671   0.625   5.188
 3584SOL    HW211652   5.667   0.662   5.029
 3585SOL     OW11653   2.483   4.524   3.497
 3585SOL    HW111654   2.517   4.516   3.591
 3585SOL    HW211655   2.384   4.515   3.497
 3586SOL     OW11656   1.150   1.266   6.395
 3586SOL    HW111657   1.239   1.234   6.363
 3586SOL    HW211658   1.138   1.242   6.491
 3587SOL     OW11659   3.381   6.754   6.503
 3587SOL    HW111660   3.377   6.703   6.589
 3587SOL    HW211661   3.396   6.851   6.521
 3588SOL     OW11662   2.616   2.174   5.480
 3588SOL    HW111663   2.603   2.186   5.382
 3588SOL    HW211664   2.708   2.203   5.506
 3589SOL     OW11665   3.014   6.365   4.565
 3589SOL    HW111666   2.951   6.409   4.628
 3589SOL    HW211667   3.012   6.266   4.580
 3590SOL     OW11668   1.233   5.528   6.511
 3590SOL    HW111669   1.212   5.599   6.444
 3590SOL    HW211670   1.318   5.482   6.486
 3591SOL     OW11671   5.134   1.326   5.337
 3591SOL    HW111672   5.207   1.276   5.289
 3591SOL    HW211673   5.047   1.280   5.322
 3592SOL     OW11674   5.936   1.872   1.943
 3592SOL    HW111675   5.883   1.931   2.003
 3592SOL    HW211676   5.890   1.784   1.934
 3593SOL     OW11677   1.102   5.324   4.378
 3593SOL    HW111678   1.108   5.345   4.280
 3593SOL    HW211679   1.049   5.241   4.390
 3594SOL     OW11680   3.922   1.412   4.178
 3594SOL    HW111681   4.009   1.364   4.176
 3594SOL    HW211682   3.853   1.358   4.131
 3595SOL     OW11683   2.423   6.178   5.621
 3595SOL    HW111684   2.385   6.188   5.713
 3595SOL    HW211685   2.404   6.262   5.568
 3596SOL     OW11686   0.335   3.604   3.313
 3596SOL    HW111687   0.401   3.677   3.292
 3596SOL    HW211688   0.328   3.543   3.234
 3597SOL     OW11689   4.103   0.129   4.280
 3597SOL    HW111690   4.121   0.084   4.368
 3597SOL    HW211691   4.136   0.070   4.206
 3598SOL     OW11692   1.674   0.207   6.845
 3598SOL    HW111693   1.759   0.260   6.853
 3598SOL    HW211694   1.598   0.268   6.825
 3599SOL     OW11695   6.948   1.761   4.917
 3599SOL    HW111696   6.878   1.782   4.848
 3599SOL    HW211697   0.014   1.786   4.882
 3600SOL     OW11698   6.390   6.687   1.368
 3600SOL    HW111699   6.426   6.621   1.434
 3600SOL    HW211700   6.355   6.767   1.417
 3601SOL     OW11701   6.447   3.641   6.234
 3601SOL    HW111702   6.545   3.632   6.217
 3601SOL    HW211703   6.419   3.575   6.304
 3602SOL     OW11704   3.163   2.271   1.082
 3602SOL    HW111705   3.192   2.297   0.990
 3602SOL    HW211706   3.148   2.173   1.086
 3603SOL     OW11707   3.764   4.973   4.769
 3603SOL    HW111708   3.815   5.058   4.758
 3603SOL    HW211709   3.696   4.984   4.842
 3604SOL     OW11710   6.175   4.092   3.090
 3604SOL    HW111711   6.100   4.033   3.117
 3604SOL    HW211712   6.240   4.101   3.166
 3605SOL     OW11713   5.984   1.899   6.312
 3605SOL    HW111714   5.965   1.859   6.402
 3605SOL    HW211715   6.009   1.826   6.248
 3606SOL     OW11716   2.291   4.146   3.142
 3606SOL    HW111717   2.296   4.049   3.164
 3606SOL    HW211718   2.361   4.196   3.194
 3607SOL     OW11719   4.381   0.121   6.691
 3607SOL    HW111720   4.306   0.061   6.720
 3607SOL    HW211721   4.368   0.144   6.594
 3608SOL     OW11722   0.936   3.179   3.335
 3608SOL    HW111723   0.908   3.210   3.427
 3608SOL    HW211724   0.964   3.083   3.340
 3609SOL     OW11725   0.075   0.027   4.094
 3609SOL    HW111726   0.158   0.074   4.124
 3609SOL    HW211727   0.081   6.955   4.119
 3610SOL     OW11728   1.404   5.197   6.087
 3610SOL    HW111729   1.417   5.267   6.158
 3610SOL    HW211730   1.384   5.241   6.000
 3611SOL     OW11731   4.615   5.489   5.287
 3611SOL    HW111732   4.539   5.435   5.251
 3611SOL    HW211733   4.677   5.513   5.212
 3612SOL     OW11734   2.231   5.906   1.010
 3612SOL    HW111735   2.144   5.934   1.051
 3612SOL    HW211736   2.271   5.832   1.064
 3613SOL     OW11737   5.028   5.061   6.124
 3613SOL    HW111738   5.009   4.980   6.179
 3613SOL    HW211739   4.945   5.117   6.117
 3614SOL     OW11740   3.574   2.873   4.327
 3614SOL    HW111741   3.638   2.878   4.251
 3614SOL    HW211742   3.480   2.886   4.294
 3615SOL     OW11743   5.115   6.573   6.255
 3615SOL    HW111744   5.136   6.589   6.351
 3615SOL    HW211745   5.198   6.585   6.200
 3616SOL     OW11746   6.354   0.862   4.571
 3616SOL    HW111747   6.412   0.872   4.490
 3616SOL    HW211748   6.411   0.842   4.651
 3617SOL     OW11749   0.080   1.069   0.347
 3617SOL    HW111750   0.132   0.988   0.373
 3617SOL    HW211751   0.120   1.108   0.263
 3618SOL     OW11752   3.048   6.421   6.230
 3618SOL    HW111753   3.024   6.333   6.189
 3618SOL    HW211754   3.069   6.408   6.327
 3619SOL     OW11755   5.468   3.535   3.468
 3619SOL    HW111756   5.408   3.487   3.404
 3619SOL    HW211757   5.549   3.568   3.419
 3620SOL     OW11758   5.986   1.540   5.202
 3620SOL    HW111759   5.923   1.546   5.125
 3620SOL    HW211760   6.076   1.573   5.173
 3621SOL     OW11761   1.560   2.833   5.614
 3621SOL    HW111762   1.490   2.853   5.682
 3621SOL    HW211763   1.548   2.893   5.535
 3622SOL     OW11764   0.674   3.792   1.114
 3622SOL    HW111765   0.751   3.728   1.119
 3622SOL    HW211766   0.594   3.744   1.078
 3623SOL     OW11767   6.860   4.850   3.908
 3623SOL    HW111768   6.816   4.935   3.878
 3623SOL    HW211769   6.822   4.773   3.856
 3624SOL     OW11770   2.495   0.809   1.527
 3624SOL    HW111771   2.566   0.879   1.525
 3624SOL    HW211772   2.429   0.826   1.454
 3625SOL     OW11773   0.839   2.905   4.355
 3625SOL    HW111774   0.855   2.820   4.405
 3625SOL    HW211775   0.918   2.926   4.298
 3626SOL     OW11776   2.595   3.954   5.619
 3626SOL    HW111777   2.651   4.036   5.609
 3626SOL    HW211778   2.516   3.960   5.557
 3627SOL     OW11779   3.290   3.267   4.012
 3627SOL    HW111780   3.240   3.354   4.014
 3627SOL    HW211781   3.361   3.271   3.942
 3628SOL     OW11782   2.739   5.980   4.171
 3628SOL    HW111783   2.808   5.926   4.221
 3628SOL    HW211784   2.702   5.925   4.097
 3629SOL     OW11785   5.748   3.324   5.058
 3629SOL    HW111786   5.743   3.322   5.158
 3629SOL    HW211787   5.692   3.399   5.024
 3630SOL     OW11788   5.497   1.097   4.862
 3630SOL    HW111789   5.533   1.005   4.876
 3630SOL    HW211790   5.487   1.143   4.951
 3631SOL     OW11791   1.997   1.006   3.954
 3631SOL    HW111792   2.014   1.102   3.979
 3631SOL    HW211793   1.988   0.952   4.037
 3632SOL     OW11794   4.091   6.910   6.107
 3632SOL    HW111795   4.111   6.951   6.195
 3632SOL    HW211796   4.065   6.814   6.120
 3633SOL     OW11797   1.207   2.900   5.506
 3633SOL    HW111798   1.121   2.945   5.486
 3633SOL    HW211799   1.281   2.946   5.456
 3634SOL     OW11800   3.135   4.995   6.046
 3634SOL    HW111801   3.097   5.086   6.058
 3634SOL    HW211802   3.232   4.996   6.070
 3635SOL     OW11803   2.212   1.378   4.766
 3635SOL    HW111804   2.192   1.332   4.853
 3635SOL    HW211805   2.126   1.413   4.726
 3636SOL     OW11806   1.282   6.189   0.791
 3636SOL    HW111807   1.322   6.216   0.879
 3636SOL    HW211808   1.315   6.097   0.767
 3637SOL     OW11809   4.814   0.792   1.614
 3637SOL    HW111810   4.718   0.776   1.594
 3637SOL    HW211811   4.825   0.880   1.661
 3638SOL     OW11812   6.511   4.715   3.366
 3638SOL    HW111813   6.575   4.778   3.322
 3638SOL    HW211814   6.559   4.662   3.436
 3639SOL     OW11815   2.576   6.255   0.499
 3639SOL    HW111816   2.509   6.245   0.426
 3639SOL    HW211817   2.568   6.346   0.540
 3640SOL     OW11818   2.185   0.032   1.597
 3640SOL    HW111819   2.252   0.076   1.538
 3640SOL    HW211820   2.119   0.100   1.629
 3641SOL     OW11821   1.894   0.694   4.750
 3641SOL    HW111822   1.914   0.596   4.742
 3641SOL    HW211823   1.906   0.723   4.845
 3642SOL     OW11824   6.304   6.788   2.033
 3642SOL    HW111825   6.210   6.803   2.064
 3642SOL    HW211826   6.304   6.765   1.936
 3643SOL     OW11827   3.569   5.729   4.873
 3643SOL    HW111828   3.535   5.819   4.900
 3643SOL    HW211829   3.665   5.735   4.847
 3644SOL     OW11830   6.663   0.068   1.414
 3644SOL    HW111831   6.735   0.075   1.346
 3644SOL    HW211832   6.590   0.132   1.392
 3645SOL     OW11833   4.041   5.811   3.104
 3645SOL    HW111834   4.131   5.823   3.062
 3645SOL    HW211835   3.973   5.797   3.033
 3646SOL     OW11836   0.018   5.301   4.907
 3646SOL    HW111837   0.014   5.398   4.931
 3646SOL    HW211838   7.021   5.246   4.988
 3647SOL     OW11839   2.947   2.700   1.002
 3647SOL    HW111840   2.958   2.621   1.063
 3647SOL    HW211841   3.035   2.723   0.961
 3648SOL     OW11842   3.175   6.830   3.061
 3648SOL    HW111843   3.263   6.830   3.110
 3648SOL    HW211844   3.148   6.924   3.041
 3649SOL     OW11845   3.297   2.780   2.032
 3649SOL    HW111846   3.272   2.685   2.052
 3649SOL    HW211847   3.305   2.831   2.117
 3650SOL     OW11848   5.753   6.891   1.257
 3650SOL    HW111849   5.678   6.947   1.223
 3650SOL    HW211850   5.828   6.892   1.191
 3651SOL     OW11851   1.476   6.297   2.248
 3651SOL    HW111852   1.499   6.200   2.237
 3651SOL    HW211853   1.549   6.342   2.301
 3652SOL     OW11854   4.350   5.457   2.983
 3652SOL    HW111855   4.307   5.367   2.989
 3652SOL    HW211856   4.325   5.500   2.897
 3653SOL     OW11857   6.393   2.816   4.673
 3653SOL    HW111858   6.493   2.826   4.670
 3653SOL    HW211859   6.352   2.906   4.685
 3654SOL     OW11860   1.585   6.990   1.380
 3654SOL    HW111861   1.607   6.896   1.354
 3654SOL    HW211862   1.603   7.003   1.477
 3655SOL     OW11863   6.711   1.251   3.084
 3655SOL    HW111864   6.731   1.153   3.090
 3655SOL    HW211865   6.700   1.289   3.176
 3656SOL     OW11866   2.410   1.823   3.072
 3656SOL    HW111867   2.457   1.739   3.098
 3656SOL    HW211868   2.419   1.890   3.146
 3657SOL     OW11869   4.691   5.279   2.133
 3657SOL    HW111870   4.736   5.282   2.222
 3657SOL    HW211871   4.604   5.230   2.142
 3658SOL     OW11872   2.010   5.196   5.674
 3658SOL    HW111873   1.997   5.291   5.703
 3658SOL    HW211874   1.957   5.135   5.733
 3659SOL     OW11875   1.268   3.726   0.162
 3659SOL    HW111876   1.169   3.720   0.152
 3659SOL    HW211877   1.292   3.731   0.259
 3660SOL     OW11878   4.003   4.975   0.863
 3660SOL    HW111879   3.942   5.051   0.887
 3660SOL    HW211880   4.093   5.010   0.839
 3661SOL     OW11881   5.349   1.979   1.598
 3661SOL    HW111882   5.307   2.004   1.511
 3661SOL    HW211883   5.396   2.058   1.637
 3662SOL     OW11884   1.567   6.083   4.614
 3662SOL    HW111885   1.618   6.109   4.532
 3662SOL    HW211886   1.604   6.132   4.693
 3663SOL     OW11887   1.322   3.554   5.362
 3663SOL    HW111888   1.411   3.509   5.354
 3663SOL    HW211889   1.272   3.515   5.439
 3664SOL     OW11890   3.832   6.762   2.304
 3664SOL    HW111891   3.795   6.722   2.220
 3664SOL    HW211892   3.825   6.862   2.299
 3665SOL     OW11893   1.869   1.221   5.373
 3665SOL    HW111894   1.939   1.158   5.341
 3665SOL    HW211895   1.883   1.311   5.331
 3666SOL     OW11896   0.690   4.464   4.222
 3666SOL    HW111897   0.785   4.444   4.198
 3666SOL    HW211898   0.631   4.390   4.192
 3667SOL     OW11899   0.835   1.749   6.457
 3667SOL    HW111900   0.893   1.696   6.518
 3667SOL    HW211901   0.850   1.847   6.472
 3668SOL     OW11902   2.090   6.176   1.700
 3668SOL    HW111903   2.176   6.149   1.745
 3668SOL    HW211904   2.014   6.163   1.764
 3669SOL     OW11905   5.687   1.551   3.677
 3669SOL    HW111906   5.614   1.497   3.720
 3669SOL    HW211907   5.659   1.647   3.673
 3670SOL     OW11908   2.260   5.466   6.330
 3670SOL    HW111909   2.284   5.552   6.375
 3670SOL    HW211910   2.344   5.417   6.307
 3671SOL     OW11911   1.958   0.552   3.496
 3671SOL    HW111912   1.917   0.581   3.582
 3671SOL    HW211913   2.035   0.612   3.473
 3672SOL     OW11914   6.134   0.080   0.620
 3672SOL    HW111915   6.105   0.115   0.531
 3672SOL    HW211916   6.190   7.022   0.607
 3673SOL     OW11917   4.485   0.423   6.794
 3673SOL    HW111918   4.418   0.485   6.753
 3673SOL    HW211919   4.493   0.443   6.891
 3674SOL     OW11920   1.209   6.458   0.684
 3674SOL    HW111921   1.247   6.366   0.699
 3674SOL    HW211922   1.110   6.451   0.671
 3675SOL     OW11923   1.721   2.492   4.448
 3675SOL    HW111924   1.727   2.418   4.381
 3675SOL    HW211925   1.810   2.505   4.492
 3676SOL     OW11926   1.758   4.531   2.846
 3676SOL    HW111927   1.734   4.505   2.752
 3676SOL    HW211928   1.716   4.467   2.910
 3677SOL     OW11929   6.268   6.886   3.927
 3677SOL    HW111930   6.191   6.946   3.951
 3677SOL    HW211931   6.347   6.908   3.985
 3678SOL     OW11932   1.286   1.794   3.772
 3678SOL    HW111933   1.323   1.713   3.727
 3678SOL    HW211934   1.263   1.863   3.702
 3679SOL     OW11935   6.809   0.421   1.580
 3679SOL    HW111936   6.720   0.399   1.620
 3679SOL    HW211937   6.839   0.510   1.616
 3680SOL     OW11938   5.918   4.312   4.724
 3680SOL    HW111939   5.908   4.230   4.780
 3680SOL    HW211940   5.867   4.387   4.766
 3681SOL     OW11941   5.833   6.349   4.517
 3681SOL    HW111942   5.832   6.250   4.528
 3681SOL    HW211943   5.913   6.376   4.464
 3682SOL     OW11944   1.037   2.818   6.811
 3682SOL    HW111945   1.112   2.880   6.787
 3682SOL    HW211946   0.950   2.860   6.787
 3683SOL     OW11947   5.492   6.331   4.010
 3683SOL    HW111948   5.507   6.285   4.097
 3683SOL    HW211949   5.573   6.386   3.987
 3684SOL     OW11950   1.742   3.352   0.884
 3684SOL    HW111951   1.797   3.322   0.806
 3684SOL    HW211952   1.713   3.272   0.937
 3685SOL     OW11953   5.650   6.775   6.702
 3685SOL    HW111954   5.578   6.710   6.674
 3685SOL    HW211955   5.616   6.831   6.778
 3686SOL     OW11956   7.019   4.379   1.091
 3686SOL    HW111957   6.949   4.358   1.022
 3686SOL    HW211958   0.035   4.293   1.124
 3687SOL     OW11959   3.493   1.464   0.178
 3687SOL    HW111960   3.573   1.428   0.226
 3687SOL    HW211961   3.423   1.392   0.173
 3688SOL     OW11962   6.494   3.164   0.132
 3688SOL    HW111963   6.422   3.197   0.071
 3688SOL    HW211964   6.483   3.065   0.146
 3689SOL     OW11965   2.383   6.982   3.403
 3689SOL    HW111966   2.387   6.896   3.352
 3689SOL    HW211967   2.288   7.008   3.418
 3690SOL     OW11968   4.857   5.953   5.166
 3690SOL    HW111969   4.879   5.907   5.252
 3690SOL    HW211970   4.759   5.971   5.162
 3691SOL     OW11971   2.863   2.762   6.330
 3691SOL    HW111972   2.830   2.668   6.317
 3691SOL    HW211973   2.962   2.765   6.316
 3692SOL     OW11974   0.397   6.916   6.013
 3692SOL    HW111975   0.437   7.000   6.049
 3692SOL    HW211976   0.302   6.909   6.043
 3693SOL     OW11977   1.430   1.567   3.712
 3693SOL    HW111978   1.495   1.635   3.746
 3693SOL    HW211979   1.457   1.540   3.619
 3694SOL     OW11980   1.952   5.524   2.797
 3694SOL    HW111981   1.859   5.527   2.760
 3694SOL    HW211982   1.960   5.449   2.863
 3695SOL     OW11983   1.299   2.620   1.039
 3695SOL    HW111984   1.325   2.526   1.062
 3695SOL    HW211985   1.322   2.680   1.116
 3696SOL     OW11986   3.098   6.159   5.759
 3696SOL    HW111987   3.056   6.137   5.847
 3696SOL    HW211988   3.175   6.220   5.774
 3697SOL     OW11989   5.225   0.535   3.785
 3697SOL    HW111990   5.155   0.463   3.782
 3697SOL    HW211991   5.243   0.568   3.693
 3698SOL     OW11992   3.871   0.133   6.722
 3698SOL    HW111993   3.826   0.121   6.810
 3698SOL    HW211994   3.815   0.090   6.650
 3699SOL     OW11995   0.748   4.760   1.700
 3699SOL    HW111996   0.732   4.846   1.653
 3699SOL    HW211997   0.769   4.778   1.796
 3700SOL     OW11998   0.124   0.710   3.412
 3700SOL    HW111999   0.221   0.725   3.432
 3700SOL    HW212000   0.112   0.622   3.368
 3701SOL     OW12001   5.472   0.763   3.584
 3701SOL    HW112002   5.528   0.683   3.563
 3701SOL    HW212003   5.376   0.743   3.563
 3702SOL     OW12004   5.327   1.109   6.116
 3702SOL    HW112005   5.411   1.070   6.155
 3702SOL    HW212006   5.270   1.034   6.080
 3703SOL     OW12007   3.602   4.869   0.608
 3703SOL    HW112008   3.520   4.813   0.618
 3703SOL    HW212009   3.627   4.873   0.511
 3704SOL     OW12010   2.802   6.697   1.868
 3704SOL    HW112011   2.855   6.688   1.783
 3704SOL    HW212012   2.756   6.786   1.869
 3705SOL     OW12013   6.183   1.046   4.148
 3705SOL    HW112014   6.083   1.054   4.137
 3705SOL    HW212015   6.209   0.950   4.146
 3706SOL     OW12016   3.028   2.022   3.588
 3706SOL    HW112017   2.987   1.932   3.603
 3706SOL    HW212018   2.981   2.090   3.644
 3707SOL     OW12019   4.373   2.463   5.533
 3707SOL    HW112020   4.373   2.553   5.576
 3707SOL    HW212021   4.303   2.405   5.576
 3708SOL     OW12022   6.721   0.167   6.706
 3708SOL    HW112023   6.819   0.172   6.688
 3708SOL    HW212024   6.690   0.253   6.749
 3709SOL     OW12025   5.680   0.249   0.124
 3709SOL    HW112026   5.663   0.169   0.181
 3709SOL    HW212027   5.777   0.274   0.129
 3710SOL     OW12028   0.367   4.558   6.890
 3710SOL    HW112029   0.389   4.477   6.945
 3710SOL    HW212030   0.332   4.529   6.801
 3711SOL     OW12031   6.991   5.460   2.375
 3711SOL    HW112032   0.048   5.403   2.386
 3711SOL    HW212033   6.909   5.403   2.382
 3712SOL     OW12034   1.504   0.384   0.091
 3712SOL    HW112035   1.519   0.356   7.021
 3712SOL    HW212036   1.412   0.358   0.120
 3713SOL     OW12037   3.809   4.782   5.957
 3713SOL    HW112038   3.803   4.879   5.934
 3713SOL    HW212039   3.892   4.766   6.011
 3714SOL     OW12040   4.373   1.538   5.082
 3714SOL    HW112041   4.284   1.497   5.061
 3714SOL    HW212042   4.430   1.471   5.131
 3715SOL     OW12043   5.623   4.123   4.279
 3715SOL    HW112044   5.677   4.154   4.201
 3715SOL    HW212045   5.553   4.191   4.301
 3716SOL     OW12046   0.475   1.573   4.032
 3716SOL    HW112047   0.406   1.517   4.079
 3716SOL    HW212048   0.515   1.522   3.957
 3717SOL     OW12049   6.254   0.723   0.249
 3717SOL    HW112050   6.343   0.687   0.221
 3717SOL    HW212051   6.213   0.775   0.174
 3718SOL     OW12052   0.676   5.492   0.003
 3718SOL    HW112053   0.637   5.405   6.997
 3718SOL    HW212054   0.605   5.548   0.044
 3719SOL     OW12055   3.608   4.752   0.299
 3719SOL    HW112056   3.564   4.665   0.322
 3719SOL    HW212057   3.565   4.790   0.216
 3720SOL     OW12058   0.292   1.116   5.635
 3720SOL    HW112059   0.256   1.155   5.720
 3720SOL    HW212060   0.307   1.189   5.569
 3721SOL     OW12061   4.714   3.571   0.349
 3721SOL    HW112062   4.620   3.578   0.315
 3721SOL    HW212063   4.715   3.595   0.446
 3722SOL     OW12064   5.723   5.897   1.508
 3722SOL    HW112065   5.655   5.829   1.536
 3722SOL    HW212066   5.690   5.944   1.426
 3723SOL     OW12067   4.937   0.803   0.497
 3723SOL    HW112068   4.899   0.729   0.553
 3723SOL    HW212069   4.888   0.807   0.410
 3724SOL     OW12070   0.081   4.979   5.628
 3724SOL    HW112071   7.007   4.990   5.638
 3724SOL    HW212072   0.106   4.988   5.532
 3725SOL     OW12073   5.738   6.003   0.782
 3725SOL    HW112074   5.640   6.020   0.782
 3725SOL    HW212075   5.786   6.084   0.748
 3726SOL     OW12076   6.041   2.959   1.256
 3726SOL    HW112077   6.061   3.032   1.320
 3726SOL    HW212078   6.054   2.870   1.300
 3727SOL     OW12079   2.467   2.852   5.385
 3727SOL    HW112080   2.492   2.929   5.326
 3727SOL    HW212081   2.371   2.859   5.412
 3728SOL     OW12082   0.585   3.448   6.879
 3728SOL    HW112083   0.664   3.456   6.940
 3728SOL    HW212084   0.616   3.450   6.784
 3729SOL     OW12085   0.548   2.768   3.710
 3729SOL    HW112086   0.630   2.821   3.688
 3729SOL    HW212087   0.504   2.738   3.625
 3730SOL     OW12088   2.184   0.452   0.949
 3730SOL    HW112089   2.135   0.445   0.862
 3730SOL    HW212090   2.175   0.365   0.999
 3731SOL     OW12091   3.258   5.749   6.510
 3731SOL    HW112092   3.309   5.789   6.586
 3731SOL    HW212093   3.164   5.784   6.511
 3732SOL     OW12094   2.128   3.666   4.549
 3732SOL    HW112095   2.210   3.628   4.506
 3732SOL    HW212096   2.053   3.667   4.482
 3733SOL     OW12097   3.388   3.287   0.959
 3733SOL    HW112098   3.474   3.237   0.966
 3733SOL    HW212099   3.336   3.253   0.881
 3734SOL     OW12100   4.875   0.135   4.230
 3734SOL    HW112101   4.926   0.105   4.149
 3734SOL    HW212102   4.777   0.118   4.216
 3735SOL     OW12103   3.719   1.940   1.966
 3735SOL    HW112104   3.652   1.888   1.913
 3735SOL    HW212105   3.694   2.037   1.965
 3736SOL     OW12106   4.967   0.796   5.810
 3736SOL    HW112107   4.987   0.891   5.785
 3736SOL    HW212108   4.869   0.787   5.831
 3737SOL     OW12109   3.850   6.998   4.053
 3737SOL    HW112110   3.919   6.938   4.013
 3737SOL    HW212111   3.841   6.978   4.151
 3738SOL     OW12112   0.046   6.931   4.503
 3738SOL    HW112113   0.036   6.913   4.601
 3738SOL    HW212114   6.987   6.974   4.468
 3739SOL     OW12115   1.194   3.372   1.621
 3739SOL    HW112116   1.283   3.416   1.630
 3739SOL    HW212117   1.198   3.281   1.662
 3740SOL     OW12118   5.574   0.499   6.688
 3740SOL    HW112119   5.574   0.414   6.635
 3740SOL    HW212120   5.480   0.532   6.696
 3741SOL     OW12121   3.382   2.395   6.913
 3741SOL    HW112122   3.408   2.443   6.997
 3741SOL    HW212123   3.302   2.337   6.931
 3742SOL     OW12124   3.279   3.378   5.535
 3742SOL    HW112125   3.209   3.363   5.465
 3742SOL    HW212126   3.262   3.466   5.580
 3743SOL     OW12127   1.158   5.682   6.297
 3743SOL    HW112128   1.064   5.650   6.312
 3743SOL    HW212129   1.160   5.782   6.300
 3744SOL     OW12130   6.688   5.158   2.887
 3744SOL    HW112131   6.603   5.121   2.922
 3744SOL    HW212132   6.764   5.128   2.945
 3745SOL     OW12133   5.132   5.743   1.787
 3745SOL    HW112134   5.193   5.667   1.764
 3745SOL    HW212135   5.180   5.809   1.844
 3746SOL     OW12136   4.301   1.291   1.704
 3746SOL    HW112137   4.222   1.233   1.687
 3746SOL    HW212138   4.292   1.334   1.794
 3747SOL     OW12139   2.821   0.371   0.502
 3747SOL    HW112140   2.814   0.435   0.426
 3747SOL    HW212141   2.752   0.395   0.571
 3748SOL     OW12142   5.149   0.170   1.753
 3748SOL    HW112143   5.068   0.131   1.798
 3748SOL    HW212144   5.168   0.260   1.792
 3749SOL     OW12145   1.530   0.726   4.189
 3749SOL    HW112146   1.501   0.669   4.112
 3749SOL    HW212147   1.532   0.670   4.272
 3750SOL     OW12148   6.899   4.352   6.404
 3750SOL    HW112149   6.863   4.400   6.324
 3750SOL    HW212150   6.879   4.405   6.486
 3751SOL     OW12151   1.404   4.655   1.510
 3751SOL    HW112152   1.345   4.710   1.451
 3751SOL    HW212153   1.386   4.558   1.496
 3752SOL     OW12154   4.760   5.761   0.048
 3752SOL    HW112155   4.667   5.735   0.074
 3752SOL    HW212156   4.761   5.855   0.015
 3753SOL     OW12157   0.341   0.232   3.386
 3753SOL    HW112158   0.370   0.269   3.475
 3753SOL    HW212159   0.383   0.143   3.372
 3754SOL     OW12160   3.015   1.277   1.638
 3754SOL    HW112161   2.963   1.245   1.717
 3754SOL    HW212162   2.964   1.258   1.554
 3755SOL     OW12163   2.494   5.531   4.310
 3755SOL    HW112164   2.514   5.620   4.351
 3755SOL    HW212165   2.570   5.468   4.325
 3756SOL     OW12166   1.171   6.997   0.564
 3756SOL    HW112167   1.124   6.913   0.591
 3756SOL    HW212168   1.221   6.982   0.478
 3757SOL     OW12169   0.489   4.111   0.713
 3757SOL    HW112170   0.443   4.048   0.776
 3757SOL    HW212171   0.427   4.133   0.638
 3758SOL     OW12172   1.639   6.896   4.103
 3758SOL    HW112173   1.712   6.963   4.089
 3758SOL    HW212174   1.652   6.818   4.041
 3759SOL     OW12175   5.343   0.268   4.189
 3759SOL    HW112176   5.394   0.248   4.272
 3759SOL    HW212177   5.376   0.210   4.114
 3760SOL     OW12178   1.192   1.011   3.139
 3760SOL    HW112179   1.276   1.007   3.195
 3760SOL    HW212180   1.214   0.986   3.045
 3761SOL     OW12181   4.583   1.882   5.568
 3761SOL    HW112182   4.666   1.936   5.553
 3761SOL    HW212183   4.567   1.823   5.489
 3762SOL     OW12184   0.611   2.501   4.142
 3762SOL    HW112185   0.620   2.580   4.203
 3762SOL    HW212186   0.578   2.532   4.053
 3763SOL     OW12187   0.454   5.613   6.790
 3763SOL    HW112188   0.421   5.561   6.712
 3763SOL    HW212189   0.552   5.594   6.804
 3764SOL     OW12190   2.878   1.116   2.768
 3764SOL    HW112191   2.950   1.054   2.803
 3764SOL    HW212192   2.797   1.062   2.744
 3765SOL     OW12193   5.279   2.733   2.667
 3765SOL    HW112194   5.224   2.812   2.639
 3765SOL    HW212195   5.282   2.728   2.767
 3766SOL     OW12196   1.424   2.872   2.453
 3766SOL    HW112197   1.372   2.840   2.532
 3766SOL    HW212198   1.389   2.829   2.370
 3767SOL     OW12199   1.885   6.040   5.986
 3767SOL    HW112200   1.879   6.135   6.017
 3767SOL    HW212201   1.800   5.993   6.007
 3768SOL     OW12202   1.902   6.613   2.546
 3768SOL    HW112203   1.918   6.711   2.551
 3768SOL    HW212204   1.984   6.567   2.513
 3769SOL     OW12205   5.025   5.474   4.391
 3769SOL    HW112206   4.993   5.385   4.358
 3769SOL    HW212207   4.964   5.506   4.464
 3770SOL     OW12208   2.997   0.373   1.390
 3770SOL    HW112209   3.052   0.432   1.330
 3770SOL    HW212210   3.058   0.324   1.453
 3771SOL     OW12211   6.693   5.875   5.529
 3771SOL    HW112212   6.744   5.789   5.533
 3771SOL    HW212213   6.667   5.894   5.435
 3772SOL     OW12214   1.922   6.107   1.929
 3772SOL    HW112215   1.825   6.081   1.935
 3772SOL    HW212216   1.947   6.160   2.010
 3773SOL     OW12217   4.677   4.984   0.099
 3773SOL    HW112218   4.653   4.948   0.190
 3773SOL    HW212219   4.777   4.993   0.092
 3774SOL     OW12220   6.879   4.747   1.806
 3774SOL    HW112221   6.865   4.662   1.755
 3774SOL    HW212222   6.976   4.771   1.807
 3775SOL     OW12223   5.123   5.373   4.918
 3775SOL    HW112224   5.161   5.372   5.010
 3775SOL    HW212225   5.183   5.322   4.857
 3776SOL     OW12226   4.136   2.841   6.261
 3776SOL    HW112227   4.067   2.904   6.224
 3776SOL    HW212228   4.158   2.772   6.192
 3777SOL     OW12229   2.993   5.265   3.948
 3777SOL    HW112230   2.929   5.219   4.010
 3777SOL    HW212231   3.000   5.212   3.863
 3778SOL     OW12232   2.833   4.904   6.894
 3778SOL    HW112233   2.777   4.825   6.916
 3778SOL    HW212234   2.800   4.946   6.809
 3779SOL     OW12235   6.664   4.597   6.799
 3779SOL    HW112236   6.598   4.672   6.809
 3779SOL    HW212237   6.670   4.571   6.703
 3780SOL     OW12238   6.178   3.075   1.931
 3780SOL    HW112239   6.188   2.980   1.960
 3780SOL    HW212240   6.164   3.079   1.832
 3781SOL     OW12241   1.629   6.706   5.760
 3781SOL    HW112242   1.674   6.780   5.710
 3781SOL    HW212243   1.534   6.697   5.728
 3782SOL     OW12244   4.168   5.447   0.050
 3782SOL    HW112245   4.118   5.361   0.059
 3782SOL    HW212246   4.144   5.508   0.125
 3783SOL     OW12247   4.486   5.247   5.094
 3783SOL    HW112248   4.414   5.313   5.118
 3783SOL    HW212249   4.444   5.158   5.078
 3784SOL     OW12250   5.743   3.311   5.371
 3784SOL    HW112251   5.644   3.297   5.371
 3784SOL    HW212252   5.785   3.241   5.429
 3785SOL     OW12253   1.209   2.703   3.076
 3785SOL    HW112254   1.170   2.786   3.117
 3785SOL    HW212255   1.287   2.673   3.131
 3786SOL     OW12256   1.956   2.880   5.252
 3786SOL    HW112257   1.988   2.786   5.264
 3786SOL    HW212258   2.031   2.936   5.215
 3787SOL     OW12259   4.962   6.333   4.113
 3787SOL    HW112260   4.911   6.319   4.198
 3787SOL    HW212261   4.984   6.244   4.072
 3788SOL     OW12262   5.579   3.420   5.697
 3788SOL    HW112263   5.591   3.390   5.602
 3788SOL    HW212264   5.647   3.376   5.755
 3789SOL     OW12265   2.026   3.318   1.156
 3789SOL    HW112266   2.074   3.265   1.226
 3789SOL    HW212267   2.091   3.379   1.110
 3790SOL     OW12268   0.925   6.800   1.538
 3790SOL    HW112269   1.007   6.848   1.506
 3790SOL    HW212270   0.929   6.789   1.638
 3791SOL     OW12271   5.024   0.623   4.698
 3791SOL    HW112272   5.054   0.713   4.666
 3791SOL    HW212273   4.975   0.633   4.784
 3792SOL     OW12274   6.766   0.185   3.848
 3792SOL    HW112275   6.667   0.172   3.858
 3792SOL    HW212276   6.784   0.278   3.815
 3793SOL     OW12277   3.889   4.318   0.590
 3793SOL    HW112278   3.851   4.247   0.649
 3793SOL    HW212279   3.918   4.277   0.503
 3794SOL     OW12280   1.417   5.441   6.245
 3794SOL    HW112281   1.318   5.452   6.239
 3794SOL    HW212282   1.460   5.531   6.240
 3795SOL     OW12283   3.143   6.236   1.345
 3795SOL    HW112284   3.158   6.185   1.430
 3795SOL    HW212285   3.230   6.252   1.299
 3796SOL     OW12286   5.599   0.878   6.858
 3796SOL    HW112287   5.530   0.914   6.795
 3796SOL    HW212288   5.597   0.932   6.943
 3797SOL     OW12289   0.162   2.823   0.978
 3797SOL    HW112290   0.126   2.914   0.995
 3797SOL    HW212291   0.257   2.817   1.010
 3798SOL     OW12292   1.285   5.076   3.539
 3798SOL    HW112293   1.308   5.085   3.636
 3798SOL    HW212294   1.203   5.129   3.519
 3799SOL     OW12295   6.831   1.022   3.124
 3799SOL    HW112296   6.881   0.979   3.199
 3799SOL    HW212297   6.778   0.952   3.075
 3800SOL     OW12298   5.475   2.712   2.930
 3800SOL    HW112299   5.454   2.810   2.931
 3800SOL    HW212300   5.563   2.697   2.886
 3801SOL     OW12301   6.009   1.448   0.656
 3801SOL    HW112302   5.986   1.443   0.753
 3801SOL    HW212303   6.103   1.479   0.645
 3802SOL     OW12304   6.538   3.296   2.224
 3802SOL    HW112305   6.584   3.309   2.312
 3802SOL    HW212306   6.483   3.212   2.227
 3803SOL     OW12307   4.299   4.012   5.338
 3803SOL    HW112308   4.223   4.073   5.316
 3803SOL    HW212309   4.263   3.920   5.356
 3804SOL     OW12310   3.823   6.490   3.484
 3804SOL    HW112311   3.882   6.432   3.540
 3804SOL    HW212312   3.848   6.478   3.387
 3805SOL     OW12313   2.459   1.992   6.646
 3805SOL    HW112314   2.413   2.044   6.573
 3805SOL    HW212315   2.410   1.905   6.660
 3806SOL     OW12316   2.448   4.746   1.634
 3806SOL    HW112317   2.375   4.700   1.685
 3806SOL    HW212318   2.488   4.818   1.691
 3807SOL     OW12319   0.626   4.415   3.503
 3807SOL    HW112320   0.603   4.323   3.532
 3807SOL    HW212321   0.719   4.437   3.530
 3808SOL     OW12322   3.046   6.751   5.755
 3808SOL    HW112323   3.050   6.716   5.661
 3808SOL    HW212324   2.973   6.704   5.804
 3809SOL     OW12325   5.544   1.370   1.829
 3809SOL    HW112326   5.636   1.336   1.811
 3809SOL    HW212327   5.486   1.294   1.861
 3810SOL     OW12328   4.828   2.357   2.979
 3810SOL    HW112329   4.889   2.412   2.923
 3810SOL    HW212330   4.882   2.303   3.044
 3811SOL     OW12331   6.584   6.047   5.312
 3811SOL    HW112332   6.656   6.115   5.317
 3811SOL    HW212333   6.495   6.092   5.311
 3812SOL     OW12334   4.117   5.856   0.067
 3812SOL    HW112335   4.198   5.902   0.103
 3812SOL    HW212336   4.036   5.891   0.114
 3813SOL     OW12337   5.957   4.119   0.140
 3813SOL    HW112338   6.007   4.034   0.157
 3813SOL    HW212339   5.915   4.115   0.049
 3814SOL     OW12340   0.624   0.477   5.167
 3814SOL    HW112341   0.695   0.520   5.223
 3814SOL    HW212342   0.570   0.548   5.122
 3815SOL     OW12343   5.322   3.306   6.154
 3815SOL    HW112344   5.267   3.336   6.232
 3815SOL    HW212345   5.386   3.378   6.129
 3816SOL     OW12346   6.473   6.448   0.962
 3816SOL    HW112347   6.445   6.381   0.894
 3816SOL    HW212348   6.572   6.443   0.975
 3817SOL     OW12349   4.021   3.610   1.669
 3817SOL    HW112350   4.084   3.534   1.653
 3817SOL    HW212351   4.063   3.673   1.734
 3818SOL     OW12352   5.398   5.992   2.378
 3818SOL    HW112353   5.360   6.035   2.296
 3818SOL    HW212354   5.443   5.906   2.353
 3819SOL     OW12355   6.375   3.523   3.504
 3819SOL    HW112356   6.279   3.498   3.509
 3819SOL    HW212357   6.395   3.565   3.415
 3820SOL     OW12358   3.321   6.604   5.806
 3820SOL    HW112359   3.244   6.601   5.869
 3820SOL    HW212360   3.405   6.623   5.857
 3821SOL     OW12361   2.005   0.128   0.285
 3821SOL    HW112362   2.061   0.048   0.263
 3821SOL    HW212363   1.918   0.123   0.236
 3822SOL     OW12364   4.950   6.742   2.360
 3822SOL    HW112365   4.994   6.688   2.287
 3822SOL    HW212366   4.938   6.684   2.441
 3823SOL     OW12367   5.517   6.150   4.997
 3823SOL    HW112368   5.417   6.147   4.991
 3823SOL    HW212369   5.544   6.189   5.085
 3824SOL     OW12370   2.330   2.886   0.830
 3824SOL    HW112371   2.329   2.811   0.897
 3824SOL    HW212372   2.422   2.894   0.791
 3825SOL     OW12373   0.417   5.049   5.826
 3825SOL    HW112374   0.357   4.979   5.866
 3825SOL    HW212375   0.394   5.060   5.729
 3826SOL     OW12376   5.376   3.757   3.216
 3826SOL    HW112377   5.383   3.849   3.176
 3826SOL    HW212378   5.328   3.763   3.304
 3827SOL     OW12379   0.057   2.050   6.945
 3827SOL    HW112380   0.021   2.022   0.009
 3827SOL    HW212381   0.134   2.112   6.958
 3828SOL     OW12382   4.020   3.108   4.051
 3828SOL    HW112383   4.093   3.052   4.092
 3828SOL    HW212384   3.935   3.056   4.051
 3829SOL     OW12385   0.591   2.898   1.537
 3829SOL    HW112386   0.632   2.987   1.555
 3829SOL    HW212387   0.491   2.905   1.545
 3830SOL     OW12388   5.915   0.283   3.655
 3830SOL    HW112389   6.003   0.271   3.699
 3830SOL    HW212390   5.888   0.379   3.658
 3831SOL     OW12391   4.480   2.472   3.454
 3831SOL    HW112392   4.410   2.439   3.517
 3831SOL    HW212393   4.544   2.398   3.433
 3832SOL     OW12394   6.543   0.670   3.934
 3832SOL    HW112395   6.628   0.722   3.940
 3832SOL    HW212396   6.506   0.677   3.842
 3833SOL     OW12397   1.853   2.946   5.679
 3833SOL    HW112398   1.880   2.967   5.585
 3833SOL    HW212399   1.775   2.884   5.679
 3834SOL     OW12400   5.050   4.589   1.015
 3834SOL    HW112401   5.079   4.659   1.080
 3834SOL    HW212402   4.996   4.520   1.063
 3835SOL     OW12403   4.464   5.900   5.374
 3835SOL    HW112404   4.381   5.914   5.428
 3835SOL    HW212405   4.496   5.806   5.386
 3836SOL     OW12406   6.835   6.407   4.525
 3836SOL    HW112407   6.876   6.421   4.615
 3836SOL    HW212408   6.736   6.420   4.531
 3837SOL     OW12409   4.500   4.744   6.007
 3837SOL    HW112410   4.502   4.658   6.059
 3837SOL    HW212411   4.586   4.793   6.021
 3838SOL     OW12412   6.859   0.482   3.973
 3838SOL    HW112413   6.769   0.448   4.004
 3838SOL    HW212414   6.931   0.431   4.021
 3839SOL     OW12415   4.813   0.498   3.563
 3839SOL    HW112416   4.760   0.413   3.574
 3839SOL    HW212417   4.786   0.562   3.635
 3840SOL     OW12418   3.353   1.252   6.530
 3840SOL    HW112419   3.335   1.156   6.550
 3840SOL    HW212420   3.451   1.265   6.515
 3841SOL     OW12421   6.049   4.098   3.765
 3841SOL    HW112422   6.020   4.116   3.859
 3841SOL    HW212423   5.982   4.137   3.702
 3842SOL     OW12424   2.056   4.475   6.076
 3842SOL    HW112425   1.989   4.402   6.087
 3842SOL    HW212426   2.090   4.476   5.982
 3843SOL     OW12427   5.542   2.653   5.928
 3843SOL    HW112428   5.601   2.689   6.000
 3843SOL    HW212429   5.456   2.622   5.968
 3844SOL     OW12430   6.579   0.206   0.889
 3844SOL    HW112431   6.488   0.240   0.863
 3844SOL    HW212432   6.574   0.108   0.906
 3845SOL     OW12433   1.963   5.894   0.527
 3845SOL    HW112434   1.972   5.795   0.529
 3845SOL    HW212435   1.872   5.918   0.493
 3846SOL     OW12436   0.339   3.210   2.918
 3846SOL    HW112437   0.282   3.127   2.914
 3846SOL    HW212438   0.424   3.193   2.869
 3847SOL     OW12439   0.638   1.911   6.668
 3847SOL    HW112440   0.564   1.922   6.602
 3847SOL    HW212441   0.672   2.002   6.695
 3848SOL     OW12442   6.634   4.368   1.963
 3848SOL    HW112443   6.671   4.445   2.015
 3848SOL    HW212444   6.557   4.328   2.014
 3849SOL     OW12445   0.281   4.519   6.307
 3849SOL    HW112446   0.314   4.606   6.342
 3849SOL    HW212447   0.359   4.461   6.284
 3850SOL     OW12448   3.121   2.488   1.505
 3850SOL    HW112449   3.095   2.526   1.594
 3850SOL    HW212450   3.077   2.399   1.493
 3851SOL     OW12451   0.491   6.193   2.988
 3851SOL    HW112452   0.591   6.199   2.977
 3851SOL    HW212453   0.455   6.127   2.922
 3852SOL     OW12454   1.377   0.390   4.981
 3852SOL    HW112455   1.360   0.368   4.885
 3852SOL    HW212456   1.435   0.319   5.022
 3853SOL     OW12457   2.861   0.589   3.727
 3853SOL    HW112458   2.882   0.497   3.692
 3853SOL    HW212459   2.762   0.596   3.742
 3854SOL     OW12460   0.116   2.305   1.989
 3854SOL    HW112461   0.100   2.403   2.001
 3854SOL    HW212462   0.135   2.262   2.078
 3855SOL     OW12463   3.331   6.771   6.766
 3855SOL    HW112464   3.381   6.854   6.741
 3855SOL    HW212465   3.259   6.793   6.832
 3856SOL     OW12466   7.012   2.806   6.239
 3856SOL    HW112467   0.016   2.780   6.331
 3856SOL    HW212468   0.042   2.754   6.172
 3857SOL     OW12469   2.667   0.586   6.073
 3857SOL    HW112470   2.574   0.582   6.037
 3857SOL    HW212471   2.728   0.628   6.006
 3858SOL     OW12472   4.922   1.145   4.220
 3858SOL    HW112473   4.940   1.236   4.182
 3858SOL    HW212474   4.824   1.131   4.229
 3859SOL     OW12475   5.791   6.652   1.838
 3859SOL    HW112476   5.739   6.622   1.757
 3859SOL    HW212477   5.802   6.751   1.836
 3860SOL     OW12478   1.408   6.984   4.415
 3860SOL    HW112479   1.375   6.895   4.382
 3860SOL    HW212480   1.456   0.007   4.341
 3861SOL     OW12481   2.575   5.462   1.349
 3861SOL    HW112482   2.599   5.368   1.372
 3861SOL    HW212483   2.476   5.475   1.358
 3862SOL     OW12484   1.779   0.720   4.486
 3862SOL    HW112485   1.858   0.696   4.429
 3862SOL    HW212486   1.807   0.727   4.582
 3863SOL     OW12487   3.159   0.504   0.469
 3863SOL    HW112488   3.099   0.530   0.393
 3863SOL    HW212489   3.236   0.567   0.475
 3864SOL     OW12490   1.595   0.195   4.644
 3864SOL    HW112491   1.658   0.247   4.701
 3864SOL    HW212492   1.634   0.105   4.624
 3865SOL     OW12493   5.125   1.464   0.553
 3865SOL    HW112494   5.134   1.382   0.610
 3865SOL    HW212495   5.212   1.482   0.507
 3866SOL     OW12496   2.963   1.898   6.435
 3866SOL    HW112497   2.900   1.869   6.363
 3866SOL    HW212498   3.012   1.980   6.406
 3867SOL     OW12499   0.147   3.045   2.014
 3867SOL    HW112500   0.111   2.955   1.988
 3867SOL    HW212501   0.247   3.043   2.009
 3868SOL     OW12502   4.311   0.742   0.445
 3868SOL    HW112503   4.294   0.837   0.419
 3868SOL    HW212504   4.389   0.707   0.394
 3869SOL     OW12505   4.801   1.553   4.272
 3869SOL    HW112506   4.763   1.622   4.211
 3869SOL    HW212507   4.728   1.512   4.326
 3870SOL     OW12508   0.089   0.596   5.333
 3870SOL    HW112509   0.022   0.568   5.402
 3870SOL    HW212510   0.069   0.690   5.305
 3871SOL     OW12511   2.311   5.779   4.610
 3871SOL    HW112512   2.321   5.847   4.682
 3871SOL    HW212513   2.382   5.793   4.541
 3872SOL     OW12514   2.862   3.502   5.269
 3872SOL    HW112515   2.885   3.432   5.201
 3872SOL    HW212516   2.930   3.500   5.342
 3873SOL     OW12517   3.882   1.807   0.679
 3873SOL    HW112518   3.947   1.883   0.686
 3873SOL    HW212519   3.906   1.737   0.746
 3874SOL     OW12520   2.151   1.134   0.647
 3874SOL    HW112521   2.139   1.156   0.744
 3874SOL    HW212522   2.063   1.140   0.600
 3875SOL     OW12523   0.963   2.574   6.252
 3875SOL    HW112524   0.984   2.631   6.332
 3875SOL    HW212525   0.931   2.632   6.177
 3876SOL     OW12526   3.502   5.403   2.574
 3876SOL    HW112527   3.404   5.419   2.561
 3876SOL    HW212528   3.531   5.448   2.659
 3877SOL     OW12529   0.067   2.134   6.181
 3877SOL    HW112530   0.153   2.140   6.131
 3877SOL    HW212531   0.067   2.201   6.255
 3878SOL     OW12532   5.466   1.229   4.266
 3878SOL    HW112533   5.372   1.244   4.235
 3878SOL    HW212534   5.477   1.264   4.358
 3879SOL     OW12535   5.294   5.739   0.211
 3879SOL    HW112536   5.316   5.677   0.135
 3879SOL    HW212537   5.316   5.695   0.298
 3880SOL     OW12538   4.454   4.543   4.000
 3880SOL    HW112539   4.414   4.584   4.082
 3880SOL    HW212540   4.520   4.473   4.026
 3881SOL     OW12541   1.348   3.369   0.295
 3881SOL    HW112542   1.392   3.431   0.360
 3881SOL    HW212543   1.250   3.366   0.313
 3882SOL     OW12544   0.517   2.203   6.005
 3882SOL    HW112545   0.535   2.141   5.928
 3882SOL    HW212546   0.591   2.195   6.072
 3883SOL     OW12547   4.654   5.673   3.503
 3883SOL    HW112548   4.695   5.584   3.522
 3883SOL    HW212549   4.717   5.727   3.447
 3884SOL     OW12550   0.276   3.798   1.905
 3884SOL    HW112551   0.334   3.877   1.923
 3884SOL    HW212552   0.215   3.783   1.983
 3885SOL     OW12553   4.797   5.696   2.515
 3885SOL    HW112554   4.808   5.610   2.466
 3885SOL    HW212555   4.865   5.762   2.483
 3886SOL     OW12556   2.722   6.192   5.678
 3886SOL    HW112557   2.628   6.159   5.671
 3886SOL    HW212558   2.772   6.138   5.746
 3887SOL     OW12559   1.626   6.057   1.987
 3887SOL    HW112560   1.527   6.040   1.984
 3887SOL    HW212561   1.674   5.973   1.960
 3888SOL     OW12562   5.960   4.926   3.900
 3888SOL    HW112563   5.975   5.015   3.857
 3888SOL    HW212564   6.047   4.880   3.913
 3889SOL     OW12565   5.692   4.083   0.560
 3889SOL    HW112566   5.602   4.062   0.523
 3889SOL    HW212567   5.742   4.142   0.496
 3890SOL     OW12568   5.253   3.079   4.455
 3890SOL    HW112569   5.326   3.140   4.486
 3890SOL    HW212570   5.287   2.984   4.455
 3891SOL     OW12571   5.056   5.606   3.168
 3891SOL    HW112572   5.099   5.588   3.080
 3891SOL    HW212573   4.988   5.535   3.187
 3892SOL     OW12574   6.867   1.989   1.611
 3892SOL    HW112575   6.909   1.931   1.541
 3892SOL    HW212576   6.844   1.934   1.691
 3893SOL     OW12577   4.029   3.761   2.680
 3893SOL    HW112578   3.981   3.700   2.743
 3893SOL    HW212579   4.072   3.835   2.731
 3894SOL     OW12580   4.620   0.459   5.733
 3894SOL    HW112581   4.584   0.549   5.706
 3894SOL    HW212582   4.715   0.469   5.760
 3895SOL     OW12583   0.891   0.347   3.973
 3895SOL    HW112584   0.911   0.262   4.021
 3895SOL    HW212585   0.941   0.422   4.015
 3896SOL     OW12586   1.607   1.277   6.358
 3896SOL    HW112587   1.573   1.240   6.444
 3896SOL    HW212588   1.637   1.371   6.372
 3897SOL     OW12589   4.121   6.122   1.448
 3897SOL    HW112590   4.069   6.185   1.506
 3897SOL    HW212591   4.084   6.029   1.460
 3898SOL     OW12592   3.714   3.060   0.842
 3898SOL    HW112593   3.628   3.009   0.839
 3898SOL    HW212594   3.760   3.043   0.928
 3899SOL     OW12595   3.529   0.513   5.963
 3899SOL    HW112596   3.523   0.575   5.885
 3899SOL    HW212597   3.574   0.561   6.039
 3900SOL     OW12598   4.839   3.674   3.141
 3900SOL    HW112599   4.779   3.741   3.098
 3900SOL    HW212600   4.883   3.715   3.221
 3901SOL     OW12601   2.776   0.563   6.749
 3901SOL    HW112602   2.873   0.539   6.745
 3901SOL    HW212603   2.762   0.652   6.706
 3902SOL     OW12604   5.745   2.981   2.638
 3902SOL    HW112605   5.745   2.989   2.738
 3902SOL    HW212606   5.655   2.950   2.607
 3903SOL     OW12607   3.102   4.597   6.160
 3903SOL    HW112608   3.010   4.603   6.121
 3903SOL    HW212609   3.162   4.549   6.096
 3904SOL     OW12610   1.361   0.602   0.661
 3904SOL    HW112611   1.307   0.578   0.741
 3904SOL    HW212612   1.446   0.550   0.661
 3905SOL     OW12613   6.560   6.266   4.981
 3905SOL    HW112614   6.498   6.343   4.967
 3905SOL    HW212615   6.648   6.300   5.016
 3906SOL     OW12616   6.341   6.437   4.974
 3906SOL    HW112617   6.277   6.380   4.922
 3906SOL    HW212618   6.404   6.483   4.910
 3907SOL     OW12619   6.445   2.155   3.677
 3907SOL    HW112620   6.531   2.202   3.658
 3907SOL    HW212621   6.444   2.067   3.630
 3908SOL     OW12622   2.381   3.789   6.198
 3908SOL    HW112623   2.383   3.887   6.178
 3908SOL    HW212624   2.420   3.738   6.122
 3909SOL     OW12625   5.599   5.539   3.758
 3909SOL    HW112626   5.668   5.610   3.757
 3909SOL    HW212627   5.618   5.475   3.832
 3910SOL     OW12628   4.161   3.382   2.897
 3910SOL    HW112629   4.213   3.314   2.949
 3910SOL    HW212630   4.160   3.469   2.946
 3911SOL     OW12631   6.814   2.460   5.493
 3911SOL    HW112632   6.841   2.536   5.550
 3911SOL    HW212633   6.717   2.468   5.469
 3912SOL     OW12634   5.096   2.918   6.449
 3912SOL    HW112635   5.122   3.013   6.469
 3912SOL    HW212636   5.005   2.918   6.406
 3913SOL     OW12637   0.869   6.550   1.405
 3913SOL    HW112638   0.913   6.490   1.472
 3913SOL    HW212639   0.886   6.645   1.430
 3914SOL     OW12640   3.227   5.908   5.786
 3914SOL    HW112641   3.175   5.991   5.768
 3914SOL    HW212642   3.183   5.857   5.860
 3915SOL     OW12643   6.600   6.046   1.933
 3915SOL    HW112644   6.674   5.986   1.967
 3915SOL    HW212645   6.637   6.108   1.864
 3916SOL     OW12646   0.780   0.163   3.147
 3916SOL    HW112647   0.749   0.225   3.218
 3916SOL    HW212648   0.708   0.150   3.079
 3917SOL     OW12649   2.325   0.410   0.067
 3917SOL    HW112650   2.229   0.398   0.091
 3917SOL    HW212651   2.332   0.451   7.001
 3918SOL     OW12652   5.401   3.283   0.130
 3918SOL    HW112653   5.394   3.209   0.197
 3918SOL    HW212654   5.310   3.315   0.105
 3919SOL     OW12655   3.285   6.650   0.837
 3919SOL    HW112656   3.257   6.676   0.930
 3919SOL    HW212657   3.239   6.565   0.812
 3920SOL     OW12658   2.031   1.610   6.966
 3920SOL    HW112659   1.932   1.604   6.964
 3920SOL    HW212660   2.064   1.593   0.035
 3921SOL     OW12661   1.574   3.990   1.489
 3921SOL    HW112662   1.652   4.010   1.549
 3921SOL    HW212663   1.492   4.035   1.525
 3922SOL     OW12664   1.284   5.071   1.285
 3922SOL    HW112665   1.273   5.151   1.344
 3922SOL    HW212666   1.333   5.097   1.202
 3923SOL     OW12667   6.563   0.449   1.181
 3923SOL    HW112668   6.610   0.534   1.201
 3923SOL    HW212669   6.607   0.403   1.104
 3924SOL     OW12670   6.631   5.209   4.347
 3924SOL    HW112671   6.582   5.146   4.407
 3924SOL    HW212672   6.729   5.199   4.362
 3925SOL     OW12673   1.804   5.158   1.696
 3925SOL    HW112674   1.764   5.127   1.782
 3925SOL    HW212675   1.831   5.079   1.641
 3926SOL     OW12676   3.763   5.210   2.747
 3926SOL    HW112677   3.854   5.222   2.706
 3926SOL    HW212678   3.744   5.112   2.758
 3927SOL     OW12679   0.959   3.482   6.288
 3927SOL    HW112680   1.005   3.531   6.213
 3927SOL    HW212681   0.942   3.388   6.260
 3928SOL     OW12682   5.963   5.592   6.506
 3928SOL    HW112683   5.923   5.637   6.586
 3928SOL    HW212684   5.904   5.516   6.478
 3929SOL     OW12685   0.806   1.851   4.353
 3929SOL    HW112686   0.783   1.882   4.445
 3929SOL    HW212687   0.847   1.760   4.358
 3930SOL     OW12688   2.926   1.707   4.208
 3930SOL    HW112689   2.978   1.623   4.192
 3930SOL    HW212690   2.965   1.781   4.153
 3931SOL     OW12691   5.329   0.219   2.041
 3931SOL    HW112692   5.407   0.230   1.979
 3931SOL    HW212693   5.302   0.122   2.043
 3932SOL     OW12694   1.979   1.500   4.248
 3932SOL    HW112695   1.970   1.594   4.280
 3932SOL    HW212696   2.000   1.499   4.151
 3933SOL     OW12697   0.776   6.823   5.632
 3933SOL    HW112698   0.793   6.850   5.727
 3933SOL    HW212699   0.685   6.855   5.605
 3934SOL     OW12700   5.269   6.811   6.775
 3934SOL    HW112701   5.253   6.737   6.840
 3934SOL    HW212702   5.207   6.800   6.696
 3935SOL     OW12703   4.842   0.330   0.905
 3935SOL    HW112704   4.855   0.352   0.808
 3935SOL    HW212705   4.913   0.376   0.959
 3936SOL     OW12706   0.550   4.541   2.748
 3936SOL    HW112707   0.567   4.476   2.674
 3936SOL    HW212708   0.461   4.584   2.734
 3937SOL     OW12709   0.400   1.427   2.513
 3937SOL    HW112710   0.392   1.413   2.612
 3937SOL    HW212711   0.484   1.478   2.493
 3938SOL     OW12712   0.284   2.357   2.869
 3938SOL    HW112713   0.304   2.430   2.804
 3938SOL    HW212714   0.189   2.327   2.857
 3939SOL     OW12715   2.881   2.010   1.772
 3939SOL    HW112716   2.925   1.924   1.749
 3939SOL    HW212717   2.950   2.079   1.795
 3940SOL     OW12718   4.461   3.375   1.463
 3940SOL    HW112719   4.560   3.361   1.457
 3940SOL    HW212720   4.442   3.461   1.510
 3941SOL     OW12721   4.519   3.643   6.782
 3941SOL    HW112722   4.445   3.586   6.746
 3941SOL    HW212723   4.560   3.696   6.707
 3942SOL     OW12724   6.898   0.464   6.973
 3942SOL    HW112725   6.949   0.513   0.019
 3942SOL    HW212726   6.899   0.516   6.888
 3943SOL     OW12727   0.142   3.237   4.692
 3943SOL    HW112728   0.223   3.283   4.729
 3943SOL    HW212729   0.108   3.172   4.760
 3944SOL     OW12730   5.220   1.914   4.646
 3944SOL    HW112731   5.146   1.981   4.652
 3944SOL    HW212732   5.288   1.933   4.717
 3945SOL     OW12733   6.972   0.733   0.725
 3945SOL    HW112734   6.930   0.700   0.810
 3945SOL    HW212735   0.008   0.663   0.688
 3946SOL     OW12736   4.088   4.734   3.109
 3946SOL    HW112737   4.113   4.654   3.053
 3946SOL    HW212738   4.168   4.765   3.160
 3947SOL     OW12739   6.209   4.911   6.391
 3947SOL    HW112740   6.117   4.943   6.367
 3947SOL    HW212741   6.262   4.897   6.308
 3948SOL     OW12742   6.265   3.517   0.792
 3948SOL    HW112743   6.215   3.567   0.863
 3948SOL    HW212744   6.349   3.480   0.831
 3949SOL     OW12745   5.529   6.368   3.276
 3949SOL    HW112746   5.595   6.439   3.252
 3949SOL    HW212747   5.484   6.335   3.193
 3950SOL     OW12748   2.157   6.313   0.578
 3950SOL    HW112749   2.184   6.250   0.651
 3950SOL    HW212750   2.204   6.401   0.591
 3951SOL     OW12751   5.326   6.700   1.604
 3951SOL    HW112752   5.412   6.657   1.578
 3951SOL    HW212753   5.311   6.689   1.702
 3952SOL     OW12754   5.560   2.071   6.981
 3952SOL    HW112755   5.506   1.987   6.975
 3952SOL    HW212756   5.597   2.081   0.049
 3953SOL     OW12757   3.998   3.901   2.919
 3953SOL    HW112758   3.928   3.851   2.971
 3953SOL    HW212759   3.953   3.962   2.853
 3954SOL     OW12760   4.208   4.826   5.653
 3954SOL    HW112761   4.254   4.766   5.588
 3954SOL    HW212762   4.242   4.807   5.746
 3955SOL     OW12763   3.813   1.108   4.688
 3955SOL    HW112764   3.906   1.071   4.691
 3955SOL    HW212765   3.759   1.055   4.623
 3956SOL     OW12766   2.647   1.112   1.694
 3956SOL    HW112767   2.618   1.130   1.600
 3956SOL    HW212768   2.573   1.065   1.743
 3957SOL     OW12769   3.803   0.822   4.490
 3957SOL    HW112770   3.854   0.760   4.429
 3957SOL    HW212771   3.705   0.810   4.474
 3958SOL     OW12772   5.514   0.313   5.672
 3958SOL    HW112773   5.425   0.297   5.630
 3958SOL    HW212774   5.536   0.238   5.734
 3959SOL     OW12775   4.647   5.319   0.113
 3959SOL    HW112776   4.630   5.415   0.136
 3959SOL    HW212777   4.569   5.264   0.143
 3960SOL     OW12778   5.434   1.576   4.881
 3960SOL    HW112779   5.426   1.588   4.980
 3960SOL    HW212780   5.354   1.614   4.836
 3961SOL     OW12781   5.703   6.458   3.909
 3961SOL    HW112782   5.767   6.390   3.875
 3961SOL    HW212783   5.680   6.523   3.836
 3962SOL     OW12784   0.172   5.693   5.341
 3962SOL    HW112785   0.113   5.726   5.267
 3962SOL    HW212786   0.142   5.734   5.428
 3963SOL     OW12787   4.778   6.604   1.998
 3963SOL    HW112788   4.780   6.535   2.071
 3963SOL    HW212789   4.698   6.589   1.941
 3964SOL     OW12790   5.640   2.677   3.377
 3964SOL    HW112791   5.569   2.666   3.308
 3964SOL    HW212792   5.608   2.742   3.447
 3965SOL     OW12793   5.010   3.820   4.317
 3965SOL    HW112794   4.960   3.774   4.391
 3965SOL    HW212795   4.960   3.902   4.289
 3966SOL     OW12796   2.463   6.290   6.393
 3966SOL    HW112797   2.405   6.215   6.424
 3966SOL    HW212798   2.500   6.338   6.472
 3967SOL     OW12799   2.214   4.504   3.454
 3967SOL    HW112800   2.222   4.551   3.366
 3967SOL    HW212801   2.189   4.569   3.525
 3968SOL     OW12802   3.567   6.878   0.780
 3968SOL    HW112803   3.509   6.881   0.861
 3968SOL    HW212804   3.585   6.972   0.749
 3969SOL     OW12805   0.774   5.135   2.839
 3969SOL    HW112806   0.819   5.092   2.761
 3969SOL    HW212807   0.715   5.067   2.884
 3970SOL     OW12808   4.836   6.217   2.352
 3970SOL    HW112809   4.899   6.219   2.274
 3970SOL    HW212810   4.804   6.123   2.366
 3971SOL     OW12811   2.063   6.361   3.279
 3971SOL    HW112812   2.074   6.268   3.243
 3971SOL    HW212813   2.070   6.427   3.205
 3972SOL     OW12814   1.864   3.841   0.343
 3972SOL    HW112815   1.891   3.788   0.263
 3972SOL    HW212816   1.778   3.889   0.323
 3973SOL     OW12817   1.753   5.173   1.039
 3973SOL    HW112818   1.811   5.178   1.121
 3973SOL    HW212819   1.768   5.085   0.994
 3974SOL     OW12820   2.422   1.326   5.265
 3974SOL    HW112821   2.340   1.316   5.321
 3974SOL    HW212822   2.478   1.402   5.300
 3975SOL     OW12823   5.994   2.633   6.091
 3975SOL    HW112824   5.957   2.582   6.013
 3975SOL    HW212825   5.960   2.726   6.089
 3976SOL     OW12826   2.069   5.205   2.297
 3976SOL    HW112827   2.160   5.219   2.335
 3976SOL    HW212828   2.008   5.171   2.369
 3977SOL     OW12829   0.998   3.535   6.562
 3977SOL    HW112830   1.004   3.516   6.464
 3977SOL    HW212831   1.036   3.458   6.613
 3978SOL     OW12832   6.432   4.225   3.591
 3978SOL    HW112833   6.446   4.128   3.570
 3978SOL    HW212834   6.416   4.276   3.506
 3979SOL     OW12835   3.699   6.961   6.589
 3979SOL    HW112836   3.603   6.970   6.614
 3979SOL    HW212837   3.706   6.932   6.493
 3980SOL     OW12838   5.003   5.960   5.993
 3980SOL    HW112839   5.069   6.028   6.024
 3980SOL    HW212840   5.031   5.923   5.905
 3981SOL     OW12841   4.462   6.332   6.892
 3981SOL    HW112842   4.501   6.275   6.965
 3981SOL    HW212843   4.374   6.369   6.923
 3982SOL     OW12844   3.090   6.383   3.012
 3982SOL    HW112845   3.097   6.439   3.094
 3982SOL    HW212846   3.173   6.394   2.957
 3983SOL     OW12847   3.597   5.582   4.385
 3983SOL    HW112848   3.597   5.675   4.347
 3983SOL    HW212849   3.519   5.571   4.446
 3984SOL     OW12850   6.587   2.497   2.877
 3984SOL    HW112851   6.590   2.404   2.914
 3984SOL    HW212852   6.658   2.507   2.808
 3985SOL     OW12853   4.118   4.804   6.568
 3985SOL    HW112854   4.170   4.737   6.515
 3985SOL    HW212855   4.036   4.760   6.605
 3986SOL     OW12856   5.355   0.644   2.762
 3986SOL    HW112857   5.283   0.709   2.735
 3986SOL    HW212858   5.415   0.626   2.684
 3987SOL     OW12859   3.161   5.549   5.043
 3987SOL    HW112860   3.251   5.554   5.087
 3987SOL    HW212861   3.092   5.522   5.111
 3988SOL     OW12862   3.661   6.058   0.680
 3988SOL    HW112863   3.675   6.140   0.625
 3988SOL    HW212864   3.743   6.040   0.735
 3989SOL     OW12865   5.694   2.062   0.208
 3989SOL    HW112866   5.627   2.035   0.276
 3989SOL    HW212867   5.738   2.148   0.236
 3990SOL     OW12868   6.535   1.669   2.436
 3990SOL    HW112869   6.563   1.762   2.415
 3990SOL    HW212870   6.499   1.625   2.354
 3991SOL     OW12871   6.388   0.477   3.118
 3991SOL    HW112872   6.322   0.468   3.043
 3991SOL    HW212873   6.376   0.400   3.182
 3992SOL     OW12874   3.064   2.037   1.195
 3992SOL    HW112875   2.975   2.053   1.239
 3992SOL    HW212876   3.064   1.948   1.150
 3993SOL     OW12877   0.904   2.894   1.860
 3993SOL    HW112878   0.814   2.859   1.835
 3993SOL    HW212879   0.921   2.877   1.957
 3994SOL     OW12880   2.597   6.356   4.665
 3994SOL    HW112881   2.504   6.389   4.650
 3994SOL    HW212882   2.601   6.257   4.650
 3995SOL     OW12883   1.525   2.166   4.492
 3995SOL    HW112884   1.427   2.188   4.484
 3995SOL    HW212885   1.553   2.178   4.587
 3996SOL     OW12886   6.946   6.492   4.272
 3996SOL    HW112887   6.909   6.455   4.358
 3996SOL    HW212888   6.872   6.505   4.207
 3997SOL     OW12889   4.463   0.904   4.546
 3997SOL    HW112890   4.550   0.921   4.499
 3997SOL    HW212891   4.387   0.935   4.488
 3998SOL     OW12892   4.476   1.673   3.327
 3998SOL    HW112893   4.518   1.586   3.302
 3998SOL    HW212894   4.396   1.656   3.385
 3999SOL     OW12895   5.061   2.408   4.588
 3999SOL    HW112896   5.054   2.389   4.686
 3999SOL    HW212897   4.987   2.470   4.561
 4000SOL     OW12898   4.197   6.648   4.150
 4000SOL    HW112899   4.114   6.615   4.195
 4000SOL    HW212900   4.243   6.571   4.105
 4001SOL     OW12901   1.079   2.363   4.173
 4001SOL    HW112902   1.105   2.457   4.153
 4001SOL    HW212903   0.982   2.349   4.151
 4002SOL     OW12904   2.306   4.194   2.019
 4002SOL    HW112905   2.275   4.193   2.114
 4002SOL    HW212906   2.406   4.191   2.016
 4003SOL     OW12907   3.447   1.888   5.004
 4003SOL    HW112908   3.486   1.922   5.089
 4003SOL    HW212909   3.363   1.938   4.983
 4004SOL     OW12910   6.830   1.560   5.249
 4004SOL    HW112911   6.740   1.604   5.257
 4004SOL    HW212912   6.858   1.560   5.153
 4005SOL     OW12913   6.054   4.854   4.976
 4005SOL    HW112914   6.122   4.883   4.909
 4005SOL    HW212915   6.057   4.754   4.986
 4006SOL     OW12916   3.789   5.586   2.629
 4006SOL    HW112917   3.784   5.601   2.531
 4006SOL    HW212918   3.883   5.565   2.655
 4007SOL     OW12919   6.417   2.053   6.366
 4007SOL    HW112920   6.329   2.097   6.385
 4007SOL    HW212921   6.401   1.962   6.328
 4008SOL     OW12922   2.693   2.314   4.890
 4008SOL    HW112923   2.667   2.405   4.921
 4008SOL    HW212924   2.781   2.289   4.931
 4009SOL     OW12925   3.179   3.306   2.675
 4009SOL    HW112926   3.219   3.256   2.598
 4009SOL    HW212927   3.080   3.299   2.671
 4010SOL     OW12928   1.472   2.965   6.874
 4010SOL    HW112929   1.562   2.943   6.838
 4010SOL    HW212930   1.450   3.060   6.852
 4011SOL     OW12931   0.903   2.746   0.697
 4011SOL    HW112932   0.868   2.715   0.785
 4011SOL    HW212933   0.992   2.705   0.680
 4012SOL     OW12934   5.717   2.469   3.542
 4012SOL    HW112935   5.698   2.550   3.486
 4012SOL    HW212936   5.652   2.464   3.618
 4013SOL     OW12937   4.243   2.290   3.268
 4013SOL    HW112938   4.272   2.382   3.294
 4013SOL    HW212939   4.321   2.228   3.275
 4014SOL     OW12940   5.704   6.610   2.282
 4014SOL    HW112941   5.793   6.569   2.303
 4014SOL    HW212942   5.644   6.603   2.363
 4015SOL     OW12943   4.416   3.402   6.988
 4015SOL    HW112944   4.438   3.482   6.934
 4015SOL    HW212945   4.322   3.408   7.022
 4016SOL     OW12946   3.435   6.175   5.095
 4016SOL    HW112947   3.377   6.228   5.034
 4016SOL    HW212948   3.464   6.233   5.172
 4017SOL     OW12949   6.033   6.666   0.233
 4017SOL    HW112950   6.031   6.749   0.290
 4017SOL    HW212951   6.107   6.607   0.265
 4018SOL     OW12952   1.824   6.360   0.016
 4018SOL    HW112953   1.837   6.455   0.045
 4018SOL    HW212954   1.784   6.308   0.092
 4019SOL     OW12955   4.968   5.353   3.243
 4019SOL    HW112956   5.046   5.290   3.235
 4019SOL    HW212957   4.901   5.332   3.172
 4020SOL     OW12958   5.177   1.734   4.995
 4020SOL    HW112959   5.168   1.664   4.924
 4020SOL    HW212960   5.241   1.702   5.065
 4021SOL     OW12961   4.271   4.170   0.029
 4021SOL    HW112962   4.265   4.231   6.974
 4021SOL    HW212963   4.179   4.152   0.064
 4022SOL     OW12964   5.223   0.283   0.600
 4022SOL    HW112965   5.283   0.283   0.681
 4022SOL    HW212966   5.189   0.376   0.584
 4023SOL     OW12967   6.901   0.235   5.494
 4023SOL    HW112968   6.992   0.274   5.512
 4023SOL    HW212969   6.893   0.147   5.540
 4024SOL     OW12970   4.405   4.741   4.467
 4024SOL    HW112971   4.480   4.750   4.533
 4024SOL    HW212972   4.324   4.785   4.503
 4025SOL     OW12973   1.184   4.261   3.614
 4025SOL    HW112974   1.270   4.265   3.563
 4025SOL    HW212975   1.184   4.332   3.684
 4026SOL     OW12976   4.879   6.969   5.105
 4026SOL    HW112977   4.877   6.910   5.024
 4026SOL    HW212978   4.932   0.027   5.085
 4027SOL     OW12979   3.857   4.810   2.285
 4027SOL    HW112980   3.932   4.744   2.286
 4027SOL    HW212981   3.773   4.765   2.254
 4028SOL     OW12982   2.428   6.032   3.471
 4028SOL    HW112983   2.487   5.954   3.491
 4028SOL    HW212984   2.376   6.056   3.553
 4029SOL     OW12985   2.016   3.510   3.652
 4029SOL    HW112986   2.037   3.490   3.748
 4029SOL    HW212987   1.961   3.593   3.647
 4030SOL     OW12988   1.116   1.692   6.182
 4030SOL    HW112989   1.209   1.665   6.159
 4030SOL    HW212990   1.052   1.639   6.126
 4031SOL     OW12991   5.723   5.716   4.193
 4031SOL    HW112992   5.740   5.807   4.230
 4031SOL    HW212993   5.660   5.722   4.115
 4032SOL     OW12994   3.901   6.968   5.247
 4032SOL    HW112995   3.986   6.946   5.199
 4032SOL    HW212996   3.915   6.956   5.346
 4033SOL     OW12997   3.228   3.900   5.916
 4033SOL    HW112998   3.140   3.868   5.950
 4033SOL    HW212999   3.224   3.998   5.898
 4034SOL     OW13000   5.827   2.893   4.792
 4034SOL    HW113001   5.771   2.931   4.866
 4034SOL    HW213002   5.861   2.967   4.735
 4035SOL     OW13003   0.421   5.295   1.393
 4035SOL    HW113004   0.366   5.212   1.382
 4035SOL    HW213005   0.368   5.375   1.367
 4036SOL     OW13006   7.008   6.290   2.537
 4036SOL    HW113007   7.001   6.191   2.524
 4036SOL    HW213008   6.988   6.312   2.633
 4037SOL     OW13009   6.954   3.816   6.020
 4037SOL    HW113010   6.952   3.794   5.923
 4037SOL    HW213011   6.936   3.733   6.074
 4038SOL     OW13012   6.663   5.328   3.384
 4038SOL    HW113013   6.581   5.293   3.430
 4038SOL    HW213014   6.636   5.388   3.309
 4039SOL     OW13015   3.434   5.565   1.182
 4039SOL    HW113016   3.482   5.520   1.107
 4039SOL    HW213017   3.494   5.634   1.223
 4040SOL     OW13018   3.211   6.592   0.541
 4040SOL    HW113019   3.287   6.622   0.598
 4040SOL    HW213020   3.230   6.500   0.506
 4041SOL     OW13021   0.887   6.389   3.002
 4041SOL    HW113022   0.948   6.326   3.050
 4041SOL    HW213023   0.925   6.481   3.005
 4042SOL     OW13024   5.955   6.100   2.422
 4042SOL    HW113025   5.857   6.100   2.403
 4042SOL    HW213026   5.978   6.020   2.478
 4043SOL     OW13027   6.678   3.755   1.602
 4043SOL    HW113028   6.697   3.716   1.692
 4043SOL    HW213029   6.584   3.789   1.600
 4044SOL     OW13030   6.021   5.546   2.926
 4044SOL    HW113031   5.993   5.488   2.850
 4044SOL    HW213032   6.104   5.510   2.967
 4045SOL     OW13033   2.368   4.446   5.677
 4045SOL    HW113034   2.332   4.526   5.628
 4045SOL    HW213035   2.421   4.476   5.756
 4046SOL     OW13036   0.000   3.158   0.271
 4046SOL    HW113037   6.974   3.077   0.299
 4046SOL    HW213038   0.051   3.139   0.187
 4047SOL     OW13039   3.026   3.717   2.764
 4047SOL    HW113040   3.006   3.702   2.668
 4047SOL    HW213041   2.963   3.664   2.821
 4048SOL     OW13042   4.691   2.290   0.274
 4048SOL    HW113043   4.677   2.389   0.275
 4048SOL    HW213044   4.603   2.244   0.265
 4049SOL     OW13045   6.848   0.791   6.064
 4049SOL    HW113046   6.900   0.773   5.980
 4049SOL    HW213047   6.910   0.789   6.142
 4050SOL     OW13048   3.036   0.736   2.437
 4050SOL    HW113049   3.056   0.678   2.358
 4050SOL    HW213050   3.086   0.703   2.517
 4051SOL     OW13051   1.400   4.085   1.199
 4051SOL    HW113052   1.486   4.037   1.213
 4051SOL    HW213053   1.418   4.176   1.161
 4052SOL     OW13054   1.556   0.156   1.213
 4052SOL    HW113055   1.575   0.085   1.280
 4052SOL    HW213056   1.621   0.231   1.224
 4053SOL     OW13057   2.992   5.503   3.469
 4053SOL    HW113058   2.904   5.531   3.431
 4053SOL    HW213059   2.988   5.507   3.569
 4054SOL     OW13060   5.346   1.608   6.334
 4054SOL    HW113061   5.361   1.623   6.236
 4054SOL    HW213062   5.264   1.657   6.363
 4055SOL     OW13063   4.404   2.997   0.310
 4055SOL    HW113064   4.416   3.058   0.232
 4055SOL    HW213065   4.408   2.902   0.279
 4056SOL     OW13066   4.442   2.615   0.586
 4056SOL    HW113067   4.485   2.694   0.629
 4056SOL    HW213068   4.359   2.644   0.538
 4057SOL     OW13069   6.316   2.341   0.373
 4057SOL    HW113070   6.386   2.281   0.412
 4057SOL    HW213071   6.263   2.290   0.305
 4058SOL     OW13072   0.703   1.883   3.694
 4058SOL    HW113073   0.729   1.797   3.650
 4058SOL    HW213074   0.673   1.865   3.788
 4059SOL     OW13075   0.028   2.043   5.512
 4059SOL    HW113076   0.122   2.049   5.479
 4059SOL    HW213077   7.001   1.978   5.455
 4060SOL     OW13078   3.360   5.877   5.560
 4060SOL    HW113079   3.414   5.792   5.567
 4060SOL    HW213080   3.299   5.884   5.639
 4061SOL     OW13081   2.238   2.698   1.255
 4061SOL    HW113082   2.175   2.702   1.177
 4061SOL    HW213083   2.319   2.754   1.235
 4062SOL     OW13084   3.262   6.415   2.587
 4062SOL    HW113085   3.286   6.362   2.506
 4062SOL    HW213086   3.207   6.358   2.649
 4063SOL     OW13087   2.427   5.200   6.378
 4063SOL    HW113088   2.438   5.103   6.355
 4063SOL    HW213089   2.414   5.209   6.477
 4064SOL     OW13090   6.400   0.014   4.136
 4064SOL    HW113091   6.440   0.084   4.078
 4064SOL    HW213092   6.369   0.055   4.222
 4065SOL     OW13093   0.090   4.520   6.092
 4065SOL    HW113094   0.139   4.520   6.179
 4065SOL    HW213095   0.118   4.440   6.038
 4066SOL     OW13096   5.745   5.239   1.517
 4066SOL    HW113097   5.818   5.290   1.472
 4066SOL    HW213098   5.781   5.154   1.556
 4067SOL     OW13099   5.850   1.079   1.332
 4067SOL    HW113100   5.761   1.101   1.372
 4067SOL    HW213101   5.920   1.082   1.404
 4068SOL     OW13102   5.649   0.948   4.500
 4068SOL    HW113103   5.693   0.872   4.549
 4068SOL    HW213104   5.631   0.921   4.406
 4069SOL     OW13105   6.734   6.243   0.803
 4069SOL    HW113106   6.708   6.160   0.854
 4069SOL    HW213107   6.741   6.221   0.706
 4070SOL     OW13108   0.025   3.880   3.130
 4070SOL    HW113109   6.962   3.867   3.177
 4070SOL    HW213110   0.091   3.813   3.164
 4071SOL     OW13111   2.940   0.239   4.069
 4071SOL    HW113112   2.921   0.255   3.972
 4071SOL    HW213113   2.888   0.158   4.100
 4072SOL     OW13114   0.854   0.134   4.183
 4072SOL    HW113115   0.933   0.095   4.230
 4072SOL    HW213116   0.835   0.083   4.099
 4073SOL     OW13117   2.454   5.055   2.142
 4073SOL    HW113118   2.360   5.036   2.113
 4073SOL    HW213119   2.463   5.037   2.240
 4074SOL     OW13120   0.340   2.896   0.183
 4074SOL    HW113121   0.351   2.925   0.088
 4074SOL    HW213122   0.429   2.872   0.221
 4075SOL     OW13123   5.529   0.487   3.792
 4075SOL    HW113124   5.431   0.505   3.795
 4075SOL    HW213125   5.549   0.422   3.720
 4076SOL     OW13126   1.926   2.601   3.084
 4076SOL    HW113127   1.991   2.652   3.028
 4076SOL    HW213128   1.859   2.664   3.124
 4077SOL     OW13129   3.491   0.832   0.596
 4077SOL    HW113130   3.554   0.755   0.604
 4077SOL    HW213131   3.435   0.839   0.678
 4078SOL     OW13132   4.771   4.227   2.558
 4078SOL    HW113133   4.793   4.183   2.470
 4078SOL    HW213134   4.853   4.270   2.595
 4079SOL     OW13135   5.678   0.428   4.269
 4079SOL    HW113136   5.664   0.388   4.178
 4079SOL    HW213137   5.621   0.510   4.279
 4080SOL     OW13138   3.088   3.115   3.373
 4080SOL    HW113139   3.064   3.212   3.366
 4080SOL    HW213140   3.026   3.062   3.315
 4081SOL     OW13141   2.364   2.052   0.002
 4081SOL    HW113142   2.298   2.013   6.963
 4081SOL    HW213143   2.327   2.136   0.042
 4082SOL     OW13144   1.016   1.894   5.969
 4082SOL    HW113145   1.047   1.948   5.890
 4082SOL    HW213146   1.094   1.843   6.006
 4083SOL     OW13147   6.118   5.241   2.823
 4083SOL    HW113148   6.128   5.169   2.892
 4083SOL    HW213149   6.130   5.202   2.732
 4084SOL     OW13150   4.862   6.887   1.984
 4084SOL    HW113151   4.956   6.874   1.954
 4084SOL    HW213152   4.815   6.799   1.988
 4085SOL     OW13153   2.338   4.331   2.940
 4085SOL    HW113154   2.405   4.388   2.989
 4085SOL    HW213155   2.296   4.267   3.004
 4086SOL     OW13156   5.872   5.288   5.175
 4086SOL    HW113157   5.905   5.337   5.256
 4086SOL    HW213158   5.913   5.197   5.172
 4087SOL     OW13159   2.026   0.878   2.044
 4087SOL    HW113160   1.991   0.833   1.962
 4087SOL    HW213161   1.951   0.924   2.091
 4088SOL     OW13162   0.065   1.394   5.621
 4088SOL    HW113163   0.109   1.336   5.552
 4088SOL    HW213164   6.993   1.409   5.596
 4089SOL     OW13165   1.609   0.824   2.788
 4089SOL    HW113166   1.653   0.842   2.700
 4089SOL    HW213167   1.655   0.878   2.859
 4090SOL     OW13168   3.011   2.504   5.696
 4090SOL    HW113169   3.062   2.582   5.732
 4090SOL    HW213170   2.917   2.532   5.676
 4091SOL     OW13171   3.420   6.225   2.409
 4091SOL    HW113172   3.335   6.174   2.415
 4091SOL    HW213173   3.485   6.190   2.476
 4092SOL     OW13174   5.382   1.845   5.824
 4092SOL    HW113175   5.349   1.764   5.873
 4092SOL    HW213176   5.459   1.819   5.765
 4093SOL     OW13177   5.558   3.780   2.839
 4093SOL    HW113178   5.466   3.805   2.869
 4093SOL    HW213179   5.606   3.862   2.808
 4094SOL     OW13180   6.792   6.911   0.413
 4094SOL    HW113181   6.843   6.845   0.359
 4094SOL    HW213182   6.712   6.866   0.454
 4095SOL     OW13183   1.937   5.338   0.757
 4095SOL    HW113184   1.965   5.262   0.816
 4095SOL    HW213185   1.956   5.425   0.803
 4096SOL     OW13186   0.680   0.177   6.342
 4096SOL    HW113187   0.669   0.272   6.372
 4096SOL    HW213188   0.591   0.132   6.338
 4097SOL     OW13189   0.850   3.663   5.658
 4097SOL    HW113190   0.923   3.670   5.590
 4097SOL    HW213191   0.764   3.638   5.611
 4098SOL     OW13192   1.331   5.984   1.906
 4098SOL    HW113193   1.259   6.034   1.858
 4098SOL    HW213194   1.291   5.909   1.958
 4099SOL     OW13195   6.579   3.505   5.559
 4099SOL    HW113196   6.614   3.424   5.511
 4099SOL    HW213197   6.536   3.478   5.645
 4100SOL     OW13198   2.578   0.459   3.390
 4100SOL    HW113199   2.546   0.399   3.317
 4100SOL    HW213200   2.622   0.404   3.461
 4101SOL     OW13201   6.158   5.751   6.051
 4101SOL    HW113202   6.087   5.812   6.016
 4101SOL    HW213203   6.142   5.659   6.015
 4102SOL     OW13204   1.364   5.803   0.495
 4102SOL    HW113205   1.388   5.757   0.410
 4102SOL    HW213206   1.370   5.738   0.571
 4103SOL     OW13207   2.565   5.469   2.490
 4103SOL    HW113208   2.653   5.515   2.483
 4103SOL    HW213209   2.545   5.450   2.586
 4104SOL     OW13210   1.654   6.102   5.383
 4104SOL    HW113211   1.688   6.014   5.349
 4104SOL    HW213212   1.729   6.167   5.389
 4105SOL     OW13213   3.634   6.548   1.837
 4105SOL    HW113214   3.641   6.456   1.798
 4105SOL    HW213215   3.563   6.600   1.790
 4106SOL     OW13216   1.702   0.176   2.266
 4106SOL    HW113217   1.788   0.186   2.316
 4106SOL    HW213218   1.638   0.247   2.294
 4107SOL     OW13219   1.563   1.299   0.893
 4107SOL    HW113220   1.466   1.298   0.869
 4107SOL    HW213221   1.603   1.210   0.873
 4108SOL     OW13222   6.778   6.613   5.247
 4108SOL    HW113223   6.838   6.674   5.299
 4108SOL    HW213224   6.757   6.533   5.301
 4109SOL     OW13225   4.811   6.619   4.709
 4109SOL    HW113226   4.722   6.575   4.706
 4109SOL    HW213227   4.851   6.620   4.617
 4110SOL     OW13228   4.196   3.095   0.439
 4110SOL    HW113229   4.191   3.080   0.538
 4110SOL    HW213230   4.291   3.089   0.409
 4111SOL     OW13231   5.978   4.777   3.654
 4111SOL    HW113232   5.982   4.821   3.564
 4111SOL    HW213233   5.917   4.830   3.714
 4112SOL     OW13234   3.933   5.911   4.864
 4112SOL    HW113235   3.917   5.817   4.836
 4112SOL    HW213236   3.906   5.973   4.790
 4113SOL     OW13237   4.706   5.091   5.131
 4113SOL    HW113238   4.628   5.152   5.123
 4113SOL    HW213239   4.781   5.139   5.176
 4114SOL     OW13240   0.341   0.457   2.405
 4114SOL    HW113241   0.293   0.472   2.492
 4114SOL    HW213242   0.430   0.502   2.408
 4115SOL     OW13243   3.850   5.674   4.765
 4115SOL    HW113244   3.859   5.674   4.665
 4115SOL    HW213245   3.842   5.580   4.798
 4116SOL     OW13246   6.163   3.598   3.965
 4116SOL    HW113247   6.222   3.517   3.961
 4116SOL    HW213248   6.199   3.663   4.032
 4117SOL     OW13249   0.109   1.622   2.883
 4117SOL    HW113250   0.093   1.627   2.784
 4117SOL    HW213251   0.174   1.548   2.902
 4118SOL     OW13252   1.764   0.321   1.285
 4118SOL    HW113253   1.802   0.229   1.283
 4118SOL    HW213254   1.833   0.387   1.255
 4119SOL     OW13255   0.085   0.841   5.195
 4119SOL    HW113256   7.011   0.826   5.192
 4119SOL    HW213257   0.104   0.927   5.242
 4120SOL     OW13258   2.211   1.121   6.083
 4120SOL    HW113259   2.205   1.185   6.007
 4120SOL    HW213260   2.189   1.029   6.051
 4121SOL     OW13261   6.591   0.904   1.367
 4121SOL    HW113262   6.525   0.960   1.416
 4121SOL    HW213263   6.608   0.943   1.277
 4122SOL     OW13264   1.038   4.996   2.999
 4122SOL    HW113265   1.051   4.897   2.999
 4122SOL    HW213266   1.057   5.032   2.908
 4123SOL     OW13267   5.745   4.564   1.618
 4123SOL    HW113268   5.800   4.582   1.699
 4123SOL    HW213269   5.806   4.551   1.539
 4124SOL     OW13270   6.245   0.057   0.228
 4124SOL    HW113271   6.312   0.044   0.302
 4124SOL    HW213272   6.154   0.069   0.267
 4125SOL     OW13273   0.143   2.855   6.696
 4125SOL    HW113274   0.043   2.843   6.699
 4125SOL    HW213275   0.164   2.947   6.665
 4126SOL     OW13276   1.545   4.184   4.004
 4126SOL    HW113277   1.588   4.238   4.076
 4126SOL    HW213278   1.603   4.184   3.923
 4127SOL     OW13279   4.902   2.322   3.802
 4127SOL    HW113280   4.939   2.230   3.816
 4127SOL    HW213281   4.956   2.388   3.854
 4128SOL     OW13282   6.699   2.457   6.239
 4128SOL    HW113283   6.657   2.547   6.241
 4128SOL    HW213284   6.646   2.394   6.296
 4129SOL     OW13285   3.656   0.895   1.375
 4129SOL    HW113286   3.583   0.946   1.330
 4129SOL    HW213287   3.729   0.877   1.310
 4130SOL     OW13288   5.325   2.511   0.108
 4130SOL    HW113289   5.348   2.608   0.108
 4130SOL    HW213290   5.280   2.487   0.022
 4131SOL     OW13291   4.645   6.215   3.942
 4131SOL    HW113292   4.733   6.225   3.894
 4131SOL    HW213293   4.597   6.302   3.943
 4132SOL     OW13294   6.623   4.160   2.895
 4132SOL    HW113295   6.695   4.117   2.950
 4132SOL    HW213296   6.536   4.111   2.909
 4133SOL     OW13297   5.571   6.104   3.702
 4133SOL    HW113298   5.639   6.038   3.668
 4133SOL    HW213299   5.554   6.087   3.799
 4134SOL     OW13300   1.354   3.686   1.302
 4134SOL    HW113301   1.436   3.715   1.351
 4134SOL    HW213302   1.366   3.702   1.204
 4135SOL     OW13303   6.182   1.253   0.901
 4135SOL    HW113304   6.247   1.277   0.973
 4135SOL    HW213305   6.228   1.255   0.813
 4136SOL     OW13306   0.937   4.652   0.215
 4136SOL    HW113307   1.023   4.695   0.243
 4136SOL    HW213308   0.915   4.679   0.122
 4137SOL     OW13309   6.855   2.970   5.616
 4137SOL    HW113310   6.888   3.050   5.665
 4137SOL    HW213311   6.829   2.899   5.681
 4138SOL     OW13312   5.178   0.207   6.287
 4138SOL    HW113313   5.101   0.215   6.349
 4138SOL    HW213314   5.174   0.119   6.239
 4139SOL     OW13315   1.789   4.259   2.252
 4139SOL    HW113316   1.733   4.334   2.217
 4139SOL    HW213317   1.885   4.277   2.232
 4140SOL     OW13318   2.347   0.459   6.829
 4140SOL    HW113319   2.300   0.385   6.781
 4140SOL    HW213320   2.391   0.519   6.763
 4141SOL     OW13321   5.468   0.808   5.954
 4141SOL    HW113322   5.375   0.770   5.949
 4141SOL    HW213323   5.507   0.811   5.862
 4142SOL     OW13324   6.455   5.901   1.486
 4142SOL    HW113325   6.489   5.809   1.508
 4142SOL    HW213326   6.533   5.962   1.469
 4143SOL     OW13327   6.516   3.810   6.709
 4143SOL    HW113328   6.420   3.822   6.736
 4143SOL    HW213329   6.531   3.849   6.619
 4144SOL     OW13330   4.274   0.347   1.283
 4144SOL    HW113331   4.277   0.298   1.196
 4144SOL    HW213332   4.253   0.282   1.357
 4145SOL     OW13333   5.414   0.347   1.255
 4145SOL    HW113334   5.315   0.344   1.273
 4145SOL    HW213335   5.429   0.370   1.159
 4146SOL     OW13336   4.525   0.347   2.356
 4146SOL    HW113337   4.543   0.431   2.306
 4146SOL    HW213338   4.594   0.278   2.332
 4147SOL     OW13339   4.500   4.472   0.042
 4147SOL    HW113340   4.421   4.505   0.093
 4147SOL    HW213341   4.563   4.548   0.025
 4148SOL     OW13342   2.844   1.477   6.171
 4148SOL    HW113343   2.817   1.542   6.100
 4148SOL    HW213344   2.763   1.439   6.214
 4149SOL     OW13345   1.553   3.444   6.369
 4149SOL    HW113346   1.530   3.385   6.292
 4149SOL    HW213347   1.480   3.511   6.383
 4150SOL     OW13348   5.809   1.386   0.480
 4150SOL    HW113349   5.787   1.461   0.418
 4150SOL    HW213350   5.887   1.411   0.537
 4151SOL     OW13351   2.676   6.065   4.715
 4151SOL    HW113352   2.744   6.007   4.759
 4151SOL    HW213353   2.585   6.026   4.728
 4152SOL     OW13354   3.026   3.985   1.089
 4152SOL    HW113355   3.007   3.961   0.994
 4152SOL    HW213356   3.005   4.081   1.105
 4153SOL     OW13357   6.815   5.875   1.976
 4153SOL    HW113358   6.873   5.863   1.896
 4153SOL    HW213359   6.860   5.938   2.041
 4154SOL     OW13360   0.560   6.970   4.407
 4154SOL    HW113361   0.502   6.891   4.424
 4154SOL    HW213362   0.626   6.949   4.335
 4155SOL     OW13363   5.959   0.925   2.174
 4155SOL    HW113364   5.950   0.948   2.077
 4155SOL    HW213365   6.044   0.875   2.189
 4156SOL     OW13366   0.640   4.400   5.946
 4156SOL    HW113367   0.560   4.361   5.900
 4156SOL    HW213368   0.716   4.407   5.881
 4157SOL     OW13369   5.211   5.632   0.919
 4157SOL    HW113370   5.217   5.668   1.012
 4157SOL    HW213371   5.209   5.532   0.922
 4158SOL     OW13372   0.119   2.619   0.633
 4158SOL    HW113373   0.036   2.650   0.587
 4158SOL    HW213374   0.118   2.650   0.728
 4159SOL     OW13375   3.232   0.640   4.688
 4159SOL    HW113376   3.209   0.609   4.595
 4159SOL    HW213377   3.314   0.593   4.719
 4160SOL     OW13378   1.883   6.958   5.899
 4160SOL    HW113379   1.804   6.996   5.945
 4160SOL    HW213380   1.942   6.911   5.965
 4161SOL     OW13381   3.450   2.892   3.369
 4161SOL    HW113382   3.417   2.847   3.285
 4161SOL    HW213383   3.372   2.915   3.427
 4162SOL     OW13384   5.338   6.008   1.594
 4162SOL    HW113385   5.354   5.912   1.569
 4162SOL    HW213386   5.347   6.065   1.512
 4163SOL     OW13387   3.723   5.372   1.313
 4163SOL    HW113388   3.754   5.329   1.397
 4163SOL    HW213389   3.659   5.311   1.266
 4164SOL     OW13390   5.126   1.963   6.737
 4164SOL    HW113391   5.078   1.875   6.741
 4164SOL    HW213392   5.176   1.970   6.651
 4165SOL     OW13393   3.440   1.880   4.372
 4165SOL    HW113394   3.408   1.819   4.445
 4165SOL    HW213395   3.445   1.973   4.406
 4166SOL     OW13396   6.201   1.907   1.897
 4166SOL    HW113397   6.245   1.901   1.986
 4166SOL    HW213398   6.106   1.877   1.904
 4167SOL     OW13399   3.888   5.204   4.716
 4167SOL    HW113400   3.890   5.295   4.756
 4167SOL    HW213401   3.836   5.205   4.631
 4168SOL     OW13402   5.215   4.105   0.037
 4168SOL    HW113403   5.137   4.158   0.069
 4168SOL    HW213404   5.291   4.116   0.100
 4169SOL     OW13405   5.212   3.461   6.971
 4169SOL    HW113406   5.150   3.520   6.919
 4169SOL    HW213407   5.305   3.474   6.938
 4170SOL     OW13408   1.039   2.932   5.127
 4170SOL    HW113409   1.100   2.988   5.072
 4170SOL    HW213410   1.023   2.976   5.215
 4171SOL     OW13411   0.390   1.450   6.093
 4171SOL    HW113412   0.345   1.472   6.006
 4171SOL    HW213413   0.373   1.523   6.159
 4172SOL     OW13414   2.483   2.399   6.308
 4172SOL    HW113415   2.475   2.403   6.408
 4172SOL    HW213416   2.392   2.407   6.267
 4173SOL     OW13417   4.859   1.662   5.415
 4173SOL    HW113418   4.925   1.647   5.341
 4173SOL    HW213419   4.766   1.660   5.378
 4174SOL     OW13420   3.608   6.721   4.106
 4174SOL    HW113421   3.593   6.624   4.126
 4174SOL    HW213422   3.629   6.770   4.191
 4175SOL     OW13423   1.365   4.620   6.441
 4175SOL    HW113424   1.321   4.709   6.427
 4175SOL    HW213425   1.424   4.624   6.522
 4176SOL     OW13426   4.857   7.000   5.862
 4176SOL    HW113427   4.868   0.024   5.775
 4176SOL    HW213428   4.929   0.004   5.926
 4177SOL     OW13429   4.148   5.113   3.081
 4177SOL    HW113430   4.083   5.060   3.025
 4177SOL    HW213431   4.136   5.210   3.061
 4178SOL     OW13432   3.596   6.091   1.368
 4178SOL    HW113433   3.660   6.099   1.444
 4178SOL    HW213434   3.642   6.115   1.283
 4179SOL     OW13435   4.457   2.498   6.986
 4179SOL    HW113436   4.500   2.419   0.005
 4179SOL    HW213437   4.385   2.466   6.923
 4180SOL     OW13438   3.887   3.741   0.347
 4180SOL    HW113439   3.978   3.747   0.307
 4180SOL    HW213440   3.867   3.646   0.370
 4181SOL     OW13441   5.543   6.433   5.624
 4181SOL    HW113442   5.626   6.428   5.568
 4181SOL    HW213443   5.526   6.344   5.667
 4182SOL     OW13444   0.400   5.932   5.526
 4182SOL    HW113445   0.457   5.884   5.592
 4182SOL    HW213446   0.323   5.975   5.574
 4183SOL     OW13447   4.592   2.008   0.168
 4183SOL    HW113448   4.668   1.951   0.138
 4183SOL    HW213449   4.524   2.015   0.094
 4184SOL     OW13450   3.619   5.607   3.561
 4184SOL    HW113451   3.642   5.609   3.464
 4184SOL    HW213452   3.565   5.689   3.584
 4185SOL     OW13453   4.957   3.745   3.383
 4185SOL    HW113454   4.910   3.791   3.459
 4185SOL    HW213455   5.045   3.789   3.367
 4186SOL     OW13456   1.860   5.310   0.167
 4186SOL    HW113457   1.817   5.237   0.115
 4186SOL    HW213458   1.810   5.324   0.252
 4187SOL     OW13459   2.413   4.042   6.090
 4187SOL    HW113460   2.509   4.066   6.084
 4187SOL    HW213461   2.363   4.115   6.136
 4188SOL     OW13462   4.889   0.464   6.499
 4188SOL    HW113463   4.895   0.555   6.542
 4188SOL    HW213464   4.976   0.416   6.511
 4189SOL     OW13465   4.765   5.258   3.088
 4189SOL    HW113466   4.672   5.266   3.124
 4189SOL    HW213467   4.765   5.280   2.991
 4190SOL     OW13468   6.068   6.851   1.599
 4190SOL    HW113469   6.126   6.805   1.666
 4190SOL    HW213470   5.975   6.858   1.635
 4191SOL     OW13471   4.410   2.802   6.325
 4191SOL    HW113472   4.432   2.851   6.410
 4191SOL    HW213473   4.313   2.814   6.304
 4192SOL     OW13474   1.829   3.534   6.386
 4192SOL    HW113475   1.731   3.513   6.388
 4192SOL    HW213476   1.881   3.448   6.385
 4193SOL     OW13477   6.952   0.728   0.144
 4193SOL    HW113478   0.022   0.754   0.166
 4193SOL    HW213479   6.910   0.685   0.224
 4194SOL     OW13480   6.062   0.938   6.375
 4194SOL    HW113481   6.082   1.029   6.414
 4194SOL    HW213482   6.131   0.873   6.407
 4195SOL     OW13483   2.610   6.511   1.034
 4195SOL    HW113484   2.631   6.510   1.132
 4195SOL    HW213485   2.586   6.419   1.004
 4196SOL     OW13486   0.294   2.474   3.191
 4196SOL    HW113487   0.251   2.540   3.253
 4196SOL    HW213488   0.389   2.501   3.176
 4197SOL     OW13489   3.357   1.033   0.090
 4197SOL    HW113490   3.445   1.038   0.043
 4197SOL    HW213491   3.282   1.036   0.023
 4198SOL     OW13492   6.679   2.181   2.120
 4198SOL    HW113493   6.775   2.159   2.104
 4198SOL    HW213494   6.672   2.259   2.183
 4199SOL     OW13495   0.533   3.728   6.686
 4199SOL    HW113496   0.578   3.715   6.598
 4199SOL    HW213497   0.577   3.670   6.755
 4200SOL     OW13498   4.902   1.835   3.804
 4200SOL    HW113499   4.897   1.849   3.705
 4200SOL    HW213500   4.823   1.783   3.835
 4201SOL     OW13501   5.558   6.977   4.553
 4201SOL    HW113502   5.626   6.908   4.529
 4201SOL    HW213503   5.593   0.043   4.526
 4202SOL     OW13504   4.659   4.143   1.540
 4202SOL    HW113505   4.621   4.125   1.450
 4202SOL    HW213506   4.616   4.224   1.580
 4203SOL     OW13507   5.881   4.471   5.756
 4203SOL    HW113508   5.808   4.538   5.753
 4203SOL    HW213509   5.944   4.486   5.680
 4204SOL     OW13510   1.661   4.499   6.399
 4204SOL    HW113511   1.647   4.555   6.480
 4204SOL    HW213512   1.585   4.514   6.336
 4205SOL     OW13513   4.602   6.821   6.614
 4205SOL    HW113514   4.638   6.730   6.591
 4205SOL    HW213515   4.516   6.812   6.663
 4206SOL     OW13516   2.288   1.734   4.523
 4206SOL    HW113517   2.320   1.666   4.589
 4206SOL    HW213518   2.364   1.760   4.463
 4207SOL     OW13519   1.541   2.180   2.258
 4207SOL    HW113520   1.574   2.266   2.297
 4207SOL    HW213521   1.451   2.194   2.217
 4208SOL     OW13522   2.651   2.451   3.796
 4208SOL    HW113523   2.698   2.410   3.718
 4208SOL    HW213524   2.661   2.391   3.876
 4209SOL     OW13525   6.460   5.643   2.042
 4209SOL    HW113526   6.511   5.564   2.009
 4209SOL    HW213527   6.444   5.707   1.966
 4210SOL     OW13528   3.119   4.430   5.308
 4210SOL    HW113529   3.047   4.460   5.245
 4210SOL    HW213530   3.099   4.465   5.400
 4211SOL     OW13531   3.485   2.976   5.505
 4211SOL    HW113532   3.430   2.969   5.588
 4211SOL    HW213533   3.564   2.914   5.511
 4212SOL     OW13534   0.732   2.147   2.831
 4212SOL    HW113535   0.637   2.165   2.806
 4212SOL    HW213536   0.736   2.117   2.926
 4213SOL     OW13537   3.898   0.241   4.118
 4213SOL    HW113538   3.979   0.232   4.176
 4213SOL    HW213539   3.861   0.150   4.098
 4214SOL     OW13540   6.788   6.126   3.293
 4214SOL    HW113541   6.694   6.095   3.302
 4214SOL    HW213542   6.793   6.200   3.225
 4215SOL     OW13543   5.950   0.495   5.780
 4215SOL    HW113544   5.936   0.575   5.838
 4215SOL    HW213545   5.968   0.524   5.686
 4216SOL     OW13546   2.450   5.514   2.008
 4216SOL    HW113547   2.452   5.439   1.942
 4216SOL    HW213548   2.487   5.482   2.095
 4217SOL     OW13549   1.641   0.209   3.176
 4217SOL    HW113550   1.695   0.273   3.230
 4217SOL    HW213551   1.544   0.234   3.183
 4218SOL     OW13552   3.177   1.037   2.065
 4218SOL    HW113553   3.133   1.007   2.150
 4218SOL    HW213554   3.262   0.987   2.052
 4219SOL     OW13555   3.755   4.915   3.601
 4219SOL    HW113556   3.781   4.873   3.688
 4219SOL    HW213557   3.716   5.005   3.618
 4220SOL     OW13558   6.304   2.033   0.804
 4220SOL    HW113559   6.366   2.020   0.881
 4220SOL    HW213560   6.213   2.058   0.839
 4221SOL     OW13561   0.357   6.388   0.394
 4221SOL    HW113562   0.332   6.473   0.347
 4221SOL    HW213563   0.408   6.329   0.331
 4222SOL     OW13564   4.919   3.202   4.514
 4222SOL    HW113565   4.939   3.141   4.438
 4222SOL    HW213566   4.919   3.296   4.482
 4223SOL     OW13567   3.575   3.956   2.675
 4223SOL    HW113568   3.553   3.873   2.726
 4223SOL    HW213569   3.491   4.005   2.653
 4224SOL     OW13570   4.532   4.960   4.316
 4224SOL    HW113571   4.461   4.905   4.361
 4224SOL    HW213572   4.549   5.042   4.370
 4225SOL     OW13573   1.196   2.070   5.793
 4225SOL    HW113574   1.269   2.116   5.843
 4225SOL    HW213575   1.234   1.994   5.741
 4226SOL     OW13576   6.739   4.522   4.888
 4226SOL    HW113577   6.794   4.531   4.805
 4226SOL    HW213578   6.798   4.504   4.966
 4227SOL     OW13579   4.891   5.296   1.605
 4227SOL    HW113580   4.923   5.291   1.510
 4227SOL    HW213581   4.808   5.241   1.615
 4228SOL     OW13582   1.621   4.741   3.585
 4228SOL    HW113583   1.563   4.660   3.593
 4228SOL    HW213584   1.569   4.816   3.543
 4229SOL     OW13585   6.026   6.165   5.449
 4229SOL    HW113586   6.047   6.253   5.405
 4229SOL    HW213587   6.007   6.097   5.379
 4230SOL     OW13588   0.101   1.380   1.863
 4230SOL    HW113589   0.132   1.319   1.936
 4230SOL    HW213590   0.130   1.344   1.774
 4231SOL     OW13591   0.644   0.482   6.118
 4231SOL    HW113592   0.582   0.430   6.178
 4231SOL    HW213593   0.611   0.476   6.024
 4232SOL     OW13594   1.562   4.990   4.130
 4232SOL    HW113595   1.658   4.972   4.107
 4232SOL    HW213596   1.504   4.970   4.051
 4233SOL     OW13597   4.570   5.407   2.424
 4233SOL    HW113598   4.612   5.482   2.372
 4233SOL    HW213599   4.536   5.442   2.511
 4234SOL     OW13600   3.538   5.678   5.631
 4234SOL    HW113601   3.564   5.597   5.579
 4234SOL    HW213602   3.607   5.749   5.619
 4235SOL     OW13603   6.837   5.712   6.347
 4235SOL    HW113604   6.830   5.634   6.409
 4235SOL    HW213605   6.917   5.767   6.373
 4236SOL     OW13606   0.152   5.560   3.192
 4236SOL    HW113607   0.063   5.599   3.216
 4236SOL    HW213608   0.156   5.465   3.223
 4237SOL     OW13609   6.993   4.441   3.633
 4237SOL    HW113610   6.931   4.510   3.671
 4237SOL    HW213611   0.040   4.420   3.699
 4238SOL     OW13612   3.072   5.749   2.617
 4238SOL    HW113613   3.147   5.814   2.603
 4238SOL    HW213614   2.986   5.791   2.587
 4239SOL     OW13615   4.232   1.235   3.630
 4239SOL    HW113616   4.269   1.152   3.587
 4239SOL    HW213617   4.150   1.264   3.581
 4240SOL     OW13618   5.792   6.939   1.765
 4240SOL    HW113619   5.748   6.980   1.845
 4240SOL    HW213620   5.732   6.948   1.686
 4241SOL     OW13621   6.568   4.560   0.498
 4241SOL    HW113622   6.645   4.624   0.507
 4241SOL    HW213623   6.519   4.554   0.584
 4242SOL     OW13624   3.456   2.124   3.386
 4242SOL    HW113625   3.536   2.175   3.417
 4242SOL    HW213626   3.486   2.051   3.324
 4243SOL     OW13627   4.195   1.712   2.601
 4243SOL    HW113628   4.202   1.782   2.672
 4243SOL    HW213629   4.098   1.694   2.582
 4244SOL     OW13630   3.231   3.038   4.593
 4244SOL    HW113631   3.164   3.104   4.558
 4244SOL    HW213632   3.214   3.020   4.690
 4245SOL     OW13633   6.071   0.200   6.909
 4245SOL    HW113634   6.073   0.273   6.841
 4245SOL    HW213635   6.084   0.111   6.863
 4246SOL     OW13636   6.554   4.188   6.696
 4246SOL    HW113637   6.513   4.169   6.607
 4246SOL    HW213638   6.481   4.203   6.763
 4247SOL     OW13639   0.145   6.055   5.145
 4247SOL    HW113640   0.133   6.144   5.103
 4247SOL    HW213641   0.243   6.035   5.156
 4248SOL     OW13642   2.529   3.930   6.657
 4248SOL    HW113643   2.463   3.860   6.684
 4248SOL    HW213644   2.558   3.914   6.563
 4249SOL     OW13645   5.320   3.935   5.601
 4249SOL    HW113646   5.235   3.882   5.600
 4249SOL    HW213647   5.394   3.880   5.563
 4250SOL     OW13648   1.167   4.188   3.256
 4250SOL    HW113649   1.190   4.273   3.208
 4250SOL    HW213650   1.241   4.164   3.319
 4251SOL     OW13651   5.461   5.133   7.019
 4251SOL    HW113652   5.504   5.181   0.071
 4251SOL    HW213653   5.391   5.191   6.977
 4252SOL     OW13654   6.752   5.532   5.007
 4252SOL    HW113655   6.695   5.544   4.926
 4252SOL    HW213656   6.726   5.599   5.076
 4253SOL     OW13657   3.872   5.778   2.906
 4253SOL    HW113658   3.776   5.777   2.878
 4253SOL    HW213659   3.919   5.855   2.863
 4254SOL     OW13660   2.832   3.526   1.555
 4254SOL    HW113661   2.762   3.589   1.588
 4254SOL    HW213662   2.850   3.542   1.458
 4255SOL     OW13663   0.218   1.842   4.492
 4255SOL    HW113664   0.159   1.923   4.501
 4255SOL    HW213665   0.194   1.793   4.408
 4256SOL     OW13666   2.247   1.018   2.035
 4256SOL    HW113667   2.173   0.951   2.028
 4256SOL    HW213668   2.275   1.026   2.131
 4257SOL     OW13669   4.412   2.260   5.116
 4257SOL    HW113670   4.428   2.167   5.083
 4257SOL    HW213671   4.328   2.296   5.075
 4258SOL     OW13672   4.960   6.278   3.074
 4258SOL    HW113673   4.931   6.273   3.170
 4258SOL    HW213674   4.956   6.186   3.034
 4259SOL     OW13675   1.646   3.152   1.139
 4259SOL    HW113676   1.600   3.202   1.212
 4259SOL    HW213677   1.714   3.090   1.179
 4260SOL     OW13678   4.048   5.610   4.251
 4260SOL    HW113679   4.101   5.642   4.173
 4260SOL    HW213680   4.054   5.677   4.325
 4261SOL     OW13681   1.261   1.446   2.946
 4261SOL    HW113682   1.161   1.451   2.953
 4261SOL    HW213683   1.295   1.372   3.004
 4262SOL     OW13684   0.034   6.408   6.313
 4262SOL    HW113685   0.045   6.380   6.218
 4262SOL    HW213686   0.117   6.455   6.344
 4263SOL     OW13687   4.229   5.048   6.571
 4263SOL    HW113688   4.196   4.955   6.587
 4263SOL    HW213689   4.262   5.056   6.477
 4264SOL     OW13690   0.093   0.412   1.501
 4264SOL    HW113691   0.005   0.429   1.546
 4264SOL    HW213692   0.147   0.348   1.555
 4265SOL     OW13693   1.505   1.759   0.158
 4265SOL    HW113694   1.536   1.852   0.135
 4265SOL    HW213695   1.436   1.764   0.231
 4266SOL     OW13696   3.257   4.823   1.325
 4266SOL    HW113697   3.350   4.789   1.308
 4266SOL    HW213698   3.233   4.808   1.421
 4267SOL     OW13699   1.787   4.250   5.874
 4267SOL    HW113700   1.731   4.323   5.835
 4267SOL    HW213701   1.810   4.183   5.803
 4268SOL     OW13702   2.005   0.641   0.686
 4268SOL    HW113703   2.054   0.667   0.603
 4268SOL    HW213704   2.016   0.543   0.702
 4269SOL     OW13705   2.455   4.483   0.753
 4269SOL    HW113706   2.363   4.515   0.729
 4269SOL    HW213707   2.468   4.491   0.852
 4270SOL     OW13708   3.762   2.809   6.468
 4270SOL    HW113709   3.757   2.882   6.400
 4270SOL    HW213710   3.810   2.842   6.549
 4271SOL     OW13711   1.431   0.195   0.507
 4271SOL    HW113712   1.350   0.229   0.460
 4271SOL    HW213713   1.406   0.117   0.565
 4272SOL     OW13714   0.076   3.625   3.804
 4272SOL    HW113715   0.011   3.551   3.819
 4272SOL    HW213716   0.056   3.670   3.717
 4273SOL     OW13717   5.958   6.579   4.017
 4273SOL    HW113718   5.897   6.500   4.008
 4273SOL    HW213719   5.926   6.653   3.957
 4274SOL     OW13720   2.129   0.604   3.901
 4274SOL    HW113721   2.087   0.672   3.841
 4274SOL    HW213722   2.190   0.650   3.966
 4275SOL     OW13723   0.789   0.074   6.122
 4275SOL    HW113724   0.883   0.046   6.138
 4275SOL    HW213725   0.749   0.109   6.207
 4276SOL     OW13726   2.088   4.544   2.518
 4276SOL    HW113727   2.093   4.589   2.606
 4276SOL    HW213728   2.080   4.612   2.445
 4277SOL     OW13729   0.887   5.280   5.051
 4277SOL    HW113730   0.838   5.274   4.964
 4277SOL    HW213731   0.825   5.317   5.121
 4278SOL     OW13732   1.473   6.833   6.195
 4278SOL    HW113733   1.525   6.784   6.125
 4278SOL    HW213734   1.529   6.841   6.278
 4279SOL     OW13735   3.193   5.870   4.356
 4279SOL    HW113736   3.253   5.790   4.345
 4279SOL    HW213737   3.234   5.934   4.421
 4280SOL     OW13738   4.787   2.919   3.557
 4280SOL    HW113739   4.758   2.990   3.621
 4280SOL    HW213740   4.753   2.830   3.589
 4281SOL     OW13741   2.396   4.080   5.410
 4281SOL    HW113742   2.457   4.155   5.386
 4281SOL    HW213743   2.383   4.020   5.331
 4282SOL     OW13744   0.365   2.957   0.504
 4282SOL    HW113745   0.320   2.892   0.442
 4282SOL    HW213746   0.297   3.019   0.542
 4283SOL     OW13747   2.555   0.709   4.782
 4283SOL    HW113748   2.599   0.795   4.753
 4283SOL    HW213749   2.554   0.645   4.705
 4284SOL     OW13750   0.215   1.908   2.883
 4284SOL    HW113751   0.195   1.817   2.919
 4284SOL    HW213752   0.306   1.936   2.914
 4285SOL     OW13753   1.066   5.912   4.620
 4285SOL    HW113754   1.122   5.915   4.537
 4285SOL    HW213755   1.042   5.817   4.641
 4286SOL     OW13756   4.951   5.844   6.683
 4286SOL    HW113757   4.976   5.937   6.708
 4286SOL    HW213758   4.950   5.787   6.765
 4287SOL     OW13759   3.957   6.419   5.835
 4287SOL    HW113760   3.913   6.332   5.812
 4287SOL    HW213761   4.016   6.448   5.760
 4288SOL     OW13762   1.206   6.436   3.197
 4288SOL    HW113763   1.160   6.430   3.286
 4288SOL    HW213764   1.187   6.353   3.144
 4289SOL     OW13765   6.713   3.656   0.169
 4289SOL    HW113766   6.751   3.737   0.213
 4289SOL    HW213767   6.650   3.610   0.231
 4290SOL     OW13768   2.278   1.903   3.370
 4290SOL    HW113769   2.326   1.990   3.357
 4290SOL    HW213770   2.188   1.921   3.411
 4291SOL     OW13771   6.608   4.341   1.280
 4291SOL    HW113772   6.607   4.296   1.190
 4291SOL    HW213773   6.656   4.283   1.346
 4292SOL     OW13774   5.751   5.306   6.108
 4292SOL    HW113775   5.702   5.219   6.107
 4292SOL    HW213776   5.729   5.358   6.026
 4293SOL     OW13777   0.047   2.369   6.364
 4293SOL    HW113778   0.097   2.320   6.436
 4293SOL    HW213779   7.020   2.445   6.404
 4294SOL     OW13780   4.971   2.269   5.819
 4294SOL    HW113781   4.987   2.330   5.896
 4294SOL    HW213782   4.905   2.198   5.846
 4295SOL     OW13783   3.567   6.058   5.667
 4295SOL    HW113784   3.566   6.083   5.764
 4295SOL    HW213785   3.474   6.039   5.637
 4296SOL     OW13786   2.615   1.422   2.906
 4296SOL    HW113787   2.608   1.409   2.807
 4296SOL    HW213788   2.660   1.342   2.947
 4297SOL     OW13789   5.871   0.886   0.346
 4297SOL    HW113790   5.891   0.879   0.248
 4297SOL    HW213791   5.773   0.901   0.358
 4298SOL     OW13792   2.317   5.357   1.413
 4298SOL    HW113793   2.284   5.263   1.404
 4298SOL    HW213794   2.272   5.400   1.491
 4299SOL     OW13795   0.846   4.421   5.756
 4299SOL    HW113796   0.794   4.446   5.675
 4299SOL    HW213797   0.944   4.430   5.738
 4300SOL     OW13798   5.832   6.613   5.986
 4300SOL    HW113799   5.881   6.527   5.969
 4300SOL    HW213800   5.824   6.664   5.900
 4301SOL     OW13801   2.618   1.152   0.138
 4301SOL    HW113802   2.578   1.228   0.087
 4301SOL    HW213803   2.653   1.083   0.074
 4302SOL     OW13804   1.021   6.846   6.504
 4302SOL    HW113805   1.087   6.782   6.464
 4302SOL    HW213806   1.040   6.856   6.602
 4303SOL     OW13807   6.891   3.954   1.473
 4303SOL    HW113808   6.822   3.893   1.512
 4303SOL    HW213809   6.859   3.988   1.384
 4304SOL     OW13810   3.140   2.997   4.838
 4304SOL    HW113811   3.044   3.006   4.864
 4304SOL    HW213812   3.190   2.948   4.909
 4305SOL     OW13813   6.276   1.077   4.913
 4305SOL    HW113814   6.356   1.080   4.854
 4305SOL    HW213815   6.238   1.169   4.924
 4306SOL     OW13816   5.817   5.785   6.336
 4306SOL    HW113817   5.740   5.747   6.387
 4306SOL    HW213818   5.901   5.737   6.362
 4307SOL     OW13819   5.104   3.536   0.487
 4307SOL    HW113820   5.099   3.449   0.438
 4307SOL    HW213821   5.112   3.519   0.585
 4308SOL     OW13822   3.920   7.018   5.544
 4308SOL    HW113823   3.858   0.038   5.608
 4308SOL    HW213824   3.984   0.061   5.507
 4309SOL     OW13825   1.915   0.914   1.385
 4309SOL    HW113826   1.905   1.011   1.405
 4309SOL    HW213827   1.926   0.900   1.287
 4310SOL     OW13828   1.727   0.540   2.808
 4310SOL    HW113829   1.733   0.634   2.772
 4310SOL    HW213830   1.703   0.478   2.734
 4311SOL     OW13831   1.204   5.904   4.391
 4311SOL    HW113832   1.301   5.927   4.404
 4311SOL    HW213833   1.168   5.956   4.314
 4312SOL     OW13834   1.630   5.764   1.370
 4312SOL    HW113835   1.650   5.757   1.272
 4312SOL    HW213836   1.695   5.826   1.414
 4313SOL     OW13837   5.219   0.433   1.747
 4313SOL    HW113838   5.186   0.434   1.652
 4313SOL    HW213839   5.182   0.513   1.795
 4314SOL     OW13840   5.312   3.531   2.180
 4314SOL    HW113841   5.385   3.561   2.119
 4314SOL    HW213842   5.230   3.512   2.125
 4315SOL     OW13843   2.442   1.208   2.600
 4315SOL    HW113844   2.493   1.293   2.594
 4315SOL    HW213845   2.374   1.215   2.674
 4316SOL     OW13846   0.574   0.633   2.370
 4316SOL    HW113847   0.493   0.678   2.408
 4316SOL    HW213848   0.630   0.701   2.323
 4317SOL     OW13849   4.147   0.513   3.751
 4317SOL    HW113850   4.142   0.599   3.700
 4317SOL    HW213851   4.069   0.455   3.727
 4318SOL     OW13852   6.234   2.594   3.893
 4318SOL    HW113853   6.320   2.644   3.888
 4318SOL    HW213854   6.252   2.496   3.894
 4319SOL     OW13855   2.800   3.043   5.844
 4319SOL    HW113856   2.784   3.004   5.934
 4319SOL    HW213857   2.742   2.996   5.777
 4320SOL     OW13858   0.646   5.822   3.363
 4320SOL    HW113859   0.697   5.908   3.359
 4320SOL    HW213860   0.550   5.840   3.345
 4321SOL     OW13861   0.474   0.690   4.810
 4321SOL    HW113862   0.486   0.657   4.716
 4321SOL    HW213863   0.408   0.632   4.858
 4322SOL     OW13864   5.626   1.587   0.943
 4322SOL    HW113865   5.585   1.650   1.009
 4322SOL    HW213866   5.635   1.496   0.985
 4323SOL     OW13867   6.960   2.000   3.967
 4323SOL    HW113868   7.018   2.027   4.044
 4323SOL    HW213869   6.972   1.903   3.948
 4324SOL     OW13870   5.648   2.729   6.183
 4324SOL    HW113871   5.650   2.824   6.214
 4324SOL    HW213872   5.640   2.669   6.263
 4325SOL     OW13873   1.892   2.238   5.865
 4325SOL    HW113874   1.856   2.194   5.782
 4325SOL    HW213875   1.991   2.221   5.871
 4326SOL     OW13876   6.546   2.457   5.390
 4326SOL    HW113877   6.580   2.435   5.299
 4326SOL    HW213878   6.449   2.431   5.396
 4327SOL     OW13879   5.575   0.563   3.075
 4327SOL    HW113880   5.659   0.552   3.129
 4327SOL    HW213881   5.510   0.620   3.126
 4328SOL     OW13882   5.732   5.060   0.367
 4328SOL    HW113883   5.661   5.040   0.300
 4328SOL    HW213884   5.729   5.157   0.391
 4329SOL     OW13885   4.725   1.356   6.442
 4329SOL    HW113886   4.627   1.375   6.444
 4329SOL    HW213887   4.769   1.413   6.373
 4330SOL     OW13888   1.063   0.770   6.427
 4330SOL    HW113889   1.006   0.806   6.353
 4330SOL    HW213890   1.007   0.755   6.508
 4331SOL     OW13891   5.255   2.492   6.852
 4331SOL    HW113892   5.168   2.456   6.818
 4331SOL    HW213893   5.329   2.431   6.824
 4332SOL     OW13894   5.318   3.297   1.933
 4332SOL    HW113895   5.253   3.373   1.939
 4332SOL    HW213896   5.273   3.219   1.888
 4333SOL     OW13897   6.155   1.567   5.675
 4333SOL    HW113898   6.128   1.646   5.730
 4333SOL    HW213899   6.082   1.546   5.609
 4334SOL     OW13900   4.525   0.116   1.180
 4334SOL    HW113901   4.434   0.121   1.137
 4334SOL    HW213902   4.553   0.208   1.208
 4335SOL     OW13903   3.994   4.386   5.601
 4335SOL    HW113904   3.953   4.305   5.558
 4335SOL    HW213905   4.025   4.362   5.693
 4336SOL     OW13906   1.237   6.222   5.330
 4336SOL    HW113907   1.259   6.219   5.232
 4336SOL    HW213908   1.279   6.144   5.376
 4337SOL     OW13909   0.491   5.288   0.172
 4337SOL    HW113910   0.416   5.300   0.236
 4337SOL    HW213911   0.574   5.265   0.222
 4338SOL     OW13912   5.907   5.842   3.658
 4338SOL    HW113913   5.964   5.857   3.578
 4338SOL    HW213914   5.964   5.816   3.736
 4339SOL     OW13915   6.907   1.349   6.588
 4339SOL    HW113916   6.930   1.417   6.518
 4339SOL    HW213917   6.850   1.390   6.658
 4340SOL     OW13918   4.747   3.510   1.663
 4340SOL    HW113919   4.815   3.458   1.715
 4340SOL    HW213920   4.769   3.607   1.669
 4341SOL     OW13921   0.462   3.782   6.965
 4341SOL    HW113922   0.455   3.779   6.866
 4341SOL    HW213923   0.381   3.740   7.006
 4342SOL     OW13924   6.991   1.957   2.996
 4342SOL    HW113925   0.065   1.952   2.984
 4342SOL    HW213926   6.952   2.016   2.926
 4343SOL     OW13927   2.631   1.863   1.696
 4343SOL    HW113928   2.723   1.856   1.658
 4343SOL    HW213929   2.637   1.872   1.796
 4344SOL     OW13930   2.143   3.831   2.343
 4344SOL    HW113931   2.143   3.739   2.382
 4344SOL    HW213932   2.103   3.895   2.409
 4345SOL     OW13933   2.328   1.859   6.172
 4345SOL    HW113934   2.242   1.896   6.208
 4345SOL    HW213935   2.316   1.834   6.076
 4346SOL     OW13936   6.856   3.520   1.053
 4346SOL    HW113937   6.773   3.559   1.094
 4346SOL    HW213938   6.874   3.431   1.094
 4347SOL     OW13939   5.632   5.954   2.600
 4347SOL    HW113940   5.672   6.043   2.577
 4347SOL    HW213941   5.533   5.962   2.606
 4348SOL     OW13942   1.008   4.032   6.958
 4348SOL    HW113943   1.043   4.089   0.007
 4348SOL    HW213944   0.909   4.020   6.968
 4349SOL     OW13945   6.735   0.793   1.988
 4349SOL    HW113946   6.666   0.814   2.057
 4349SOL    HW213947   6.726   0.698   1.960
 4350SOL     OW13948   4.627   0.061   3.598
 4350SOL    HW113949   4.605   0.131   3.666
 4350SOL    HW213950   4.545   0.008   3.576
 4351SOL     OW13951   2.527   6.653   0.360
 4351SOL    HW113952   2.556   6.565   0.323
 4351SOL    HW213953   2.527   6.650   0.460
 4352SOL     OW13954   6.100   1.310   2.776
 4352SOL    HW113955   6.153   1.232   2.745
 4352SOL    HW213956   6.023   1.326   2.714
 4353SOL     OW13957   3.031   5.661   1.893
 4353SOL    HW113958   3.068   5.669   1.800
 4353SOL    HW213959   2.945   5.610   1.890
 4354SOL     OW13960   2.436   1.148   1.461
 4354SOL    HW113961   2.338   1.143   1.439
 4354SOL    HW213962   2.481   1.064   1.430
 4355SOL     OW13963   4.879   0.485   0.426
 4355SOL    HW113964   4.809   0.504   0.495
 4355SOL    HW213965   4.837   0.481   0.335
 4356SOL     OW13966   3.446   4.055   0.230
 4356SOL    HW113967   3.350   4.080   0.216
 4356SOL    HW213968   3.455   3.956   0.234
 4357SOL     OW13969   6.478   0.845   6.702
 4357SOL    HW113970   6.485   0.844   6.802
 4357SOL    HW213971   6.382   0.855   6.675
 4358SOL     OW13972   6.472   0.992   1.059
 4358SOL    HW113973   6.507   0.996   0.965
 4358SOL    HW213974   6.383   0.948   1.059
 4359SOL     OW13975   5.859   3.030   4.216
 4359SOL    HW113976   5.814   2.961   4.160
 4359SOL    HW213977   5.929   2.986   4.273
 4360SOL     OW13978   2.262   3.463   1.029
 4360SOL    HW113979   2.335   3.526   1.004
 4360SOL    HW213980   2.174   3.509   1.021
 4361SOL     OW13981   5.784   1.641   2.157
 4361SOL    HW113982   5.695   1.645   2.112
 4361SOL    HW213983   5.837   1.565   2.120
 4362SOL     OW13984   5.167   4.192   2.970
 4362SOL    HW113985   5.074   4.179   2.935
 4362SOL    HW213986   5.230   4.136   2.918
 4363SOL     OW13987   5.536   0.950   6.179
 4363SOL    HW113988   5.509   0.906   6.094
 4363SOL    HW213989   5.635   0.962   6.181
 4364SOL     OW13990   3.410   3.794   4.700
 4364SOL    HW113991   3.339   3.863   4.688
 4364SOL    HW213992   3.429   3.751   4.612
 4365SOL     OW13993   3.923   1.403   0.391
 4365SOL    HW113994   3.922   1.503   0.392
 4365SOL    HW213995   3.833   1.369   0.361
 4366SOL     OW13996   5.289   5.087   1.087
 4366SOL    HW113997   5.210   5.049   1.137
 4366SOL    HW213998   5.298   5.040   1.000
 4367SOL     OW13999   0.123   6.731   0.643
 4367SOL    HW114000   0.113   6.768   0.736
 4367SOL    HW214001   0.125   6.807   0.578
 4368SOL     OW14002   4.682   4.448   1.868
 4368SOL    HW114003   4.741   4.391   1.811
 4368SOL    HW214004   4.612   4.392   1.911
 4369SOL     OW14005   3.095   5.673   1.614
 4369SOL    HW114006   3.078   5.743   1.545
 4369SOL    HW214007   3.183   5.629   1.597
 4370SOL     OW14008   5.794   4.105   2.378
 4370SOL    HW114009   5.833   4.021   2.416
 4370SOL    HW214010   5.704   4.085   2.338
 4371SOL     OW14011   0.425   2.316   2.473
 4371SOL    HW114012   0.476   2.389   2.428
 4371SOL    HW214013   0.489   2.246   2.505
 4372SOL     OW14014   4.746   0.058   3.340
 4372SOL    HW114015   4.665   0.097   3.296
 4372SOL    HW214016   4.733   0.058   3.440
 4373SOL     OW14017   6.349   1.788   6.279
 4373SOL    HW114018   6.438   1.743   6.277
 4373SOL    HW214019   6.296   1.761   6.199
 4374SOL     OW14020   3.540   1.306   1.346
 4374SOL    HW114021   3.536   1.341   1.440
 4374SOL    HW214022   3.635   1.287   1.322
 4375SOL     OW14023   3.526   5.863   4.283
 4375SOL    HW114024   3.589   5.941   4.283
 4375SOL    HW214025   3.494   5.847   4.190
 4376SOL     OW14026   6.561   1.813   4.315
 4376SOL    HW114027   6.602   1.900   4.290
 4376SOL    HW214028   6.588   1.789   4.408
 4377SOL     OW14029   7.006   4.766   6.266
 4377SOL    HW114030   6.988   4.678   6.221
 4377SOL    HW214031   0.006   4.834   6.197
 4378SOL     OW14032   3.082   1.470   4.153
 4378SOL    HW114033   3.141   1.535   4.106
 4378SOL    HW214034   3.125   1.379   4.153
 4379SOL     OW14035   3.586   1.938   5.737
 4379SOL    HW114036   3.584   2.029   5.695
 4379SOL    HW214037   3.636   1.942   5.823
 4380SOL     OW14038   0.453   2.136   2.818
 4380SOL    HW114039   0.383   2.208   2.823
 4380SOL    HW214040   0.450   2.082   2.903
 4381SOL     OW14041   1.359   6.228   6.941
 4381SOL    HW114042   1.339   6.283   6.860
 4381SOL    HW214043   1.344   6.283   7.023
 4382SOL     OW14044   0.772   4.967   4.253
 4382SOL    HW114045   0.744   4.967   4.157
 4382SOL    HW214046   0.829   4.887   4.271
 4383SOL     OW14047   6.414   3.767   0.350
 4383SOL    HW114048   6.364   3.680   0.350
 4383SOL    HW214049   6.509   3.751   0.377
 4384SOL     OW14050   5.670   6.884   4.064
 4384SOL    HW114051   5.734   6.874   3.988
 4384SOL    HW214052   5.654   6.795   4.106
 4385SOL     OW14053   4.835   1.643   5.899
 4385SOL    HW114054   4.843   1.688   5.810
 4385SOL    HW214055   4.782   1.559   5.889
 4386SOL     OW14056   1.847   3.763   5.032
 4386SOL    HW114057   1.940   3.799   5.025
 4386SOL    HW214058   1.788   3.832   5.072
 4387SOL     OW14059   5.413   1.928   0.770
 4387SOL    HW114060   5.435   2.018   0.733
 4387SOL    HW214061   5.330   1.933   0.825
 4388SOL     OW14062   5.007   3.929   0.212
 4388SOL    HW114063   4.979   3.858   0.277
 4388SOL    HW214064   5.013   3.890   0.120
 4389SOL     OW14065   1.570   2.028   0.098
 4389SOL    HW114066   1.611   2.115   0.072
 4389SOL    HW214067   1.480   2.045   0.139
 4390SOL     OW14068   0.301   1.584   0.744
 4390SOL    HW114069   0.355   1.667   0.739
 4390SOL    HW214070   0.310   1.545   0.836
 4391SOL     OW14071   0.989   5.766   0.828
 4391SOL    HW114072   0.960   5.683   0.781
 4391SOL    HW214073   0.918   5.836   0.820
 4392SOL     OW14074   0.875   3.241   5.911
 4392SOL    HW114075   0.934   3.226   5.832
 4392SOL    HW214076   0.785   3.273   5.880
 4393SOL     OW14077   5.477   0.475   1.883
 4393SOL    HW114078   5.546   0.436   1.943
 4393SOL    HW214079   5.403   0.408   1.870
 4394SOL     OW14080   0.882   0.289   2.724
 4394SOL    HW114081   0.945   0.254   2.654
 4394SOL    HW214082   0.811   0.221   2.742
 4395SOL     OW14083   1.858   4.807   2.065
 4395SOL    HW114084   1.857   4.788   1.967
 4395SOL    HW214085   1.942   4.769   2.105
 4396SOL     OW14086   3.033   0.930   2.889
 4396SOL    HW114087   3.108   0.875   2.853
 4396SOL    HW214088   3.069   0.998   2.953
 4397SOL     OW14089   3.074   1.316   4.788
 4397SOL    HW114090   3.168   1.333   4.759
 4397SOL    HW214091   3.019   1.289   4.709
 4398SOL     OW14092   1.630   3.199   5.447
 4398SOL    HW114093   1.666   3.208   5.539
 4398SOL    HW214094   1.705   3.184   5.383
 4399SOL     OW14095   2.559   6.294   2.121
 4399SOL    HW114096   2.551   6.367   2.189
 4399SOL    HW214097   2.531   6.329   2.032
 4400SOL     OW14098   1.879   5.865   4.229
 4400SOL    HW114099   1.868   5.769   4.203
 4400SOL    HW214100   1.966   5.877   4.277
 4401SOL     OW14101   2.948   6.757   6.486
 4401SOL    HW114102   2.865   6.712   6.454
 4401SOL    HW214103   2.948   6.760   6.586
 4402SOL     OW14104   2.433   0.636   2.867
 4402SOL    HW114105   2.423   0.537   2.868
 4402SOL    HW214106   2.346   0.679   2.843
 4403SOL     OW14107   0.738   5.014   1.584
 4403SOL    HW114108   0.739   5.107   1.620
 4403SOL    HW214109   0.663   5.005   1.519
 4404SOL     OW14110   0.276   6.547   6.386
 4404SOL    HW114111   0.304   6.630   6.434
 4404SOL    HW214112   0.345   6.476   6.398
 4405SOL     OW14113   1.742   5.456   2.351
 4405SOL    HW114114   1.762   5.465   2.254
 4405SOL    HW214115   1.645   5.472   2.367
 4406SOL     OW14116   6.280   4.014   2.141
 4406SOL    HW114117   6.370   3.971   2.153
 4406SOL    HW214118   6.211   3.943   2.131
 4407SOL     OW14119   6.049   6.364   1.179
 4407SOL    HW114120   6.011   6.451   1.210
 4407SOL    HW214121   6.070   6.369   1.081
 4408SOL     OW14122   3.906   0.818   0.205
 4408SOL    HW114123   3.810   0.818   0.180
 4408SOL    HW214124   3.916   0.785   0.299
 4409SOL     OW14125   2.955   0.873   3.630
 4409SOL    HW114126   2.901   0.807   3.681
 4409SOL    HW214127   2.906   0.960   3.623
 4410SOL     OW14128   0.238   0.640   1.085
 4410SOL    HW114129   0.223   0.565   1.150
 4410SOL    HW214130   0.163   0.706   1.093
 4411SOL     OW14131   4.555   4.580   5.301
 4411SOL    HW114132   4.553   4.677   5.276
 4411SOL    HW214133   4.547   4.571   5.400
 4412SOL     OW14134   4.554   6.222   1.723
 4412SOL    HW114135   4.459   6.228   1.754
 4412SOL    HW214136   4.563   6.268   1.635
 4413SOL     OW14137   4.719   5.395   3.802
 4413SOL    HW114138   4.776   5.353   3.730
 4413SOL    HW214139   4.661   5.325   3.843
 4414SOL     OW14140   5.365   3.674   1.612
 4414SOL    HW114141   5.407   3.676   1.521
 4414SOL    HW214142   5.369   3.765   1.653
 4415SOL     OW14143   1.599   3.594   1.092
 4415SOL    HW114144   1.606   3.624   0.997
 4415SOL    HW214145   1.611   3.673   1.152
 4416SOL     OW14146   5.211   2.821   3.914
 4416SOL    HW114147   5.115   2.800   3.893
 4416SOL    HW214148   5.234   2.784   4.004
 4417SOL     OW14149   0.071   4.081   1.573
 4417SOL    HW114150   0.096   4.159   1.516
 4417SOL    HW214151   7.015   4.036   1.534
 4418SOL     OW14152   6.609   0.787   5.891
 4418SOL    HW114153   6.693   0.762   5.939
 4418SOL    HW214154   6.546   0.709   5.892
 4419SOL     OW14155   6.418   5.403   6.592
 4419SOL    HW114156   6.369   5.463   6.529
 4419SOL    HW214157   6.353   5.354   6.650
 4420SOL     OW14158   3.695   1.366   0.994
 4420SOL    HW114159   3.719   1.392   0.901
 4420SOL    HW214160   3.749   1.420   1.059
 4421SOL     OW14161   2.017   3.006   0.316
 4421SOL    HW114162   2.096   2.977   0.261
 4421SOL    HW214163   1.938   3.019   0.256
 4422SOL     OW14164   6.752   3.129   6.069
 4422SOL    HW114165   6.692   3.135   5.989
 4422SOL    HW214166   6.755   3.035   6.101
 4423SOL     OW14167   6.306   4.597   4.642
 4423SOL    HW114168   6.274   4.505   4.665
 4423SOL    HW214169   6.362   4.593   4.559
 4424SOL     OW14170   4.842   5.904   2.709
 4424SOL    HW114171   4.805   5.926   2.799
 4424SOL    HW214172   4.775   5.851   2.658
 4425SOL     OW14173   0.938   5.831   1.201
 4425SOL    HW114174   0.863   5.814   1.265
 4425SOL    HW214175   0.909   5.803   1.109
 4426SOL     OW14176   0.414   0.901   4.487
 4426SOL    HW114177   0.503   0.865   4.457
 4426SOL    HW214178   0.369   0.833   4.545
 4427SOL     OW14179   2.279   5.809   2.648
 4427SOL    HW114180   2.278   5.888   2.710
 4427SOL    HW214181   2.258   5.726   2.700
 4428SOL     OW14182   6.646   5.419   2.964
 4428SOL    HW114183   6.736   5.432   3.006
 4428SOL    HW214184   6.629   5.321   2.954
 4429SOL     OW14185   3.059   6.632   3.198
 4429SOL    HW114186   3.019   6.687   3.271
 4429SOL    HW214187   3.137   6.680   3.159
 4430SOL     OW14188   5.841   3.571   5.413
 4430SOL    HW114189   5.826   3.632   5.335
 4430SOL    HW214190   5.810   3.479   5.389
 4431SOL     OW14191   3.834   6.811   4.674
 4431SOL    HW114192   3.787   6.723   4.681
 4431SOL    HW214193   3.926   6.803   4.714
 4432SOL     OW14194   0.894   3.738   5.918
 4432SOL    HW114195   0.820   3.690   5.965
 4432SOL    HW214196   0.899   3.706   5.823
 4433SOL     OW14197   0.823   0.980   4.290
 4433SOL    HW114198   0.911   0.937   4.313
 4433SOL    HW214199   0.807   1.058   4.350
 4434SOL     OW14200   6.864   0.660   1.678
 4434SOL    HW114201   6.831   0.754   1.684
 4434SOL    HW214202   6.935   0.645   1.748
 4435SOL     OW14203   2.202   4.237   0.854
 4435SOL    HW114204   2.231   4.141   0.860
 4435SOL    HW214205   2.190   4.262   0.758
 4436SOL     OW14206   4.196   2.243   2.096
 4436SOL    HW114207   4.226   2.319   2.153
 4436SOL    HW214208   4.101   2.220   2.119
 4437SOL     OW14209   6.355   4.418   0.018
 4437SOL    HW114210   6.452   4.408   0.036
 4437SOL    HW214211   6.308   4.451   0.100
 4438SOL     OW14212   4.167   1.354   5.025
 4438SOL    HW114213   4.102   1.298   5.075
 4438SOL    HW214214   4.160   1.336   4.927
 4439SOL     OW14215   2.554   5.669   2.978
 4439SOL    HW114216   2.592   5.723   2.904
 4439SOL    HW214217   2.565   5.718   3.065
 4440SOL     OW14218   1.254   4.596   5.603
 4440SOL    HW114219   1.276   4.540   5.683
 4440SOL    HW214220   1.223   4.686   5.633
 4441SOL     OW14221   6.741   2.296   0.762
 4441SOL    HW114222   6.785   2.386   0.773
 4441SOL    HW214223   6.647   2.309   0.730
 4442SOL     OW14224   1.722   4.939   0.899
 4442SOL    HW114225   1.636   4.892   0.920
 4442SOL    HW214226   1.770   4.887   0.828
 4443SOL     OW14227   0.426   5.691   6.075
 4443SOL    HW114228   0.327   5.684   6.064
 4443SOL    HW214229   0.450   5.783   6.105
 4444SOL     OW14230   5.723   5.188   0.693
 4444SOL    HW114231   5.815   5.148   0.696
 4444SOL    HW214232   5.730   5.287   0.682
 4445SOL     OW14233   1.768   4.164   0.090
 4445SOL    HW114234   1.785   4.067   0.070
 4445SOL    HW214235   1.706   4.171   0.168
 4446SOL     OW14236   4.490   1.923   2.015
 4446SOL    HW114237   4.477   1.836   2.063
 4446SOL    HW214238   4.493   1.906   1.916
 4447SOL     OW14239   3.848   5.487   5.672
 4447SOL    HW114240   3.849   5.551   5.595
 4447SOL    HW214241   3.790   5.409   5.650
 4448SOL     OW14242   3.421   6.358   2.051
 4448SOL    HW114243   3.373   6.445   2.065
 4448SOL    HW214244   3.499   6.352   2.113
 4449SOL     OW14245   3.885   1.873   5.704
 4449SOL    HW114246   3.791   1.890   5.734
 4449SOL    HW214247   3.884   1.835   5.612
 4450SOL     OW14248   2.259   6.409   0.315
 4450SOL    HW114249   2.243   6.507   0.314
 4450SOL    HW214250   2.225   6.371   0.401
 4451SOL     OW14251   4.827   5.442   3.480
 4451SOL    HW114252   4.845   5.410   3.387
 4451SOL    HW214253   4.913   5.465   3.525
 4452SOL     OW14254   5.111   5.150   3.939
 4452SOL    HW114255   5.100   5.250   3.945
 4452SOL    HW214256   5.021   5.107   3.940
 4453SOL     OW14257   0.048   4.619   0.983
 4453SOL    HW114258   0.130   4.657   1.026
 4453SOL    HW214259   0.028   4.529   1.023
 4454SOL     OW14260   1.482   2.001   0.507
 4454SOL    HW114261   1.513   1.950   0.587
 4454SOL    HW214262   1.475   2.098   0.531
 4455SOL     OW14263   1.892   0.375   4.361
 4455SOL    HW114264   1.796   0.395   4.379
 4455SOL    HW214265   1.941   0.460   4.342
 4456SOL     OW14266   2.019   6.125   4.036
 4456SOL    HW114267   2.028   6.028   4.012
 4456SOL    HW214268   1.923   6.152   4.031
 4457SOL     OW14269   0.867   1.984   3.933
 4457SOL    HW114270   0.852   2.021   4.025
 4457SOL    HW214271   0.801   1.910   3.917
 4458SOL     OW14272   1.388   3.172   6.394
 4458SOL    HW114273   1.306   3.197   6.343
 4458SOL    HW214274   1.435   3.254   6.427
 4459SOL     OW14275   0.859   3.546   2.914
 4459SOL    HW114276   0.934   3.606   2.888
 4459SOL    HW214277   0.896   3.464   2.959
 4460SOL     OW14278   0.026   2.706   4.636
 4460SOL    HW114279   6.980   2.710   4.706
 4460SOL    HW214280   0.046   2.798   4.603
 4461SOL     OW14281   2.413   1.068   0.984
 4461SOL    HW114282   2.336   1.057   1.047
 4461SOL    HW214283   2.402   1.005   0.907
 4462SOL     OW14284   6.585   4.138   2.322
 4462SOL    HW114285   6.599   4.144   2.421
 4462SOL    HW214286   6.559   4.045   2.298
 4463SOL     OW14287   5.623   1.399   0.128
 4463SOL    HW114288   5.577   1.486   0.110
 4463SOL    HW214289   5.704   1.415   0.184
 4464SOL     OW14290   0.363   3.444   1.434
 4464SOL    HW114291   0.374   3.539   1.461
 4464SOL    HW214292   0.450   3.408   1.399
 4465SOL     OW14293   3.943   5.308   2.046
 4465SOL    HW114294   4.037   5.308   2.079
 4465SOL    HW214295   3.907   5.215   2.049
 4466SOL     OW14296   0.446   3.059   2.080
 4466SOL    HW114297   0.499   3.061   1.995
 4466SOL    HW214298   0.459   3.145   2.129
 4467SOL     OW14299   5.385   4.967   2.071
 4467SOL    HW114300   5.396   4.893   2.006
 4467SOL    HW214301   5.438   5.047   2.041
 4468SOL     OW14302   1.808   2.981   1.284
 4468SOL    HW114303   1.823   3.012   1.378
 4468SOL    HW214304   1.790   2.883   1.284
 4469SOL     OW14305   2.336   5.724   1.427
 4469SOL    HW114306   2.248   5.768   1.443
 4469SOL    HW214307   2.338   5.685   1.335
 4470SOL     OW14308   0.706   0.097   2.725
 4470SOL    HW114309   0.666   0.076   2.636
 4470SOL    HW214310   0.760   0.019   2.756
 4471SOL     OW14311   0.736   0.440   6.403
 4471SOL    HW114312   0.757   0.459   6.307
 4471SOL    HW214313   0.814   0.394   6.446
 4472SOL     OW14314   1.696   2.866   0.879
 4472SOL    HW114315   1.784   2.908   0.901
 4472SOL    HW214316   1.677   2.879   0.781
 4473SOL     OW14317   0.383   3.001   4.733
 4473SOL    HW114318   0.401   2.906   4.760
 4473SOL    HW214319   0.370   3.057   4.815
 4474SOL     OW14320   2.258   6.132   0.802
 4474SOL    HW114321   2.249   6.062   0.873
 4474SOL    HW214322   2.329   6.104   0.737
 4475SOL     OW14323   0.725   3.553   0.455
 4475SOL    HW114324   0.815   3.516   0.431
 4475SOL    HW214325   0.655   3.483   0.439
 4476SOL     OW14326   5.333   1.496   3.319
 4476SOL    HW114327   5.333   1.480   3.220
 4476SOL    HW214328   5.247   1.539   3.346
 4477SOL     OW14329   0.185   1.150   4.424
 4477SOL    HW114330   0.251   1.078   4.442
 4477SOL    HW214331   0.198   1.185   4.331
 4478SOL     OW14332   1.607   0.686   1.896
 4478SOL    HW114333   1.704   0.684   1.871
 4478SOL    HW214334   1.572   0.779   1.887
 4479SOL     OW14335   2.296   2.681   6.623
 4479SOL    HW114336   2.217   2.631   6.588
 4479SOL    HW214337   2.336   2.736   6.550
 4480SOL     OW14338   0.377   6.691   3.684
 4480SOL    HW114339   0.329   6.778   3.672
 4480SOL    HW214340   0.328   6.619   3.633
 4481SOL     OW14341   1.787   3.465   5.908
 4481SOL    HW114342   1.853   3.390   5.912
 4481SOL    HW214343   1.828   3.542   5.859
 4482SOL     OW14344   2.405   0.486   1.342
 4482SOL    HW114345   2.427   0.582   1.325
 4482SOL    HW214346   2.485   0.429   1.319
 4483SOL     OW14347   1.386   3.750   0.423
 4483SOL    HW114348   1.422   3.661   0.452
 4483SOL    HW214349   1.341   3.795   0.500
 4484SOL     OW14350   3.081   0.632   6.831
 4484SOL    HW114351   3.151   0.569   6.798
 4484SOL    HW214352   3.074   0.625   6.931
 4485SOL     OW14353   0.283   3.538   4.771
 4485SOL    HW114354   0.334   3.521   4.687
 4485SOL    HW214355   0.339   3.593   4.833
 4486SOL     OW14356   5.101   4.419   3.775
 4486SOL    HW114357   5.182   4.474   3.799
 4486SOL    HW214358   5.055   4.389   3.859
 4487SOL     OW14359   0.339   3.188   6.437
 4487SOL    HW114360   0.265   3.134   6.477
 4487SOL    HW214361   0.365   3.148   6.349
 4488SOL     OW14362   6.830   3.881   3.310
 4488SOL    HW114363   6.817   3.782   3.317
 4488SOL    HW214364   6.765   3.928   3.370
 4489SOL     OW14365   3.481   5.692   6.364
 4489SOL    HW114366   3.539   5.773   6.359
 4489SOL    HW214367   3.405   5.709   6.427
 4490SOL     OW14368   5.839   1.618   1.795
 4490SOL    HW114369   5.839   1.519   1.780
 4490SOL    HW214370   5.750   1.655   1.771
 4491SOL     OW14371   1.041   3.984   2.781
 4491SOL    HW114372   1.008   3.997   2.874
 4491SOL    HW214373   1.055   3.887   2.763
 4492SOL     OW14374   6.520   1.238   2.693
 4492SOL    HW114375   6.421   1.246   2.685
 4492SOL    HW214376   6.561   1.329   2.690
 4493SOL     OW14377   5.354   1.687   5.497
 4493SOL    HW114378   5.273   1.723   5.542
 4493SOL    HW214379   5.421   1.659   5.565
 4494SOL     OW14380   1.616   0.874   2.261
 4494SOL    HW114381   1.699   0.924   2.239
 4494SOL    HW214382   1.547   0.937   2.296
 4495SOL     OW14383   4.308   6.443   0.816
 4495SOL    HW114384   4.285   6.535   0.847
 4495SOL    HW214385   4.407   6.435   0.806
 4496SOL     OW14386   2.483   6.025   6.062
 4496SOL    HW114387   2.395   6.026   6.110
 4496SOL    HW214388   2.489   5.942   6.006
 4497SOL     OW14389   4.325   0.395   5.691
 4497SOL    HW114390   4.251   0.450   5.653
 4497SOL    HW214391   4.413   0.428   5.658
 4498SOL     OW14392   0.929   5.104   4.445
 4498SOL    HW114393   0.887   5.040   4.381
 4498SOL    HW214394   0.933   5.062   4.536
 4499SOL     OW14395   6.171   0.820   2.327
 4499SOL    HW114396   6.158   0.769   2.412
 4499SOL    HW214397   6.205   0.912   2.347
 4500SOL     OW14398   3.343   6.705   0.061
 4500SOL    HW114399   3.402   6.772   0.014
 4500SOL    HW214400   3.398   6.649   0.122
 4501SOL     OW14401   6.226   0.304   2.442
 4501SOL    HW114402   6.247   0.368   2.516
 4501SOL    HW214403   6.310   0.262   2.409
 4502SOL     OW14404   1.338   4.293   6.775
 4502SOL    HW114405   1.298   4.204   6.753
 4502SOL    HW214406   1.419   4.308   6.719
 4503SOL     OW14407   3.931   1.636   2.535
 4503SOL    HW114408   3.842   1.597   2.558
 4503SOL    HW214409   3.933   1.660   2.438
 4504SOL     OW14410   1.291   2.465   3.878
 4504SOL    HW114411   1.226   2.473   3.953
 4504SOL    HW214412   1.328   2.372   3.875
 4505SOL     OW14413   6.397   3.012   3.461
 4505SOL    HW114414   6.317   2.983   3.409
 4505SOL    HW214415   6.404   3.112   3.459
 4506SOL     OW14416   4.117   3.752   0.141
 4506SOL    HW114417   4.151   3.658   0.139
 4506SOL    HW214418   4.190   3.814   0.168
 4507SOL     OW14419   5.944   2.249   3.005
 4507SOL    HW114420   5.882   2.214   3.076
 4507SOL    HW214421   5.899   2.245   2.916
 4508SOL     OW14422   6.358   5.068   0.824
 4508SOL    HW114423   6.403   5.120   0.751
 4508SOL    HW214424   6.286   5.123   0.865
 4509SOL     OW14425   5.476   1.949   2.157
 4509SOL    HW114426   5.507   1.884   2.226
 4509SOL    HW214427   5.376   1.956   2.160
 4510SOL     OW14428   4.951   1.780   4.413
 4510SOL    HW114429   4.893   1.709   4.375
 4510SOL    HW214430   4.894   1.852   4.452
 4511SOL     OW14431   6.953   4.681   6.814
 4511SOL    HW114432   6.985   4.733   6.894
 4511SOL    HW214433   6.866   4.637   6.836
 4512SOL     OW14434   2.998   3.353   5.726
 4512SOL    HW114435   3.035   3.260   5.715
 4512SOL    HW214436   3.045   3.398   5.802
 4513SOL     OW14437   0.019   0.415   0.808
 4513SOL    HW114438   6.997   0.476   0.872
 4513SOL    HW214439   0.114   0.403   0.836
 4514SOL     OW14440   4.854   4.738   6.832
 4514SOL    HW114441   4.821   4.673   6.764
 4514SOL    HW214442   4.884   4.822   6.786
 4515SOL     OW14443   4.350   0.525   6.198
 4515SOL    HW114444   4.366   0.485   6.108
 4515SOL    HW214445   4.411   0.482   6.264
 4516SOL     OW14446   3.538   2.180   5.663
 4516SOL    HW114447   3.608   2.251   5.667
 4516SOL    HW214448   3.448   2.222   5.659
 4517SOL     OW14449   4.102   0.387   4.710
 4517SOL    HW114450   4.177   0.348   4.763
 4517SOL    HW214451   4.015   0.356   4.747
 4518SOL     OW14452   0.227   0.028   0.740
 4518SOL    HW114453   0.214   6.990   0.817
 4518SOL    HW214454   0.140   0.069   0.716
 4519SOL     OW14455   4.953   6.984   6.809
 4519SOL    HW114456   5.049   6.993   6.782
 4519SOL    HW214457   4.947   6.931   6.893
 4520SOL     OW14458   4.675   4.812   5.710
 4520SOL    HW114459   4.719   4.809   5.620
 4520SOL    HW214460   4.685   4.904   5.748
 4521SOL     OW14461   4.466   2.167   4.122
 4521SOL    HW114462   4.543   2.119   4.080
 4521SOL    HW214463   4.442   2.122   4.208
 4522SOL     OW14464   6.105   3.438   3.494
 4522SOL    HW114465   6.068   3.454   3.402
 4522SOL    HW214466   6.062   3.501   3.559
 4523SOL     OW14467   0.062   3.559   6.508
 4523SOL    HW114468   0.086   3.464   6.528
 4523SOL    HW214469   0.036   3.606   6.592
 4524SOL     OW14470   1.876   3.743   2.166
 4524SOL    HW114471   1.973   3.740   2.143
 4524SOL    HW214472   1.853   3.834   2.200
 4525SOL     OW14473   3.768   1.974   5.943
 4525SOL    HW114474   3.866   1.954   5.939
 4525SOL    HW214475   3.754   2.073   5.941
 4526SOL     OW14476   1.770   0.112   5.455
 4526SOL    HW114477   1.803   0.104   5.360
 4526SOL    HW214478   1.671   0.100   5.456
 4527SOL     OW14479   0.225   1.931   2.608
 4527SOL    HW114480   0.213   1.918   2.707
 4527SOL    HW214481   0.140   1.908   2.561
 4528SOL     OW14482   5.052   0.868   4.591
 4528SOL    HW114483   5.053   0.852   4.492
 4528SOL    HW214484   5.099   0.954   4.611
 4529SOL     OW14485   2.273   2.152   4.343
 4529SOL    HW114486   2.208   2.083   4.311
 4529SOL    HW214487   2.339   2.172   4.270
 4530SOL     OW14488   3.827   5.244   6.577
 4530SOL    HW114489   3.796   5.318   6.517
 4530SOL    HW214490   3.819   5.157   6.529
 4531SOL     OW14491   2.244   6.779   5.323
 4531SOL    HW114492   2.252   6.809   5.418
 4531SOL    HW214493   2.250   6.859   5.263
 4532SOL     OW14494   6.308   1.093   2.241
 4532SOL    HW114495   6.319   1.192   2.252
 4532SOL    HW214496   6.358   1.045   2.313
 4533SOL     OW14497   2.937   6.573   1.365
 4533SOL    HW114498   3.000   6.498   1.386
 4533SOL    HW214499   2.883   6.595   1.447
 4534SOL     OW14500   6.154   1.600   4.518
 4534SOL    HW114501   6.115   1.681   4.476
 4534SOL    HW214502   6.187   1.538   4.447
 4535SOL     OW14503   1.510   0.640   7.008
 4535SOL    HW114504   1.591   0.695   0.004
 4535SOL    HW214505   1.527   0.545   0.011
 4536SOL     OW14506   3.727   1.220   5.679
 4536SOL    HW114507   3.715   1.121   5.688
 4536SOL    HW214508   3.650   1.267   5.722
 4537SOL     OW14509   3.478   3.592   3.072
 4537SOL    HW114510   3.477   3.564   2.976
 4537SOL    HW214511   3.399   3.651   3.090
 4538SOL     OW14512   1.072   2.358   0.239
 4538SOL    HW114513   1.116   2.329   0.154
 4538SOL    HW214514   0.987   2.307   0.253
 4539SOL     OW14515   1.018   5.655   4.651
 4539SOL    HW114516   1.063   5.650   4.562
 4539SOL    HW214517   1.085   5.636   4.724
 4540SOL     OW14518   1.240   1.547   0.403
 4540SOL    HW114519   1.307   1.478   0.431
 4540SOL    HW214520   1.205   1.525   0.312
 4541SOL     OW14521   4.168   3.504   0.037
 4541SOL    HW114522   4.172   3.509   6.962
 4541SOL    HW214523   4.082   3.460   0.065
 4542SOL     OW14524   0.691   1.631   6.727
 4542SOL    HW114525   0.664   1.727   6.713
 4542SOL    HW214526   0.774   1.612   6.674
 4543SOL     OW14527   4.581   1.592   0.748
 4543SOL    HW114528   4.671   1.605   0.707
 4543SOL    HW214529   4.541   1.506   0.715
 4544SOL     OW14530   4.360   6.214   0.630
 4544SOL    HW114531   4.391   6.309   0.632
 4544SOL    HW214532   4.268   6.209   0.592
 4545SOL     OW14533   2.673   2.923   5.654
 4545SOL    HW114534   2.616   2.989   5.605
 4545SOL    HW214535   2.615   2.871   5.717
 4546SOL     OW14536   4.132   0.097   6.471
 4546SOL    HW114537   4.092   0.178   6.512
 4546SOL    HW214538   4.060   0.032   6.448
 4547SOL     OW14539   0.619   0.737   0.376
 4547SOL    HW114540   0.647   0.718   0.282
 4547SOL    HW214541   0.617   0.652   0.428
 4548SOL     OW14542   3.709   1.043   2.154
 4548SOL    HW114543   3.631   1.007   2.206
 4548SOL    HW214544   3.693   1.029   2.056
 4549SOL     OW14545   6.583   3.746   4.073
 4549SOL    HW114546   6.590   3.705   4.164
 4549SOL    HW214547   6.489   3.778   4.058
 4550SOL     OW14548   2.076   5.658   5.454
 4550SOL    HW114549   2.163   5.677   5.498
 4550SOL    HW214550   2.009   5.728   5.479
 4551SOL     OW14551   3.043   2.352   6.064
 4551SOL    HW114552   3.033   2.321   6.158
 4551SOL    HW214553   3.051   2.272   6.004
 4552SOL     OW14554   4.967   0.880   6.876
 4552SOL    HW114555   4.944   0.860   6.781
 4552SOL    HW214556   4.892   0.931   6.918
 4553SOL     OW14557   0.029   6.046   0.639
 4553SOL    HW114558   0.034   6.133   0.687
 4553SOL    HW214559   0.036   6.062   0.540
 4554SOL     OW14560   6.142   6.838   3.388
 4554SOL    HW114561   6.069   6.821   3.321
 4554SOL    HW214562   6.229   6.849   3.339
 4555SOL     OW14563   0.754   0.625   1.880
 4555SOL    HW114564   0.772   0.694   1.810
 4555SOL    HW214565   0.659   0.631   1.910
 4556SOL     OW14566   5.474   4.338   4.377
 4556SOL    HW114567   5.475   4.386   4.465
 4556SOL    HW214568   5.403   4.376   4.319
 4557SOL     OW14569   6.569   4.762   4.321
 4557SOL    HW114570   6.482   4.774   4.274
 4557SOL    HW214571   6.553   4.734   4.416
 4558SOL     OW14572   1.200   4.100   4.774
 4558SOL    HW114573   1.169   4.045   4.697
 4558SOL    HW214574   1.213   4.041   4.854
 4559SOL     OW14575   0.236   2.543   4.209
 4559SOL    HW114576   0.214   2.640   4.224
 4559SOL    HW214577   0.277   2.532   4.118
 4560SOL     OW14578   6.191   4.623   3.326
 4560SOL    HW114579   6.255   4.615   3.249
 4560SOL    HW214580   6.128   4.546   3.325
 4561SOL     OW14581   4.445   2.405   4.284
 4561SOL    HW114582   4.489   2.321   4.254
 4561SOL    HW214583   4.511   2.479   4.285
 4562SOL     OW14584   4.079   1.189   0.737
 4562SOL    HW114585   4.115   1.114   0.682
 4562SOL    HW214586   4.114   1.276   0.702
 4563SOL     OW14587   0.997   4.139   1.683
 4563SOL    HW114588   1.040   4.199   1.616
 4563SOL    HW214589   1.066   4.080   1.725
 4564SOL     OW14590   1.982   4.297   2.570
 4564SOL    HW114591   2.044   4.367   2.535
 4564SOL    HW214592   1.905   4.341   2.617
 4565SOL     OW14593   2.279   0.342   5.473
 4565SOL    HW114594   2.319   0.305   5.389
 4565SOL    HW214595   2.347   0.340   5.546
 4566SOL     OW14596   0.331   4.222   2.861
 4566SOL    HW114597   0.285   4.175   2.937
 4566SOL    HW214598   0.374   4.305   2.894
 4567SOL     OW14599   6.824   7.007   6.916
 4567SOL    HW114600   6.733   7.019   6.875
 4567SOL    HW214601   6.882   0.060   6.893
 4568SOL     OW14602   1.075   4.935   3.723
 4568SOL    HW114603   1.073   5.019   3.669
 4568SOL    HW214604   0.981   4.906   3.743
 4569SOL     OW14605   1.546   2.123   3.360
 4569SOL    HW114606   1.505   2.212   3.341
 4569SOL    HW214607   1.475   2.060   3.391
 4570SOL     OW14608   5.036   5.340   1.079
 4570SOL    HW114609   5.071   5.254   1.043
 4570SOL    HW214610   5.110   5.388   1.128
 4571SOL     OW14611   1.906   4.123   5.661
 4571SOL    HW114612   2.006   4.127   5.667
 4571SOL    HW214613   1.878   4.146   5.567
 4572SOL     OW14614   4.323   3.158   1.747
 4572SOL    HW114615   4.291   3.090   1.681
 4572SOL    HW214616   4.411   3.130   1.784
 4573SOL     OW14617   2.192   4.886   0.650
 4573SOL    HW114618   2.228   4.892   0.556
 4573SOL    HW214619   2.098   4.853   0.647
 4574SOL     OW14620   4.868   0.665   1.921
 4574SOL    HW114621   4.849   0.763   1.916
 4574SOL    HW214622   4.966   0.649   1.909
 4575SOL     OW14623   6.557   1.078   5.328
 4575SOL    HW114624   6.569   1.134   5.410
 4575SOL    HW214625   6.469   1.100   5.286
 4576SOL     OW14626   3.492   3.838   6.856
 4576SOL    HW114627   3.522   3.902   6.927
 4576SOL    HW214628   3.393   3.842   6.847
 4577SOL     OW14629   0.875   1.986   1.915
 4577SOL    HW114630   0.904   1.902   1.871
 4577SOL    HW214631   0.775   1.991   1.916
 4578SOL     OW14632   1.740   0.962   3.337
 4578SOL    HW114633   1.780   0.890   3.280
 4578SOL    HW214634   1.739   1.048   3.286
 4579SOL     OW14635   4.650   0.985   3.499
 4579SOL    HW114636   4.630   1.083   3.487
 4579SOL    HW214637   4.706   0.953   3.422
 4580SOL     OW14638   1.114   1.405   1.285
 4580SOL    HW114639   1.144   1.417   1.380
 4580SOL    HW214640   1.044   1.473   1.264
 4581SOL     OW14641   2.659   0.583   0.997
 4581SOL    HW114642   2.596   0.508   0.974
 4581SOL    HW214643   2.658   0.651   0.924
 4582SOL     OW14644   6.813   0.948   3.582
 4582SOL    HW114645   6.831   0.851   3.565
 4582SOL    HW214646   6.890   1.003   3.549
 4583SOL     OW14647   1.675   6.959   6.947
 4583SOL    HW114648   1.663   0.028   6.979
 4583SOL    HW214649   1.769   6.948   6.913
 4584SOL     OW14650   0.275   1.826   4.034
 4584SOL    HW114651   0.197   1.769   4.057
 4584SOL    HW214652   0.359   1.772   4.041
 4585SOL     OW14653   1.794   2.970   2.761
 4585SOL    HW114654   1.797   2.885   2.708
 4585SOL    HW214655   1.841   2.958   2.848
 4586SOL     OW14656   6.652   5.035   5.523
 4586SOL    HW114657   6.625   5.130   5.535
 4586SOL    HW214658   6.571   4.980   5.501
 4587SOL     OW14659   4.476   4.209   5.937
 4587SOL    HW114660   4.474   4.147   5.859
 4587SOL    HW214661   4.571   4.230   5.961
 4588SOL     OW14662   3.058   4.083   6.461
 4588SOL    HW114663   2.970   4.077   6.509
 4588SOL    HW214664   3.133   4.069   6.526
 4589SOL     OW14665   5.517   6.607   2.503
 4589SOL    HW114666   5.484   6.530   2.449
 4589SOL    HW214667   5.439   6.653   2.546
 4590SOL     OW14668   2.774   5.352   1.115
 4590SOL    HW114669   2.687   5.356   1.067
 4590SOL    HW214670   2.759   5.352   1.214
 4591SOL     OW14671   2.491   0.863   5.005
 4591SOL    HW114672   2.579   0.907   5.022
 4591SOL    HW214673   2.500   0.799   4.929
 4592SOL     OW14674   3.022   1.929   4.081
 4592SOL    HW114675   3.092   1.985   4.125
 4592SOL    HW214676   3.032   1.935   3.982
 4593SOL     OW14677   1.118   5.768   4.110
 4593SOL    HW114678   1.143   5.672   4.125
 4593SOL    HW214679   1.018   5.776   4.106
 4594SOL     OW14680   2.115   6.400   4.107
 4594SOL    HW114681   2.159   6.404   4.196
 4594SOL    HW214682   2.097   6.305   4.082
 4595SOL     OW14683   5.592   2.175   6.415
 4595SOL    HW114684   5.673   2.198   6.361
 4595SOL    HW214685   5.609   2.090   6.465
 4596SOL     OW14686   1.423   1.433   2.234
 4596SOL    HW114687   1.451   1.351   2.185
 4596SOL    HW214688   1.329   1.457   2.209
 4597SOL     OW14689   2.459   6.042   0.632
 4597SOL    HW114690   2.421   6.002   0.549
 4597SOL    HW214691   2.531   6.107   0.607
 4598SOL     OW14692   0.863   3.304   0.013
 4598SOL    HW114693   0.858   3.287   6.939
 4598SOL    HW214694   0.817   3.390   0.035
 4599SOL     OW14695   3.355   6.578   2.786
 4599SOL    HW114696   3.455   6.572   2.785
 4599SOL    HW214697   3.318   6.520   2.714
 4600SOL     OW14698   6.860   6.160   6.314
 4600SOL    HW114699   6.934   6.217   6.351
 4600SOL    HW214700   6.871   6.066   6.346
 4601SOL     OW14701   1.723   0.597   5.799
 4601SOL    HW114702   1.739   0.692   5.771
 4601SOL    HW214703   1.776   0.535   5.741
 4602SOL     OW14704   3.900   1.424   6.457
 4602SOL    HW114705   3.927   1.427   6.361
 4602SOL    HW214706   3.939   1.503   6.505
 4603SOL     OW14707   4.224   6.758   1.142
 4603SOL    HW114708   4.131   6.722   1.129
 4603SOL    HW214709   4.218   6.844   1.192
 4604SOL     OW14710   0.754   0.447   3.770
 4604SOL    HW114711   0.765   0.544   3.790
 4604SOL    HW214712   0.807   0.392   3.834
 4605SOL     OW14713   4.369   0.944   1.521
 4605SOL    HW114714   4.409   1.033   1.542
 4605SOL    HW214715   4.440   0.873   1.524
 4606SOL     OW14716   6.854   6.691   5.003
 4606SOL    HW114717   6.951   6.706   5.019
 4606SOL    HW214718   6.814   6.642   5.080
 4607SOL     OW14719   2.815   1.756   1.021
 4607SOL    HW114720   2.778   1.688   1.085
 4607SOL    HW214721   2.741   1.809   0.982
 4608SOL     OW14722   0.065   3.035   4.883
 4608SOL    HW114723   0.054   3.107   4.952
 4608SOL    HW214724   0.021   2.951   4.914
 4609SOL     OW14725   5.307   5.061   6.126
 4609SOL    HW114726   5.211   5.086   6.125
 4609SOL    HW214727   5.336   5.042   6.220
 4610SOL     OW14728   5.215   5.015   0.018
 4610SOL    HW114729   5.178   5.062   6.962
 4610SOL    HW214730   5.299   5.061   0.048
 4611SOL     OW14731   0.089   1.240   6.765
 4611SOL    HW114732   0.164   1.287   6.720
 4611SOL    HW214733   0.011   1.235   6.702
 4612SOL     OW14734   2.696   0.972   3.067
 4612SOL    HW114735   2.680   0.891   3.011
 4612SOL    HW214736   2.740   0.945   3.153
 4613SOL     OW14737   1.484   5.707   1.931
 4613SOL    HW114738   1.534   5.761   1.864
 4613SOL    HW214739   1.528   5.715   2.020
 4614SOL     OW14740   0.360   4.660   3.161
 4614SOL    HW114741   0.305   4.587   3.119
 4614SOL    HW214742   0.325   4.680   3.252
 4615SOL     OW14743   1.555   4.229   6.630
 4615SOL    HW114744   1.591   4.283   6.554
 4615SOL    HW214745   1.631   4.181   6.675
 4616SOL     OW14746   1.376   4.121   6.432
 4616SOL    HW114747   1.450   4.157   6.489
 4616SOL    HW214748   1.326   4.197   6.390
 4617SOL     OW14749   6.946   3.398   3.546
 4617SOL    HW114750   0.005   3.446   3.519
 4617SOL    HW214751   6.924   3.421   3.641
 4618SOL     OW14752   2.248   3.804   5.720
 4618SOL    HW114753   2.166   3.828   5.668
 4618SOL    HW214754   2.311   3.752   5.662
 4619SOL     OW14755   4.670   6.003   6.371
 4619SOL    HW114756   4.612   6.080   6.395
 4619SOL    HW214757   4.676   5.996   6.271
 4620SOL     OW14758   1.284   4.680   1.776
 4620SOL    HW114759   1.340   4.662   1.856
 4620SOL    HW214760   1.335   4.739   1.712
 4621SOL     OW14761   3.249   0.114   2.784
 4621SOL    HW114762   3.246   0.048   2.709
 4621SOL    HW214763   3.344   0.133   2.809
 4622SOL     OW14764   5.213   7.023   0.670
 4622SOL    HW114765   5.309   6.992   0.672
 4622SOL    HW214766   5.208   0.087   0.622
 4623SOL     OW14767   3.197   4.844   2.657
 4623SOL    HW114768   3.152   4.852   2.568
 4623SOL    HW214769   3.133   4.867   2.730
 4624SOL     OW14770   4.897   1.571   1.454
 4624SOL    HW114771   4.819   1.509   1.457
 4624SOL    HW214772   4.935   1.581   1.546
 4625SOL     OW14773   1.594   6.549   1.470
 4625SOL    HW114774   1.503   6.582   1.496
 4625SOL    HW214775   1.642   6.515   1.551
 4626SOL     OW14776   4.178   3.278   1.988
 4626SOL    HW114777   4.128   3.194   1.969
 4626SOL    HW214778   4.254   3.287   1.924
 4627SOL     OW14779   5.711   0.308   5.119
 4627SOL    HW114780   5.766   0.266   5.047
 4627SOL    HW214781   5.746   0.279   5.208
 4628SOL     OW14782   6.298   4.798   2.742
 4628SOL    HW114783   6.297   4.753   2.831
 4628SOL    HW214784   6.216   4.773   2.691
 4629SOL     OW14785   1.630   5.480   0.879
 4629SOL    HW114786   1.665   5.393   0.914
 4629SOL    HW214787   1.589   5.466   0.790
 4630SOL     OW14788   1.956   3.693   1.522
 4630SOL    HW114789   1.878   3.641   1.557
 4630SOL    HW214790   1.933   3.730   1.432
 4631SOL     OW14791   6.296   0.910   2.908
 4631SOL    HW114792   6.239   0.848   2.962
 4631SOL    HW214793   6.326   0.986   2.966
 4632SOL     OW14794   2.784   4.743   3.462
 4632SOL    HW114795   2.699   4.713   3.507
 4632SOL    HW214796   2.860   4.733   3.526
 4633SOL     OW14797   5.311   2.515   4.187
 4633SOL    HW114798   5.332   2.470   4.273
 4633SOL    HW214799   5.392   2.511   4.127
 4634SOL     OW14800   3.779   3.007   4.523
 4634SOL    HW114801   3.848   3.074   4.493
 4634SOL    HW214802   3.766   2.939   4.452
 4635SOL     OW14803   4.624   6.319   2.524
 4635SOL    HW114804   4.593   6.413   2.533
 4635SOL    HW214805   4.697   6.314   2.456
 4636SOL     OW14806   1.466   6.273   6.212
 4636SOL    HW114807   1.465   6.253   6.311
 4636SOL    HW214808   1.378   6.312   6.186
 4637SOL     OW14809   2.135   2.338   3.196
 4637SOL    HW114810   2.100   2.373   3.109
 4637SOL    HW214811   2.153   2.415   3.257
 4638SOL     OW14812   3.867   4.924   0.603
 4638SOL    HW114813   3.926   4.923   0.684
 4638SOL    HW214814   3.772   4.913   0.631
 4639SOL     OW14815   3.753   2.082   2.247
 4639SOL    HW114816   3.677   2.030   2.209
 4639SOL    HW214817   3.733   2.105   2.342
 4640SOL     OW14818   6.331   3.026   1.195
 4640SOL    HW114819   6.252   2.965   1.202
 4640SOL    HW214820   6.308   3.106   1.140
 4641SOL     OW14821   1.561   5.836   4.351
 4641SOL    HW114822   1.607   5.756   4.391
 4641SOL    HW214823   1.618   5.917   4.365
 4642SOL     OW14824   5.893   1.274   5.776
 4642SOL    HW114825   5.884   1.361   5.826
 4642SOL    HW214826   5.989   1.246   5.776
 4643SOL     OW14827   0.715   1.649   0.426
 4643SOL    HW114828   0.765   1.591   0.362
 4643SOL    HW214829   0.625   1.671   0.387
 4644SOL     OW14830   1.172   0.614   0.883
 4644SOL    HW114831   1.073   0.604   0.885
 4644SOL    HW214832   1.196   0.709   0.904
 4645SOL     OW14833   6.345   2.326   4.701
 4645SOL    HW114834   6.256   2.354   4.739
 4645SOL    HW214835   6.358   2.228   4.719
 4646SOL     OW14836   2.006   3.785   2.633
 4646SOL    HW114837   1.911   3.808   2.613
 4646SOL    HW214838   2.038   3.717   2.567
 4647SOL     OW14839   2.085   6.788   1.902
 4647SOL    HW114840   2.062   6.727   1.978
 4647SOL    HW214841   2.181   6.775   1.877
 4648SOL     OW14842   2.888   0.996   4.456
 4648SOL    HW114843   2.935   0.946   4.529
 4648SOL    HW214844   2.945   0.998   4.374
 4649SOL     OW14845   5.576   1.804   0.600
 4649SOL    HW114846   5.515   1.839   0.671
 4649SOL    HW214847   5.670   1.804   0.634
 4650SOL     OW14848   4.526   5.447   0.672
 4650SOL    HW114849   4.524   5.359   0.624
 4650SOL    HW214850   4.487   5.436   0.764
 4651SOL     OW14851   0.636   4.202   6.483
 4651SOL    HW114852   0.592   4.285   6.450
 4651SOL    HW214853   0.732   4.201   6.455
 4652SOL     OW14854   6.835   0.181   5.229
 4652SOL    HW114855   6.861   0.221   5.316
 4652SOL    HW214856   6.873   0.088   5.221
 4653SOL     OW14857   6.808   5.735   0.867
 4653SOL    HW114858   6.901   5.747   0.832
 4653SOL    HW214859   6.761   5.823   0.867
 4654SOL     OW14860   0.798   1.005   5.783
 4654SOL    HW114861   0.872   0.964   5.836
 4654SOL    HW214862   0.836   1.060   5.709
 4655SOL     OW14863   5.037   3.666   2.737
 4655SOL    HW114864   5.053   3.752   2.687
 4655SOL    HW214865   5.073   3.590   2.684
 4656SOL     OW14866   5.702   1.061   1.853
 4656SOL    HW114867   5.745   1.151   1.845
 4656SOL    HW214868   5.681   1.027   1.761
 4657SOL     OW14869   3.529   1.273   2.646
 4657SOL    HW114870   3.538   1.212   2.725
 4657SOL    HW214871   3.574   1.233   2.567
 4658SOL     OW14872   1.123   1.942   6.292
 4658SOL    HW114873   1.218   1.955   6.320
 4658SOL    HW214874   1.113   1.851   6.253
 4659SOL     OW14875   2.001   4.488   0.732
 4659SOL    HW114876   2.010   4.430   0.651
 4659SOL    HW214877   2.081   4.548   0.739
 4660SOL     OW14878   0.140   5.339   4.066
 4660SOL    HW114879   0.212   5.276   4.095
 4660SOL    HW214880   0.057   5.321   4.118
 4661SOL     OW14881   0.760   1.707   5.650
 4661SOL    HW114882   0.809   1.623   5.625
 4661SOL    HW214883   0.811   1.786   5.617
 4662SOL     OW14884   2.907   0.672   5.920
 4662SOL    HW114885   2.859   0.624   5.846
 4662SOL    HW214886   2.970   0.608   5.965
 4663SOL     OW14887   0.947   0.088   0.387
 4663SOL    HW114888   0.908   0.121   0.473
 4663SOL    HW214889   0.937   7.013   0.382
 4664SOL     OW14890   6.078   6.486   6.143
 4664SOL    HW114891   6.010   6.525   6.205
 4664SOL    HW214892   6.167   6.484   6.188
 4665SOL     OW14893   0.112   0.488   2.875
 4665SOL    HW114894   0.209   0.474   2.897
 4665SOL    HW214895   0.084   0.579   2.904
 4666SOL     OW14896   1.607   2.759   5.964
 4666SOL    HW114897   1.565   2.669   5.951
 4666SOL    HW214898   1.571   2.801   6.048
 4667SOL     OW14899   6.308   3.267   1.056
 4667SOL    HW114900   6.375   3.334   1.024
 4667SOL    HW214901   6.217   3.308   1.055
 4668SOL     OW14902   4.594   2.055   4.733
 4668SOL    HW114903   4.618   2.136   4.679
 4668SOL    HW214904   4.678   2.016   4.771
 4669SOL     OW14905   5.204   6.975   6.196
 4669SOL    HW114906   5.202   6.879   6.224
 4669SOL    HW214907   5.298   7.007   6.193
 4670SOL     OW14908   0.308   3.712   6.467
 4670SOL    HW114909   0.368   3.694   6.545
 4670SOL    HW214910   0.222   3.662   6.478
 4671SOL     OW14911   6.872   2.849   2.075
 4671SOL    HW114912   6.922   2.791   2.010
 4671SOL    HW214913   6.930   2.869   2.153
 4672SOL     OW14914   2.671   3.794   6.871
 4672SOL    HW114915   2.592   3.837   6.829
 4672SOL    HW214916   2.646   3.760   6.962
 4673SOL     OW14917   5.777   0.796   0.842
 4673SOL    HW114918   5.700   0.799   0.779
 4673SOL    HW214919   5.782   0.881   0.894
 4674SOL     OW14920   0.760   2.817   0.478
 4674SOL    HW114921   0.815   2.805   0.561
 4674SOL    HW214922   0.669   2.779   0.493
 4675SOL     OW14923   1.853   6.003   6.420
 4675SOL    HW114924   1.807   6.068   6.359
 4675SOL    HW214925   1.939   6.042   6.452
 4676SOL     OW14926   0.477   5.800   4.469
 4676SOL    HW114927   0.505   5.756   4.383
 4676SOL    HW214928   0.558   5.820   4.524
 4677SOL     OW14929   3.758   6.831   0.143
 4677SOL    HW114930   3.682   6.835   0.208
 4677SOL    HW214931   3.842   6.860   0.189
 4678SOL     OW14932   2.269   4.323   0.019
 4678SOL    HW114933   2.348   4.346   6.985
 4678SOL    HW214934   2.272   4.379   0.102
 4679SOL     OW14935   2.560   6.668   5.361
 4679SOL    HW114936   2.517   6.744   5.408
 4679SOL    HW214937   2.653   6.694   5.333
 4680SOL     OW14938   0.744   5.102   0.317
 4680SOL    HW114939   0.838   5.069   0.307
 4680SOL    HW214940   0.706   5.066   0.403
 4681SOL     OW14941   6.407   5.769   4.651
 4681SOL    HW114942   6.417   5.809   4.742
 4681SOL    HW214943   6.336   5.699   4.654
 4682SOL     OW14944   2.640   6.977   0.453
 4682SOL    HW114945   2.739   6.963   0.450
 4682SOL    HW214946   2.596   6.893   0.483
 4683SOL     OW14947   0.603   4.822   3.166
 4683SOL    HW114948   0.635   4.862   3.252
 4683SOL    HW214949   0.522   4.767   3.182
 4684SOL     OW14950   1.444   1.427   5.125
 4684SOL    HW114951   1.510   1.491   5.165
 4684SOL    HW214952   1.467   1.411   5.029
 4685SOL     OW14953   5.043   4.781   4.821
 4685SOL    HW114954   4.974   4.807   4.889
 4685SOL    HW214955   5.113   4.851   4.815
 4686SOL     OW14956   4.481   5.905   0.065
 4686SOL    HW114957   4.495   5.916   6.991
 4686SOL    HW214958   4.562   5.937   0.114
 4687SOL     OW14959   4.919   6.704   4.446
 4687SOL    HW114960   4.864   6.785   4.467
 4687SOL    HW214961   4.972   6.721   4.363
 4688SOL     OW14962   0.152   1.887   0.641
 4688SOL    HW114963   0.247   1.889   0.611
 4688SOL    HW214964   0.103   1.965   0.602
 4689SOL     OW14965   1.510   4.991   4.887
 4689SOL    HW114966   1.438   5.054   4.857
 4689SOL    HW214967   1.529   4.925   4.814
 4690SOL     OW14968   1.885   1.635   0.929
 4690SOL    HW114969   1.916   1.559   0.871
 4690SOL    HW214970   1.785   1.640   0.927
 4691SOL     OW14971   3.472   4.499   0.302
 4691SOL    HW114972   3.453   4.437   0.379
 4691SOL    HW214973   3.567   4.488   0.273
 4692SOL     OW14974   0.843   5.907   3.587
 4692SOL    HW114975   0.921   5.946   3.538
 4692SOL    HW214976   0.851   5.808   3.589
 4693SOL     OW14977   0.863   0.653   2.568
 4693SOL    HW114978   0.778   0.639   2.517
 4693SOL    HW214979   0.843   0.701   2.654
 4694SOL     OW14980   1.218   0.824   5.635
 4694SOL    HW114981   1.312   0.797   5.617
 4694SOL    HW214982   1.179   0.763   5.705
 4695SOL     OW14983   3.092   2.998   2.449
 4695SOL    HW114984   3.026   3.072   2.438
 4695SOL    HW214985   3.116   2.989   2.546
 4696SOL     OW14986   6.129   3.362   0.556
 4696SOL    HW114987   6.200   3.406   0.610
 4696SOL    HW214988   6.044   3.414   0.564
 4697SOL     OW14989   1.122   5.712   6.780
 4697SOL    HW114990   1.195   5.686   6.843
 4697SOL    HW214991   1.049   5.643   6.782
 4698SOL     OW14992   6.196   2.840   2.343
 4698SOL    HW114993   6.105   2.869   2.313
 4698SOL    HW214994   6.260   2.916   2.336
 4699SOL     OW14995   0.061   6.546   3.091
 4699SOL    HW114996   0.064   6.517   2.995
 4699SOL    HW214997   0.061   6.646   3.096
 4700SOL     OW14998   5.148   6.683   7.018
 4700SOL    HW114999   5.180   6.715   0.083
 4700SOL    HW215000   5.161   6.584   7.011
 4701SOL     OW15001   0.918   0.581   6.983
 4701SOL    HW115002   0.938   0.627   6.896
 4701SOL    HW215003   0.866   0.643   0.018
 4702SOL     OW15004   2.409   3.633   0.259
 4702SOL    HW115005   2.425   3.534   0.257
 4702SOL    HW215006   2.340   3.654   0.328
 4703SOL     OW15007   0.677   0.990   2.290
 4703SOL    HW115008   0.752   0.985   2.356
 4703SOL    HW215009   0.714   1.012   2.200
 4704SOL     OW15010   4.727   0.266   6.945
 4704SOL    HW115011   4.819   0.302   6.933
 4704SOL    HW215012   4.717   0.233   0.015
 4705SOL     OW15013   3.929   3.839   4.621
 4705SOL    HW115014   3.931   3.873   4.715
 4705SOL    HW215015   3.868   3.896   4.567
 4706SOL     OW15016   5.145   4.638   0.271
 4706SOL    HW115017   5.145   4.538   0.264
 4706SOL    HW215018   5.141   4.678   0.179
 4707SOL     OW15019   3.031   5.366   1.028
 4707SOL    HW115020   3.074   5.440   1.079
 4707SOL    HW215021   2.942   5.344   1.068
 4708SOL     OW15022   1.792   3.344   2.470
 4708SOL    HW115023   1.783   3.260   2.418
 4708SOL    HW215024   1.834   3.415   2.413
 4709SOL     OW15025   2.621   4.591   0.564
 4709SOL    HW115026   2.708   4.547   0.544
 4709SOL    HW215027   2.563   4.529   0.616
 4710SOL     OW15028   5.304   3.153   1.258
 4710SOL    HW115029   5.375   3.214   1.223
 4710SOL    HW215030   5.292   3.169   1.356
 4711SOL     OW15031   2.879   6.881   3.166
 4711SOL    HW115032   2.966   6.858   3.122
 4711SOL    HW215033   2.886   6.865   3.265
 4712SOL     OW15034   1.794   4.180   6.755
 4712SOL    HW115035   1.805   4.112   6.828
 4712SOL    HW215036   1.876   4.180   6.697
 4713SOL     OW15037   1.894   5.624   0.836
 4713SOL    HW115038   1.928   5.718   0.832
 4713SOL    HW215039   1.795   5.624   0.825
 4714SOL     OW15040   3.901   2.050   1.201
 4714SOL    HW115041   3.839   1.976   1.228
 4714SOL    HW215042   3.866   2.094   1.119
 4715SOL     OW15043   4.997   3.720   4.809
 4715SOL    HW115044   5.059   3.794   4.832
 4715SOL    HW215045   4.943   3.695   4.889
 4716SOL     OW15046   2.737   5.161   0.180
 4716SOL    HW115047   2.813   5.218   0.151
 4716SOL    HW215048   2.668   5.159   0.108
 4717SOL     OW15049   2.338   5.233   4.132
 4717SOL    HW115050   2.373   5.276   4.215
 4717SOL    HW215051   2.353   5.134   4.137
 4718SOL     OW15052   5.332   0.755   6.883
 4718SOL    HW115053   5.420   0.746   6.931
 4718SOL    HW215054   5.331   0.841   6.831
 4719SOL     OW15055   4.746   2.696   1.402
 4719SOL    HW115056   4.814   2.707   1.329
 4719SOL    HW215057   4.656   2.720   1.367
 4720SOL     OW15058   3.014   1.185   3.741
 4720SOL    HW115059   3.013   1.188   3.641
 4720SOL    HW215060   3.102   1.218   3.775
 4721SOL     OW15061   1.427   1.474   1.192
 4721SOL    HW115062   1.481   1.557   1.204
 4721SOL    HW215063   1.350   1.492   1.130
 4722SOL     OW15064   3.379   0.381   2.747
 4722SOL    HW115065   3.477   0.361   2.744
 4722SOL    HW215066   3.328   0.295   2.755
 4723SOL     OW15067   3.247   0.215   5.244
 4723SOL    HW115068   3.212   0.144   5.305
 4723SOL    HW215069   3.258   0.300   5.295
 4724SOL     OW15070   4.894   4.827   1.346
 4724SOL    HW115071   4.920   4.783   1.432
 4724SOL    HW215072   4.795   4.820   1.333
 4725SOL     OW15073   6.107   5.424   2.592
 4725SOL    HW115074   6.145   5.369   2.666
 4725SOL    HW215075   6.126   5.520   2.609
 4726SOL     OW15076   6.888   6.490   4.798
 4726SOL    HW115077   6.890   6.590   4.791
 4726SOL    HW215078   6.929   6.462   4.885
 4727SOL     OW15079   6.452   6.460   1.232
 4727SOL    HW115080   6.444   6.465   1.132
 4727SOL    HW215081   6.424   6.547   1.272
 4728SOL     OW15082   6.825   0.854   6.971
 4728SOL    HW115083   6.726   0.845   6.961
 4728SOL    HW215084   6.854   0.805   0.030
 4729SOL     OW15085   2.747   1.004   0.730
 4729SOL    HW115086   2.794   1.036   0.648
 4729SOL    HW215087   2.707   1.082   0.778
 4730SOL     OW15088   2.045   0.480   5.634
 4730SOL    HW115089   1.986   0.424   5.576
 4730SOL    HW215090   2.120   0.517   5.579
 4731SOL     OW15091   4.812   1.945   6.746
 4731SOL    HW115092   4.865   1.924   6.664
 4731SOL    HW215093   4.740   1.876   6.758
 4732SOL     OW15094   0.387   1.223   6.856
 4732SOL    HW115095   0.456   1.271   6.911
 4732SOL    HW215096   0.345   1.287   6.791
 4733SOL     OW15097   6.882   3.438   3.795
 4733SOL    HW115098   6.788   3.453   3.827
 4733SOL    HW215099   6.908   3.343   3.813
 4734SOL     OW15100   5.461   4.414   5.747
 4734SOL    HW115101   5.500   4.340   5.802
 4734SOL    HW215102   5.483   4.502   5.789
 4735SOL     OW15103   0.375   4.078   3.983
 4735SOL    HW115104   0.281   4.060   3.954
 4735SOL    HW215105   0.435   4.006   3.949
 4736SOL     OW15106   2.152   0.335   1.319
 4736SOL    HW115107   2.089   0.408   1.294
 4736SOL    HW215108   2.231   0.374   1.365
 4737SOL     OW15109   3.456   5.075   1.776
 4737SOL    HW115110   3.384   5.141   1.794
 4737SOL    HW215111   3.521   5.113   1.709
 4738SOL     OW15112   0.168   6.244   2.826
 4738SOL    HW115113   0.173   6.175   2.753
 4738SOL    HW215114   0.208   6.206   2.910
 4739SOL     OW15115   4.235   6.870   1.531
 4739SOL    HW115116   4.278   6.817   1.457
 4739SOL    HW215117   4.151   6.824   1.559
 4740SOL     OW15118   0.425   2.273   3.938
 4740SOL    HW115119   0.333   2.260   3.901
 4740SOL    HW215120   0.459   2.364   3.914
 4741SOL     OW15121   3.726   3.529   1.639
 4741SOL    HW115122   3.710   3.483   1.726
 4741SOL    HW215123   3.825   3.540   1.625
 4742SOL     OW15124   4.313   0.968   0.770
 4742SOL    HW115125   4.367   1.043   0.731
 4742SOL    HW215126   4.254   0.930   0.700
 4743SOL     OW15127   1.526   6.171   0.960
 4743SOL    HW115128   1.496   6.076   0.967
 4743SOL    HW215129   1.587   6.181   0.882
 4744SOL     OW15130   2.051   5.756   1.571
 4744SOL    HW115131   2.073   5.801   1.657
 4744SOL    HW215132   2.048   5.656   1.585
 4745SOL     OW15133   1.836   3.531   0.238
 4745SOL    HW115134   1.927   3.532   0.196
 4745SOL    HW215135   1.834   3.464   0.312
 4746SOL     OW15136   5.057   5.676   4.166
 4746SOL    HW115137   5.031   5.613   4.239
 4746SOL    HW215138   5.113   5.629   4.099
 4747SOL     OW15139   3.308   0.526   6.761
 4747SOL    HW115140   3.258   0.450   6.719
 4747SOL    HW215141   3.373   0.490   6.829
 4748SOL     OW15142   1.912   0.565   2.169
 4748SOL    HW115143   1.969   0.639   2.204
 4748SOL    HW215144   1.970   0.491   2.137
 4749SOL     OW15145   2.118   1.707   1.073
 4749SOL    HW115146   2.041   1.680   1.016
 4749SOL    HW215147   2.191   1.640   1.065
 4750SOL     OW15148   4.467   3.511   5.942
 4750SOL    HW115149   4.372   3.487   5.923
 4750SOL    HW215150   4.479   3.610   5.934
 4751SOL     OW15151   4.185   1.344   2.551
 4751SOL    HW115152   4.125   1.376   2.625
 4751SOL    HW215153   4.256   1.285   2.589
 4752SOL     OW15154   5.809   1.588   6.958
 4752SOL    HW115155   5.711   1.575   6.944
 4752SOL    HW215156   5.840   1.533   0.012
 4753SOL     OW15157   2.357   6.206   5.184
 4753SOL    HW115158   2.440   6.261   5.191
 4753SOL    HW215159   2.356   6.138   5.258
 4754SOL     OW15160   5.198   4.376   0.127
 4754SOL    HW115161   5.254   4.404   0.049
 4754SOL    HW215162   5.103   4.402   0.109
 4755SOL     OW15163   0.748   1.347   1.046
 4755SOL    HW115164   0.745   1.401   1.130
 4755SOL    HW215165   0.842   1.342   1.013
 4756SOL     OW15166   6.963   4.029   5.674
 4756SOL    HW115167   6.916   3.942   5.684
 4756SOL    HW215168   6.972   4.072   5.763
 4757SOL     OW15169   2.138   3.288   0.160
 4757SOL    HW115170   2.140   3.387   0.174
 4757SOL    HW215171   2.231   3.253   0.154
 4758SOL     OW15172   2.579   5.085   3.079
 4758SOL    HW115173   2.606   5.105   2.985
 4758SOL    HW215174   2.646   5.124   3.142
 4759SOL     OW15175   0.694   6.222   2.456
 4759SOL    HW115176   0.650   6.311   2.463
 4759SOL    HW215177   0.730   6.196   2.546
 4760SOL     OW15178   1.727   6.369   1.082
 4760SOL    HW115179   1.715   6.385   1.180
 4760SOL    HW215180   1.666   6.295   1.053
 4761SOL     OW15181   5.043   6.490   1.662
 4761SOL    HW115182   5.011   6.437   1.740
 4761SOL    HW215183   4.967   6.540   1.622
 4762SOL     OW15184   1.555   0.525   3.017
 4762SOL    HW115185   1.632   0.502   2.958
 4762SOL    HW215186   1.476   0.470   2.992
 4763SOL     OW15187   5.469   5.555   2.113
 4763SOL    HW115188   5.561   5.528   2.141
 4763SOL    HW215189   5.452   5.525   2.019
 4764SOL     OW15190   4.673   3.156   0.080
 4764SOL    HW115191   4.767   3.136   0.106
 4764SOL    HW215192   4.631   3.215   0.150
 4765SOL     OW15193   4.103   1.982   6.059
 4765SOL    HW115194   4.111   2.062   5.999
 4765SOL    HW215195   4.105   1.899   6.004
 4766SOL     OW15196   1.083   0.862   4.700
 4766SOL    HW115197   1.127   0.802   4.634
 4766SOL    HW215198   1.126   0.953   4.696
 4767SOL     OW15199   2.087   4.630   3.650
 4767SOL    HW115200   2.029   4.584   3.717
 4767SOL    HW215201   2.133   4.708   3.693
 4768SOL     OW15202   4.713   2.243   6.167
 4768SOL    HW115203   4.805   2.221   6.199
 4768SOL    HW215204   4.709   2.340   6.141
 4769SOL     OW15205   1.933   3.028   0.578
 4769SOL    HW115206   1.978   3.025   0.489
 4769SOL    HW215207   1.844   2.982   0.572
 4770SOL     OW15208   6.815   1.653   3.318
 4770SOL    HW115209   6.754   1.576   3.299
 4770SOL    HW215210   6.898   1.643   3.263
 4771SOL     OW15211   2.007   0.325   3.907
 4771SOL    HW115212   2.038   0.420   3.901
 4771SOL    HW215213   1.965   0.299   3.820
 4772SOL     OW15214   2.565   4.769   2.936
 4772SOL    HW115215   2.502   4.845   2.953
 4772SOL    HW215216   2.651   4.806   2.899
 4773SOL     OW15217   2.968   5.199   4.948
 4773SOL    HW115218   3.049   5.245   4.911
 4773SOL    HW215219   2.897   5.194   4.877
 4774SOL     OW15220   0.927   3.797   0.751
 4774SOL    HW115221   0.962   3.705   0.765
 4774SOL    HW215222   0.860   3.796   0.676
 4775SOL     OW15223   5.724   5.271   4.940
 4775SOL    HW115224   5.790   5.269   4.865
 4775SOL    HW215225   5.772   5.263   5.027
 4776SOL     OW15226   0.178   1.567   5.207
 4776SOL    HW115227   0.125   1.482   5.198
 4776SOL    HW215228   0.197   1.584   5.304
 4777SOL     OW15229   1.773   6.774   2.944
 4777SOL    HW115230   1.792   6.719   3.025
 4777SOL    HW215231   1.693   6.831   2.960
 4778SOL     OW15232   1.884   0.387   6.905
 4778SOL    HW115233   1.861   0.463   6.967
 4778SOL    HW215234   1.897   0.423   6.813
 4779SOL     OW15235   4.714   1.158   4.793
 4779SOL    HW115236   4.676   1.248   4.770
 4779SOL    HW215237   4.639   1.095   4.814
 4780SOL     OW15238   4.841   3.125   4.777
 4780SOL    HW115239   4.842   3.194   4.849
 4780SOL    HW215240   4.854   3.169   4.688
 4781SOL     OW15241   1.698   5.420   1.776
 4781SOL    HW115242   1.676   5.490   1.707
 4781SOL    HW215243   1.708   5.332   1.730
 4782SOL     OW15244   0.902   6.198   3.592
 4782SOL    HW115245   0.831   6.265   3.569
 4782SOL    HW215246   0.969   6.240   3.652
 4783SOL     OW15247   0.656   3.404   6.362
 4783SOL    HW115248   0.563   3.430   6.340
 4783SOL    HW215249   0.706   3.381   6.278
 4784SOL     OW15250   5.435   3.068   6.990
 4784SOL    HW115251   5.346   3.078   6.947
 4784SOL    HW215252   5.435   3.116   0.054
 4785SOL     OW15253   0.568   0.207   4.194
 4785SOL    HW115254   0.581   0.167   4.103
 4785SOL    HW215255   0.653   0.199   4.246
 4786SOL     OW15256   1.014   5.680   0.114
 4786SOL    HW115257   0.943   5.729   0.165
 4786SOL    HW215258   1.093   5.666   0.173
 4787SOL     OW15259   5.261   1.247   4.838
 4787SOL    HW115260   5.331   1.175   4.837
 4787SOL    HW215261   5.196   1.229   4.912
 4788SOL     OW15262   6.571   5.755   1.245
 4788SOL    HW115263   6.601   5.717   1.333
 4788SOL    HW215264   6.556   5.680   1.180
 4789SOL     OW15265   6.194   0.452   2.927
 4789SOL    HW115266   6.095   0.449   2.944
 4789SOL    HW215267   6.213   0.416   2.836
 4790SOL     OW15268   6.860   1.883   4.668
 4790SOL    HW115269   6.792   1.857   4.600
 4790SOL    HW215270   6.926   1.946   4.627
 4791SOL     OW15271   0.727   0.359   6.886
 4791SOL    HW115272   0.809   0.410   6.910
 4791SOL    HW215273   0.751   0.263   6.870
 4792SOL     OW15274   0.872   3.835   1.939
 4792SOL    HW115275   0.924   3.799   2.017
 4792SOL    HW215276   0.786   3.873   1.972
 4793SOL     OW15277   0.702   3.967   5.428
 4793SOL    HW115278   0.800   3.987   5.425
 4793SOL    HW215279   0.654   4.042   5.475
 4794SOL     OW15280   5.122   1.788   5.628
 4794SOL    HW115281   5.024   1.786   5.609
 4794SOL    HW215282   5.147   1.874   5.672
 4795SOL     OW15283   0.064   0.979   6.575
 4795SOL    HW115284   7.009   0.951   6.630
 4795SOL    HW215285   0.047   1.069   6.536
 4796SOL     OW15286   4.792   1.205   5.677
 4796SOL    HW115287   4.843   1.231   5.595
 4796SOL    HW215288   4.718   1.142   5.652
 4797SOL     OW15289   2.446   5.277   5.714
 4797SOL    HW115290   2.495   5.247   5.632
 4797SOL    HW215291   2.352   5.302   5.689
 4798SOL     OW15292   3.143   6.019   0.432
 4798SOL    HW115293   3.085   6.033   0.512
 4798SOL    HW215294   3.091   5.971   0.361
 4799SOL     OW15295   3.255   3.155   0.401
 4799SOL    HW115296   3.341   3.184   0.357
 4799SOL    HW215297   3.238   3.212   0.482
 4800SOL     OW15298   1.090   4.842   0.462
 4800SOL    HW115299   1.103   4.750   0.499
 4800SOL    HW215300   1.179   4.886   0.447
 4801SOL     OW15301   4.603   2.495   3.070
 4801SOL    HW115302   4.671   2.440   3.021
 4801SOL    HW215303   4.540   2.434   3.118
 4802SOL     OW15304   6.799   0.773   4.603
 4802SOL    HW115305   6.890   0.806   4.575
 4802SOL    HW215306   6.805   0.676   4.628
 4803SOL     OW15307   5.082   3.751   5.547
 4803SOL    HW115308   4.991   3.750   5.588
 4803SOL    HW215309   5.076   3.725   5.451
 4804SOL     OW15310   5.081   2.349   0.823
 4804SOL    HW115311   5.060   2.285   0.750
 4804SOL    HW215312   5.133   2.303   0.895
 4805SOL     OW15313   5.607   1.509   6.726
 4805SOL    HW115314   5.658   1.440   6.674
 4805SOL    HW215315   5.606   1.595   6.675
 4806SOL     OW15316   0.999   2.155   3.084
 4806SOL    HW115317   1.000   2.255   3.095
 4806SOL    HW215318   1.066   2.129   3.014
 4807SOL     OW15319   6.892   4.378   6.731
 4807SOL    HW115320   6.869   4.281   6.735
 4807SOL    HW215321   6.815   4.432   6.763
 4808SOL     OW15322   3.802   5.961   2.535
 4808SOL    HW115323   3.828   5.985   2.442
 4808SOL    HW215324   3.884   5.945   2.590
 4809SOL     OW15325   3.022   3.481   1.295
 4809SOL    HW115326   3.021   3.573   1.257
 4809SOL    HW215327   3.089   3.425   1.246
 4810SOL     OW15328   1.849   5.444   4.376
 4810SOL    HW115329   1.813   5.355   4.403
 4810SOL    HW215330   1.824   5.462   4.281
 4811SOL     OW15331   3.533   3.274   4.218
 4811SOL    HW115332   3.560   3.249   4.310
 4811SOL    HW215333   3.438   3.248   4.202
 4812SOL     OW15334   2.268   6.380   2.149
 4812SOL    HW115335   2.199   6.449   2.127
 4812SOL    HW215336   2.360   6.419   2.136
 4813SOL     OW15337   0.689   2.616   4.777
 4813SOL    HW115338   0.663   2.609   4.681
 4813SOL    HW215339   0.787   2.597   4.786
 4814SOL     OW15340   6.578   2.950   1.075
 4814SOL    HW115341   6.485   2.964   1.110
 4814SOL    HW215342   6.579   2.874   1.010
 4815SOL     OW15343   6.402   4.271   2.145
 4815SOL    HW115344   6.344   4.189   2.143
 4815SOL    HW215345   6.486   4.250   2.194
 4816SOL     OW15346   2.848   0.494   2.504
 4816SOL    HW115347   2.806   0.584   2.490
 4816SOL    HW215348   2.880   0.458   2.417
 4817SOL     OW15349   4.208   2.444   0.643
 4817SOL    HW115350   4.307   2.450   0.633
 4817SOL    HW215351   4.183   2.460   0.738
 4818SOL     OW15352   4.426   6.559   4.532
 4818SOL    HW115353   4.465   6.649   4.549
 4818SOL    HW215354   4.447   6.530   4.439
 4819SOL     OW15355   2.971   0.946   0.009
 4819SOL    HW115356   2.964   1.045   0.003
 4819SOL    HW215357   2.880   0.905   0.003
 4820SOL     OW15358   6.698   3.989   1.746
 4820SOL    HW115359   6.626   4.002   1.814
 4820SOL    HW215360   6.787   3.988   1.791
 4821SOL     OW15361   0.126   5.461   1.560
 4821SOL    HW115362   0.125   5.545   1.507
 4821SOL    HW215363   0.221   5.438   1.583
 4822SOL     OW15364   0.534   3.294   1.276
 4822SOL    HW115365   0.579   3.371   1.321
 4822SOL    HW215366   0.596   3.215   1.275
 4823SOL     OW15367   0.381   1.316   3.308
 4823SOL    HW115368   0.434   1.232   3.296
 4823SOL    HW215369   0.336   1.315   3.397
 4824SOL     OW15370   5.627   1.815   2.351
 4824SOL    HW115371   5.599   1.751   2.422
 4824SOL    HW215372   5.701   1.775   2.297
 4825SOL     OW15373   1.073   3.449   4.215
 4825SOL    HW115374   1.011   3.469   4.139
 4825SOL    HW215375   1.054   3.358   4.251
 4826SOL     OW15376   6.609   0.029   0.223
 4826SOL    HW115377   6.681   7.022   0.284
 4826SOL    HW215378   6.628   0.123   0.195
 4827SOL     OW15379   4.988   1.706   6.836
 4827SOL    HW115380   5.046   1.649   6.895
 4827SOL    HW215381   4.893   1.673   6.840
 4828SOL     OW15382   5.119   3.353   6.701
 4828SOL    HW115383   5.064   3.435   6.715
 4828SOL    HW215384   5.200   3.356   6.759
 4829SOL     OW15385   3.478   0.288   5.146
 4829SOL    HW115386   3.398   0.241   5.185
 4829SOL    HW215387   3.561   0.244   5.178
 4830SOL     OW15388   4.518   5.690   4.791
 4830SOL    HW115389   4.543   5.632   4.713
 4830SOL    HW215390   4.601   5.725   4.834
 4831SOL     OW15391   5.848   2.382   6.726
 4831SOL    HW115392   5.799   2.431   6.654
 4831SOL    HW215393   5.936   2.350   6.690
 4832SOL     OW15394   1.892   2.747   6.348
 4832SOL    HW115395   1.957   2.778   6.418
 4832SOL    HW215396   1.878   2.821   6.282
 4833SOL     OW15397   6.377   1.669   3.401
 4833SOL    HW115398   6.284   1.633   3.416
 4833SOL    HW215399   6.440   1.592   3.388
 4834SOL     OW15400   6.015   0.380   3.183
 4834SOL    HW115401   6.101   0.328   3.178
 4834SOL    HW215402   5.999   0.409   3.278
 4835SOL     OW15403   1.629   1.606   6.018
 4835SOL    HW115404   1.709   1.627   6.075
 4835SOL    HW215405   1.594   1.516   6.041
 4836SOL     OW15406   5.995   2.986   2.216
 4836SOL    HW115407   5.998   2.937   2.129
 4836SOL    HW215408   5.937   3.067   2.207
 4837SOL     OW15409   0.585   4.689   0.800
 4837SOL    HW115410   0.533   4.618   0.753
 4837SOL    HW215411   0.591   4.770   0.741
 4838SOL     OW15412   2.313   6.029   2.871
 4838SOL    HW115413   2.394   6.016   2.927
 4838SOL    HW215414   2.231   6.025   2.928
 4839SOL     OW15415   0.783   0.054   6.566
 4839SOL    HW115416   0.744   0.090   6.481
 4839SOL    HW215417   0.859   7.017   6.545
 4840SOL     OW15418   6.334   6.013   6.009
 4840SOL    HW115419   6.255   5.962   5.976
 4840SOL    HW215420   6.413   5.953   6.015
 4841SOL     OW15421   2.026   6.045   1.136
 4841SOL    HW115422   2.079   6.123   1.102
 4841SOL    HW215423   2.042   6.034   1.234
 4842SOL     OW15424   3.464   6.838   1.355
 4842SOL    HW115425   3.423   6.920   1.396
 4842SOL    HW215426   3.526   6.795   1.420
 4843SOL     OW15427   1.501   3.757   0.006
 4843SOL    HW115428   1.428   3.741   0.072
 4843SOL    HW215429   1.466   3.811   6.954
 4844SOL     OW15430   0.892   1.801   5.014
 4844SOL    HW115431   0.956   1.747   4.959
 4844SOL    HW215432   0.807   1.813   4.963
 4845SOL     OW15433   5.911   5.628   4.028
 4845SOL    HW115434   5.854   5.653   4.107
 4845SOL    HW215435   5.962   5.709   3.997
 4846SOL     OW15436   0.432   5.058   6.665
 4846SOL    HW115437   0.334   5.047   6.646
 4846SOL    HW215438   0.467   4.975   6.708
 4847SOL     OW15439   4.736   2.676   4.734
 4847SOL    HW115440   4.747   2.683   4.834
 4847SOL    HW215441   4.657   2.731   4.706
 4848SOL     OW15442   2.739   2.802   1.621
 4848SOL    HW115443   2.790   2.799   1.535
 4848SOL    HW215444   2.665   2.869   1.614
 4849SOL     OW15445   1.884   6.553   5.826
 4849SOL    HW115446   1.787   6.555   5.804
 4849SOL    HW215447   1.934   6.503   5.755
 4850SOL     OW15448   3.607   6.633   3.289
 4850SOL    HW115449   3.701   6.655   3.319
 4850SOL    HW215450   3.552   6.609   3.369
 4851SOL     OW15451   4.881   1.281   5.421
 4851SOL    HW115452   4.805   1.245   5.367
 4851SOL    HW215453   4.873   1.380   5.429
 4852SOL     OW15454   1.924   2.114   1.933
 4852SOL    HW115455   1.933   2.018   1.907
 4852SOL    HW215456   2.013   2.158   1.929
 4853SOL     OW15457   3.974   1.834   2.022
 4853SOL    HW115458   3.896   1.895   2.009
 4853SOL    HW215459   4.059   1.886   2.006
 4854SOL     OW15460   3.736   0.061   6.972
 4854SOL    HW115461   3.750   6.987   6.964
 4854SOL    HW215462   3.764   0.093   0.038
 4855SOL     OW15463   6.836   2.749   2.771
 4855SOL    HW115464   6.775   2.707   2.839
 4855SOL    HW215465   6.907   2.801   2.818
 4856SOL     OW15466   1.063   4.349   2.000
 4856SOL    HW115467   1.024   4.382   2.086
 4856SOL    HW215468   1.146   4.297   2.018
 4857SOL     OW15469   0.551   0.959   5.625
 4857SOL    HW115470   0.617   0.975   5.698
 4857SOL    HW215471   0.461   0.994   5.653
 4858SOL     OW15472   1.613   0.549   3.975
 4858SOL    HW115473   1.520   0.516   3.988
 4858SOL    HW215474   1.618   0.605   3.893
 4859SOL     OW15475   3.714   5.909   6.316
 4859SOL    HW115476   3.810   5.936   6.309
 4859SOL    HW215477   3.662   5.984   6.357
 4860SOL     OW15478   3.247   4.448   0.572
 4860SOL    HW115479   3.327   4.393   0.551
 4860SOL    HW215480   3.224   4.439   0.669
 4861SOL     OW15481   4.344   4.382   6.369
 4861SOL    HW115482   4.363   4.390   6.271
 4861SOL    HW215483   4.271   4.315   6.383
 4862SOL     OW15484   0.420   0.104   0.497
 4862SOL    HW115485   0.361   0.068   0.569
 4862SOL    HW215486   0.449   0.197   0.522
 4863SOL     OW15487   4.909   4.261   6.441
 4863SOL    HW115488   4.890   4.204   6.521
 4863SOL    HW215489   4.984   4.222   6.389
 4864SOL     OW15490   3.603   1.151   4.222
 4864SOL    HW115491   3.583   1.215   4.296
 4864SOL    HW215492   3.532   1.079   4.220
 4865SOL     OW15493   1.518   6.977   5.267
 4865SOL    HW115494   1.492   0.022   5.334
 4865SOL    HW215495   1.577   6.909   5.310
 4866SOL     OW15496   6.590   4.375   6.336
 4866SOL    HW115497   6.534   4.298   6.369
 4866SOL    HW215498   6.626   4.353   6.245
 4867SOL     OW15499   4.613   1.257   2.831
 4867SOL    HW115500   4.659   1.331   2.881
 4867SOL    HW215501   4.574   1.192   2.896
 4868SOL     OW15502   6.848   4.744   0.471
 4868SOL    HW115503   6.861   4.832   0.426
 4868SOL    HW215504   6.903   4.674   0.425
 4869SOL     OW15505   0.915   1.824   1.083
 4869SOL    HW115506   0.990   1.889   1.073
 4869SOL    HW215507   0.930   1.747   1.020
 4870SOL     OW15508   0.227   6.719   1.082
 4870SOL    HW115509   0.229   6.747   1.178
 4870SOL    HW215510   0.282   6.636   1.070
 4871SOL     OW15511   1.112   1.775   3.131
 4871SOL    HW115512   1.134   1.864   3.172
 4871SOL    HW215513   1.129   1.703   3.198
 4872SOL     OW15514   5.920   7.015   3.258
 4872SOL    HW115515   5.910   0.025   3.165
 4872SOL    HW215516   5.897   6.918   3.260
 4873SOL     OW15517   6.715   5.439   4.540
 4873SOL    HW115518   6.634   5.396   4.500
 4873SOL    HW215519   6.778   5.466   4.467
 4874SOL     OW15520   5.017   3.255   2.994
 4874SOL    HW115521   4.969   3.321   2.935
 4874SOL    HW215522   5.095   3.218   2.944
 4875SOL     OW15523   5.809   6.043   5.271
 4875SOL    HW115524   5.713   6.070   5.278
 4875SOL    HW215525   5.856   6.105   5.208
 4876SOL     OW15526   6.912   0.949   2.184
 4876SOL    HW115527   6.840   0.895   2.141
 4876SOL    HW215528   6.883   1.044   2.190
 4877SOL     OW15529   6.786   1.514   6.819
 4877SOL    HW115530   6.780   1.538   6.916
 4877SOL    HW215531   6.854   1.573   6.775
 4878SOL     OW15532   6.628   3.397   2.718
 4878SOL    HW115533   6.699   3.337   2.754
 4878SOL    HW215534   6.612   3.376   2.622
 4879SOL     OW15535   5.377   0.758   3.164
 4879SOL    HW115536   5.350   0.812   3.244
 4879SOL    HW215537   5.297   0.740   3.107
 4880SOL     OW15538   0.010   3.115   6.331
 4880SOL    HW115539   0.050   3.197   6.290
 4880SOL    HW215540   0.006   3.042   6.262
 4881SOL     OW15541   1.182   3.136   1.754
 4881SOL    HW115542   1.236   3.058   1.785
 4881SOL    HW215543   1.092   3.134   1.797
 4882SOL     OW15544   5.109   2.160   4.464
 4882SOL    HW115545   5.115   2.248   4.511
 4882SOL    HW215546   5.199   2.118   4.461
 4883SOL     OW15547   5.841   4.414   0.498
 4883SOL    HW115548   5.844   4.408   0.598
 4883SOL    HW215549   5.870   4.327   0.458
 4884SOL     OW15550   1.939   1.185   1.765
 4884SOL    HW115551   1.955   1.264   1.825
 4884SOL    HW215552   2.025   1.136   1.752
 4885SOL     OW15553   1.004   5.060   0.293
 4885SOL    HW115554   1.013   5.016   0.203
 4885SOL    HW215555   1.033   4.996   0.364
 4886SOL     OW15556   3.155   0.480   2.314
 4886SOL    HW115557   3.227   0.543   2.284
 4886SOL    HW215558   3.070   0.501   2.265
 4887SOL     OW15559   4.458   5.744   0.475
 4887SOL    HW115560   4.360   5.749   0.457
 4887SOL    HW215561   4.486   5.648   0.477
 4888SOL     OW15562   4.595   0.255   3.083
 4888SOL    HW115563   4.508   0.263   3.133
 4888SOL    HW215564   4.661   0.319   3.123
 4889SOL     OW15565   6.382   3.026   3.781
 4889SOL    HW115566   6.331   3.051   3.863
 4889SOL    HW215567   6.341   3.069   3.701
 4890SOL     OW15568   6.595   1.692   5.300
 4890SOL    HW115569   6.617   1.789   5.314
 4890SOL    HW215570   6.506   1.672   5.341
 4891SOL     OW15571   2.530   5.880   0.204
 4891SOL    HW115572   2.605   5.823   0.238
 4891SOL    HW215573   2.484   5.924   0.281
 4892SOL     OW15574   5.286   5.028   2.612
 4892SOL    HW115575   5.235   4.947   2.642
 4892SOL    HW215576   5.376   5.000   2.577
 4893SOL     OW15577   1.464   3.011   0.969
 4893SOL    HW115578   1.529   2.942   0.938
 4893SOL    HW215579   1.513   3.082   1.020
 4894SOL     OW15580   4.752   5.689   0.946
 4894SOL    HW115581   4.708   5.698   0.857
 4894SOL    HW215582   4.774   5.593   0.964
 4895SOL     OW15583   0.133   3.923   5.495
 4895SOL    HW115584   0.113   3.977   5.413
 4895SOL    HW215585   0.082   3.960   5.573
 4896SOL     OW15586   2.588   4.941   5.012
 4896SOL    HW115587   2.599   4.852   5.056
 4896SOL    HW215588   2.507   4.986   5.049
 4897SOL     OW15589   2.025   1.021   5.264
 4897SOL    HW115590   2.012   1.025   5.165
 4897SOL    HW215591   2.120   1.041   5.286
 4898SOL     OW15592   4.845   2.242   4.206
 4898SOL    HW115593   4.821   2.317   4.145
 4898SOL    HW215594   4.766   2.221   4.265
 4899SOL     OW15595   6.254   6.384   2.013
 4899SOL    HW115596   6.159   6.411   2.001
 4899SOL    HW215597   6.290   6.424   2.097
 4900SOL     OW15598   3.933   5.997   6.098
 4900SOL    HW115599   3.953   5.899   6.101
 4900SOL    HW215600   4.017   6.048   6.082
 4901SOL     OW15601   1.725   0.719   6.726
 4901SOL    HW115602   1.824   0.725   6.738
 4901SOL    HW215603   1.680   0.736   6.813
 4902SOL     OW15604   3.044   0.382   5.407
 4902SOL    HW115605   2.976   0.371   5.480
 4902SOL    HW215606   2.997   0.395   5.320
 4903SOL     OW15607   5.020   3.847   2.992
 4903SOL    HW115608   4.987   3.872   2.901
 4903SOL    HW215609   4.976   3.905   3.061
 4904SOL     OW15610   1.881   0.467   1.595
 4904SOL    HW115611   1.939   0.502   1.669
 4904SOL    HW215612   1.816   0.539   1.568
 4905SOL     OW15613   2.534   0.582   2.582
 4905SOL    HW115614   2.452   0.550   2.534
 4905SOL    HW215615   2.604   0.511   2.580
 4906SOL     OW15616   5.636   3.551   4.888
 4906SOL    HW115617   5.607   3.470   4.837
 4906SOL    HW215618   5.568   3.623   4.877
 4907SOL     OW15619   3.829   2.410   0.092
 4907SOL    HW115620   3.746   2.410   0.036
 4907SOL    HW215621   3.826   2.489   0.155
 4908SOL     OW15622   3.400   7.006   6.606
 4908SOL    HW115623   3.301   7.018   6.603
 4908SOL    HW215624   3.445   0.069   6.589
 4909SOL     OW15625   4.865   5.252   4.198
 4909SOL    HW115626   4.874   5.206   4.286
 4909SOL    HW215627   4.768   5.269   4.179
 4910SOL     OW15628   3.944   2.126   6.830
 4910SOL    HW115629   3.884   2.144   6.908
 4910SOL    HW215630   3.898   2.064   6.766
 4911SOL     OW15631   6.477   4.671   2.911
 4911SOL    HW115632   6.571   4.704   2.897
 4911SOL    HW215633   6.473   4.573   2.892
 4912SOL     OW15634   5.989   2.718   4.310
 4912SOL    HW115635   5.987   2.794   4.375
 4912SOL    HW215636   5.902   2.712   4.262
 4913SOL     OW15637   1.035   3.991   5.118
 4913SOL    HW115638   1.047   4.072   5.060
 4913SOL    HW215639   1.082   3.913   5.077
 4914SOL     OW15640   4.001   6.813   3.939
 4914SOL    HW115641   3.972   6.757   3.862
 4914SOL    HW215642   4.058   6.759   4.001
 4915SOL     OW15643   3.943   5.958   5.427
 4915SOL    HW115644   3.925   6.046   5.382
 4915SOL    HW215645   3.871   5.940   5.495
 4916SOL     OW15646   5.236   2.055   3.714
 4916SOL    HW115647   5.164   2.081   3.779
 4916SOL    HW215648   5.195   2.041   3.624
 4917SOL     OW15649   4.280   6.433   6.421
 4917SOL    HW115650   4.242   6.447   6.513
 4917SOL    HW215651   4.281   6.520   6.372
 4918SOL     OW15652   5.773   5.308   3.715
 4918SOL    HW115653   5.706   5.265   3.775
 4918SOL    HW215654   5.780   5.257   3.629
 4919SOL     OW15655   3.566   3.528   2.139
 4919SOL    HW115656   3.545   3.599   2.205
 4919SOL    HW215657   3.634   3.465   2.178
 4920SOL     OW15658   6.000   1.231   6.301
 4920SOL    HW115659   5.929   1.206   6.236
 4920SOL    HW215660   6.088   1.195   6.269
 4921SOL     OW15661   6.853   6.594   1.479
 4921SOL    HW115662   6.818   6.683   1.506
 4921SOL    HW215663   6.921   6.605   1.407
 4922SOL     OW15664   4.500   1.819   5.960
 4922SOL    HW115665   4.432   1.787   6.026
 4922SOL    HW215666   4.488   1.916   5.943
 4923SOL     OW15667   4.093   1.676   1.749
 4923SOL    HW115668   4.069   1.633   1.835
 4923SOL    HW215669   4.171   1.628   1.708
 4924SOL     OW15670   2.333   0.883   5.224
 4924SOL    HW115671   2.363   0.906   5.132
 4924SOL    HW215672   2.356   0.788   5.244
 4925SOL     OW15673   5.161   5.655   3.430
 4925SOL    HW115674   5.149   5.649   3.331
 4925SOL    HW215675   5.240   5.711   3.451
 4926SOL     OW15676   5.832   2.977   1.714
 4926SOL    HW115677   5.759   2.941   1.656
 4926SOL    HW215678   5.820   2.944   1.807
 4927SOL     OW15679   2.365   1.822   0.151
 4927SOL    HW115680   2.382   1.906   0.101
 4927SOL    HW215681   2.331   1.844   0.243
 4928SOL     OW15682   0.013   1.637   0.779
 4928SOL    HW115683   6.981   1.569   0.733
 4928SOL    HW215684   0.110   1.619   0.759
 4929SOL     OW15685   6.974   0.332   4.850
 4929SOL    HW115686   0.015   0.266   4.887
 4929SOL    HW215687   6.902   0.349   4.917
 4930SOL     OW15688   4.569   5.759   2.732
 4930SOL    HW115689   4.633   5.738   2.805
 4930SOL    HW215690   4.522   5.676   2.704
 4931SOL     OW15691   6.006   6.875   1.131
 4931SOL    HW115692   6.100   6.853   1.104
 4931SOL    HW215693   6.006   6.959   1.185
 4932SOL     OW15694   3.332   3.518   2.666
 4932SOL    HW115695   3.258   3.452   2.655
 4932SOL    HW215696   3.415   3.469   2.694
 4933SOL     OW15697   1.291   0.457   5.286
 4933SOL    HW115698   1.336   0.511   5.215
 4933SOL    HW215699   1.239   0.518   5.346
 4934SOL     OW15700   3.126   6.726   2.814
 4934SOL    HW115701   3.116   6.753   2.910
 4934SOL    HW215702   3.214   6.679   2.802
 4935SOL     OW15703   0.254   0.898   4.977
 4935SOL    HW115704   0.200   0.934   4.901
 4935SOL    HW215705   0.198   0.895   5.060
 4936SOL     OW15706   4.726   2.317   0.749
 4936SOL    HW115707   4.645   2.346   0.799
 4936SOL    HW215708   4.781   2.256   0.807
 4937SOL     OW15709   4.340   2.904   5.465
 4937SOL    HW115710   4.250   2.876   5.434
 4937SOL    HW215711   4.340   3.003   5.481
 4938SOL     OW15712   3.904   4.162   6.866
 4938SOL    HW115713   3.830   4.134   6.805
 4938SOL    HW215714   3.991   4.129   6.830
 4939SOL     OW15715   4.261   3.921   6.453
 4939SOL    HW115716   4.300   3.913   6.362
 4939SOL    HW215717   4.211   4.008   6.460
 4940SOL     OW15718   2.275   5.740   3.625
 4940SOL    HW115719   2.296   5.809   3.694
 4940SOL    HW215720   2.340   5.664   3.632
 4941SOL     OW15721   5.704   0.571   0.942
 4941SOL    HW115722   5.698   0.604   1.036
 4941SOL    HW215723   5.710   0.649   0.880
 4942SOL     OW15724   4.675   2.505   6.120
 4942SOL    HW115725   4.653   2.557   6.037
 4942SOL    HW215726   4.672   2.566   6.199
 4943SOL     OW15727   5.531   2.681   0.993
 4943SOL    HW115728   5.480   2.693   0.908
 4943SOL    HW215729   5.519   2.761   1.051
 4944SOL     OW15730   2.139   3.688   2.085
 4944SOL    HW115731   2.191   3.628   2.025
 4944SOL    HW215732   2.199   3.724   2.157
 4945SOL     OW15733   0.089   5.915   4.177
 4945SOL    HW115734   0.142   5.856   4.237
 4945SOL    HW215735   0.119   5.903   4.083
 4946SOL     OW15736   0.029   3.789   2.068
 4946SOL    HW115737   7.014   3.839   1.991
 4946SOL    HW215738   6.991   3.717   2.097
 4947SOL     OW15739   6.221   0.736   0.788
 4947SOL    HW115740   6.153   0.666   0.810
 4947SOL    HW215741   6.234   0.740   0.689
 4948SOL     OW15742   2.371   1.545   2.858
 4948SOL    HW115743   2.470   1.527   2.862
 4948SOL    HW215744   2.355   1.633   2.815
 4949SOL     OW15745   5.434   2.448   4.569
 4949SOL    HW115746   5.450   2.381   4.641
 4949SOL    HW215747   5.356   2.506   4.594
 4950SOL     OW15748   3.217   5.331   4.884
 4950SOL    HW115749   3.178   5.342   4.792
 4950SOL    HW215750   3.208   5.417   4.934
 4951SOL     OW15751   4.373   1.591   4.286
 4951SOL    HW115752   4.370   1.687   4.314
 4951SOL    HW215753   4.282   1.561   4.258
 4952SOL     OW15754   6.726   4.677   4.107
 4952SOL    HW115755   6.790   4.742   4.064
 4952SOL    HW215756   6.671   4.725   4.175
 4953SOL     OW15757   1.183   4.855   2.008
 4953SOL    HW115758   1.159   4.846   1.911
 4953SOL    HW215759   1.140   4.781   2.060
 4954SOL     OW15760   6.262   6.392   6.984
 4954SOL    HW115761   6.362   6.398   6.989
 4954SOL    HW215762   6.222   6.480   7.012
 4955SOL     OW15763   2.167   0.634   1.458
 4955SOL    HW115764   2.137   0.687   1.537
 4955SOL    HW215765   2.252   0.587   1.480
 4956SOL     OW15766   6.188   6.611   3.542
 4956SOL    HW115767   6.106   6.559   3.563
 4956SOL    HW215768   6.163   6.691   3.486
 4957SOL     OW15769   1.842   5.569   3.815
 4957SOL    HW115770   1.810   5.661   3.790
 4957SOL    HW215771   1.905   5.536   3.744
 4958SOL     OW15772   6.812   6.804   0.096
 4958SOL    HW115773   6.713   6.802   0.083
 4958SOL    HW215774   6.850   6.885   0.052
 4959SOL     OW15775   0.475   1.915   6.898
 4959SOL    HW115776   0.551   1.920   6.833
 4959SOL    HW215777   0.393   1.953   6.856
 4960SOL     OW15778   4.167   0.161   5.761
 4960SOL    HW115779   4.254   0.127   5.726
 4960SOL    HW215780   4.182   0.247   5.810
 4961SOL     OW15781   5.226   0.480   5.531
 4961SOL    HW115782   5.195   0.388   5.556
 4961SOL    HW215783   5.299   0.509   5.594
 4962SOL     OW15784   6.923   2.717   2.514
 4962SOL    HW115785   6.980   2.635   2.523
 4962SOL    HW215786   6.912   2.759   2.604
 4963SOL     OW15787   6.902   4.688   1.184
 4963SOL    HW115788   6.924   4.660   1.090
 4963SOL    HW215789   6.978   4.664   1.244
 4964SOL     OW15790   3.579   6.416   3.107
 4964SOL    HW115791   3.561   6.342   3.172
 4964SOL    HW215792   3.592   6.501   3.158
 4965SOL     OW15793   0.116   6.147   4.667
 4965SOL    HW115794   0.030   6.122   4.622
 4965SOL    HW215795   0.145   6.073   4.728
 4966SOL     OW15796   4.258   5.557   4.904
 4966SOL    HW115797   4.301   5.487   4.961
 4966SOL    HW215798   4.328   5.613   4.861
 4967SOL     OW15799   5.682   1.964   6.558
 4967SOL    HW115800   5.706   1.867   6.560
 4967SOL    HW215801   5.704   2.005   6.646
 4968SOL     OW15802   5.113   4.002   6.833
 4968SOL    HW115803   5.167   4.047   6.905
 4968SOL    HW215804   5.161   4.012   6.745
 4969SOL     OW15805   1.569   1.690   1.295
 4969SOL    HW115806   1.667   1.688   1.316
 4969SOL    HW215807   1.517   1.692   1.381
 4970SOL     OW15808   1.947   2.613   5.780
 4970SOL    HW115809   1.957   2.691   5.842
 4970SOL    HW215810   1.851   2.604   5.754
 4971SOL     OW15811   6.660   5.545   3.808
 4971SOL    HW115812   6.584   5.483   3.830
 4971SOL    HW215813   6.746   5.505   3.840
 4972SOL     OW15814   1.597   2.154   5.224
 4972SOL    HW115815   1.695   2.164   5.210
 4972SOL    HW215816   1.555   2.244   5.234
 4973SOL     OW15817   5.210   5.330   2.722
 4973SOL    HW115818   5.169   5.260   2.664
 4973SOL    HW215819   5.208   5.418   2.675
 4974SOL     OW15820   3.888   6.561   0.105
 4974SOL    HW115821   3.988   6.550   0.107
 4974SOL    HW215822   3.864   6.649   0.145
 4975SOL     OW15823   3.576   6.590   0.474
 4975SOL    HW115824   3.527   6.592   0.386
 4975SOL    HW215825   3.668   6.628   0.462
 4976SOL     OW15826   2.753   0.697   4.355
 4976SOL    HW115827   2.716   0.663   4.269
 4976SOL    HW215828   2.712   0.785   4.378
 4977SOL     OW15829   3.260   2.857   0.486
 4977SOL    HW115830   3.323   2.900   0.421
 4977SOL    HW215831   3.274   2.758   0.487
 4978SOL     OW15832   6.133   4.248   6.298
 4978SOL    HW115833   6.161   4.272   6.205
 4978SOL    HW215834   6.161   4.155   6.318
 4979SOL     OW15835   2.199   2.334   4.039
 4979SOL    HW115836   2.270   2.280   4.084
 4979SOL    HW215837   2.242   2.404   3.981
 4980SOL     OW15838   2.082   4.802   3.134
 4980SOL    HW115839   2.032   4.737   3.077
 4980SOL    HW215840   2.023   4.880   3.155
 4981SOL     OW15841   5.322   6.083   5.317
 4981SOL    HW115842   5.294   6.066   5.222
 4981SOL    HW215843   5.415   6.119   5.318
 4982SOL     OW15844   2.546   2.144   6.846
 4982SOL    HW115845   2.539   2.071   6.779
 4982SOL    HW215846   2.470   2.138   6.911
 4983SOL     OW15847   6.677   2.856   4.736
 4983SOL    HW115848   6.671   2.927   4.806
 4983SOL    HW215849   6.727   2.777   4.772
 4984SOL     OW15850   5.111   4.241   3.255
 4984SOL    HW115851   5.128   4.214   3.160
 4984SOL    HW215852   5.028   4.196   3.288
 4985SOL     OW15853   6.030   3.887   2.205
 4985SOL    HW115854   5.987   3.816   2.149
 4985SOL    HW215855   5.985   3.890   2.294
 4986SOL     OW15856   4.412   4.559   3.110
 4986SOL    HW115857   4.358   4.591   3.188
 4986SOL    HW215858   4.370   4.592   3.025
 4987SOL     OW15859   0.556   3.151   0.543
 4987SOL    HW115860   0.484   3.084   0.524
 4987SOL    HW215861   0.629   3.108   0.596
 4988SOL     OW15862   1.883   2.222   5.243
 4988SOL    HW115863   1.884   2.148   5.176
 4988SOL    HW215864   1.977   2.247   5.267
 4989SOL     OW15865   6.997   1.308   0.913
 4989SOL    HW115866   0.017   1.290   1.001
 4989SOL    HW215867   0.042   1.317   0.842
 4990SOL     OW15868   1.355   2.264   6.300
 4990SOL    HW115869   1.328   2.353   6.263
 4990SOL    HW215870   1.414   2.277   6.379
 4991SOL     OW15871   2.761   1.924   5.572
 4991SOL    HW115872   2.858   1.950   5.570
 4991SOL    HW215873   2.723   1.931   5.480
 4992SOL     OW15874   4.570   6.471   4.751
 4992SOL    HW115875   4.562   6.372   4.764
 4992SOL    HW215876   4.498   6.502   4.688
 4993SOL     OW15877   1.656   6.307   4.264
 4993SOL    HW115878   1.557   6.298   4.263
 4993SOL    HW215879   1.696   6.232   4.318
 4994SOL     OW15880   0.553   6.656   3.089
 4994SOL    HW115881   0.571   6.691   2.997
 4994SOL    HW215882   0.505   6.568   3.082
 4995SOL     OW15883   5.729   2.955   5.424
 4995SOL    HW115884   5.645   2.920   5.465
 4995SOL    HW215885   5.772   3.020   5.487
 4996SOL     OW15886   0.691   1.597   3.347
 4996SOL    HW115887   0.739   1.517   3.384
 4996SOL    HW215888   0.638   1.570   3.267
 4997SOL     OW15889   0.185   2.565   3.830
 4997SOL    HW115890   0.150   2.528   3.744
 4997SOL    HW215891   0.110   2.578   3.894
 4998SOL     OW15892   0.698   5.645   5.557
 4998SOL    HW115893   0.647   5.559   5.567
 4998SOL    HW215894   0.756   5.658   5.638
 4999SOL     OW15895   6.066   4.395   0.952
 4999SOL    HW115896   6.126   4.467   0.985
 4999SOL    HW215897   6.074   4.315   1.013
 5000SOL     OW15898   6.511   5.185   4.085
 5000SOL    HW115899   6.572   5.132   4.025
 5000SOL    HW215900   6.537   5.171   4.180
 5001SOL     OW15901   5.226   4.252   5.514
 5001SOL    HW115902   5.141   4.224   5.469
 5001SOL    HW215903   5.208   4.276   5.609
 5002SOL     OW15904   1.801   2.585   1.571
 5002SOL    HW115905   1.716   2.546   1.606
 5002SOL    HW215906   1.815   2.676   1.610
 5003SOL     OW15907   6.620   5.047   3.869
 5003SOL    HW115908   6.549   4.989   3.827
 5003SOL    HW215909   6.671   5.094   3.797
 5004SOL     OW15910   2.246   4.698   6.051
 5004SOL    HW115911   2.211   4.792   6.061
 5004SOL    HW215912   2.170   4.634   6.054
 5005SOL     OW15913   4.885   1.881   0.524
 5005SOL    HW115914   4.924   1.898   0.433
 5005SOL    HW215915   4.796   1.927   0.531
 5006SOL     OW15916   5.325   4.602   2.577
 5006SOL    HW115917   5.372   4.671   2.521
 5006SOL    HW215918   5.381   4.520   2.581
 5007SOL     OW15919   4.743   1.175   5.220
 5007SOL    HW115920   4.778   1.085   5.196
 5007SOL    HW215921   4.650   1.185   5.184
 5008SOL     OW15922   6.468   0.721   3.688
 5008SOL    HW115923   6.375   0.758   3.689
 5008SOL    HW215924   6.505   0.725   3.596
 5009SOL     OW15925   2.322   6.108   2.077
 5009SOL    HW115926   2.407   6.121   2.127
 5009SOL    HW215927   2.267   6.191   2.082
 5010SOL     OW15928   3.554   3.497   5.943
 5010SOL    HW115929   3.513   3.444   6.017
 5010SOL    HW215930   3.498   3.577   5.924
 5011SOL     OW15931   1.625   1.991   3.811
 5011SOL    HW115932   1.608   1.915   3.749
 5011SOL    HW215933   1.691   2.054   3.770
 5012SOL     OW15934   5.945   3.383   6.960
 5012SOL    HW115935   5.953   3.409   6.864
 5012SOL    HW215936   5.853   3.402   6.993
 5013SOL     OW15937   4.775   2.301   5.609
 5013SOL    HW115938   4.851   2.318   5.672
 5013SOL    HW215939   4.724   2.386   5.594
 5014SOL     OW15940   0.166   5.689   6.613
 5014SOL    HW115941   0.234   5.640   6.559
 5014SOL    HW215942   0.090   5.628   6.635
 5015SOL     OW15943   5.364   1.889   3.284
 5015SOL    HW115944   5.381   1.959   3.215
 5015SOL    HW215945   5.281   1.839   3.260
 5016SOL     OW15946   2.766   6.129   2.204
 5016SOL    HW115947   2.777   6.089   2.112
 5016SOL    HW215948   2.692   6.195   2.202
 5017SOL     OW15949   1.046   2.101   1.631
 5017SOL    HW115950   1.128   2.079   1.684
 5017SOL    HW215951   1.061   2.186   1.580
 5018SOL     OW15952   6.978   4.622   3.338
 5018SOL    HW115953   6.943   4.689   3.403
 5018SOL    HW215954   6.955   4.530   3.369
 5019SOL     OW15955   2.101   5.390   5.245
 5019SOL    HW115956   2.019   5.439   5.277
 5019SOL    HW215957   2.079   5.340   5.161
 5020SOL     OW15958   4.140   5.197   6.777
 5020SOL    HW115959   4.159   5.136   6.700
 5020SOL    HW215960   4.225   5.215   6.827
 5021SOL     OW15961   2.151   4.371   5.850
 5021SOL    HW115962   2.166   4.272   5.842
 5021SOL    HW215963   2.183   4.416   5.767
 5022SOL     OW15964   2.373   3.769   0.539
 5022SOL    HW115965   2.284   3.728   0.519
 5022SOL    HW215966   2.434   3.700   0.577
 5023SOL     OW15967   0.683   3.309   4.807
 5023SOL    HW115968   0.600   3.358   4.781
 5023SOL    HW215969   0.690   3.225   4.754
 5024SOL     OW15970   4.792   3.878   5.398
 5024SOL    HW115971   4.703   3.854   5.437
 5024SOL    HW215972   4.788   3.970   5.361
 5025SOL     OW15973   6.050   0.649   4.228
 5025SOL    HW115974   6.134   0.671   4.178
 5025SOL    HW215975   5.997   0.732   4.244
 5026SOL     OW15976   0.940   5.367   2.706
 5026SOL    HW115977   0.870   5.401   2.768
 5026SOL    HW215978   1.029   5.369   2.752
 5027SOL     OW15979   1.028   6.048   3.375
 5027SOL    HW115980   0.971   6.120   3.336
 5027SOL    HW215981   1.024   5.967   3.316
 5028SOL     OW15982   0.910   6.967   2.824
 5028SOL    HW115983   0.963   6.886   2.851
 5028SOL    HW215984   0.923   0.015   2.892
 5029SOL     OW15985   6.665   1.102   3.737
 5029SOL    HW115986   6.642   1.191   3.696
 5029SOL    HW215987   6.717   1.048   3.672
 5030SOL     OW15988   1.082   6.115   0.122
 5030SOL    HW115989   1.108   6.082   0.214
 5030SOL    HW215990   1.092   6.214   0.119
 5031SOL     OW15991   5.758   0.705   6.695
 5031SOL    HW115992   5.690   0.643   6.656
 5031SOL    HW215993   5.718   0.756   6.771
 5032SOL     OW15994   1.454   5.462   2.403
 5032SOL    HW115995   1.406   5.378   2.428
 5032SOL    HW215996   1.398   5.516   2.341
 5033SOL     OW15997   0.440   4.326   4.831
 5033SOL    HW115998   0.528   4.367   4.854
 5033SOL    HW215999   0.444   4.227   4.842
 5034SOL     OW16000   6.948   3.666   6.283
 5034SOL    HW116001   7.005   3.748   6.282
 5034SOL    HW216002   6.970   3.610   6.363
 5035SOL     OW16003   6.849   4.046   1.224
 5035SOL    HW116004   6.749   4.037   1.223
 5035SOL    HW216005   6.887   4.002   1.143
 5036SOL     OW16006   1.402   1.003   2.355
 5036SOL    HW116007   1.332   1.071   2.332
 5036SOL    HW216008   1.422   1.008   2.452
 5037SOL     OW16009   4.887   3.333   2.700
 5037SOL    HW116010   4.853   3.402   2.763
 5037SOL    HW216011   4.984   3.349   2.682
 5038SOL     OW16012   3.390   5.750   5.288
 5038SOL    HW116013   3.362   5.790   5.375
 5038SOL    HW216014   3.427   5.821   5.229
 5039SOL     OW16015   1.782   2.348   3.069
 5039SOL    HW116016   1.825   2.280   3.128
 5039SOL    HW216017   1.853   2.405   3.027
 5040SOL     OW16018   3.090   3.490   5.952
 5040SOL    HW116019   3.093   3.590   5.960
 5040SOL    HW216020   3.037   3.452   6.028
 5041SOL     OW16021   6.929   5.476   0.997
 5041SOL    HW116022   6.875   5.556   0.971
 5041SOL    HW216023   6.879   5.393   0.971
 5042SOL     OW16024   5.817   1.524   5.871
 5042SOL    HW116025   5.718   1.520   5.881
 5042SOL    HW216026   5.839   1.546   5.775
 5043SOL     OW16027   5.315   6.198   4.214
 5043SOL    HW116028   5.318   6.223   4.311
 5043SOL    HW216029   5.294   6.101   4.205
 5044SOL     OW16030   6.071   4.404   1.880
 5044SOL    HW116031   6.163   4.426   1.848
 5044SOL    HW216032   6.010   4.482   1.863
 5045SOL     OW16033   6.213   3.077   5.340
 5045SOL    HW116034   6.215   3.148   5.269
 5045SOL    HW216035   6.221   3.121   5.430
 5046SOL     OW16036   4.002   3.356   5.987
 5046SOL    HW116037   3.976   3.360   6.083
 5046SOL    HW216038   3.921   3.363   5.930
 5047SOL     OW16039   0.516   1.510   2.173
 5047SOL    HW116040   0.502   1.424   2.124
 5047SOL    HW216041   0.429   1.544   2.207
 5048SOL     OW16042   5.673   3.571   1.119
 5048SOL    HW116043   5.730   3.533   1.192
 5048SOL    HW216044   5.728   3.582   1.036
 5049SOL     OW16045   1.210   1.784   1.620
 5049SOL    HW116046   1.155   1.810   1.541
 5049SOL    HW216047   1.225   1.863   1.679
 5050SOL     OW16048   1.863   4.632   6.900
 5050SOL    HW116049   1.880   4.714   6.845
 5050SOL    HW216050   1.941   4.616   6.961
 5051SOL     OW16051   2.727   3.714   6.490
 5051SOL    HW116052   2.661   3.641   6.473
 5051SOL    HW216053   2.815   3.690   6.450
 5052SOL     OW16054   5.587   2.926   0.391
 5052SOL    HW116055   5.598   2.843   0.446
 5052SOL    HW216056   5.660   2.991   0.414
 5053SOL     OW16057   1.660   3.999   1.183
 5053SOL    HW116058   1.678   3.941   1.263
 5053SOL    HW216059   1.697   3.956   1.101
 5054SOL     OW16060   3.794   6.215   5.575
 5054SOL    HW116061   3.704   6.174   5.589
 5054SOL    HW216062   3.786   6.315   5.577
 5055SOL     OW16063   1.186   1.006   4.072
 5055SOL    HW116064   1.280   0.996   4.102
 5055SOL    HW216065   1.179   1.084   4.009
 5056SOL     OW16066   3.462   2.315   5.905
 5056SOL    HW116067   3.421   2.402   5.878
 5056SOL    HW216068   3.449   2.247   5.832
 5057SOL     OW16069   0.430   4.039   3.136
 5057SOL    HW116070   0.333   4.032   3.114
 5057SOL    HW216071   0.483   3.989   3.068
 5058SOL     OW16072   3.470   1.801   0.805
 5058SOL    HW116073   3.374   1.775   0.818
 5058SOL    HW216074   3.490   1.804   0.707
 5059SOL     OW16075   5.214   2.030   2.209
 5059SOL    HW116076   5.187   2.120   2.175
 5059SOL    HW216077   5.143   1.963   2.185
 5060SOL     OW16078   0.022   3.572   5.090
 5060SOL    HW116079   6.951   3.553   5.111
 5060SOL    HW216080   0.031   3.665   5.056
 5061SOL     OW16081   3.631   2.743   6.105
 5061SOL    HW116082   3.540   2.712   6.078
 5061SOL    HW216083   3.700   2.682   6.066
 5062SOL     OW16084   5.386   1.251   3.079
 5062SOL    HW116085   5.346   1.165   3.048
 5062SOL    HW216086   5.409   1.309   3.001
 5063SOL     OW16087   0.400   1.842   1.218
 5063SOL    HW116088   0.436   1.934   1.234
 5063SOL    HW216089   0.301   1.843   1.227
 5064SOL     OW16090   5.759   4.863   1.782
 5064SOL    HW116091   5.811   4.917   1.715
 5064SOL    HW216092   5.662   4.884   1.773
 5065SOL     OW16093   2.369   1.744   2.445
 5065SOL    HW116094   2.349   1.747   2.543
 5065SOL    HW216095   2.379   1.838   2.411
 5066SOL     OW16096   1.483   5.207   2.841
 5066SOL    HW116097   1.471   5.224   2.939
 5066SOL    HW216098   1.568   5.157   2.827
 5067SOL     OW16099   5.731   2.493   1.146
 5067SOL    HW116100   5.658   2.514   1.081
 5067SOL    HW216101   5.694   2.437   1.221
 5068SOL     OW16102   1.170   6.287   1.177
 5068SOL    HW116103   1.157   6.209   1.115
 5068SOL    HW216104   1.092   6.348   1.172
 5069SOL     OW16105   4.664   5.105   5.923
 5069SOL    HW116106   4.700   5.019   5.958
 5069SOL    HW216107   4.568   5.094   5.900
 5070SOL     OW16108   6.377   3.471   6.425
 5070SOL    HW116109   6.446   3.478   6.498
 5070SOL    HW216110   6.377   3.378   6.389
 5071SOL     OW16111   2.629   5.952   3.013
 5071SOL    HW116112   2.590   6.045   3.015
 5071SOL    HW216113   2.704   5.949   2.948
 5072SOL     OW16114   0.899   1.511   1.991
 5072SOL    HW116115   0.955   1.451   1.935
 5072SOL    HW216116   0.875   1.464   2.076
 5073SOL     OW16117   1.589   1.455   3.524
 5073SOL    HW116118   1.641   1.458   3.439
 5073SOL    HW216119   1.650   1.431   3.600
 5074SOL     OW16120   3.635   1.987   1.545
 5074SOL    HW116121   3.704   1.980   1.617
 5074SOL    HW216122   3.635   2.080   1.509
 5075SOL     OW16123   6.241   2.601   0.371
 5075SOL    HW116124   6.259   2.504   0.356
 5075SOL    HW216125   6.325   2.646   0.403
 5076SOL     OW16126   0.223   0.872   5.863
 5076SOL    HW116127   0.187   0.907   5.950
 5076SOL    HW216128   0.317   0.839   5.878
 5077SOL     OW16129   0.416   4.519   3.864
 5077SOL    HW116130   0.478   4.440   3.860
 5077SOL    HW216131   0.352   4.515   3.788
 5078SOL     OW16132   6.216   2.214   3.362
 5078SOL    HW116133   6.236   2.223   3.460
 5078SOL    HW216134   6.268   2.137   3.324
 5079SOL     OW16135   1.882   3.972   4.763
 5079SOL    HW116136   1.954   3.906   4.744
 5079SOL    HW216137   1.908   4.027   4.843
 5080SOL     OW16138   6.458   5.794   0.097
 5080SOL    HW116139   6.538   5.838   0.054
 5080SOL    HW216140   6.382   5.859   0.099
 5081SOL     OW16141   2.422   4.984   5.386
 5081SOL    HW116142   2.463   4.894   5.403
 5081SOL    HW216143   2.352   5.001   5.455
 5082SOL     OW16144   5.778   6.821   2.110
 5082SOL    HW116145   5.701   6.859   2.060
 5082SOL    HW216146   5.744   6.756   2.178
 5083SOL     OW16147   1.329   6.998   3.413
 5083SOL    HW116148   1.306   6.933   3.340
 5083SOL    HW216149   1.276   0.058   3.400
 5084SOL     OW16150   3.793   5.029   5.860
 5084SOL    HW116151   3.804   5.018   5.761
 5084SOL    HW216152   3.716   5.089   5.879
 5085SOL     OW16153   0.253   4.427   5.664
 5085SOL    HW116154   0.184   4.444   5.594
 5085SOL    HW216155   0.293   4.514   5.693
 5086SOL     OW16156   0.680   4.668   2.316
 5086SOL    HW116157   0.696   4.682   2.218
 5086SOL    HW216158   0.583   4.685   2.336
 5087SOL     OW16159   0.330   5.186   1.824
 5087SOL    HW116160   0.336   5.284   1.844
 5087SOL    HW216161   0.234   5.158   1.829
 5088SOL     OW16162   4.781   5.086   2.501
 5088SOL    HW116163   4.739   5.081   2.591
 5088SOL    HW216164   4.870   5.132   2.509
 5089SOL     OW16165   5.354   6.585   6.112
 5089SOL    HW116166   5.433   6.525   6.126
 5089SOL    HW216167   5.379   6.659   6.050
 5090SOL     OW16168   2.273   6.448   4.759
 5090SOL    HW116169   2.266   6.431   4.857
 5090SOL    HW216170   2.352   6.507   4.740
 5091SOL     OW16171   6.362   6.179   6.212
 5091SOL    HW116172   6.286   6.162   6.275
 5091SOL    HW216173   6.344   6.133   6.125
 5092SOL     OW16174   4.006   3.364   4.134
 5092SOL    HW116175   4.031   3.272   4.104
 5092SOL    HW216176   4.048   3.383   4.223
 5093SOL     OW16177   3.308   2.047   3.622
 5093SOL    HW116178   3.360   2.075   3.541
 5093SOL    HW216179   3.213   2.030   3.596
 5094SOL     OW16180   1.969   5.933   5.185
 5094SOL    HW116181   1.959   5.880   5.101
 5094SOL    HW216182   2.054   5.908   5.231
 5095SOL     OW16183   6.985   1.343   3.287
 5095SOL    HW116184   7.021   1.257   3.323
 5095SOL    HW216185   0.014   1.420   3.321
 5096SOL     OW16186   6.520   3.241   6.329
 5096SOL    HW116187   6.522   3.270   6.233
 5096SOL    HW216188   6.613   3.228   6.362
 5097SOL     OW16189   0.885   1.194   5.601
 5097SOL    HW116190   0.972   1.219   5.557
 5097SOL    HW216191   0.832   1.137   5.539
 5098SOL     OW16192   2.737   2.233   0.617
 5098SOL    HW116193   2.825   2.239   0.663
 5098SOL    HW216194   2.725   2.313   0.558
 5099SOL     OW16195   2.409   5.715   2.428
 5099SOL    HW116196   2.342   5.737   2.499
 5099SOL    HW216197   2.456   5.631   2.452
 5100SOL     OW16198   5.519   3.552   1.983
 5100SOL    HW116199   5.576   3.545   1.901
 5100SOL    HW216200   5.545   3.480   2.048
 5101SOL     OW16201   2.977   1.552   5.279
 5101SOL    HW116202   2.983   1.638   5.331
 5101SOL    HW216203   3.042   1.487   5.317
 5102SOL     OW16204   5.505   4.696   5.021
 5102SOL    HW116205   5.591   4.737   4.990
 5102SOL    HW216206   5.439   4.698   4.947
 5103SOL     OW16207   0.603   0.506   5.833
 5103SOL    HW116208   0.618   0.547   5.744
 5103SOL    HW216209   0.623   0.408   5.829
 5104SOL     OW16210   4.119   3.397   3.376
 5104SOL    HW116211   4.145   3.374   3.469
 5104SOL    HW216212   4.125   3.315   3.319
 5105SOL     OW16213   4.211   3.194   6.822
 5105SOL    HW116214   4.251   3.253   6.892
 5105SOL    HW216215   4.188   3.106   6.862
 5106SOL     OW16216   3.720   1.218   1.633
 5106SOL    HW116217   3.761   1.132   1.603
 5106SOL    HW216218   3.745   1.291   1.570
 5107SOL     OW16219   6.016   5.300   0.203
 5107SOL    HW116220   6.002   5.201   0.206
 5107SOL    HW216221   6.037   5.333   0.295
 5108SOL     OW16222   4.042   4.517   1.396
 5108SOL    HW116223   4.098   4.519   1.314
 5108SOL    HW216224   3.975   4.591   1.393
 5109SOL     OW16225   1.323   2.716   2.683
 5109SOL    HW116226   1.401   2.703   2.745
 5109SOL    HW216227   1.238   2.697   2.731
 5110SOL     OW16228   3.995   6.536   4.952
 5110SOL    HW116229   3.962   6.625   4.982
 5110SOL    HW216230   4.078   6.549   4.897
 5111SOL     OW16231   1.864   5.683   5.746
 5111SOL    HW116232   1.925   5.750   5.705
 5111SOL    HW216233   1.771   5.696   5.711
 5112SOL     OW16234   1.281   5.088   2.587
 5112SOL    HW116235   1.356   5.122   2.644
 5112SOL    HW216236   1.280   5.138   2.501
 5113SOL     OW16237   1.891   4.242   0.839
 5113SOL    HW116238   1.819   4.287   0.787
 5113SOL    HW216239   1.948   4.188   0.777
 5114SOL     OW16240   4.476   4.542   1.319
 5114SOL    HW116241   4.442   4.488   1.396
 5114SOL    HW216242   4.403   4.551   1.250
 5115SOL     OW16243   1.606   4.399   0.488
 5115SOL    HW116244   1.531   4.435   0.434
 5115SOL    HW216245   1.571   4.334   0.556
 5116SOL     OW16246   0.020   6.434   5.109
 5116SOL    HW116247   0.072   6.379   5.044
 5116SOL    HW216248   0.064   6.524   5.118
 5117SOL     OW16249   0.230   3.213   3.374
 5117SOL    HW116250   0.256   3.255   3.461
 5117SOL    HW216251   0.133   3.189   3.377
 5118SOL     OW16252   4.076   5.654   6.921
 5118SOL    HW116253   4.097   5.740   6.969
 5118SOL    HW216254   4.111   5.577   6.974
 5119SOL     OW16255   6.174   1.696   0.435
 5119SOL    HW116256   6.152   1.628   0.365
 5119SOL    HW216257   6.206   1.649   0.518
 5120SOL     OW16258   5.623   6.450   6.145
 5120SOL    HW116259   5.628   6.394   6.062
 5120SOL    HW216260   5.683   6.529   6.135
 5121SOL     OW16261   1.447   3.229   0.067
 5121SOL    HW116262   1.397   3.284   0.135
 5121SOL    HW216263   1.542   3.259   0.065
 5122SOL     OW16264   4.310   4.819   3.259
 5122SOL    HW116265   4.282   4.862   3.345
 5122SOL    HW216266   4.369   4.882   3.209
 5123SOL     OW16267   4.548   2.300   1.578
 5123SOL    HW116268   4.540   2.253   1.490
 5123SOL    HW216269   4.590   2.238   1.645
 5124SOL     OW16270   0.876   6.107   4.664
 5124SOL    HW116271   0.930   6.160   4.730
 5124SOL    HW216272   0.925   6.023   4.640
 5125SOL     OW16273   6.361   2.296   3.867
 5125SOL    HW116274   6.391   2.238   3.791
 5125SOL    HW216275   6.276   2.260   3.905
 5126SOL     OW16276   2.422   0.982   1.833
 5126SOL    HW116277   2.369   0.999   1.916
 5126SOL    HW216278   2.508   0.938   1.857
 5127SOL     OW16279   2.229   6.607   6.830
 5127SOL    HW116280   2.264   6.625   6.922
 5127SOL    HW216281   2.138   6.565   6.837
 5128SOL     OW16282   4.641   6.912   1.420
 5128SOL    HW116283   4.711   6.883   1.355
 5128SOL    HW216284   4.659   7.006   1.449
 5129SOL     OW16285   6.273   6.040   0.493
 5129SOL    HW116286   6.342   6.035   0.564
 5129SOL    HW216287   6.314   6.073   0.408
 5130SOL     OW16288   5.819   4.616   2.763
 5130SOL    HW116289   5.744   4.674   2.730
 5130SOL    HW216290   5.783   4.527   2.791
 5131SOL     OW16291   2.316   2.791   2.599
 5131SOL    HW116292   2.381   2.719   2.621
 5131SOL    HW216293   2.296   2.844   2.682
 5132SOL     OW16294   2.560   5.571   5.472
 5132SOL    HW116295   2.567   5.670   5.464
 5132SOL    HW216296   2.482   5.538   5.419
 5133SOL     OW16297   3.505   6.342   5.286
 5133SOL    HW116298   3.470   6.330   5.379
 5133SOL    HW216299   3.591   6.393   5.289
 5134SOL     OW16300   6.079   3.985   6.358
 5134SOL    HW116301   6.034   3.965   6.271
 5134SOL    HW216302   6.050   3.918   6.426
 5135SOL     OW16303   6.529   1.680   4.088
 5135SOL    HW116304   6.581   1.729   4.019
 5135SOL    HW216305   6.548   1.718   4.179
 5136SOL     OW16306   3.251   2.315   6.394
 5136SOL    HW116307   3.255   2.221   6.426
 5136SOL    HW216308   3.320   2.329   6.323
 5137SOL     OW16309   3.470   3.337   0.318
 5137SOL    HW116310   3.551   3.302   0.365
 5137SOL    HW216311   3.480   3.326   0.220
 5138SOL     OW16312   2.139   3.659   6.080
 5138SOL    HW116313   2.194   3.691   6.158
 5138SOL    HW216314   2.058   3.718   6.071
 5139SOL     OW16315   0.890   0.020   3.531
 5139SOL    HW116316   0.829   0.099   3.536
 5139SOL    HW216317   0.853   6.977   3.466
 5140SOL     OW16318   2.953   2.896   1.751
 5140SOL    HW116319   2.884   2.856   1.691
 5140SOL    HW216320   2.946   2.996   1.748
 5141SOL     OW16321   0.963   4.237   5.981
 5141SOL    HW116322   0.923   4.167   6.041
 5141SOL    HW216323   0.893   4.270   5.917
 5142SOL     OW16324   5.802   3.216   2.268
 5142SOL    HW116325   5.844   3.249   2.353
 5142SOL    HW216326   5.774   3.294   2.212
 5143SOL     OW16327   0.071   5.441   5.213
 5143SOL    HW116328   0.114   5.468   5.127
 5143SOL    HW216329   0.093   5.508   5.284
 5144SOL     OW16330   2.083   1.900   4.908
 5144SOL    HW116331   2.177   1.921   4.880
 5144SOL    HW216332   2.056   1.812   4.870
 5145SOL     OW16333   3.353   5.613   5.808
 5145SOL    HW116334   3.422   5.631   5.738
 5145SOL    HW216335   3.293   5.692   5.817
 5146SOL     OW16336   2.486   4.680   0.326
 5146SOL    HW116337   2.481   4.633   0.414
 5146SOL    HW216338   2.576   4.721   0.315
 5147SOL     OW16339   6.956   5.184   6.658
 5147SOL    HW116340   6.978   5.114   6.590
 5147SOL    HW216341   6.858   5.202   6.657
 5148SOL     OW16342   0.131   0.945   0.643
 5148SOL    HW116343   0.069   0.869   0.623
 5148SOL    HW216344   0.135   0.961   0.741
 5149SOL     OW16345   0.082   0.321   5.659
 5149SOL    HW116346   0.009   0.305   5.725
 5149SOL    HW216347   0.139   0.398   5.689
 5150SOL     OW16348   1.685   5.516   4.973
 5150SOL    HW116349   1.644   5.458   5.043
 5150SOL    HW216350   1.758   5.465   4.927
 5151SOL     OW16351   4.227   1.075   5.541
 5151SOL    HW116352   4.254   1.126   5.622
 5151SOL    HW216353   4.146   1.020   5.561
 5152SOL     OW16354   0.324   4.838   0.302
 5152SOL    HW116355   0.397   4.888   0.255
 5152SOL    HW216356   0.335   4.848   0.401
 5153SOL     OW16357   2.007   2.302   1.055
 5153SOL    HW116358   1.980   2.336   0.965
 5153SOL    HW216359   1.936   2.324   1.122
 5154SOL     OW16360   1.646   4.485   5.145
 5154SOL    HW116361   1.553   4.518   5.159
 5154SOL    HW216362   1.646   4.411   5.078
 5155SOL     OW16363   3.630   0.602   2.938
 5155SOL    HW116364   3.552   0.546   2.967
 5155SOL    HW216365   3.712   0.573   2.986
 5156SOL     OW16366   5.343   3.141   5.668
 5156SOL    HW116367   5.304   3.051   5.687
 5156SOL    HW216368   5.441   3.139   5.687
 5157SOL     OW16369   5.963   2.428   4.218
 5157SOL    HW116370   5.906   2.371   4.278
 5157SOL    HW216371   6.054   2.389   4.210
 5158SOL     OW16372   3.487   0.792   0.888
 5158SOL    HW116373   3.564   0.746   0.932
 5158SOL    HW216374   3.414   0.806   0.955
 5159SOL     OW16375   2.163   3.310   4.886
 5159SOL    HW116376   2.077   3.342   4.927
 5159SOL    HW216377   2.164   3.210   4.886
 5160SOL     OW16378   2.794   2.316   4.022
 5160SOL    HW116379   2.867   2.288   4.084
 5160SOL    HW216380   2.735   2.382   4.068
 5161SOL     OW16381   2.065   3.098   6.283
 5161SOL    HW116382   2.143   3.082   6.224
 5161SOL    HW216383   1.990   3.138   6.230
 5162SOL     OW16384   6.305   5.277   4.485
 5162SOL    HW116385   6.342   5.320   4.403
 5162SOL    HW216386   6.335   5.329   4.565
 5163SOL     OW16387   5.280   4.086   1.175
 5163SOL    HW116388   5.348   4.124   1.111
 5163SOL    HW216389   5.194   4.136   1.166
 5164SOL     OW16390   6.473   6.051   4.812
 5164SOL    HW116391   6.502   6.119   4.879
 5164SOL    HW216392   6.418   5.981   4.858
 5165SOL     OW16393   5.582   3.342   4.736
 5165SOL    HW116394   5.556   3.363   4.642
 5165SOL    HW216395   5.658   3.277   4.736
 5166SOL     OW16396   1.719   0.303   2.036
 5166SOL    HW116397   1.727   0.259   2.126
 5166SOL    HW216398   1.641   0.366   2.036
 5167SOL     OW16399   2.264   0.400   5.990
 5167SOL    HW116400   2.322   0.320   5.975
 5167SOL    HW216401   2.228   0.433   5.903
 5168SOL     OW16402   3.483   2.114   2.781
 5168SOL    HW116403   3.561   2.177   2.777
 5168SOL    HW216404   3.461   2.081   2.689
 5169SOL     OW16405   4.095   4.060   6.707
 5169SOL    HW116406   4.106   4.101   6.617
 5169SOL    HW216407   4.184   4.059   6.754
 5170SOL     OW16408   4.314   5.198   4.251
 5170SOL    HW116409   4.245   5.251   4.300
 5170SOL    HW216410   4.270   5.137   4.186
 5171SOL     OW16411   2.287   4.820   4.963
 5171SOL    HW116412   2.387   4.818   4.963
 5171SOL    HW216413   2.254   4.872   5.041
 5172SOL     OW16414   1.564   4.614   6.645
 5172SOL    HW116415   1.561   4.713   6.636
 5172SOL    HW216416   1.599   4.589   6.735
 5173SOL     OW16417   0.266   2.454   5.361
 5173SOL    HW116418   0.251   2.513   5.282
 5173SOL    HW216419   0.179   2.416   5.391
 5174SOL     OW16420   2.279   4.971   5.756
 5174SOL    HW116421   2.224   4.958   5.838
 5174SOL    HW216422   2.258   5.061   5.716
 5175SOL     OW16423   0.131   5.727   6.135
 5175SOL    HW116424   0.098   5.820   6.152
 5175SOL    HW216425   0.133   5.676   6.221
 5176SOL     OW16426   5.359   3.958   6.283
 5176SOL    HW116427   5.323   3.869   6.308
 5176SOL    HW216428   5.451   3.947   6.245
 5177SOL     OW16429   5.388   5.670   6.287
 5177SOL    HW116430   5.387   5.743   6.356
 5177SOL    HW216431   5.298   5.626   6.284
 5178SOL     OW16432   3.112   3.576   0.973
 5178SOL    HW116433   3.061   3.635   1.035
 5178SOL    HW216434   3.113   3.483   1.009
 5179SOL     OW16435   3.257   6.514   5.411
 5179SOL    HW116436   3.270   6.588   5.477
 5179SOL    HW216437   3.292   6.428   5.448
 5180SOL     OW16438   3.640   1.845   0.340
 5180SOL    HW116439   3.618   1.790   0.259
 5180SOL    HW216440   3.666   1.937   0.312
 5181SOL     OW16441   2.959   5.972   2.900
 5181SOL    HW116442   2.941   6.069   2.912
 5181SOL    HW216443   2.923   5.942   2.811
 5182SOL     OW16444   4.564   4.105   1.280
 5182SOL    HW116445   4.610   4.018   1.261
 5182SOL    HW216446   4.517   4.136   1.197
 5183SOL     OW16447   3.844   0.785   3.745
 5183SOL    HW116448   3.905   0.804   3.822
 5183SOL    HW216449   3.752   0.816   3.767
 5184SOL     OW16450   1.327   2.285   3.358
 5184SOL    HW116451   1.364   2.283   3.451
 5184SOL    HW216452   1.229   2.269   3.361
 5185SOL     OW16453   3.973   0.125   0.928
 5185SOL    HW116454   3.932   0.038   0.899
 5185SOL    HW216455   3.945   0.146   1.021
 5186SOL     OW16456   4.886   4.294   0.554
 5186SOL    HW116457   4.973   4.310   0.508
 5186SOL    HW216458   4.858   4.199   0.540
 5187SOL     OW16459   4.765   2.464   4.041
 5187SOL    HW116460   4.831   2.537   4.060
 5187SOL    HW216461   4.739   2.467   3.945
 5188SOL     OW16462   0.943   1.467   3.734
 5188SOL    HW116463   0.949   1.472   3.834
 5188SOL    HW216464   0.873   1.401   3.709
 5189SOL     OW16465   4.198   6.531   6.679
 5189SOL    HW116466   4.106   6.560   6.707
 5189SOL    HW216467   4.203   6.431   6.681
 5190SOL     OW16468   2.423   2.543   2.049
 5190SOL    HW116469   2.488   2.480   2.006
 5190SOL    HW216470   2.407   2.621   1.988
 5191SOL     OW16471   5.113   6.968   2.460
 5191SOL    HW116472   5.026   6.923   2.438
 5191SOL    HW216473   5.129   0.018   2.396
 5192SOL     OW16474   6.210   3.829   1.422
 5192SOL    HW116475   6.272   3.869   1.490
 5192SOL    HW216476   6.141   3.897   1.396
 5193SOL     OW16477   4.226   4.808   2.276
 5193SOL    HW116478   4.258   4.881   2.336
 5193SOL    HW216479   4.302   4.746   2.257
 5194SOL     OW16480   5.281   0.934   0.334
 5194SOL    HW116481   5.206   0.997   0.313
 5194SOL    HW216482   5.297   0.932   0.432
 5195SOL     OW16483   6.862   6.917   5.247
 5195SOL    HW116484   6.962   6.909   5.254
 5195SOL    HW216485   6.827   6.841   5.191
 5196SOL     OW16486   6.663   3.748   3.048
 5196SOL    HW116487   6.618   3.754   2.958
 5196SOL    HW216488   6.624   3.817   3.109
 5197SOL     OW16489   3.846   5.663   5.445
 5197SOL    HW116490   3.802   5.748   5.472
 5197SOL    HW216491   3.929   5.683   5.394
 5198SOL     OW16492   4.086   1.783   5.128
 5198SOL    HW116493   4.081   1.872   5.173
 5198SOL    HW216494   3.994   1.743   5.122
 5199SOL     OW16495   6.895   5.622   1.306
 5199SOL    HW116496   6.879   5.696   1.239
 5199SOL    HW216497   6.969   5.648   1.367
 5200SOL     OW16498   6.966   0.277   4.563
 5200SOL    HW116499   6.988   0.281   4.660
 5200SOL    HW216500   6.910   0.197   4.544
 5201SOL     OW16501   5.957   4.737   5.613
 5201SOL    HW116502   5.967   4.649   5.568
 5201SOL    HW216503   5.957   4.810   5.545
 5202SOL     OW16504   3.601   2.465   6.335
 5202SOL    HW116505   3.559   2.555   6.342
 5202SOL    HW216506   3.698   2.475   6.312
 5203SOL     OW16507   1.320   0.873   6.314
 5203SOL    HW116508   1.248   0.870   6.383
 5203SOL    HW216509   1.402   0.915   6.353
 5204SOL     OW16510   1.909   0.770   1.814
 5204SOL    HW116511   1.950   0.826   1.741
 5204SOL    HW216512   1.945   0.677   1.809
 5205SOL     OW16513   6.889   0.164   1.569
 5205SOL    HW116514   6.813   0.119   1.523
 5205SOL    HW216515   6.880   0.263   1.558
 5206SOL     OW16516   0.666   4.961   4.014
 5206SOL    HW116517   0.588   5.021   3.996
 5206SOL    HW216518   0.634   4.869   4.035
 5207SOL     OW16519   5.064   0.154   5.158
 5207SOL    HW116520   5.121   0.082   5.118
 5207SOL    HW216521   5.072   0.237   5.103
 5208SOL     OW16522   6.996   2.022   0.166
 5208SOL    HW116523   6.909   1.986   0.198
 5208SOL    HW216524   6.996   2.122   0.173
 5209SOL     OW16525   5.401   6.597   3.407
 5209SOL    HW116526   5.450   6.533   3.347
 5209SOL    HW216527   5.402   6.563   3.500
 5210SOL     OW16528   5.530   4.365   1.301
 5210SOL    HW116529   5.497   4.296   1.365
 5210SOL    HW216530   5.469   4.370   1.222
 5211SOL     OW16531   5.484   3.246   5.447
 5211SOL    HW116532   5.518   3.172   5.388
 5211SOL    HW216533   5.405   3.214   5.499
 5212SOL     OW16534   6.895   4.299   0.249
 5212SOL    HW116535   6.827   4.270   0.316
 5212SOL    HW216536   6.884   4.397   0.230
 5213SOL     OW16537   3.426   2.825   3.110
 5213SOL    HW116538   3.382   2.827   3.020
 5213SOL    HW216539   3.525   2.833   3.098
 5214SOL     OW16540   5.487   3.547   6.192
 5214SOL    HW116541   5.582   3.573   6.209
 5214SOL    HW216542   5.467   3.555   6.094
 5215SOL     OW16543   0.401   5.639   5.174
 5215SOL    HW116544   0.348   5.636   5.259
 5215SOL    HW216545   0.421   5.734   5.150
 5216SOL     OW16546   6.370   3.892   0.994
 5216SOL    HW116547   6.378   3.988   0.970
 5216SOL    HW216548   6.284   3.855   0.959
 5217SOL     OW16549   4.643   7.020   3.016
 5217SOL    HW116550   4.593   6.990   2.935
 5217SOL    HW216551   4.632   0.094   3.027
 5218SOL     OW16552   5.869   6.521   0.565
 5218SOL    HW116553   5.878   6.585   0.642
 5218SOL    HW216554   5.823   6.567   0.489
 5219SOL     OW16555   3.561   1.520   5.196
 5219SOL    HW116556   3.513   1.556   5.117
 5219SOL    HW216557   3.630   1.454   5.166
 5220SOL     OW16558   2.028   4.930   4.696
 5220SOL    HW116559   2.112   4.878   4.710
 5220SOL    HW216560   1.980   4.939   4.784
 5221SOL     OW16561   5.115   5.877   1.289
 5221SOL    HW116562   5.021   5.856   1.315
 5221SOL    HW216563   5.118   5.965   1.241
 5222SOL     OW16564   6.837   3.810   2.402
 5222SOL    HW116565   6.803   3.826   2.494
 5222SOL    HW216566   6.920   3.864   2.387
 5223SOL     OW16567   6.676   2.826   0.842
 5223SOL    HW116568   6.615   2.768   0.788
 5223SOL    HW216569   6.742   2.870   0.782
 5224SOL     OW16570   1.364   1.441   4.514
 5224SOL    HW116571   1.326   1.401   4.597
 5224SOL    HW216572   1.290   1.464   4.451
 5225SOL     OW16573   0.019   2.351   5.440
 5225SOL    HW116574   0.047   2.269   5.492
 5225SOL    HW216575   6.962   2.390   5.482
 5226SOL     OW16576   0.300   6.318   4.212
 5226SOL    HW116577   0.286   6.416   4.222
 5226SOL    HW216578   0.214   6.274   4.187
 5227SOL     OW16579   1.089   3.207   5.747
 5227SOL    HW116580   1.137   3.269   5.684
 5227SOL    HW216581   1.119   3.113   5.731
 5228SOL     OW16582   1.509   1.937   5.094
 5228SOL    HW116583   1.532   2.025   5.135
 5228SOL    HW216584   1.504   1.867   5.165
 5229SOL     OW16585   3.791   2.061   6.604
 5229SOL    HW116586   3.769   2.158   6.609
 5229SOL    HW216587   3.714   2.011   6.563
 5230SOL     OW16588   6.504   0.002   1.623
 5230SOL    HW116589   6.558   6.991   1.700
 5230SOL    HW216590   6.565   0.032   1.551
 5231SOL     OW16591   6.274   3.590   2.073
 5231SOL    HW116592   6.256   3.579   2.171
 5231SOL    HW216593   6.253   3.505   2.025
 5232SOL     OW16594   1.562   2.024   5.834
 5232SOL    HW116595   1.644   2.010   5.778
 5232SOL    HW216596   1.571   1.972   5.919
 5233SOL     OW16597   3.247   6.986   3.628
 5233SOL    HW116598   3.290   0.045   3.665
 5233SOL    HW216599   3.150   6.987   3.650
 5234SOL     OW16600   2.809   2.472   6.264
 5234SOL    HW116601   2.832   2.407   6.336
 5234SOL    HW216602   2.741   2.430   6.203
 5235SOL     OW16603   2.689   2.160   1.649
 5235SOL    HW116604   2.744   2.089   1.692
 5235SOL    HW216605   2.740   2.246   1.649
 5236SOL     OW16606   3.340   5.089   2.339
 5236SOL    HW116607   3.426   5.115   2.296
 5236SOL    HW216608   3.270   5.158   2.320
 5237SOL     OW16609   2.042   1.432   2.446
 5237SOL    HW116610   2.083   1.482   2.369
 5237SOL    HW216611   1.950   1.467   2.463
 5238SOL     OW16612   6.841   0.497   2.583
 5238SOL    HW116613   6.742   0.485   2.591
 5238SOL    HW216614   6.875   0.545   2.664
 5239SOL     OW16615   2.697   4.039   1.015
 5239SOL    HW116616   2.720   4.109   1.082
 5239SOL    HW216617   2.683   4.082   0.926
 5240SOL     OW16618   2.291   4.281   6.128
 5240SOL    HW116619   2.242   4.330   6.056
 5240SOL    HW216620   2.350   4.345   6.179
 5241SOL     OW16621   2.106   6.741   3.467
 5241SOL    HW116622   2.021   6.697   3.496
 5241SOL    HW216623   2.183   6.682   3.491
 5242SOL     OW16624   4.275   6.573   5.658
 5242SOL    HW116625   4.261   6.484   5.615
 5242SOL    HW216626   4.297   6.561   5.755
 5243SOL     OW16627   2.981   5.462   3.739
 5243SOL    HW116628   2.972   5.386   3.804
 5243SOL    HW216629   3.050   5.527   3.773
 5244SOL     OW16630   4.458   1.117   6.423
 5244SOL    HW116631   4.453   1.213   6.452
 5244SOL    HW216632   4.470   1.059   6.503
 5245SOL     OW16633   3.008   3.793   2.194
 5245SOL    HW116634   2.980   3.847   2.273
 5245SOL    HW216635   3.001   3.696   2.215
 5246SOL     OW16636   6.158   3.621   6.371
 5246SOL    HW116637   6.233   3.556   6.386
 5246SOL    HW216638   6.133   3.622   6.274
 5247SOL     OW16639   4.653   1.381   5.851
 5247SOL    HW116640   4.608   1.428   5.775
 5247SOL    HW216641   4.740   1.342   5.818
 5248SOL     OW16642   4.704   1.164   3.906
 5248SOL    HW116643   4.800   1.147   3.887
 5248SOL    HW216644   4.658   1.078   3.927
 5249SOL     OW16645   6.784   5.253   0.985
 5249SOL    HW116646   6.749   5.159   0.974
 5249SOL    HW216647   6.775   5.281   1.080
 5250SOL     OW16648   2.099   5.121   0.865
 5250SOL    HW116649   2.084   5.032   0.907
 5250SOL    HW216650   2.197   5.132   0.845
 5251SOL     OW16651   0.623   4.480   6.703
 5251SOL    HW116652   0.539   4.443   6.742
 5251SOL    HW216653   0.692   4.488   6.775
 5252SOL     OW16654   3.834   5.540   3.009
 5252SOL    HW116655   3.778   5.506   2.933
 5252SOL    HW216656   3.852   5.638   2.995
 5253SOL     OW16657   0.242   6.386   4.644
 5253SOL    HW116658   0.327   6.373   4.594
 5253SOL    HW216659   0.186   6.304   4.637
 5254SOL     OW16660   4.576   6.222   2.766
 5254SOL    HW116661   4.604   6.259   2.678
 5254SOL    HW216662   4.529   6.135   2.752
 5255SOL     OW16663   6.948   1.203   6.123
 5255SOL    HW116664   6.939   1.301   6.108
 5255SOL    HW216665   6.973   1.158   6.037
 5256SOL     OW16666   4.766   1.647   2.698
 5256SOL    HW116667   4.796   1.610   2.610
 5256SOL    HW216668   4.693   1.589   2.734
 5257SOL     OW16669   4.632   1.703   6.688
 5257SOL    HW116670   4.659   1.609   6.667
 5257SOL    HW216671   4.589   1.706   6.778
 5258SOL     OW16672   5.032   1.569   5.229
 5258SOL    HW116673   5.065   1.479   5.255
 5258SOL    HW216674   5.005   1.570   5.133
 5259SOL     OW16675   5.468   5.698   4.042
 5259SOL    HW116676   5.376   5.710   4.003
 5259SOL    HW216677   5.481   5.763   4.116
 5260SOL     OW16678   2.129   6.062   1.442
 5260SOL    HW116679   2.099   6.109   1.525
 5260SOL    HW216680   2.199   5.994   1.465
 5261SOL     OW16681   6.143   4.812   6.923
 5261SOL    HW116682   6.177   4.728   6.881
 5261SOL    HW216683   6.221   4.865   6.958
 5262SOL     OW16684   1.783   2.161   1.715
 5262SOL    HW116685   1.694   2.206   1.717
 5262SOL    HW216686   1.826   2.166   1.805
 5263SOL     OW16687   1.452   6.154   3.129
 5263SOL    HW116688   1.531   6.216   3.127
 5263SOL    HW216689   1.422   6.136   3.035
 5264SOL     OW16690   7.012   2.879   2.316
 5264SOL    HW116691   0.085   2.873   2.339
 5264SOL    HW216692   6.959   2.822   2.379
 5265SOL     OW16693   6.933   6.068   5.735
 5265SOL    HW116694   6.901   6.083   5.828
 5265SOL    HW216695   6.917   6.150   5.680
 5266SOL     OW16696   1.608   7.020   5.937
 5266SOL    HW116697   1.595   0.044   6.024
 5266SOL    HW216698   1.535   6.953   5.924
 5267SOL     OW16699   5.670   1.818   4.640
 5267SOL    HW116700   5.627   1.815   4.550
 5267SOL    HW216701   5.683   1.725   4.674
 5268SOL     OW16702   5.486   0.475   6.001
 5268SOL    HW116703   5.446   0.476   6.093
 5268SOL    HW216704   5.444   0.403   5.946
 5269SOL     OW16705   1.363   0.336   4.260
 5269SOL    HW116706   1.379   0.241   4.234
 5269SOL    HW216707   1.406   0.355   4.349
 5270SOL     OW16708   0.736   2.215   6.165
 5270SOL    HW116709   0.804   2.277   6.205
 5270SOL    HW216710   0.771   2.121   6.168
 5271SOL     OW16711   1.451   5.711   4.939
 5271SOL    HW116712   1.521   5.641   4.928
 5271SOL    HW216713   1.361   5.672   4.919
 5272SOL     OW16714   4.414   0.726   6.479
 5272SOL    HW116715   4.324   0.725   6.435
 5272SOL    HW216716   4.483   0.693   6.415
 5273SOL     OW16717   2.448   1.090   3.145
 5273SOL    HW116718   2.458   1.153   3.222
 5273SOL    HW216719   2.534   1.085   3.095
 5274SOL     OW16720   5.596   4.617   1.406
 5274SOL    HW116721   5.630   4.582   1.493
 5274SOL    HW216722   5.564   4.541   1.350
 5275SOL     OW16723   5.019   1.590   6.089
 5275SOL    HW116724   5.090   1.533   6.048
 5275SOL    HW216725   4.962   1.629   6.017
 5276SOL     OW16726   3.723   6.303   1.674
 5276SOL    HW116727   3.747   6.340   1.585
 5276SOL    HW216728   3.805   6.272   1.721
 5277SOL     OW16729   2.198   3.283   1.741
 5277SOL    HW116730   2.256   3.332   1.807
 5277SOL    HW216731   2.120   3.243   1.789
 5278SOL     OW16732   3.566   3.273   2.388
 5278SOL    HW116733   3.628   3.318   2.452
 5278SOL    HW216734   3.604   3.279   2.295
 5279SOL     OW16735   1.621   5.897   2.850
 5279SOL    HW116736   1.583   5.919   2.760
 5279SOL    HW216737   1.715   5.865   2.840
 5280SOL     OW16738   4.028   1.037   4.362
 5280SOL    HW116739   3.990   0.987   4.440
 5280SOL    HW216740   3.971   1.022   4.281
 5281SOL     OW16741   6.878   2.363   3.914
 5281SOL    HW116742   6.827   2.280   3.891
 5281SOL    HW216743   6.939   2.345   3.991
 5282SOL     OW16744   4.839   2.286   1.248
 5282SOL    HW116745   4.868   2.276   1.344
 5282SOL    HW216746   4.823   2.195   1.209
 5283SOL     OW16747   4.658   4.525   6.158
 5283SOL    HW116748   4.728   4.536   6.088
 5283SOL    HW216749   4.672   4.438   6.206
 5284SOL     OW16750   4.799   3.040   4.223
 5284SOL    HW116751   4.755   3.129   4.209
 5284SOL    HW216752   4.892   3.042   4.187
 5285SOL     OW16753   4.072   6.401   2.585
 5285SOL    HW116754   4.039   6.463   2.655
 5285SOL    HW216755   4.004   6.392   2.512
 5286SOL     OW16756   2.172   5.079   2.055
 5286SOL    HW116757   2.137   5.108   2.145
 5286SOL    HW216758   2.148   5.148   1.987
 5287SOL     OW16759   1.170   1.153   2.590
 5287SOL    HW116760   1.166   1.236   2.646
 5287SOL    HW216761   1.256   1.106   2.608
 5288SOL     OW16762   4.372   0.151   0.832
 5288SOL    HW116763   4.401   0.060   0.861
 5288SOL    HW216764   4.317   0.143   0.748
 5289SOL     OW16765   1.410   6.179   1.250
 5289SOL    HW116766   1.335   6.234   1.214
 5289SOL    HW216767   1.417   6.094   1.197
 5290SOL     OW16768   5.554   6.112   6.953
 5290SOL    HW116769   5.566   6.035   7.015
 5290SOL    HW216770   5.588   6.196   6.996
 5291SOL     OW16771   0.834   5.863   6.948
 5291SOL    HW116772   0.783   5.839   0.006
 5291SOL    HW216773   0.915   5.806   6.941
 5292SOL     OW16774   5.200   1.968   0.944
 5292SOL    HW116775   5.151   2.042   0.991
 5292SOL    HW216776   5.258   1.920   1.009
 5293SOL     OW16777   2.117   1.325   4.419
 5293SOL    HW116778   2.079   1.372   4.498
 5293SOL    HW216779   2.075   1.361   4.335
 5294SOL     OW16780   4.080   2.492   6.535
 5294SOL    HW116781   4.103   2.413   6.478
 5294SOL    HW216782   4.027   2.462   6.614
 5295SOL     OW16783   6.621   1.477   2.634
 5295SOL    HW116784   6.605   1.540   2.558
 5295SOL    HW216785   6.622   1.527   2.720
 5296SOL     OW16786   0.125   2.705   6.478
 5296SOL    HW116787   0.144   2.613   6.512
 5296SOL    HW216788   0.157   2.773   6.545
 5297SOL     OW16789   0.967   2.490   2.098
 5297SOL    HW116790   1.051   2.446   2.128
 5297SOL    HW216791   0.892   2.466   2.160
 5298SOL     OW16792   1.536   4.634   1.913
 5298SOL    HW116793   1.505   4.597   2.000
 5298SOL    HW216794   1.556   4.731   1.923
 5299SOL     OW16795   3.436   0.287   0.276
 5299SOL    HW116796   3.522   0.243   0.254
 5299SOL    HW216797   3.429   0.299   0.376
 5300SOL     OW16798   0.097   5.137   3.515
 5300SOL    HW116799   0.043   5.114   3.596
 5300SOL    HW216800   0.188   5.165   3.543
 5301SOL     OW16801   5.732   0.544   6.419
 5301SOL    HW116802   5.746   0.541   6.320
 5301SOL    HW216803   5.815   0.579   6.464
 5302SOL     OW16804   6.835   3.762   3.828
 5302SOL    HW116805   6.930   3.766   3.796
 5302SOL    HW216806   6.829   3.698   3.906
 5303SOL     OW16807   1.809   4.623   3.439
 5303SOL    HW116808   1.746   4.688   3.481
 5303SOL    HW216809   1.903   4.658   3.445
 5304SOL     OW16810   4.393   2.710   5.642
 5304SOL    HW116811   4.365   2.761   5.561
 5304SOL    HW216812   4.347   2.748   5.723
 5305SOL     OW16813   3.318   1.655   5.029
 5305SOL    HW116814   3.284   1.686   5.118
 5305SOL    HW216815   3.367   1.730   4.984
 5306SOL     OW16816   2.652   6.793   3.846
 5306SOL    HW116817   2.622   6.842   3.764
 5306SOL    HW216818   2.740   6.829   3.876
 5307SOL     OW16819   5.256   6.842   0.211
 5307SOL    HW116820   5.222   6.830   0.304
 5307SOL    HW216821   5.281   6.938   0.197
 5308SOL     OW16822   6.592   1.427   1.777
 5308SOL    HW116823   6.633   1.511   1.813
 5308SOL    HW216824   6.519   1.397   1.837
 5309SOL     OW16825   4.018   3.550   5.305
 5309SOL    HW116826   3.993   3.471   5.249
 5309SOL    HW216827   4.009   3.526   5.402
 5310SOL     OW16828   5.134   2.721   0.572
 5310SOL    HW116829   5.209   2.692   0.631
 5310SOL    HW216830   5.088   2.641   0.535
 5311SOL     OW16831   6.865   6.468   0.411
 5311SOL    HW116832   6.959   6.438   0.430
 5311SOL    HW216833   6.850   6.558   0.451
 5312SOL     OW16834   0.307   3.193   1.216
 5312SOL    HW116835   0.396   3.220   1.252
 5312SOL    HW216836   0.265   3.269   1.167
 5313SOL     OW16837   0.132   6.452   0.533
 5313SOL    HW116838   0.220   6.434   0.488
 5313SOL    HW216839   0.134   6.543   0.574
 5314SOL     OW16840   3.515   5.224   1.189
 5314SOL    HW116841   3.537   5.178   1.103
 5314SOL    HW216842   3.418   5.213   1.209
 5315SOL     OW16843   5.807   1.302   1.800
 5315SOL    HW116844   5.862   1.281   1.719
 5315SOL    HW216845   5.866   1.339   1.872
 5316SOL     OW16846   5.319   5.572   4.381
 5316SOL    HW116847   5.371   5.492   4.411
 5316SOL    HW216848   5.222   5.549   4.377
 5317SOL     OW16849   6.728   5.071   1.968
 5317SOL    HW116850   6.628   5.076   1.967
 5317SOL    HW216851   6.765   5.111   1.885
 5318SOL     OW16852   6.883   2.399   3.513
 5318SOL    HW116853   6.909   2.459   3.589
 5318SOL    HW216854   6.803   2.345   3.539
 5319SOL     OW16855   3.267   6.125   3.178
 5319SOL    HW116856   3.261   6.025   3.178
 5319SOL    HW216857   3.265   6.159   3.084
 5320SOL     OW16858   6.899   2.881   6.708
 5320SOL    HW116859   6.831   2.939   6.664
 5320SOL    HW216860   6.935   2.927   6.790
 5321SOL     OW16861   2.771   4.266   6.519
 5321SOL    HW116862   2.733   4.330   6.586
 5321SOL    HW216863   2.788   4.177   6.563
 5322SOL     OW16864   2.337   5.912   0.402
 5322SOL    HW116865   2.370   5.818   0.404
 5322SOL    HW216866   2.243   5.914   0.369
 5323SOL     OW16867   5.365   3.060   0.278
 5323SOL    HW116868   5.285   3.018   0.319
 5323SOL    HW216869   5.448   3.021   0.317
 5324SOL     OW16870   4.500   3.056   1.444
 5324SOL    HW116871   4.519   2.984   1.377
 5324SOL    HW216872   4.440   3.125   1.404
 5325SOL     OW16873   3.377   6.274   5.533
 5325SOL    HW116874   3.353   6.277   5.630
 5325SOL    HW216875   3.302   6.235   5.481
 5326SOL     OW16876   0.204   0.586   2.646
 5326SOL    HW116877   0.170   0.540   2.728
 5326SOL    HW216878   0.149   0.668   2.628
 5327SOL     OW16879   6.344   0.414   3.994
 5327SOL    HW116880   6.353   0.437   4.091
 5327SOL    HW216881   6.250   0.385   3.976
 5328SOL     OW16882   3.339   5.145   6.900
 5328SOL    HW116883   3.294   5.113   6.816
 5328SOL    HW216884   3.390   5.070   6.942
 5329SOL     OW16885   0.450   6.051   6.577
 5329SOL    HW116886   0.478   6.009   6.491
 5329SOL    HW216887   0.512   6.023   6.650
 5330SOL     OW16888   4.042   5.122   0.377
 5330SOL    HW116889   3.949   5.087   0.375
 5330SOL    HW216890   4.103   5.055   0.420
 5331SOL     OW16891   5.788   1.351   6.581
 5331SOL    HW116892   5.726   1.313   6.513
 5331SOL    HW216893   5.883   1.336   6.551
 5332SOL     OW16894   6.204   2.766   6.601
 5332SOL    HW116895   6.238   2.702   6.671
 5332SOL    HW216896   6.239   2.738   6.512
 5333SOL     OW16897   1.079   0.204   3.570
 5333SOL    HW116898   1.016   0.133   3.600
 5333SOL    HW216899   1.078   0.279   3.636
 5334SOL     OW16900   3.105   6.046   1.582
 5334SOL    HW116901   3.134   5.976   1.517
 5334SOL    HW216902   3.012   6.027   1.612
 5335SOL     OW16903   0.077   5.119   1.815
 5335SOL    HW116904   0.013   5.143   1.888
 5335SOL    HW216905   0.042   5.154   1.728
 5336SOL     OW16906   1.546   3.414   5.278
 5336SOL    HW116907   1.609   3.479   5.236
 5336SOL    HW216908   1.595   3.358   5.345
 5337SOL     OW16909   6.470   2.977   0.773
 5337SOL    HW116910   6.549   2.929   0.811
 5337SOL    HW216911   6.490   3.075   0.768
 5338SOL     OW16912   6.986   3.576   0.626
 5338SOL    HW116913   6.976   3.579   0.526
 5338SOL    HW216914   6.959   3.485   0.659
 5339SOL     OW16915   5.690   2.960   2.916
 5339SOL    HW116916   5.702   2.866   2.885
 5339SOL    HW216917   5.758   2.982   2.986
 5340SOL     OW16918   4.963   3.170   1.365
 5340SOL    HW116919   5.012   3.164   1.279
 5340SOL    HW216920   4.962   3.080   1.410
 5341SOL     OW16921   5.063   4.839   3.472
 5341SOL    HW116922   5.029   4.756   3.515
 5341SOL    HW216923   4.992   4.879   3.414
 5342SOL     OW16924   6.253   5.811   4.981
 5342SOL    HW116925   6.214   5.876   5.046
 5342SOL    HW216926   6.245   5.718   5.017
 5343SOL     OW16927   3.532   3.332   6.801
 5343SOL    HW116928   3.555   3.430   6.799
 5343SOL    HW216929   3.610   3.280   6.837
 5344SOL     OW16930   6.352   2.214   6.720
 5344SOL    HW116931   6.307   2.157   6.652
 5344SOL    HW216932   6.433   2.168   6.755
 5345SOL     OW16933   3.097   1.757   0.319
 5345SOL    HW116934   3.078   1.687   0.251
 5345SOL    HW216935   3.062   1.728   0.408
 5346SOL     OW16936   2.448   6.434   3.251
 5346SOL    HW116937   2.410   6.343   3.266
 5346SOL    HW216938   2.537   6.441   3.296
 5347SOL     OW16939   6.013   1.430   5.472
 5347SOL    HW116940   6.088   1.368   5.496
 5347SOL    HW216941   5.993   1.423   5.375
 5348SOL     OW16942   4.653   2.892   5.617
 5348SOL    HW116943   4.587   2.818   5.619
 5348SOL    HW216944   4.624   2.962   5.552
 5349SOL     OW16945   0.663   4.292   0.537
 5349SOL    HW116946   0.609   4.267   0.456
 5349SOL    HW216947   0.701   4.209   0.578
 5350SOL     OW16948   1.206   6.672   6.394
 5350SOL    HW116949   1.281   6.689   6.457
 5350SOL    HW216950   1.222   6.587   6.344
 5351SOL     OW16951   0.373   5.948   3.671
 5351SOL    HW116952   0.320   6.023   3.633
 5351SOL    HW216953   0.467   5.978   3.687
 5352SOL     OW16954   0.793   2.772   6.133
 5352SOL    HW116955   0.745   2.745   6.050
 5352SOL    HW216956   0.729   2.771   6.210
 5353SOL     OW16957   3.100   6.508   3.584
 5353SOL    HW116958   3.162   6.523   3.661
 5353SOL    HW216959   3.023   6.571   3.590
 5354SOL     OW16960   3.877   5.683   1.942
 5354SOL    HW116961   3.959   5.642   1.902
 5354SOL    HW216962   3.842   5.623   2.014
 5355SOL     OW16963   5.403   5.272   5.377
 5355SOL    HW116964   5.444   5.343   5.434
 5355SOL    HW216965   5.457   5.188   5.384
 5356SOL     OW16966   0.723   6.960   1.443
 5356SOL    HW116967   0.780   6.889   1.486
 5356SOL    HW216968   0.669   7.006   1.514
 5357SOL     OW16969   6.321   3.394   2.492
 5357SOL    HW116970   6.391   3.323   2.479
 5357SOL    HW216971   6.306   3.407   2.590
 5358SOL     OW16972   6.049   1.371   6.529
 5358SOL    HW116973   6.045   1.329   6.438
 5358SOL    HW216974   6.092   1.461   6.522
 5359SOL     OW16975   2.673   2.173   6.562
 5359SOL    HW116976   2.737   2.158   6.637
 5359SOL    HW216977   2.583   2.195   6.598
 5360SOL     OW16978   5.788   5.414   3.096
 5360SOL    HW116979   5.696   5.433   3.130
 5360SOL    HW216980   5.825   5.496   3.053
 5361SOL     OW16981   1.773   3.767   2.881
 5361SOL    HW116982   1.740   3.821   2.804
 5361SOL    HW216983   1.795   3.674   2.850
 5362SOL     OW16984   6.222   1.099   3.896
 5362SOL    HW116985   6.176   1.020   3.855
 5362SOL    HW216986   6.223   1.088   3.996
 5363SOL     OW16987   6.081   5.074   4.693
 5363SOL    HW116988   6.105   4.977   4.685
 5363SOL    HW216989   6.074   5.114   4.602
 5364SOL     OW16990   4.356   2.513   1.663
 5364SOL    HW116991   4.407   2.431   1.639
 5364SOL    HW216992   4.415   2.574   1.716
 5365SOL     OW16993   3.249   3.616   5.674
 5365SOL    HW116994   3.154   3.648   5.672
 5365SOL    HW216995   3.289   3.636   5.764
 5366SOL     OW16996   0.636   4.944   3.411
 5366SOL    HW116997   0.712   5.008   3.420
 5366SOL    HW216998   0.552   4.987   3.446
 5367SOL     OW16999   6.214   5.990   1.413
 5367SOL    HW117000   6.228   6.089   1.400
 5367SOL    HW217001   6.303   5.945   1.419
 5368SOL     OW17002   0.454   5.865   4.759
 5368SOL    HW117003   0.415   5.849   4.668
 5368SOL    HW217004   0.537   5.921   4.751
 5369SOL     OW17005   4.266   6.952   2.775
 5369SOL    HW117006   4.208   6.940   2.855
 5369SOL    HW217007   4.228   7.023   2.717
 5370SOL     OW17008   2.802   3.036   0.766
 5370SOL    HW117009   2.726   2.973   0.748
 5370SOL    HW217010   2.881   3.010   0.711
 5371SOL     OW17011   6.366   5.256   3.433
 5371SOL    HW117012   6.335   5.334   3.487
 5371SOL    HW217013   6.348   5.273   3.336
 5372SOL     OW17014   1.124   0.084   4.032
 5372SOL    HW117015   1.188   0.012   4.058
 5372SOL    HW217016   1.175   0.162   3.995
 5373SOL     OW17017   3.678   0.198   0.197
 5373SOL    HW117018   3.723   0.285   0.180
 5373SOL    HW217019   3.718   0.155   0.278
 5374SOL     OW17020   1.329   4.096   1.547
 5374SOL    HW117021   1.370   4.158   1.614
 5374SOL    HW217022   1.281   4.149   1.477
 5375SOL     OW17023   2.570   4.685   5.117
 5375SOL    HW117024   2.572   4.697   5.217
 5375SOL    HW217025   2.661   4.660   5.085
 5376SOL     OW17026   0.839   0.838   1.708
 5376SOL    HW117027   0.913   0.890   1.751
 5376SOL    HW217028   0.877   0.780   1.636
 5377SOL     OW17029   1.080   2.741   2.104
 5377SOL    HW117030   1.055   2.790   2.188
 5377SOL    HW217031   1.028   2.656   2.097
 5378SOL     OW17032   5.880   6.742   3.268
 5378SOL    HW117033   5.865   6.669   3.202
 5378SOL    HW217034   5.832   6.721   3.353
 5379SOL     OW17035   2.636   2.392   4.474
 5379SOL    HW117036   2.651   2.402   4.572
 5379SOL    HW217037   2.717   2.350   4.432
 5380SOL     OW17038   5.178   6.656   1.861
 5380SOL    HW117039   5.144   6.596   1.789
 5380SOL    HW217040   5.244   6.607   1.918
 5381SOL     OW17041   3.055   2.108   2.690
 5381SOL    HW117042   3.113   2.028   2.674
 5381SOL    HW217043   3.080   2.151   2.777
 5382SOL     OW17044   4.999   0.570   2.748
 5382SOL    HW117045   5.063   0.647   2.739
 5382SOL    HW217046   5.034   0.505   2.815
 5383SOL     OW17047   2.715   3.918   5.313
 5383SOL    HW117048   2.643   3.924   5.244
 5383SOL    HW217049   2.775   3.997   5.304
 5384SOL     OW17050   4.849   6.513   5.915
 5384SOL    HW117051   4.883   6.453   5.843
 5384SOL    HW217052   4.890   6.486   6.003
 5385SOL     OW17053   3.718   3.889   0.512
 5385SOL    HW117054   3.791   3.837   0.469
 5385SOL    HW217055   3.710   3.863   0.608
 5386SOL     OW17056   4.727   4.479   3.389
 5386SOL    HW117057   4.644   4.483   3.445
 5386SOL    HW217058   4.806   4.503   3.445
 5387SOL     OW17059   0.848   2.426   3.839
 5387SOL    HW117060   0.885   2.351   3.784
 5387SOL    HW217061   0.838   2.396   3.933
 5388SOL     OW17062   6.806   6.257   3.542
 5388SOL    HW117063   6.840   6.189   3.606
 5388SOL    HW217064   6.799   6.217   3.451
 5389SOL     OW17065   5.521   1.842   4.410
 5389SOL    HW117066   5.429   1.804   4.413
 5389SOL    HW217067   5.561   1.824   4.320
 5390SOL     OW17068   6.003   2.879   3.478
 5390SOL    HW117069   5.955   2.867   3.564
 5390SOL    HW217070   6.021   2.790   3.436
 5391SOL     OW17071   4.291   2.782   0.787
 5391SOL    HW117072   4.339   2.764   0.701
 5391SOL    HW217073   4.207   2.832   0.769
 5392SOL     OW17074   5.201   0.646   4.340
 5392SOL    HW117075   5.147   0.730   4.342
 5392SOL    HW217076   5.258   0.641   4.422
 5393SOL     OW17077   3.736   2.044   2.826
 5393SOL    HW117078   3.815   1.989   2.799
 5393SOL    HW217079   3.656   1.984   2.836
 5394SOL     OW17080   0.185   2.686   2.946
 5394SOL    HW117081   0.146   2.774   2.976
 5394SOL    HW217082   0.113   2.616   2.950
 5395SOL     OW17083   0.099   1.329   1.171
 5395SOL    HW117084   0.072   1.410   1.224
 5395SOL    HW217085   0.183   1.291   1.208
 5396SOL     OW17086   4.438   2.745   0.226
 5396SOL    HW117087   4.378   2.670   0.197
 5396SOL    HW217088   4.528   2.734   0.186
 5397SOL     OW17089   0.325   6.959   2.098
 5397SOL    HW117090   0.303   0.021   2.053
 5397SOL    HW217091   0.406   6.919   2.055
 5398SOL     OW17092   5.676   1.911   3.096
 5398SOL    HW117093   5.698   1.956   3.010
 5398SOL    HW217094   5.605   1.962   3.144
 5399SOL     OW17095   2.620   2.966   0.151
 5399SOL    HW117096   2.639   3.054   0.107
 5399SOL    HW217097   2.543   2.922   0.107
 5400SOL     OW17098   5.798   2.301   0.941
 5400SOL    HW117099   5.737   2.347   1.006
 5400SOL    HW217100   5.881   2.273   0.988
 5401SOL     OW17101   4.736   3.691   1.368
 5401SOL    HW117102   4.643   3.660   1.384
 5401SOL    HW217103   4.736   3.762   1.298
 5402SOL     OW17104   1.444   6.251   1.730
 5402SOL    HW117105   1.456   6.186   1.804
 5402SOL    HW217106   1.366   6.311   1.751
 5403SOL     OW17107   6.018   2.153   5.874
 5403SOL    HW117108   6.025   2.200   5.962
 5403SOL    HW217109   6.108   2.148   5.831
 5404SOL     OW17110   4.413   6.513   0.508
 5404SOL    HW117111   4.421   6.521   0.409
 5404SOL    HW217112   4.499   6.540   0.551
 5405SOL     OW17113   6.951   4.982   6.464
 5405SOL    HW117114   6.913   5.047   6.398
 5405SOL    HW217115   6.962   4.893   6.419
 5406SOL     OW17116   2.199   1.304   5.439
 5406SOL    HW117117   2.121   1.247   5.466
 5406SOL    HW217118   2.226   1.362   5.515
 5407SOL     OW17119   2.436   0.854   2.591
 5407SOL    HW117120   2.435   0.908   2.507
 5407SOL    HW217121   2.458   0.759   2.569
 5408SOL     OW17122   1.627   2.067   4.254
 5408SOL    HW117123   1.581   2.105   4.335
 5408SOL    HW217124   1.706   2.013   4.283
 5409SOL     OW17125   0.642   3.658   2.748
 5409SOL    HW117126   0.692   3.732   2.704
 5409SOL    HW217127   0.706   3.595   2.793
 5410SOL     OW17128   6.511   1.695   0.407
 5410SOL    HW117129   6.468   1.607   0.428
 5410SOL    HW217130   6.498   1.715   0.310
 5411SOL     OW17131   3.386   5.571   1.608
 5411SOL    HW117132   3.404   5.500   1.540
 5411SOL    HW217133   3.379   5.529   1.699
 5412SOL     OW17134   1.475   2.528   5.992
 5412SOL    HW117135   1.527   2.449   5.959
 5412SOL    HW217136   1.439   2.509   6.083
 5413SOL     OW17137   6.625   5.464   5.769
 5413SOL    HW117138   6.613   5.461   5.868
 5413SOL    HW217139   6.718   5.438   5.746
 5414SOL     OW17140   5.614   5.555   6.419
 5414SOL    HW117141   5.594   5.548   6.516
 5414SOL    HW217142   5.529   5.574   6.368
 5415SOL     OW17143   1.704   1.445   6.693
 5415SOL    HW117144   1.610   1.458   6.725
 5415SOL    HW217145   1.707   1.454   6.594
 5416SOL     OW17146   4.005   5.709   6.036
 5416SOL    HW117147   4.093   5.726   6.081
 5416SOL    HW217148   4.008   5.621   5.990
 5417SOL     OW17149   5.298   6.965   2.084
 5417SOL    HW117150   5.291   6.898   2.157
 5417SOL    HW217151   5.227   6.947   2.015
 5418SOL     OW17152   0.601   3.427   5.534
 5418SOL    HW117153   0.503   3.408   5.529
 5418SOL    HW217154   0.618   3.523   5.509
 5419SOL     OW17155   3.943   1.399   6.204
 5419SOL    HW117156   3.943   1.299   6.196
 5419SOL    HW217157   3.900   1.439   6.124
 5420SOL     OW17158   2.470   1.731   1.163
 5420SOL    HW117159   2.461   1.828   1.188
 5420SOL    HW217160   2.445   1.719   1.068
 5421SOL     OW17161   4.295   4.759   1.709
 5421SOL    HW117162   4.374   4.756   1.648
 5421SOL    HW217163   4.290   4.674   1.762
 5422SOL     OW17164   2.613   6.481   2.974
 5422SOL    HW117165   2.555   6.562   2.976
 5422SOL    HW217166   2.684   6.489   3.043
 5423SOL     OW17167   4.263   0.214   2.366
 5423SOL    HW117168   4.227   0.238   2.276
 5423SOL    HW217169   4.352   0.260   2.379
 5424SOL     OW17170   3.553   3.459   5.138
 5424SOL    HW117171   3.478   3.508   5.183
 5424SOL    HW217172   3.520   3.369   5.109
 5425SOL     OW17173   1.016   5.037   5.311
 5425SOL    HW117174   0.965   4.986   5.242
 5425SOL    HW217175   1.069   5.109   5.266
 5426SOL     OW17176   0.920   4.397   0.323
 5426SOL    HW117177   0.823   4.375   0.320
 5426SOL    HW217178   0.934   4.488   0.284
 5427SOL     OW17179   4.188   2.017   6.941
 5427SOL    HW117180   4.119   2.071   6.894
 5427SOL    HW217181   4.155   1.994   0.009
 5428SOL     OW17182   4.283   5.873   3.000
 5428SOL    HW117183   4.344   5.894   3.077
 5428SOL    HW217184   4.314   5.921   2.919
 5429SOL     OW17185   2.491   6.651   4.028
 5429SOL    HW117186   2.416   6.700   4.072
 5429SOL    HW217187   2.551   6.716   3.981
 5430SOL     OW17188   1.333   4.521   5.305
 5430SOL    HW117189   1.234   4.532   5.313
 5430SOL    HW217190   1.356   4.425   5.291
 5431SOL     OW17191   5.240   4.697   1.437
 5431SOL    HW117192   5.304   4.738   1.502
 5431SOL    HW217193   5.182   4.630   1.484
 5432SOL     OW17194   0.267   5.031   6.240
 5432SOL    HW117195   0.351   4.995   6.198
 5432SOL    HW217196   0.193   4.965   6.227
 5433SOL     OW17197   2.589   0.338   1.553
 5433SOL    HW117198   2.591   0.437   1.565
 5433SOL    HW217199   2.636   0.313   1.469
 5434SOL     OW17200   5.400   5.803   4.309
 5434SOL    HW117201   5.327   5.866   4.282
 5434SOL    HW217202   5.360   5.715   4.333
 5435SOL     OW17203   6.705   3.922   6.898
 5435SOL    HW117204   6.633   3.891   6.835
 5435SOL    HW217205   6.666   3.983   6.966
 5436SOL     OW17206   1.508   4.221   1.732
 5436SOL    HW117207   1.520   4.268   1.819
 5436SOL    HW217208   1.594   4.178   1.705
 5437SOL     OW17209   3.660   6.513   6.429
 5437SOL    HW117210   3.695   6.601   6.397
 5437SOL    HW217211   3.570   6.496   6.389
 5438SOL     OW17212   5.657   6.753   2.700
 5438SOL    HW117213   5.626   6.699   2.622
 5438SOL    HW217214   5.734   6.811   2.672
 5439SOL     OW17215   1.630   3.778   1.335
 5439SOL    HW117216   1.666   3.701   1.387
 5439SOL    HW217217   1.587   3.844   1.396
 5440SOL     OW17218   6.447   6.823   4.450
 5440SOL    HW117219   6.519   6.814   4.382
 5440SOL    HW217220   6.362   6.784   4.414
 5441SOL     OW17221   5.462   1.261   5.080
 5441SOL    HW117222   5.535   1.281   5.146
 5441SOL    HW217223   5.442   1.343   5.027
 5442SOL     OW17224   2.641   0.350   6.465
 5442SOL    HW117225   2.651   0.446   6.438
 5442SOL    HW217226   2.656   0.340   6.563
 5443SOL     OW17227   5.710   0.673   3.367
 5443SOL    HW117228   5.680   0.767   3.381
 5443SOL    HW217229   5.806   0.673   3.338
 5444SOL     OW17230   1.022   0.925   6.163
 5444SOL    HW117231   1.075   0.977   6.230
 5444SOL    HW217232   1.072   0.842   6.139
 5445SOL     OW17233   5.932   6.539   5.094
 5445SOL    HW117234   5.959   6.622   5.142
 5445SOL    HW217235   5.934   6.554   4.996
 5446SOL     OW17236   1.882   5.064   5.472
 5446SOL    HW117237   1.949   5.092   5.542
 5446SOL    HW217238   1.804   5.021   5.517
 5447SOL     OW17239   6.481   2.182   1.300
 5447SOL    HW117240   6.546   2.131   1.357
 5447SOL    HW217241   6.526   2.211   1.216
 5448SOL     OW17242   6.561   4.661   1.652
 5448SOL    HW117243   6.614   4.587   1.693
 5448SOL    HW217244   6.551   4.644   1.554
 5449SOL     OW17245   2.166   0.059   2.236
 5449SOL    HW117246   2.210   0.034   2.150
 5449SOL    HW217247   2.187   7.015   2.305
 5450SOL     OW17248   4.500   5.557   1.681
 5450SOL    HW117249   4.558   5.507   1.745
 5450SOL    HW217250   4.535   5.542   1.588
 5451SOL     OW17251   0.975   6.201   3.973
 5451SOL    HW117252   0.892   6.243   4.010
 5451SOL    HW217253   0.953   6.112   3.933
 5452SOL     OW17254   2.107   3.939   2.818
 5452SOL    HW117255   2.059   3.890   2.746
 5452SOL    HW217256   2.196   3.971   2.784
 5453SOL     OW17257   6.077   4.741   4.370
 5453SOL    HW117258   6.073   4.745   4.470
 5453SOL    HW217259   6.081   4.833   4.332
 5454SOL     OW17260   5.890   3.858   2.467
 5454SOL    HW117261   5.826   3.785   2.491
 5454SOL    HW217262   5.948   3.877   2.546
 5455SOL     OW17263   2.411   2.136   3.475
 5455SOL    HW117264   2.452   2.119   3.565
 5455SOL    HW217265   2.388   2.233   3.467
 5456SOL     OW17266   5.351   2.245   0.894
 5456SOL    HW117267   5.385   2.223   0.803
 5456SOL    HW217268   5.407   2.199   0.963
 5457SOL     OW17269   6.764   1.698   0.520
 5457SOL    HW117270   6.671   1.703   0.486
 5457SOL    HW217271   6.783   1.778   0.577
 5458SOL     OW17272   6.089   5.109   5.538
 5458SOL    HW117273   6.183   5.118   5.505
 5458SOL    HW217274   6.086   5.130   5.635
 5459SOL     OW17275   2.366   3.647   5.472
 5459SOL    HW117276   2.460   3.677   5.487
 5459SOL    HW217277   2.340   3.666   5.377
 5460SOL     OW17278   0.526   0.624   1.474
 5460SOL    HW117279   0.500   0.643   1.568
 5460SOL    HW217280   0.584   0.542   1.471
 5461SOL     OW17281   5.843   1.728   6.525
 5461SOL    HW117282   5.808   1.644   6.485
 5461SOL    HW217283   5.888   1.708   6.613
 5462SOL     OW17284   5.226   5.264   6.412
 5462SOL    HW117285   5.242   5.257   6.314
 5462SOL    HW217286   5.311   5.244   6.462
 5463SOL     OW17287   2.067   5.422   6.511
 5463SOL    HW117288   2.043   5.513   6.545
 5463SOL    HW217289   2.153   5.426   6.461
 5464SOL     OW17290   2.020   5.386   4.153
 5464SOL    HW117291   2.000   5.297   4.193
 5464SOL    HW217292   2.081   5.437   4.214
 5465SOL     OW17293   1.003   0.649   4.846
 5465SOL    HW117294   1.014   0.743   4.815
 5465SOL    HW217295   0.946   0.599   4.781
 5466SOL     OW17296   4.789   2.451   5.034
 5466SOL    HW117297   4.866   2.508   5.060
 5466SOL    HW217298   4.771   2.463   4.936
 5467SOL     OW17299   6.128   3.162   4.000
 5467SOL    HW117300   6.092   3.089   3.941
 5467SOL    HW217301   6.054   3.223   4.026
 5468SOL     OW17302   0.620   2.498   1.724
 5468SOL    HW117303   0.631   2.492   1.625
 5468SOL    HW217304   0.707   2.472   1.768
 5469SOL     OW17305   3.984   1.899   3.874
 5469SOL    HW117306   3.927   1.977   3.902
 5469SOL    HW217307   3.934   1.844   3.807
 5470SOL     OW17308   2.995   4.822   3.615
 5470SOL    HW117309   3.068   4.841   3.548
 5470SOL    HW217310   3.031   4.830   3.707
 5471SOL     OW17311   5.606   0.465   3.501
 5471SOL    HW117312   5.620   0.383   3.446
 5471SOL    HW217313   5.639   0.546   3.452
 5472SOL     OW17314   2.273   4.044   6.803
 5472SOL    HW117315   2.187   4.083   6.769
 5472SOL    HW217316   2.271   3.945   6.794
 5473SOL     OW17317   2.704   4.712   2.174
 5473SOL    HW117318   2.773   4.680   2.109
 5473SOL    HW217319   2.625   4.747   2.125
 5474SOL     OW17320   1.006   5.005   1.800
 5474SOL    HW117321   0.915   5.023   1.837
 5474SOL    HW217322   0.999   4.943   1.722
 5475SOL     OW17323   1.159   0.688   5.351
 5475SOL    HW117324   1.245   0.731   5.324
 5475SOL    HW217325   1.112   0.746   5.417
 5476SOL     OW17326   1.877   0.723   5.052
 5476SOL    HW117327   1.911   0.634   5.083
 5476SOL    HW217328   1.902   0.793   5.118
 5477SOL     OW17329   2.104   3.595   2.473
 5477SOL    HW117330   2.130   3.522   2.536
 5477SOL    HW217331   2.034   3.562   2.411
 5478SOL     OW17332   6.356   3.694   5.703
 5478SOL    HW117333   6.434   3.757   5.693
 5478SOL    HW217334   6.271   3.746   5.698
 5479SOL     OW17335   4.914   3.156   3.943
 5479SOL    HW117336   5.001   3.107   3.949
 5479SOL    HW217337   4.901   3.190   3.850
 5480SOL     OW17338   1.243   3.086   4.521
 5480SOL    HW117339   1.259   3.141   4.603
 5480SOL    HW217340   1.256   2.989   4.544
 5481SOL     OW17341   4.441   1.390   6.832
 5481SOL    HW117342   4.446   1.370   6.930
 5481SOL    HW217343   4.520   1.446   6.806
 5482SOL     OW17344   5.381   4.076   2.835
 5482SOL    HW117345   5.455   4.047   2.775
 5482SOL    HW217346   5.420   4.122   2.915
 5483SOL     OW17347   6.427   2.454   0.148
 5483SOL    HW117348   6.399   2.427   0.240
 5483SOL    HW217349   6.420   2.375   0.087
 5484SOL     OW17350   6.404   0.581   5.552
 5484SOL    HW117351   6.490   0.563   5.600
 5484SOL    HW217352   6.354   0.495   5.539
 5485SOL     OW17353   3.106   0.736   4.092
 5485SOL    HW117354   3.185   0.714   4.035
 5485SOL    HW217355   3.033   0.670   4.076
 5486SOL     OW17356   0.948   0.505   3.421
 5486SOL    HW117357   0.993   0.468   3.501
 5486SOL    HW217358   0.924   0.601   3.437
 5487SOL     OW17359   4.611   5.251   1.043
 5487SOL    HW117360   4.630   5.159   1.077
 5487SOL    HW217361   4.546   5.297   1.103
 5488SOL     OW17362   4.957   1.059   5.857
 5488SOL    HW117363   4.998   1.134   5.908
 5488SOL    HW217364   4.879   1.093   5.805
 5489SOL     OW17365   0.453   3.623   2.155
 5489SOL    HW117366   0.447   3.723   2.151
 5489SOL    HW217367   0.459   3.594   2.251
 5490SOL     OW17368   3.227   2.019   6.407
 5490SOL    HW117369   3.271   1.999   6.319
 5490SOL    HW217370   3.268   1.961   6.478
 5491SOL     OW17371   6.823   5.654   2.730
 5491SOL    HW117372   6.825   5.556   2.749
 5491SOL    HW217373   6.775   5.670   2.643
 5492SOL     OW17374   1.112   1.237   5.099
 5492SOL    HW117375   1.147   1.330   5.106
 5492SOL    HW217376   1.175   1.181   5.044
 5493SOL     OW17377   3.489   1.765   1.107
 5493SOL    HW117378   3.477   1.779   1.009
 5493SOL    HW217379   3.487   1.668   1.128
 5494SOL     OW17380   5.438   2.995   2.566
 5494SOL    HW117381   5.475   3.002   2.474
 5494SOL    HW217382   5.486   3.059   2.626
 5495SOL     OW17383   3.776   2.986   3.773
 5495SOL    HW117384   3.757   2.957   3.680
 5495SOL    HW217385   3.720   2.933   3.837
 5496SOL     OW17386   4.759   5.718   1.962
 5496SOL    HW117387   4.670   5.726   1.917
 5496SOL    HW217388   4.802   5.632   1.934
 5497SOL     OW17389   5.649   0.103   0.666
 5497SOL    HW117390   5.582   0.061   0.605
 5497SOL    HW217391   5.622   0.197   0.685
 5498SOL     OW17392   4.741   1.437   4.574
 5498SOL    HW117393   4.677   1.457   4.499
 5498SOL    HW217394   4.826   1.400   4.537
 5499SOL     OW17395   0.567   0.725   5.471
 5499SOL    HW117396   0.586   0.762   5.380
 5499SOL    HW217397   0.548   0.801   5.534
 5500SOL     OW17398   2.277   6.618   0.880
 5500SOL    HW117399   2.368   6.639   0.916
 5500SOL    HW217400   2.260   6.520   0.889
 5501SOL     OW17401   3.164   0.517   2.584
 5501SOL    HW117402   3.247   0.489   2.634
 5501SOL    HW217403   3.168   0.481   2.491
 5502SOL     OW17404   4.466   3.516   0.709
 5502SOL    HW117405   4.509   3.453   0.644
 5502SOL    HW217406   4.430   3.464   0.787
 5503SOL     OW17407   0.480   6.571   4.086
 5503SOL    HW117408   0.566   6.621   4.078
 5503SOL    HW217409   0.500   6.474   4.100
 5504SOL     OW17410   2.869   2.195   4.674
 5504SOL    HW117411   2.903   2.277   4.720
 5504SOL    HW217412   2.864   2.212   4.576
 5505SOL     OW17413   3.360   4.702   0.596
 5505SOL    HW117414   3.302   4.621   0.586
 5505SOL    HW217415   3.328   4.774   0.535
 5506SOL     OW17416   0.297   6.417   5.741
 5506SOL    HW117417   0.273   6.427   5.645
 5506SOL    HW217418   0.365   6.344   5.751
 5507SOL     OW17419   3.000   5.293   5.525
 5507SOL    HW117420   3.077   5.338   5.571
 5507SOL    HW217421   3.032   5.211   5.478
 5508SOL     OW17422   1.473   0.709   5.591
 5508SOL    HW117423   1.528   0.626   5.600
 5508SOL    HW217424   1.466   0.734   5.494
 5509SOL     OW17425   6.663   6.992   6.535
 5509SOL    HW117426   6.564   6.981   6.531
 5509SOL    HW217427   6.687   0.042   6.598
 5510SOL     OW17428   6.550   0.424   6.430
 5510SOL    HW117429   6.487   0.403   6.505
 5510SOL    HW217430   6.617   0.491   6.461
 5511SOL     OW17431   0.234   2.916   1.552
 5511SOL    HW117432   0.228   2.896   1.454
 5511SOL    HW217433   0.142   2.922   1.590
 5512SOL     OW17434   6.587   0.688   0.201
 5512SOL    HW117435   6.656   0.737   0.254
 5512SOL    HW217436   6.571   0.598   0.241
 5513SOL     OW17437   2.807   5.955   5.208
 5513SOL    HW117438   2.830   5.895   5.132
 5513SOL    HW217439   2.864   6.037   5.204
 5514SOL     OW17440   6.296   5.731   3.679
 5514SOL    HW117441   6.371   5.762   3.621
 5514SOL    HW217442   6.307   5.769   3.771
 5515SOL     OW17443   6.830   4.064   3.062
 5515SOL    HW117444   6.907   4.016   3.021
 5515SOL    HW217445   6.798   4.014   3.142
 5516SOL     OW17446   1.186   2.169   0.022
 5516SOL    HW117447   1.098   2.120   0.027
 5516SOL    HW217448   1.242   2.144   0.102
 5517SOL     OW17449   2.738   0.989   2.447
 5517SOL    HW117450   2.760   0.892   2.433
 5517SOL    HW217451   2.694   1.000   2.536
 5518SOL     OW17452   5.643   4.326   5.158
 5518SOL    HW117453   5.561   4.376   5.184
 5518SOL    HW217454   5.618   4.247   5.103
 5519SOL     OW17455   5.304   3.827   2.945
 5519SOL    HW117456   5.206   3.816   2.962
 5519SOL    HW217457   5.324   3.923   2.927
 5520SOL     OW17458   1.922   2.455   0.807
 5520SOL    HW117459   1.987   2.403   0.752
 5520SOL    HW217460   1.927   2.552   0.782
 5521SOL     OW17461   5.299   5.330   6.892
 5521SOL    HW117462   5.320   5.426   6.909
 5521SOL    HW217463   5.244   5.322   6.809
 5522SOL     OW17464   2.065   2.480   1.983
 5522SOL    HW117465   2.036   2.423   1.906
 5522SOL    HW217466   2.156   2.453   2.012
 5523SOL     OW17467   3.471   0.067   1.648
 5523SOL    HW117468   3.501   7.020   1.712
 5523SOL    HW217469   3.475   0.156   1.693
 5524SOL     OW17470   6.032   5.945   5.895
 5524SOL    HW117471   6.072   5.893   5.820
 5524SOL    HW217472   5.984   6.025   5.858
 5525SOL     OW17473   6.472   5.608   3.446
 5525SOL    HW117474   6.554   5.646   3.489
 5525SOL    HW217475   6.430   5.541   3.508
 5526SOL     OW17476   4.974   2.875   4.677
 5526SOL    HW117477   4.938   2.964   4.703
 5526SOL    HW217478   4.920   2.803   4.721
 5527SOL     OW17479   1.947   3.643   6.823
 5527SOL    HW117480   1.922   3.708   6.751
 5527SOL    HW217481   1.896   3.664   6.906
 5528SOL     OW17482   6.579   3.450   3.094
 5528SOL    HW117483   6.621   3.523   3.147
 5528SOL    HW217484   6.567   3.480   2.999
 5529SOL     OW17485   1.262   0.924   3.745
 5529SOL    HW117486   1.258   0.835   3.788
 5529SOL    HW217487   1.268   0.913   3.645
 5530SOL     OW17488   6.436   2.941   6.938
 5530SOL    HW117489   6.373   2.910   7.011
 5530SOL    HW217490   6.401   3.026   6.899
 5531SOL     OW17491   1.938   3.124   6.987
 5531SOL    HW117492   1.907   3.051   0.023
 5531SOL    HW217493   1.993   3.189   0.014
 5532SOL     OW17494   2.368   2.021   1.224
 5532SOL    HW117495   2.372   2.047   1.128
 5532SOL    HW217496   2.342   2.100   1.279
 5533SOL     OW17497   3.435   0.273   0.549
 5533SOL    HW117498   3.347   0.239   0.581
 5533SOL    HW217499   3.501   0.270   0.624
 5534SOL     OW17500   0.362   4.145   5.402
 5534SOL    HW117501   0.416   4.123   5.321
 5534SOL    HW217502   0.423   4.173   5.476
 5535SOL     OW17503   5.894   3.837   3.690
 5535SOL    HW117504   5.907   3.926   3.646
 5535SOL    HW217505   5.928   3.841   3.784
 5536SOL     OW17506   3.048   0.662   4.343
 5536SOL    HW117507   2.951   0.648   4.362
 5536SOL    HW217508   3.058   0.714   4.258
 5537SOL     OW17509   4.126   1.022   5.060
 5537SOL    HW117510   4.117   0.925   5.079
 5537SOL    HW217511   4.097   1.075   5.140
 5538SOL     OW17512   5.608   2.068   2.432
 5538SOL    HW117513   5.513   2.092   2.417
 5538SOL    HW217514   5.630   1.984   2.382
 5539SOL     OW17515   2.560   0.128   6.923
 5539SOL    HW117516   2.468   0.166   6.913
 5539SOL    HW217517   2.598   0.155   7.011
 5540SOL     OW17518   5.776   6.792   5.769
 5540SOL    HW117519   5.687   6.765   5.731
 5540SOL    HW217520   5.768   6.883   5.810
 5541SOL     OW17521   4.322   3.182   0.082
 5541SOL    HW117522   4.388   3.234   0.027
 5541SOL    HW217523   4.334   3.084   0.064
 5542SOL     OW17524   4.708   4.502   0.394
 5542SOL    HW117525   4.746   4.450   0.471
 5542SOL    HW217526   4.644   4.445   0.343
 5543SOL     OW17527   1.132   0.398   6.246
 5543SOL    HW117528   1.057   0.393   6.312
 5543SOL    HW217529   1.220   0.397   6.294
 5544SOL     OW17530   3.782   4.986   0.344
 5544SOL    HW117531   3.821   4.992   0.436
 5544SOL    HW217532   3.801   4.896   0.306
 5545SOL     OW17533   5.062   1.050   3.219
 5545SOL    HW117534   5.144   1.028   3.272
 5545SOL    HW217535   5.058   0.993   3.137
 5546SOL     OW17536   0.406   5.073   4.096
 5546SOL    HW117537   0.421   5.166   4.130
 5546SOL    HW217538   0.380   5.013   4.173
 5547SOL     OW17539   5.124   2.308   4.856
 5547SOL    HW117540   5.094   2.216   4.880
 5547SOL    HW217541   5.223   2.309   4.843
 5548SOL     OW17542   0.502   4.513   5.068
 5548SOL    HW117543   0.435   4.495   4.996
 5548SOL    HW217544   0.457   4.507   5.158
 5549SOL     OW17545   3.714   3.337   0.500
 5549SOL    HW117546   3.775   3.376   0.431
 5549SOL    HW217547   3.767   3.287   0.568
 5550SOL     OW17548   2.459   4.332   1.825
 5550SOL    HW117549   2.504   4.416   1.855
 5550SOL    HW217550   2.396   4.301   1.897
 5551SOL     OW17551   2.111   5.013   2.774
 5551SOL    HW117552   2.038   4.956   2.736
 5551SOL    HW217553   2.178   4.955   2.820
 5552SOL     OW17554   1.037   0.331   7.016
 5552SOL    HW117555   1.037   0.427   0.019
 5552SOL    HW217556   0.956   0.286   0.029
 5553SOL     OW17557   5.325   0.403   6.857
 5553SOL    HW117558   5.329   0.335   6.784
 5553SOL    HW217559   5.245   0.461   6.844
 5554SOL     OW17560   6.688   2.416   1.420
 5554SOL    HW117561   6.597   2.374   1.415
 5554SOL    HW217562   6.688   2.499   1.364
 5555SOL     OW17563   1.426   4.990   2.081
 5555SOL    HW117564   1.496   4.941   2.029
 5555SOL    HW217565   1.337   4.945   2.068
 5556SOL     OW17566   6.911   1.200   4.452
 5556SOL    HW117567   6.900   1.212   4.550
 5556SOL    HW217568   7.008   1.188   4.430
 5557SOL     OW17569   3.966   6.062   3.262
 5557SOL    HW117570   4.006   6.140   3.214
 5557SOL    HW217571   3.977   5.979   3.208
 5558SOL     OW17572   4.507   4.087   0.134
 5558SOL    HW117573   4.573   4.143   0.084
 5558SOL    HW217574   4.414   4.112   0.107
 5559SOL     OW17575   3.712   0.832   2.530
 5559SOL    HW117576   3.734   0.753   2.587
 5559SOL    HW217577   3.795   0.869   2.490
 5560SOL     OW17578   0.306   5.248   3.621
 5560SOL    HW117579   0.333   5.171   3.678
 5560SOL    HW217580   0.318   5.334   3.672
 5561SOL     OW17581   4.139   6.760   3.165
 5561SOL    HW117582   4.162   6.676   3.115
 5561SOL    HW217583   4.040   6.764   3.178
 5562SOL     OW17584   3.737   3.708   0.755
 5562SOL    HW117585   3.803   3.720   0.830
 5562SOL    HW217586   3.664   3.646   0.785
 5563SOL     OW17587   2.767   4.723   2.454
 5563SOL    HW117588   2.854   4.683   2.426
 5563SOL    HW217589   2.706   4.729   2.375
 5564SOL     OW17590   4.681   0.019   6.491
 5564SOL    HW117591   4.668   6.949   6.523
 5564SOL    HW217592   4.678   0.081   6.568
 5565SOL     OW17593   3.669   1.412   6.044
 5565SOL    HW117594   3.705   1.319   6.041
 5565SOL    HW217595   3.692   1.459   5.959
 5566SOL     OW17596   1.291   4.716   5.947
 5566SOL    HW117597   1.215   4.776   5.971
 5566SOL    HW217598   1.331   4.678   6.030
 5567SOL     OW17599   0.582   4.614   0.371
 5567SOL    HW117600   0.639   4.603   0.452
 5567SOL    HW217601   0.632   4.664   0.301
 5568SOL     OW17602   4.922   4.766   1.660
 5568SOL    HW117603   4.908   4.863   1.644
 5568SOL    HW217604   5.008   4.752   1.710
 5569SOL     OW17605   2.458   2.571   2.684
 5569SOL    HW117606   2.481   2.566   2.781
 5569SOL    HW217607   2.499   2.494   2.636
 5570SOL     OW17608   6.798   3.693   1.864
 5570SOL    HW117609   6.883   3.701   1.812
 5570SOL    HW217610   6.817   3.658   1.956
 5571SOL     OW17611   6.660   4.621   1.298
 5571SOL    HW117612   6.651   4.522   1.289
 5571SOL    HW217613   6.744   4.652   1.254
 5572SOL     OW17614   1.958   4.095   5.011
 5572SOL    HW117615   1.881   4.121   5.068
 5572SOL    HW217616   2.019   4.035   5.062
 5573SOL     OW17617   3.351   4.956   3.746
 5573SOL    HW117618   3.409   4.920   3.673
 5573SOL    HW217619   3.327   5.050   3.726
 5574SOL     OW17620   0.695   1.975   4.913
 5574SOL    HW117621   0.692   2.075   4.901
 5574SOL    HW217622   0.615   1.945   4.964
 5575SOL     OW17623   0.115   0.210   1.730
 5575SOL    HW117624   0.192   0.177   1.677
 5575SOL    HW217625   0.029   0.186   1.683
 5576SOL     OW17626   1.550   5.189   3.267
 5576SOL    HW117627   1.486   5.215   3.196
 5576SOL    HW217628   1.543   5.090   3.283
 5577SOL     OW17629   1.862   2.883   6.114
 5577SOL    HW117630   1.937   2.882   6.048
 5577SOL    HW217631   1.779   2.846   6.072
 5578SOL     OW17632   3.446   4.115   3.575
 5578SOL    HW117633   3.466   4.116   3.477
 5578SOL    HW217634   3.526   4.081   3.625
 5579SOL     OW17635   6.597   2.862   2.401
 5579SOL    HW117636   6.535   2.904   2.467
 5579SOL    HW217637   6.626   2.772   2.434
 5580SOL     OW17638   5.898   2.115   5.543
 5580SOL    HW117639   5.881   2.151   5.635
 5580SOL    HW217640   5.969   2.045   5.547
 5581SOL     OW17641   1.680   2.605   6.613
 5581SOL    HW117642   1.696   2.510   6.587
 5581SOL    HW217643   1.762   2.659   6.595
 5582SOL     OW17644   2.666   2.722   5.897
 5582SOL    HW117645   2.589   2.666   5.867
 5582SOL    HW217646   2.747   2.664   5.907
 5583SOL     OW17647   5.742   6.983   0.962
 5583SOL    HW117648   5.780   6.998   0.871
 5583SOL    HW217649   5.770   0.032   1.023
 5584SOL     OW17650   1.777   3.436   4.231
 5584SOL    HW117651   1.700   3.449   4.294
 5584SOL    HW217652   1.748   3.459   4.138
 5585SOL     OW17653   5.395   5.166   1.755
 5585SOL    HW117654   5.300   5.147   1.781
 5585SOL    HW217655   5.447   5.194   1.835
 5586SOL     OW17656   0.807   4.788   0.470
 5586SOL    HW117657   0.903   4.816   0.464
 5586SOL    HW217658   0.801   4.693   0.500
 5587SOL     OW17659   6.438   0.573   6.235
 5587SOL    HW117660   6.468   0.666   6.254
 5587SOL    HW217661   6.476   0.511   6.304
 5588SOL     OW17662   3.753   6.839   1.219
 5588SOL    HW117663   3.737   6.821   1.316
 5588SOL    HW217664   3.678   6.893   1.182
 5589SOL     OW17665   6.283   4.879   5.928
 5589SOL    HW117666   6.207   4.835   5.880
 5589SOL    HW217667   6.313   4.822   6.004
 5590SOL     OW17668   5.989   5.354   3.272
 5590SOL    HW117669   5.975   5.262   3.309
 5590SOL    HW217670   5.916   5.376   3.209
 5591SOL     OW17671   5.253   1.359   1.663
 5591SOL    HW117672   5.320   1.368   1.737
 5591SOL    HW217673   5.238   1.262   1.644
 5592SOL     OW17674   0.590   4.484   3.096
 5592SOL    HW117675   0.528   4.434   3.157
 5592SOL    HW217676   0.551   4.574   3.075
 5593SOL     OW17677   0.645   3.839   0.527
 5593SOL    HW117678   0.630   3.741   0.511
 5593SOL    HW217679   0.585   3.871   0.600
 5594SOL     OW17680   6.637   2.249   6.056
 5594SOL    HW117681   6.670   2.163   6.095
 5594SOL    HW217682   6.673   2.326   6.108
 5595SOL     OW17683   0.821   2.272   6.976
 5595SOL    HW117684   0.886   2.292   6.903
 5595SOL    HW217685   0.839   2.332   0.030
 5596SOL     OW17686   3.312   5.818   3.361
 5596SOL    HW117687   3.230   5.867   3.333
 5596SOL    HW217688   3.340   5.850   3.452
 5597SOL     OW17689   5.265   3.260   2.225
 5597SOL    HW117690   5.225   3.337   2.275
 5597SOL    HW217691   5.312   3.295   2.143
 5598SOL     OW17692   5.121   1.139   5.097
 5598SOL    HW117693   5.044   1.202   5.090
 5598SOL    HW217694   5.092   1.048   5.069
 5599SOL     OW17695   1.116   0.453   3.208
 5599SOL    HW117696   1.040   0.464   3.272
 5599SOL    HW217697   1.141   0.542   3.170
 5600SOL     OW17698   1.704   2.424   5.260
 5600SOL    HW117699   1.772   2.351   5.266
 5600SOL    HW217700   1.728   2.486   5.185
 5601SOL     OW17701   2.654   0.986   6.179
 5601SOL    HW117702   2.717   0.940   6.117
 5601SOL    HW217703   2.649   1.083   6.155
 5602SOL     OW17704   1.409   0.813   0.328
 5602SOL    HW117705   1.315   0.798   0.359
 5602SOL    HW217706   1.447   0.727   0.294
 5603SOL     OW17707   6.026   5.065   5.822
 5603SOL    HW117708   6.108   5.007   5.822
 5603SOL    HW217709   5.945   5.009   5.803
 5604SOL     OW17710   5.569   1.441   5.912
 5604SOL    HW117711   5.600   1.412   6.003
 5604SOL    HW217712   5.499   1.377   5.880
 5605SOL     OW17713   1.429   2.308   6.598
 5605SOL    HW117714   1.399   2.403   6.585
 5605SOL    HW217715   1.420   2.283   6.694
 5606SOL     OW17716   5.862   0.092   2.983
 5606SOL    HW117717   5.799   0.165   2.958
 5606SOL    HW217718   5.894   0.045   2.900
 5607SOL     OW17719   5.820   0.631   1.220
 5607SOL    HW117720   5.899   0.571   1.209
 5607SOL    HW217721   5.755   0.590   1.284
 5608SOL     OW17722   3.732   6.781   5.131
 5608SOL    HW117723   3.698   6.820   5.045
 5608SOL    HW217724   3.793   6.847   5.175
 5609SOL     OW17725   1.222   5.399   5.359
 5609SOL    HW117726   1.178   5.481   5.322
 5609SOL    HW217727   1.152   5.333   5.387
 5610SOL     OW17728   4.534   0.020   6.257
 5610SOL    HW117729   4.460   0.087   6.252
 5610SOL    HW217730   4.589   0.036   6.339
 5611SOL     OW17731   1.932   4.541   3.857
 5611SOL    HW117732   1.970   4.460   3.903
 5611SOL    HW217733   1.860   4.581   3.914
 5612SOL     OW17734   2.771   6.929   4.954
 5612SOL    HW117735   2.781   6.996   4.880
 5612SOL    HW217736   2.768   6.837   4.915
 5613SOL     OW17737   3.888   5.259   1.517
 5613SOL    HW117738   3.893   5.291   1.612
 5613SOL    HW217739   3.973   5.213   1.492
 5614SOL     OW17740   4.647   2.249   3.854
 5614SOL    HW117741   4.620   2.160   3.892
 5614SOL    HW217742   4.745   2.248   3.836
 5615SOL     OW17743   1.751   1.581   1.584
 5615SOL    HW117744   1.764   1.514   1.510
 5615SOL    HW217745   1.674   1.641   1.561
 5616SOL     OW17746   1.873   0.176   4.729
 5616SOL    HW117747   1.920   0.129   4.803
 5616SOL    HW217748   1.878   0.122   4.645
 5617SOL     OW17749   0.876   0.506   5.252
 5617SOL    HW117750   0.913   0.516   5.344
 5617SOL    HW217751   0.893   0.590   5.200
 5618SOL     OW17752   0.010   4.270   3.110
 5618SOL    HW117753   6.949   4.244   3.065
 5618SOL    HW217754   7.016   4.295   3.205
 5619SOL     OW17755   2.118   3.808   5.002
 5619SOL    HW117756   2.188   3.879   4.995
 5619SOL    HW217757   2.142   3.732   4.942
 5620SOL     OW17758   3.972   1.601   6.921
 5620SOL    HW117759   4.028   1.536   6.971
 5620SOL    HW217760   3.948   1.678   6.980
 5621SOL     OW17761   2.309   2.089   6.453
 5621SOL    HW117762   2.378   2.097   6.382
 5621SOL    HW217763   2.230   2.146   6.431
 5622SOL     OW17764   5.323   0.765   5.233
 5622SOL    HW117765   5.296   0.676   5.269
 5622SOL    HW217766   5.405   0.796   5.282
 5623SOL     OW17767   0.448   6.044   0.341
 5623SOL    HW117768   0.457   5.965   0.401
 5623SOL    HW217769   0.355   6.047   0.303
 5624SOL     OW17770   0.459   3.902   2.121
 5624SOL    HW117771   0.511   3.933   2.042
 5624SOL    HW217772   0.374   3.954   2.128
 5625SOL     OW17773   6.429   2.260   5.651
 5625SOL    HW117774   6.388   2.200   5.720
 5625SOL    HW217775   6.389   2.239   5.561
 5626SOL     OW17776   4.762   6.519   3.997
 5626SOL    HW117777   4.694   6.559   4.059
 5626SOL    HW217778   4.796   6.434   4.035
 5627SOL     OW17779   1.041   6.549   1.148
 5627SOL    HW117780   0.974   6.537   1.220
 5627SOL    HW217781   1.072   6.645   1.147
 5628SOL     OW17782   1.774   1.565   4.504
 5628SOL    HW117783   1.771   1.514   4.418
 5628SOL    HW217784   1.689   1.616   4.516
 5629SOL     OW17785   3.689   2.929   3.130
 5629SOL    HW117786   3.745   2.930   3.048
 5629SOL    HW217787   3.727   2.864   3.196
 5630SOL     OW17788   6.726   4.166   1.537
 5630SOL    HW117789   6.738   4.086   1.595
 5630SOL    HW217790   6.814   4.210   1.521
 5631SOL     OW17791   5.058   0.985   6.470
 5631SOL    HW117792   5.110   1.004   6.387
 5631SOL    HW217793   5.011   0.897   6.459
 5632SOL     OW17794   3.047   2.925   6.967
 5632SOL    HW117795   3.040   2.829   6.938
 5632SOL    HW217796   2.959   2.970   6.955
 5633SOL     OW17797   0.164   3.196   5.437
 5633SOL    HW117798   0.074   3.180   5.477
 5633SOL    HW217799   0.222   3.116   5.453
 5634SOL     OW17800   5.212   5.736   4.612
 5634SOL    HW117801   5.228   5.684   4.695
 5634SOL    HW217802   5.257   5.691   4.535
 5635SOL     OW17803   3.553   1.700   5.621
 5635SOL    HW117804   3.555   1.789   5.667
 5635SOL    HW217805   3.479   1.644   5.660
 5636SOL     OW17806   3.895   6.320   4.768
 5636SOL    HW117807   3.907   6.390   4.837
 5636SOL    HW217808   3.801   6.286   4.770
 5637SOL     OW17809   6.251   0.227   3.255
 5637SOL    HW117810   6.281   0.156   3.192
 5637SOL    HW217811   6.177   0.192   3.313
 5638SOL     OW17812   5.922   3.950   6.891
 5638SOL    HW117813   5.988   3.921   6.960
 5638SOL    HW217814   5.880   3.870   6.848
 5639SOL     OW17815   3.742   0.463   0.165
 5639SOL    HW117816   3.728   0.513   0.080
 5639SOL    HW217817   3.690   0.507   0.239
 5640SOL     OW17818   1.958   0.225   2.363
 5640SOL    HW117819   2.015   0.167   2.304
 5640SOL    HW217820   1.972   0.199   2.459
 5641SOL     OW17821   6.065   5.839   4.213
 5641SOL    HW117822   6.024   5.822   4.123
 5641SOL    HW217823   6.146   5.782   4.224
 5642SOL     OW17824   2.003   1.903   0.304
 5642SOL    HW117825   1.906   1.910   0.327
 5642SOL    HW217826   2.034   1.810   0.321
 5643SOL     OW17827   5.413   2.261   6.015
 5643SOL    HW117828   5.405   2.232   5.920
 5643SOL    HW217829   5.401   2.182   6.075
 5644SOL     OW17830   2.864   0.598   6.282
 5644SOL    HW117831   2.947   0.548   6.258
 5644SOL    HW217832   2.800   0.596   6.206
 5645SOL     OW17833   5.793   3.746   4.879
 5645SOL    HW117834   5.809   3.787   4.789
 5645SOL    HW217835   5.728   3.671   4.871
 5646SOL     OW17836   1.358   4.556   2.821
 5646SOL    HW117837   1.352   4.649   2.785
 5646SOL    HW217838   1.375   4.492   2.746
 5647SOL     OW17839   5.938   6.827   2.668
 5647SOL    HW117840   5.979   6.832   2.760
 5647SOL    HW217841   6.011   6.823   2.600
 5648SOL     OW17842   4.932   5.785   3.545
 5648SOL    HW117843   4.888   5.854   3.487
 5648SOL    HW217844   5.011   5.746   3.498
 5649SOL     OW17845   1.009   6.760   3.936
 5649SOL    HW117846   1.040   6.821   4.009
 5649SOL    HW217847   1.081   6.695   3.915
 5650SOL     OW17848   6.398   4.154   6.188
 5650SOL    HW117849   6.452   4.185   6.110
 5650SOL    HW217850   6.410   4.055   6.200
 5651SOL     OW17851   2.900   1.135   0.516
 5651SOL    HW117852   2.993   1.099   0.501
 5651SOL    HW217853   2.860   1.160   0.428
 5652SOL     OW17854   0.422   5.996   2.819
 5652SOL    HW117855   0.460   5.907   2.794
 5652SOL    HW217856   0.334   5.984   2.864
 5653SOL     OW17857   0.176   0.175   2.002
 5653SOL    HW117858   0.132   0.197   1.915
 5653SOL    HW217859   0.107   0.147   2.068
 5654SOL     OW17860   3.046   6.095   5.194
 5654SOL    HW117861   3.098   6.041   5.128
 5654SOL    HW217862   3.007   6.175   5.147
 5655SOL     OW17863   5.386   2.872   5.279
 5655SOL    HW117864   5.415   2.957   5.233
 5655SOL    HW217865   5.369   2.801   5.210
 5656SOL     OW17866   6.568   3.456   0.305
 5656SOL    HW117867   6.523   3.393   0.241
 5656SOL    HW217868   6.499   3.502   0.360
 5657SOL     OW17869   5.113   5.676   4.901
 5657SOL    HW117870   5.088   5.580   4.915
 5657SOL    HW217871   5.212   5.686   4.908
 5658SOL     OW17872   2.445   3.103   5.623
 5658SOL    HW117873   2.426   3.138   5.531
 5658SOL    HW217874   2.397   3.159   5.691
 5659SOL     OW17875   2.500   4.162   6.896
 5659SOL    HW117876   2.530   4.128   6.985
 5659SOL    HW217877   2.414   4.118   6.872
 5660SOL     OW17878   4.504   0.355   5.305
 5660SOL    HW117879   4.561   0.299   5.366
 5660SOL    HW217880   4.464   0.431   5.357
 5661SOL     OW17881   0.822   5.707   5.791
 5661SOL    HW117882   0.899   5.644   5.779
 5661SOL    HW217883   0.783   5.694   5.882
 5662SOL     OW17884   3.149   6.397   1.107
 5662SOL    HW117885   3.216   6.466   1.136
 5662SOL    HW217886   3.106   6.356   1.187
 5663SOL     OW17887   1.235   3.440   5.612
 5663SOL    HW117888   1.300   3.364   5.621
 5663SOL    HW217889   1.276   3.523   5.650
 5664SOL     OW17890   4.601   4.781   4.667
 5664SOL    HW117891   4.592   4.855   4.733
 5664SOL    HW217892   4.698   4.770   4.643
 5665SOL     OW17893   1.613   1.596   0.900
 5665SOL    HW117894   1.641   1.499   0.903
 5665SOL    HW217895   1.517   1.602   0.872
 5666SOL     OW17896   6.254   2.700   5.036
 5666SOL    HW117897   6.185   2.743   4.977
 5666SOL    HW217898   6.332   2.671   4.980
 5667SOL     OW17899   2.682   4.648   4.057
 5667SOL    HW117900   2.777   4.621   4.069
 5667SOL    HW217901   2.649   4.692   4.140
 5668SOL     OW17902   4.850   3.754   3.907
 5668SOL    HW117903   4.752   3.743   3.922
 5668SOL    HW217904   4.898   3.672   3.941
 5669SOL     OW17905   5.177   4.297   6.140
 5669SOL    HW117906   5.227   4.380   6.114
 5669SOL    HW217907   5.196   4.276   6.236
 5670SOL     OW17908   1.889   2.778   3.716
 5670SOL    HW117909   1.931   2.826   3.793
 5670SOL    HW217910   1.802   2.738   3.746
 5671SOL     OW17911   6.743   5.059   3.388
 5671SOL    HW117912   6.717   5.151   3.361
 5671SOL    HW217913   6.696   4.992   3.329
 5672SOL     OW17914   5.151   3.206   4.698
 5672SOL    HW117915   5.110   3.205   4.606
 5672SOL    HW217916   5.155   3.300   4.732
 5673SOL     OW17917   1.039   1.977   0.358
 5673SOL    HW117918   0.964   1.928   0.313
 5673SOL    HW217919   1.126   1.934   0.334
 5674SOL     OW17920   2.057   5.269   4.995
 5674SOL    HW117921   1.969   5.232   4.965
 5674SOL    HW217922   2.131   5.219   4.950
 5675SOL     OW17923   2.675   2.189   1.024
 5675SOL    HW117924   2.594   2.140   0.992
 5675SOL    HW217925   2.648   2.275   1.066
 5676SOL     OW17926   3.574   1.441   2.027
 5676SOL    HW117927   3.567   1.531   2.071
 5676SOL    HW217928   3.489   1.422   1.978
 5677SOL     OW17929   0.525   1.665   6.470
 5677SOL    HW117930   0.586   1.742   6.487
 5677SOL    HW217931   0.443   1.697   6.425
 5678SOL     OW17932   3.446   2.071   2.107
 5678SOL    HW117933   3.367   2.074   2.047
 5678SOL    HW217934   3.515   2.135   2.075
 5679SOL     OW17935   6.900   4.241   5.414
 5679SOL    HW117936   6.825   4.181   5.438
 5679SOL    HW217937   6.978   4.186   5.384
 5680SOL     OW17938   0.671   5.592   5.107
 5680SOL    HW117939   0.577   5.597   5.141
 5680SOL    HW217940   0.671   5.602   5.007
 5681SOL     OW17941   1.313   3.759   3.615
 5681SOL    HW117942   1.362   3.829   3.665
 5681SOL    HW217943   1.244   3.801   3.556
 5682SOL     OW17944   1.796   4.564   1.203
 5682SOL    HW117945   1.888   4.604   1.208
 5682SOL    HW217946   1.803   4.464   1.200
 5683SOL     OW17947   6.847   0.438   6.036
 5683SOL    HW117948   6.851   0.454   6.135
 5683SOL    HW217949   6.926   0.479   5.992
 5684SOL     OW17950   2.206   3.020   4.864
 5684SOL    HW117951   2.271   3.013   4.940
 5684SOL    HW217952   2.250   2.992   4.779
 5685SOL     OW17953   2.735   1.705   2.257
 5685SOL    HW117954   2.695   1.672   2.172
 5685SOL    HW217955   2.823   1.749   2.237
 5686SOL     OW17956   5.054   5.439   5.726
 5686SOL    HW117957   5.005   5.526   5.736
 5686SOL    HW217958   4.988   5.364   5.730
 5687SOL     OW17959   2.035   6.648   6.057
 5687SOL    HW117960   1.972   6.704   6.110
 5687SOL    HW217961   1.999   6.635   5.965
 5688SOL     OW17962   1.965   2.113   3.209
 5688SOL    HW117963   2.010   2.024   3.210
 5688SOL    HW217964   2.033   2.186   3.216
 5689SOL     OW17965   0.651   2.499   1.441
 5689SOL    HW117966   0.723   2.452   1.389
 5689SOL    HW217967   0.573   2.438   1.453
 5690SOL     OW17968   2.977   5.300   0.107
 5690SOL    HW117969   2.963   5.319   0.010
 5690SOL    HW217970   3.057   5.241   0.118
 5691SOL     OW17971   4.525   2.251   3.122
 5691SOL    HW117972   4.540   2.220   3.216
 5691SOL    HW217973   4.530   2.172   3.061
 5692SOL     OW17974   6.358   4.492   1.809
 5692SOL    HW117975   6.435   4.435   1.779
 5692SOL    HW217976   6.370   4.515   1.906
 5693SOL     OW17977   4.380   0.446   2.045
 5693SOL    HW117978   4.336   0.412   1.961
 5693SOL    HW217979   4.475   0.415   2.047
 5694SOL     OW17980   0.673   0.416   1.579
 5694SOL    HW117981   0.770   0.394   1.567
 5694SOL    HW217982   0.649   0.409   1.676
 5695SOL     OW17983   2.842   1.212   1.855
 5695SOL    HW117984   2.833   1.275   1.931
 5695SOL    HW217985   2.753   1.197   1.812
 5696SOL     OW17986   0.459   0.488   4.279
 5696SOL    HW117987   0.534   0.544   4.243
 5696SOL    HW217988   0.481   0.391   4.266
 5697SOL     OW17989   6.597   2.104   6.854
 5697SOL    HW117990   6.694   2.122   6.835
 5697SOL    HW217991   6.587   2.009   6.884
 5698SOL     OW17992   3.317   2.026   4.736
 5698SOL    HW117993   3.236   1.994   4.688
 5698SOL    HW217994   3.293   2.047   4.831
 5699SOL     OW17995   2.237   2.870   2.335
 5699SOL    HW117996   2.266   2.834   2.423
 5699SOL    HW217997   2.207   2.965   2.345
 5700SOL     OW17998   6.583   0.055   2.658
 5700SOL    HW117999   6.673   0.012   2.657
 5700SOL    HW218000   6.515   7.015   2.692
 5701SOL     OW18001   1.068   0.852   0.674
 5701SOL    HW118002   1.063   0.758   0.706
 5701SOL    HW218003   0.976   0.889   0.664
 5702SOL     OW18004   1.913   6.893   4.686
 5702SOL    HW118005   1.823   6.916   4.648
 5702SOL    HW218006   1.923   6.794   4.689
 5703SOL     OW18007   0.263   3.055   5.944
 5703SOL    HW118008   0.164   3.040   5.954
 5703SOL    HW218009   0.280   3.111   5.863
 5704SOL     OW18010   3.935   5.156   4.288
 5704SOL    HW118011   3.863   5.139   4.356
 5704SOL    HW218012   3.941   5.077   4.226
 5705SOL     OW18013   6.315   0.827   5.485
 5705SOL    HW118014   6.282   0.868   5.569
 5705SOL    HW218015   6.345   0.733   5.503
 5706SOL     OW18016   5.183   2.033   1.360
 5706SOL    HW118017   5.120   2.042   1.437
 5706SOL    HW218018   5.212   2.123   1.329
 5707SOL     OW18019   6.263   5.204   1.357
 5707SOL    HW118020   6.216   5.174   1.440
 5707SOL    HW218021   6.307   5.293   1.374
 5708SOL     OW18022   5.003   6.210   2.117
 5708SOL    HW118023   5.046   6.229   2.029
 5708SOL    HW218024   4.974   6.115   2.120
 5709SOL     OW18025   0.081   2.585   2.683
 5709SOL    HW118026   0.113   2.667   2.731
 5709SOL    HW218027   0.151   2.553   2.620
 5710SOL     OW18028   4.589   1.422   0.327
 5710SOL    HW118029   4.670   1.480   0.340
 5710SOL    HW218030   4.518   1.448   0.393
 5711SOL     OW18031   4.869   1.538   2.427
 5711SOL    HW118032   4.826   1.448   2.415
 5711SOL    HW218033   4.827   1.603   2.364
 5712SOL     OW18034   5.881   6.029   0.075
 5712SOL    HW118035   5.795   5.986   0.102
 5712SOL    HW218036   5.904   6.102   0.141
 5713SOL     OW18037   1.475   0.907   0.656
 5713SOL    HW118038   1.417   0.986   0.675
 5713SOL    HW218039   1.420   0.834   0.617
 5714SOL     OW18040   6.416   6.979   0.727
 5714SOL    HW118041   6.428   6.928   0.812
 5714SOL    HW218042   6.372   0.042   0.747
 5715SOL     OW18043   0.216   6.676   1.596
 5715SOL    HW118044   0.178   6.768   1.603
 5715SOL    HW218045   0.305   6.673   1.641
 5716SOL     OW18046   0.072   4.505   5.460
 5716SOL    HW118047   0.044   4.455   5.378
 5716SOL    HW218048   0.018   4.588   5.469
 5717SOL     OW18049   0.747   5.593   3.417
 5717SOL    HW118050   0.714   5.680   3.380
 5717SOL    HW218051   0.670   5.543   3.457
 5718SOL     OW18052   1.181   4.055   6.749
 5718SOL    HW118053   1.142   4.023   6.663
 5718SOL    HW218054   1.112   4.051   6.821
 5719SOL     OW18055   2.848   3.824   0.681
 5719SOL    HW118056   2.868   3.849   0.587
 5719SOL    HW218057   2.931   3.836   0.737
 5720SOL     OW18058   3.377   5.035   6.169
 5720SOL    HW118059   3.412   5.109   6.227
 5720SOL    HW218060   3.452   4.974   6.143
 5721SOL     OW18061   1.735   2.994   0.119
 5721SOL    HW118062   1.730   2.909   0.171
 5721SOL    HW218063   1.648   3.011   0.074
 5722SOL     OW18064   1.702   0.063   6.571
 5722SOL    HW118065   1.701   0.095   6.666
 5722SOL    HW218066   1.796   0.052   6.541
 5723SOL     OW18067   3.987   3.262   1.079
 5723SOL    HW118068   4.058   3.302   1.137
 5723SOL    HW218069   3.927   3.335   1.046
 5724SOL     OW18070   5.647   2.382   5.833
 5724SOL    HW118071   5.627   2.290   5.866
 5724SOL    HW218072   5.634   2.448   5.907
 5725SOL     OW18073   6.904   4.572   5.101
 5725SOL    HW118074   6.840   4.582   5.177
 5725SOL    HW218075   6.993   4.541   5.137
 5726SOL     OW18076   5.092   4.258   2.258
 5726SOL    HW118077   5.151   4.259   2.177
 5726SOL    HW218078   5.045   4.346   2.266
 5727SOL     OW18079   1.333   2.585   5.089
 5727SOL    HW118080   1.234   2.584   5.097
 5727SOL    HW218081   1.372   2.518   5.152
 5728SOL     OW18082   3.515   6.755   5.400
 5728SOL    HW118083   3.494   6.737   5.304
 5728SOL    HW218084   3.433   6.744   5.455
 5729SOL     OW18085   2.547   2.005   5.049
 5729SOL    HW118086   2.515   2.095   5.077
 5729SOL    HW218087   2.632   2.015   4.997
 5730SOL     OW18088   6.603   4.219   4.723
 5730SOL    HW118089   6.556   4.135   4.749
 5730SOL    HW218090   6.700   4.212   4.749
 5731SOL     OW18091   0.643   6.781   2.855
 5731SOL    HW118092   0.598   6.794   2.767
 5731SOL    HW218093   0.723   6.842   2.861
 5732SOL     OW18094   6.709   0.805   3.011
 5732SOL    HW118095   6.739   0.711   3.025
 5732SOL    HW218096   6.643   0.808   2.935
 5733SOL     OW18097   2.757   0.627   5.007
 5733SOL    HW118098   2.694   0.616   4.931
 5733SOL    HW218099   2.793   0.720   5.008
 5734SOL     OW18100   1.776   6.713   3.211
 5734SOL    HW118101   1.772   6.651   3.288
 5734SOL    HW218102   1.797   6.806   3.243
 5735SOL     OW18103   2.990   0.708   1.256
 5735SOL    HW118104   2.991   0.762   1.171
 5735SOL    HW218105   3.060   0.636   1.249
 5736SOL     OW18106   1.597   5.149   0.748
 5736SOL    HW118107   1.531   5.158   0.822
 5736SOL    HW218108   1.677   5.098   0.779
 5737SOL     OW18109   5.613   3.909   0.166
 5737SOL    HW118110   5.524   3.867   0.183
 5737SOL    HW218111   5.610   3.960   0.080
 5738SOL     OW18112   0.637   4.804   4.812
 5738SOL    HW118113   0.610   4.793   4.908
 5738SOL    HW218114   0.582   4.743   4.755
 5739SOL     OW18115   0.897   2.900   1.108
 5739SOL    HW118116   0.970   2.954   1.066
 5739SOL    HW218117   0.828   2.878   1.040
 5740SOL     OW18118   3.895   5.014   6.814
 5740SOL    HW118119   3.921   5.109   6.799
 5740SOL    HW218120   3.805   4.996   6.774
 5741SOL     OW18121   0.245   3.346   1.679
 5741SOL    HW118122   0.225   3.414   1.750
 5741SOL    HW218123   0.272   3.393   1.595
 5742SOL     OW18124   0.373   5.668   3.883
 5742SOL    HW118125   0.425   5.710   3.809
 5742SOL    HW218126   0.373   5.730   3.962
 5743SOL     OW18127   1.586   6.117   5.094
 5743SOL    HW118128   1.581   6.166   5.181
 5743SOL    HW218129   1.605   6.020   5.111
 5744SOL     OW18130   5.909   0.298   1.396
 5744SOL    HW118131   5.834   0.321   1.458
 5744SOL    HW218132   5.980   0.367   1.403
 5745SOL     OW18133   1.297   3.060   3.266
 5745SOL    HW118134   1.366   3.130   3.282
 5745SOL    HW218135   1.210   3.103   3.241
 5746SOL     OW18136   6.691   4.160   0.028
 5746SOL    HW118137   6.672   4.257   0.013
 5746SOL    HW218138   6.789   4.144   0.019
 5747SOL     OW18139   1.192   6.459   3.715
 5747SOL    HW118140   1.189   6.376   3.770
 5747SOL    HW218141   1.211   6.537   3.775
 5748SOL     OW18142   1.826   7.023   3.693
 5748SOL    HW118143   1.753   6.994   3.630
 5748SOL    HW218144   1.826   0.098   3.700
 5749SOL     OW18145   1.792   1.206   3.139
 5749SOL    HW118146   1.765   1.291   3.184
 5749SOL    HW218147   1.888   1.214   3.110
 5750SOL     OW18148   5.968   6.528   2.259
 5750SOL    HW118149   5.954   6.450   2.197
 5750SOL    HW218150   6.060   6.565   2.245
 5751SOL     OW18151   0.646   2.996   6.281
 5751SOL    HW118152   0.637   2.897   6.295
 5751SOL    HW218153   0.567   3.030   6.230
 5752SOL     OW18154   1.156   1.558   6.424
 5752SOL    HW118155   1.146   1.459   6.418
 5752SOL    HW218156   1.129   1.600   6.338
 5753SOL     OW18157   4.566   1.738   0.354
 5753SOL    HW118158   4.608   1.821   0.391
 5753SOL    HW218159   4.478   1.723   0.399
 5754SOL     OW18160   5.957   5.759   0.251
 5754SOL    HW118161   6.042   5.735   0.297
 5754SOL    HW218162   5.915   5.676   0.213
 5755SOL     OW18163   3.272   3.775   1.661
 5755SOL    HW118164   3.173   3.766   1.677
 5755SOL    HW218165   3.304   3.861   1.701
 5756SOL     OW18166   6.898   6.056   4.246
 5756SOL    HW118167   6.849   6.089   4.165
 5756SOL    HW218168   6.971   5.993   4.218
 5757SOL     OW18169   6.636   6.362   2.291
 5757SOL    HW118170   6.689   6.353   2.206
 5757SOL    HW218171   6.548   6.316   2.280
 5758SOL     OW18172   2.578   1.293   5.666
 5758SOL    HW118173   2.673   1.308   5.639
 5758SOL    HW218174   2.574   1.244   5.753
 5759SOL     OW18175   0.519   1.572   5.681
 5759SOL    HW118176   0.568   1.640   5.735
 5759SOL    HW218177   0.578   1.494   5.663
 5760SOL     OW18178   6.950   6.090   1.185
 5760SOL    HW118179   0.005   6.080   1.126
 5760SOL    HW218180   6.884   6.017   1.167
 5761SOL     OW18181   4.844   0.524   4.914
 5761SOL    HW118182   4.766   0.562   4.866
 5761SOL    HW218183   4.851   0.426   4.894
 5762SOL     OW18184   5.886   6.113   1.228
 5762SOL    HW118185   5.911   6.042   1.162
 5762SOL    HW218186   5.956   6.185   1.227
 5763SOL     OW18187   2.409   1.018   0.664
 5763SOL    HW118188   2.472   1.093   0.684
 5763SOL    HW218189   2.323   1.054   0.630
 5764SOL     OW18190   4.320   3.198   6.260
 5764SOL    HW118191   4.303   3.171   6.165
 5764SOL    HW218192   4.247   3.160   6.318
 5765SOL     OW18193   6.437   5.476   0.051
 5765SOL    HW118194   6.406   5.555   0.104
 5765SOL    HW218195   6.518   5.502   7.023
 5766SOL     OW18196   2.692   1.072   3.531
 5766SOL    HW118197   2.695   1.134   3.453
 5766SOL    HW218198   2.607   1.085   3.581
 5767SOL     OW18199   5.477   7.020   0.482
 5767SOL    HW118200   5.437   0.004   0.391
 5767SOL    HW218201   5.487   6.924   0.507
 5768SOL     OW18202   6.676   0.122   2.113
 5768SOL    HW118203   6.710   0.038   2.070
 5768SOL    HW218204   6.715   0.129   2.205
 5769SOL     OW18205   2.021   5.064   3.170
 5769SOL    HW118206   2.087   5.132   3.200
 5769SOL    HW218207   2.014   5.067   3.070
 5770SOL     OW18208   5.666   2.246   1.741
 5770SOL    HW118209   5.574   2.219   1.770
 5770SOL    HW218210   5.725   2.165   1.735
 5771SOL     OW18211   1.016   1.213   1.123
 5771SOL    HW118212   0.954   1.158   1.178
 5771SOL    HW218213   1.066   1.276   1.182
 5772SOL     OW18214   6.585   5.315   5.519
 5772SOL    HW118215   6.618   5.379   5.588
 5772SOL    HW218216   6.597   5.355   5.428
 5773SOL     OW18217   5.378   5.672   4.877
 5773SOL    HW118218   5.434   5.608   4.825
 5773SOL    HW218219   5.438   5.740   4.920
 5774SOL     OW18220   2.548   4.943   2.379
 5774SOL    HW118221   2.495   4.870   2.335
 5774SOL    HW218222   2.644   4.917   2.382
 5775SOL     OW18223   0.525   0.881   0.717
 5775SOL    HW118224   0.488   0.851   0.805
 5775SOL    HW218225   0.461   0.944   0.673
 5776SOL     OW18226   4.542   1.155   5.575
 5776SOL    HW118227   4.468   1.128   5.637
 5776SOL    HW218228   4.536   1.253   5.557
 5777SOL     OW18229   5.801   6.930   4.988
 5777SOL    HW118230   5.791   7.020   4.947
 5777SOL    HW218231   5.776   6.860   4.921
 5778SOL     OW18232   2.939   6.859   3.917
 5778SOL    HW118233   2.918   6.761   3.920
 5778SOL    HW218234   3.029   6.875   3.958
 5779SOL     OW18235   4.063   6.986   1.240
 5779SOL    HW118236   4.045   6.992   1.339
 5779SOL    HW218237   3.976   6.975   1.192
 5780SOL     OW18238   6.312   4.079   0.665
 5780SOL    HW118239   6.407   4.066   0.693
 5780SOL    HW218240   6.297   4.031   0.578
 5781SOL     OW18241   3.559   4.147   5.309
 5781SOL    HW118242   3.528   4.240   5.328
 5781SOL    HW218243   3.601   4.108   5.391
 5782SOL     OW18244   4.070   1.350   3.136
 5782SOL    HW118245   4.102   1.433   3.091
 5782SOL    HW218246   3.970   1.348   3.135
 5783SOL     OW18247   3.188   6.122   2.585
 5783SOL    HW118248   3.089   6.125   2.571
 5783SOL    HW218249   3.224   6.039   2.544
 5784SOL     OW18250   1.500   6.471   0.733
 5784SOL    HW118251   1.416   6.510   0.693
 5784SOL    HW218252   1.539   6.536   0.797
 5785SOL     OW18253   2.444   2.438   6.580
 5785SOL    HW118254   2.424   2.535   6.592
 5785SOL    HW218255   2.390   2.385   6.646
 5786SOL     OW18256   0.719   2.089   5.803
 5786SOL    HW118257   0.735   2.022   5.875
 5786SOL    HW218258   0.802   2.100   5.748
 5787SOL     OW18259   0.586   2.636   4.514
 5787SOL    HW118260   0.599   2.694   4.434
 5787SOL    HW218261   0.491   2.607   4.520
 5788SOL     OW18262   0.451   1.934   1.621
 5788SOL    HW118263   0.390   2.007   1.587
 5788SOL    HW218264   0.421   1.905   1.711
 5789SOL     OW18265   2.541   6.429   6.966
 5789SOL    HW118266   2.581   6.381   0.019
 5789SOL    HW218267   2.579   6.521   6.961
 5790SOL     OW18268   0.162   6.629   2.696
 5790SOL    HW118269   0.134   6.697   2.765
 5790SOL    HW218270   0.121   6.653   2.608
 5791SOL     OW18271   3.989   0.765   0.900
 5791SOL    HW118272   4.088   0.760   0.906
 5791SOL    HW218273   3.960   0.861   0.909
 5792SOL     OW18274   4.950   2.493   2.214
 5792SOL    HW118275   4.865   2.439   2.214
 5792SOL    HW218276   4.936   2.577   2.266
 5793SOL     OW18277   4.138   1.899   0.162
 5793SOL    HW118278   4.165   1.811   0.199
 5793SOL    HW218279   4.181   1.972   0.214
 5794SOL     OW18280   3.002   5.836   0.248
 5794SOL    HW118281   2.903   5.851   0.254
 5794SOL    HW218282   3.020   5.753   0.195
 5795SOL     OW18283   1.049   0.325   0.928
 5795SOL    HW118284   0.960   0.304   0.970
 5795SOL    HW218285   1.095   0.396   0.981
 5796SOL     OW18286   4.879   0.531   6.137
 5796SOL    HW118287   4.961   0.566   6.183
 5796SOL    HW218288   4.862   0.438   6.167
 5797SOL     OW18289   6.785   2.178   0.365
 5797SOL    HW118290   6.770   2.227   0.279
 5797SOL    HW218291   6.770   2.080   0.350
 5798SOL     OW18292   1.988   2.874   4.572
 5798SOL    HW118293   1.920   2.924   4.626
 5798SOL    HW218294   1.966   2.777   4.571
 5799SOL     OW18295   2.645   0.224   3.590
 5799SOL    HW118296   2.613   0.224   3.495
 5799SOL    HW218297   2.569   0.248   3.650
 5800SOL     OW18298   1.228   6.376   1.858
 5800SOL    HW118299   1.148   6.395   1.915
 5800SOL    HW218300   1.204   6.309   1.788
 5801SOL     OW18301   1.552   1.811   2.856
 5801SOL    HW118302   1.557   1.907   2.884
 5801SOL    HW218303   1.505   1.758   2.926
 5802SOL     OW18304   6.964   6.798   2.869
 5802SOL    HW118305   0.013   6.815   2.934
 5802SOL    HW218306   6.881   6.846   2.900
 5803SOL     OW18307   0.881   6.783   4.223
 5803SOL    HW118308   0.857   6.770   4.127
 5803SOL    HW218309   0.896   6.694   4.266
 5804SOL     OW18310   5.889   1.643   3.523
 5804SOL    HW118311   5.857   1.722   3.471
 5804SOL    HW218312   5.813   1.603   3.573
 5805SOL     OW18313   0.979   2.840   1.601
 5805SOL    HW118314   0.991   2.742   1.581
 5805SOL    HW218315   0.972   2.853   1.700
 5806SOL     OW18316   6.723   3.891   2.051
 5806SOL    HW118317   6.755   3.979   2.016
 5806SOL    HW218318   6.710   3.827   1.975
 5807SOL     OW18319   1.468   1.485   1.765
 5807SOL    HW118320   1.550   1.486   1.708
 5807SOL    HW218321   1.390   1.518   1.711
 5808SOL     OW18322   6.690   0.077   5.744
 5808SOL    HW118323   6.764   0.055   5.681
 5808SOL    HW218324   6.606   0.032   5.713
 5809SOL     OW18325   0.461   3.446   4.576
 5809SOL    HW118326   0.460   3.346   4.569
 5809SOL    HW218327   0.427   3.486   4.491
 5810SOL     OW18328   1.546   6.731   5.462
 5810SOL    HW118329   1.503   6.734   5.372
 5810SOL    HW218330   1.487   6.777   5.529
 5811SOL     OW18331   3.228   5.188   0.119
 5811SOL    HW118332   3.306   5.176   0.180
 5811SOL    HW218333   3.260   5.197   0.025
 5812SOL     OW18334   6.564   3.850   6.026
 5812SOL    HW118335   6.465   3.849   6.020
 5812SOL    HW218336   6.594   3.796   6.104
 5813SOL     OW18337   6.399   4.864   1.098
 5813SOL    HW118338   6.305   4.884   1.126
 5813SOL    HW218339   6.452   4.948   1.096
 5814SOL     OW18340   5.478   1.164   2.504
 5814SOL    HW118341   5.519   1.243   2.458
 5814SOL    HW218342   5.411   1.196   2.571
 5815SOL     OW18343   6.223   3.457   4.998
 5815SOL    HW118344   6.241   3.518   5.075
 5815SOL    HW218345   6.131   3.419   5.007
 5816SOL     OW18346   6.507   4.310   0.988
 5816SOL    HW118347   6.495   4.276   0.894
 5816SOL    HW218348   6.446   4.387   1.004
 5817SOL     OW18349   6.857   2.573   3.755
 5817SOL    HW118350   6.873   2.647   3.821
 5817SOL    HW218351   6.880   2.485   3.797
 5818SOL     OW18352   2.368   0.038   4.115
 5818SOL    HW118353   2.393   7.018   4.201
 5818SOL    HW218354   2.288   7.017   4.076
 5819SOL     OW18355   3.989   4.137   1.086
 5819SOL    HW118356   3.984   4.052   1.033
 5819SOL    HW218357   3.995   4.215   1.023
 5820SOL     OW18358   0.447   6.747   2.301
 5820SOL    HW118359   0.476   6.671   2.243
 5820SOL    HW218360   0.403   6.817   2.245
 5821SOL     OW18361   6.579   6.779   2.231
 5821SOL    HW118362   6.528   6.864   2.242
 5821SOL    HW218363   6.537   6.707   2.286
 5822SOL     OW18364   0.719   4.305   2.911
 5822SOL    HW118365   0.657   4.372   2.953
 5822SOL    HW218366   0.814   4.330   2.932
 5823SOL     OW18367   2.691   6.385   4.924
 5823SOL    HW118368   2.651   6.369   4.834
 5823SOL    HW218369   2.684   6.482   4.947
 5824SOL     OW18370   2.300   5.677   2.173
 5824SOL    HW118371   2.369   5.710   2.237
 5824SOL    HW218372   2.340   5.607   2.114
 5825SOL     OW18373   4.279   2.073   5.369
 5825SOL    HW118374   4.308   2.030   5.283
 5825SOL    HW218375   4.360   2.097   5.423
 5826SOL     OW18376   1.329   6.372   4.814
 5826SOL    HW118377   1.244   6.415   4.784
 5826SOL    HW218378   1.404   6.438   4.807
 5827SOL     OW18379   2.149   3.748   3.011
 5827SOL    HW118380   2.146   3.828   2.952
 5827SOL    HW218381   2.178   3.775   3.103
 5828SOL     OW18382   4.499   6.589   4.984
 5828SOL    HW118383   4.545   6.541   4.909
 5828SOL    HW218384   4.535   6.556   5.071
 5829SOL     OW18385   2.226   1.024   2.936
 5829SOL    HW118386   2.314   1.053   2.973
 5829SOL    HW218387   2.230   0.927   2.913
 5830SOL     OW18388   4.544   5.521   4.550
 5830SOL    HW118389   4.639   5.496   4.565
 5830SOL    HW218390   4.526   5.526   4.451
 5831SOL     OW18391   1.906   1.119   4.764
 5831SOL    HW118392   1.863   1.173   4.692
 5831SOL    HW218393   1.985   1.070   4.726
 5832SOL     OW18394   2.134   4.769   3.959
 5832SOL    HW118395   2.082   4.690   3.926
 5832SOL    HW218396   2.141   4.837   3.886
 5833SOL     OW18397   3.084   4.780   0.925
 5833SOL    HW118398   3.066   4.768   1.023
 5833SOL    HW218399   3.027   4.853   0.890
 5834SOL     OW18400   5.937   2.331   6.418
 5834SOL    HW118401   5.890   2.245   6.397
 5834SOL    HW218402   5.869   2.402   6.438
 5835SOL     OW18403   4.162   1.150   3.893
 5835SOL    HW118404   4.141   1.236   3.939
 5835SOL    HW218405   4.203   1.170   3.804
 5836SOL     OW18406   5.157   5.163   1.459
 5836SOL    HW118407   5.090   5.122   1.520
 5836SOL    HW218408   5.249   5.133   1.486
 5837SOL     OW18409   2.701   4.371   0.065
 5837SOL    HW118410   2.630   4.431   0.027
 5837SOL    HW218411   2.763   4.343   7.016
 5838SOL     OW18412   3.054   2.966   0.285
 5838SOL    HW118413   3.112   3.015   0.350
 5838SOL    HW218414   3.026   3.029   0.213
 5839SOL     OW18415   2.147   1.427   1.485
 5839SOL    HW118416   2.148   1.351   1.421
 5839SOL    HW218417   2.177   1.395   1.575
 5840SOL     OW18418   6.825   3.796   2.680
 5840SOL    HW118419   6.786   3.728   2.741
 5840SOL    HW218420   6.925   3.790   2.683
 5841SOL     OW18421   5.041   2.123   0.665
 5841SOL    HW118422   4.954   2.131   0.617
 5841SOL    HW218423   5.050   2.030   0.701
 5842SOL     OW18424   3.765   2.134   2.511
 5842SOL    HW118425   3.669   2.105   2.509
 5842SOL    HW218426   3.784   2.179   2.599
 5843SOL     OW18427   3.195   3.326   1.168
 5843SOL    HW118428   3.264   3.298   1.101
 5843SOL    HW218429   3.240   3.358   1.251
 5844SOL     OW18430   0.009   5.670   5.047
 5844SOL    HW118431   6.976   5.599   5.088
 5844SOL    HW218432   0.084   5.628   4.997
 5845SOL     OW18433   1.988   6.324   2.882
 5845SOL    HW118434   1.934   6.393   2.834
 5845SOL    HW218435   2.068   6.368   2.924
 5846SOL     OW18436   0.416   4.646   5.728
 5846SOL    HW118437   0.358   4.723   5.756
 5846SOL    HW218438   0.443   4.594   5.809
 5847SOL     OW18439   1.913   4.256   6.138
 5847SOL    HW118440   1.971   4.175   6.149
 5847SOL    HW218441   1.837   4.234   6.077
 5848SOL     OW18442   2.825   6.282   1.854
 5848SOL    HW118443   2.736   6.328   1.863
 5848SOL    HW218444   2.832   6.209   1.923
 5849SOL     OW18445   3.001   5.874   6.555
 5849SOL    HW118446   3.027   5.953   6.610
 5849SOL    HW218447   2.941   5.814   6.608
 5850SOL     OW18448   5.863   2.060   1.763
 5850SOL    HW118449   5.896   1.988   1.825
 5850SOL    HW218450   5.921   2.141   1.773
 5851SOL     OW18451   0.970   3.294   4.792
 5851SOL    HW118452   0.879   3.277   4.832
 5851SOL    HW218453   0.962   3.363   4.720
 5852SOL     OW18454   4.914   4.658   2.850
 5852SOL    HW118455   4.969   4.609   2.783
 5852SOL    HW218456   4.818   4.660   2.819
 5853SOL     OW18457   4.146   5.198   0.126
 5853SOL    HW118458   4.101   5.202   0.215
 5853SOL    HW218459   4.178   5.105   0.109
 5854SOL     OW18460   2.743   4.508   5.368
 5854SOL    HW118461   2.799   4.528   5.448
 5854SOL    HW218462   2.794   4.529   5.284
 5855SOL     OW18463   1.629   2.189   4.736
 5855SOL    HW118464   1.724   2.182   4.767
 5855SOL    HW218465   1.598   2.284   4.745
 5856SOL     OW18466   0.773   6.986   2.412
 5856SOL    HW118467   0.701   0.025   2.385
 5856SOL    HW218468   0.861   7.017   2.375
 5857SOL     OW18469   5.800   5.586   6.972
 5857SOL    HW118470   5.808   5.619   6.878
 5857SOL    HW218471   5.846   5.498   6.981
 5858SOL     OW18472   2.633   1.423   2.637
 5858SOL    HW118473   2.697   1.353   2.607
 5858SOL    HW218474   2.645   1.506   2.583
 5859SOL     OW18475   5.516   5.238   2.009
 5859SOL    HW118476   5.600   5.269   1.964
 5859SOL    HW218477   5.527   5.243   2.108
 5860SOL     OW18478   1.925   3.482   2.267
 5860SOL    HW118479   1.962   3.430   2.190
 5860SOL    HW218480   1.904   3.575   2.237
 5861SOL     OW18481   5.424   0.126   5.257
 5861SOL    HW118482   5.400   0.171   5.170
 5861SOL    HW218483   5.524   0.118   5.262
 5862SOL     OW18484   6.524   4.960   2.681
 5862SOL    HW118485   6.474   4.880   2.713
 5862SOL    HW218486   6.612   4.967   2.727
 5863SOL     OW18487   3.831   0.388   5.944
 5863SOL    HW118488   3.853   0.364   5.849
 5863SOL    HW218489   3.895   0.458   5.976
 5864SOL     OW18490   3.576   3.443   3.510
 5864SOL    HW118491   3.620   3.517   3.459
 5864SOL    HW218492   3.647   3.385   3.551
 5865SOL     OW18493   5.883   6.546   1.462
 5865SOL    HW118494   5.864   6.570   1.557
 5865SOL    HW218495   5.866   6.448   1.448
 5866SOL     OW18496   3.587   3.534   3.794
 5866SOL    HW118497   3.508   3.592   3.816
 5866SOL    HW218498   3.568   3.480   3.713
 5867SOL     OW18499   4.410   1.446   0.540
 5867SOL    HW118500   4.426   1.370   0.603
 5867SOL    HW218501   4.312   1.468   0.539
 5868SOL     OW18502   1.049   1.081   0.892
 5868SOL    HW118503   0.964   1.078   0.839
 5868SOL    HW218504   1.030   1.123   0.981
 5869SOL     OW18505   2.324   5.322   3.012
 5869SOL    HW118506   2.280   5.338   3.100
 5869SOL    HW218507   2.420   5.350   3.016
 5870SOL     OW18508   4.535   6.796   4.600
 5870SOL    HW118509   4.539   6.858   4.678
 5870SOL    HW218510   4.619   6.805   4.547
 5871SOL     OW18511   3.786   3.340   3.639
 5871SOL    HW118512   3.879   3.318   3.611
 5871SOL    HW218513   3.787   3.380   3.731
 5872SOL     OW18514   3.411   5.821   1.319
 5872SOL    HW118515   3.418   5.891   1.248
 5872SOL    HW218516   3.481   5.837   1.388
 5873SOL     OW18517   4.073   6.351   1.969
 5873SOL    HW118518   4.115   6.422   1.913
 5873SOL    HW218519   4.125   6.266   1.960
 5874SOL     OW18520   6.869   3.861   5.047
 5874SOL    HW118521   6.801   3.934   5.044
 5874SOL    HW218522   6.875   3.819   4.957
 5875SOL     OW18523   3.927   2.339   1.104
 5875SOL    HW118524   3.877   2.393   1.172
 5875SOL    HW218525   3.955   2.252   1.145
 5876SOL     OW18526   3.423   2.933   2.565
 5876SOL    HW118527   3.379   3.019   2.592
 5876SOL    HW218528   3.451   2.938   2.469
 5877SOL     OW18529   5.129   4.481   1.607
 5877SOL    HW118530   5.193   4.410   1.634
 5877SOL    HW218531   5.115   4.544   1.684
 5878SOL     OW18532   1.017   3.716   2.127
 5878SOL    HW118533   1.114   3.694   2.118
 5878SOL    HW218534   0.965   3.632   2.144
 5879SOL     OW18535   2.171   4.074   4.334
 5879SOL    HW118536   2.117   4.013   4.392
 5879SOL    HW218537   2.242   4.118   4.388
 5880SOL     OW18538   2.937   5.514   6.585
 5880SOL    HW118539   2.962   5.468   6.670
 5880SOL    HW218540   3.005   5.494   6.515
 5881SOL     OW18541   1.901   6.605   4.049
 5881SOL    HW118542   1.979   6.542   4.055
 5881SOL    HW218543   1.895   6.641   3.956
 5882SOL     OW18544   4.698   0.264   2.761
 5882SOL    HW118545   4.732   0.331   2.695
 5882SOL    HW218546   4.610   0.295   2.797
 5883SOL     OW18547   1.431   2.785   4.917
 5883SOL    HW118548   1.374   2.801   4.836
 5883SOL    HW218549   1.400   2.702   4.963
 5884SOL     OW18550   0.065   1.182   2.757
 5884SOL    HW118551   0.099   1.088   2.764
 5884SOL    HW218552   0.030   1.211   2.846
 5885SOL     OW18553   5.156   6.790   0.485
 5885SOL    HW118554   5.161   6.869   0.547
 5885SOL    HW218555   5.219   6.719   0.517
 5886SOL     OW18556   5.702   1.648   6.237
 5886SOL    HW118557   5.735   1.698   6.156
 5886SOL    HW218558   5.634   1.703   6.285
 5887SOL     OW18559   3.881   6.086   2.887
 5887SOL    HW118560   3.900   6.055   2.794
 5887SOL    HW218561   3.782   6.084   2.903
 5888SOL     OW18562   6.729   6.475   2.560
 5888SOL    HW118563   6.794   6.420   2.506
 5888SOL    HW218564   6.677   6.415   2.621
 5889SOL     OW18565   2.950   0.035   6.805
 5889SOL    HW118566   2.993   0.015   6.717
 5889SOL    HW218567   2.856   0.000   6.805
 5890SOL     OW18568   4.108   4.977   6.304
 5890SOL    HW118569   4.042   5.051   6.290
 5890SOL    HW218570   4.094   4.937   6.395
 5891SOL     OW18571   1.317   3.519   6.012
 5891SOL    HW118572   1.322   3.543   5.915
 5891SOL    HW218573   1.409   3.498   6.046
 5892SOL     OW18574   2.020   6.187   2.617
 5892SOL    HW118575   2.006   6.210   2.713
 5892SOL    HW218576   1.939   6.139   2.582
 5893SOL     OW18577   1.661   2.337   2.667
 5893SOL    HW118578   1.618   2.374   2.749
 5893SOL    HW218579   1.747   2.292   2.691
 5894SOL     OW18580   1.519   3.681   4.257
 5894SOL    HW118581   1.459   3.610   4.220
 5894SOL    HW218582   1.531   3.753   4.189
 5895SOL     OW18583   5.609   4.290   3.149
 5895SOL    HW118584   5.700   4.252   3.134
 5895SOL    HW218585   5.615   4.368   3.211
 5896SOL     OW18586   5.106   3.111   5.931
 5896SOL    HW118587   5.136   3.115   6.026
 5896SOL    HW218588   5.130   3.196   5.884
 5897SOL     OW18589   4.162   5.428   0.830
 5897SOL    HW118590   4.135   5.409   0.735
 5897SOL    HW218591   4.087   5.476   0.876
 5898SOL     OW18592   2.597   6.866   3.188
 5898SOL    HW118593   2.694   6.842   3.178
 5898SOL    HW218594   2.558   6.816   3.266
 5899SOL     OW18595   4.975   0.839   3.648
 5899SOL    HW118596   5.046   0.902   3.617
 5899SOL    HW218597   5.000   0.801   3.736
 5900SOL     OW18598   3.862   5.070   2.172
 5900SOL    HW118599   3.804   5.077   2.091
 5900SOL    HW218600   3.879   4.974   2.193
 5901SOL     OW18601   2.985   6.078   4.622
 5901SOL    HW118602   2.957   6.089   4.526
 5901SOL    HW218603   2.909   6.039   4.675
 5902SOL     OW18604   5.900   2.421   6.993
 5902SOL    HW118605   5.877   2.404   6.897
 5902SOL    HW218606   5.994   2.391   7.010
 5903SOL     OW18607   0.139   2.603   6.091
 5903SOL    HW118608   0.082   2.528   6.124
 5903SOL    HW218609   0.129   2.612   5.992
 5904SOL     OW18610   1.731   2.937   2.076
 5904SOL    HW118611   1.819   2.962   2.117
 5904SOL    HW218612   1.697   3.012   2.020
 5905SOL     OW18613   0.326   4.320   2.187
 5905SOL    HW118614   0.331   4.278   2.278
 5905SOL    HW218615   0.394   4.393   2.180
 5906SOL     OW18616   0.405   0.450   2.947
 5906SOL    HW118617   0.415   0.425   3.043
 5906SOL    HW218618   0.400   0.367   2.891
 5907SOL     OW18619   2.431   0.362   2.793
 5907SOL    HW118620   2.363   0.290   2.791
 5907SOL    HW218621   2.514   0.331   2.746
 5908SOL     OW18622   0.648   2.670   5.938
 5908SOL    HW118623   0.591   2.738   5.894
 5908SOL    HW218624   0.679   2.603   5.870
 5909SOL     OW18625   5.931   4.752   0.053
 5909SOL    HW118626   5.954   4.715   0.143
 5909SOL    HW218627   6.015   4.772   0.003
 5910SOL     OW18628   1.151   1.542   3.579
 5910SOL    HW118629   1.080   1.562   3.647
 5910SOL    HW218630   1.162   1.443   3.570
 5911SOL     OW18631   6.671   5.931   7.006
 5911SOL    HW118632   6.664   6.027   6.978
 5911SOL    HW218633   6.754   5.917   0.035
 5912SOL     OW18634   0.726   0.231   3.588
 5912SOL    HW118635   0.636   0.187   3.586
 5912SOL    HW218636   0.725   0.306   3.654
 5913SOL     OW18637   6.805   2.789   1.233
 5913SOL    HW118638   6.850   2.747   1.154
 5913SOL    HW218639   6.740   2.858   1.201
 5914SOL     OW18640   0.678   6.636   1.014
 5914SOL    HW118641   0.624   6.701   1.067
 5914SOL    HW218642   0.675   6.546   1.058
 5915SOL     OW18643   3.938   0.647   5.418
 5915SOL    HW118644   3.957   0.575   5.352
 5915SOL    HW218645   3.844   0.639   5.451
 5916SOL     OW18646   1.281   0.161   2.343
 5916SOL    HW118647   1.325   0.190   2.258
 5916SOL    HW218648   1.257   0.241   2.398
 5917SOL     OW18649   3.266   2.544   0.465
 5917SOL    HW118650   3.296   2.449   0.472
 5917SOL    HW218651   3.226   2.561   0.375
 5918SOL     OW18652   3.398   6.779   3.899
 5918SOL    HW118653   3.482   6.758   3.949
 5918SOL    HW218654   3.420   6.836   3.820
 5919SOL     OW18655   3.046   3.213   4.527
 5919SOL    HW118656   2.999   3.200   4.439
 5919SOL    HW218657   3.019   3.301   4.566
 5920SOL     OW18658   0.978   0.477   5.721
 5920SOL    HW118659   0.892   0.523   5.700
 5920SOL    HW218660   0.967   0.379   5.709
 5921SOL     OW18661   2.861   4.725   0.115
 5921SOL    HW118662   2.905   4.815   0.117
 5921SOL    HW218663   2.766   4.735   0.086
 5922SOL     OW18664   5.346   2.133   2.410
 5922SOL    HW118665   5.304   2.091   2.330
 5922SOL    HW218666   5.361   2.230   2.393
 5923SOL     OW18667   5.902   0.806   2.991
 5923SOL    HW118668   5.995   0.778   3.016
 5923SOL    HW218669   5.844   0.805   3.072
 5924SOL     OW18670   6.792   6.525   3.531
 5924SOL    HW118671   6.742   6.513   3.445
 5924SOL    HW218672   6.829   6.437   3.560
 5925SOL     OW18673   4.915   0.635   0.737
 5925SOL    HW118674   4.999   0.606   0.782
 5925SOL    HW218675   4.864   0.697   0.797
 5926SOL     OW18676   5.884   3.405   2.991
 5926SOL    HW118677   5.906   3.311   2.966
 5926SOL    HW218678   5.806   3.405   3.054
 5927SOL     OW18679   0.453   6.092   1.508
 5927SOL    HW118680   0.552   6.083   1.515
 5927SOL    HW218681   0.423   6.172   1.561
 5928SOL     OW18682   3.001   0.184   0.137
 5928SOL    HW118683   3.049   0.099   0.116
 5928SOL    HW218684   2.980   0.232   0.052
 5929SOL     OW18685   1.209   0.851   0.961
 5929SOL    HW118686   1.286   0.900   1.003
 5929SOL    HW218687   1.152   0.916   0.911
 5930SOL     OW18688   1.259   4.162   2.098
 5930SOL    HW118689   1.308   4.108   2.029
 5930SOL    HW218690   1.318   4.175   2.178
 5931SOL     OW18691   4.546   6.129   3.709
 5931SOL    HW118692   4.596   6.195   3.653
 5931SOL    HW218693   4.579   6.133   3.803
 5932SOL     OW18694   3.292   6.435   0.313
 5932SOL    HW118695   3.220   6.495   0.278
 5932SOL    HW218696   3.380   6.465   0.278
 5933SOL     OW18697   6.311   5.896   4.435
 5933SOL    HW118698   6.362   5.830   4.490
 5933SOL    HW218699   6.264   5.961   4.495
 5934SOL     OW18700   2.675   3.676   0.106
 5934SOL    HW118701   2.596   3.697   0.163
 5934SOL    HW218702   2.739   3.620   0.159
 5935SOL     OW18703   0.889   6.969   5.290
 5935SOL    HW118704   0.912   0.037   5.321
 5935SOL    HW218705   0.949   6.903   5.336
 5936SOL     OW18706   3.554   2.945   2.316
 5936SOL    HW118707   3.559   2.896   2.230
 5936SOL    HW218708   3.607   3.030   2.311
 5937SOL     OW18709   0.714   3.119   0.160
 5937SOL    HW118710   0.620   3.143   0.184
 5937SOL    HW218711   0.740   3.169   0.076
 5938SOL     OW18712   0.833   3.777   4.062
 5938SOL    HW118713   0.892   3.787   3.982
 5938SOL    HW218714   0.887   3.784   4.145
 5939SOL     OW18715   4.323   1.291   5.379
 5939SOL    HW118716   4.302   1.217   5.443
 5939SOL    HW218717   4.239   1.341   5.358
 5940SOL     OW18718   5.110   5.147   1.861
 5940SOL    HW118719   5.135   5.098   1.945
 5940SOL    HW218720   5.014   5.176   1.866
 5941SOL     OW18721   0.641   1.950   3.289
 5941SOL    HW118722   0.570   1.916   3.350
 5941SOL    HW218723   0.718   1.886   3.288
 5942SOL     OW18724   4.857   2.584   6.526
 5942SOL    HW118725   4.761   2.594   6.553
 5942SOL    HW218726   4.862   2.555   6.430
 5943SOL     OW18727   1.525   4.562   1.211
 5943SOL    HW118728   1.506   4.501   1.288
 5943SOL    HW218729   1.623   4.561   1.192
 5944SOL     OW18730   6.294   3.938   5.983
 5944SOL    HW118731   6.306   4.032   5.949
 5944SOL    HW218732   6.282   3.940   6.082
 5945SOL     OW18733   6.563   6.245   4.256
 5945SOL    HW118734   6.631   6.213   4.190
 5945SOL    HW218735   6.517   6.327   4.221
 5946SOL     OW18736   2.189   3.501   6.888
 5946SOL    HW118737   2.242   3.491   6.804
 5946SOL    HW218738   2.097   3.532   6.866
 5947SOL     OW18739   3.685   3.357   4.443
 5947SOL    HW118740   3.696   3.428   4.373
 5947SOL    HW218741   3.769   3.303   4.448
 5948SOL     OW18742   4.668   3.883   1.723
 5948SOL    HW118743   4.755   3.838   1.702
 5948SOL    HW218744   4.673   3.980   1.697
 5949SOL     OW18745   0.899   4.313   3.369
 5949SOL    HW118746   0.815   4.265   3.345
 5949SOL    HW218747   0.978   4.256   3.347
 5950SOL     OW18748   2.599   6.738   4.391
 5950SOL    HW118749   2.527   6.798   4.357
 5950SOL    HW218750   2.680   6.791   4.413
 5951SOL     OW18751   6.709   3.624   6.179
 5951SOL    HW118752   6.804   3.634   6.211
 5951SOL    HW218753   6.698   3.535   6.134
 5952SOL     OW18754   3.832   3.944   1.956
 5952SOL    HW118755   3.762   4.007   1.992
 5952SOL    HW218756   3.793   3.890   1.881
 5953SOL     OW18757   6.500   3.316   6.082
 5953SOL    HW118758   6.444   3.385   6.037
 5953SOL    HW218759   6.589   3.310   6.037
 5954SOL     OW18760   2.381   5.438   3.670
 5954SOL    HW118761   2.421   5.353   3.636
 5954SOL    HW218762   2.324   5.419   3.750
 5955SOL     OW18763   4.050   3.092   0.206
 5955SOL    HW118764   4.133   3.095   0.150
 5955SOL    HW218765   4.075   3.084   0.303
 5956SOL     OW18766   4.424   2.793   5.978
 5956SOL    HW118767   4.409   2.721   6.046
 5956SOL    HW218768   4.521   2.800   5.957
 5957SOL     OW18769   6.381   1.932   3.555
 5957SOL    HW118770   6.378   1.832   3.559
 5957SOL    HW218771   6.355   1.963   3.464
 5958SOL     OW18772   2.537   6.211   3.047
 5958SOL    HW118773   2.481   6.214   3.130
 5958SOL    HW218774   2.582   6.300   3.034
 5959SOL     OW18775   5.625   3.696   3.136
 5959SOL    HW118776   5.633   3.729   3.042
 5959SOL    HW218777   5.531   3.708   3.167
 5960SOL     OW18778   5.763   0.594   6.119
 5960SOL    HW118779   5.682   0.552   6.078
 5960SOL    HW218780   5.800   0.664   6.058
 5961SOL     OW18781   3.159   2.197   3.865
 5961SOL    HW118782   3.243   2.240   3.832
 5961SOL    HW218783   3.081   2.231   3.812
 5962SOL     OW18784   4.335   4.714   0.275
 5962SOL    HW118785   4.242   4.708   0.237
 5962SOL    HW218786   4.365   4.622   0.301
 5963SOL     OW18787   1.625   4.086   0.889
 5963SOL    HW118788   1.723   4.091   0.872
 5963SOL    HW218789   1.607   4.116   0.983
 5964SOL     OW18790   1.947   0.370   2.854
 5964SOL    HW118791   1.895   0.285   2.862
 5964SOL    HW218792   1.888   0.441   2.815
 5965SOL     OW18793   2.596   0.708   1.238
 5965SOL    HW118794   2.653   0.685   1.318
 5965SOL    HW218795   2.634   0.664   1.157
 5966SOL     OW18796   2.905   1.726   5.050
 5966SOL    HW118797   2.961   1.675   4.984
 5966SOL    HW218798   2.914   1.684   5.141
 5967SOL     OW18799   4.599   2.469   5.277
 5967SOL    HW118800   4.649   2.456   5.192
 5967SOL    HW218801   4.660   2.507   5.346
 5968SOL     OW18802   6.071   2.027   2.866
 5968SOL    HW118803   6.145   2.091   2.843
 5968SOL    HW218804   5.989   2.078   2.889
 5969SOL     OW18805   5.037   0.004   1.102
 5969SOL    HW118806   5.059   0.073   1.032
 5969SOL    HW218807   5.015   6.942   1.057
 5970SOL     OW18808   6.579   2.662   0.228
 5970SOL    HW118809   6.517   2.592   0.191
 5970SOL    HW218810   6.543   2.696   0.315
 5971SOL     OW18811   6.866   5.531   3.433
 5971SOL    HW118812   6.862   5.433   3.415
 5971SOL    HW218813   6.791   5.557   3.494
 5972SOL     OW18814   6.158   4.917   1.231
 5972SOL    HW118815   6.097   4.975   1.178
 5972SOL    HW218816   6.202   4.971   1.302
 5973SOL     OW18817   3.113   0.997   2.317
 5973SOL    HW118818   3.068   0.918   2.360
 5973SOL    HW218819   3.185   1.030   2.378
 5974SOL     OW18820   5.963   1.166   4.652
 5974SOL    HW118821   5.887   1.227   4.629
 5974SOL    HW218822   6.045   1.220   4.670
 5975SOL     OW18823   4.347   4.995   1.216
 5975SOL    HW118824   4.310   5.079   1.177
 5975SOL    HW218825   4.335   4.920   1.151
 5976SOL     OW18826   1.466   4.284   5.289
 5976SOL    HW118827   1.548   4.336   5.313
 5976SOL    HW218828   1.492   4.193   5.256
 5977SOL     OW18829   6.730   5.383   1.238
 5977SOL    HW118830   6.768   5.458   1.292
 5977SOL    HW218831   6.721   5.302   1.295
 5978SOL     OW18832   2.997   3.816   6.321
 5978SOL    HW118833   3.055   3.895   6.339
 5978SOL    HW218834   3.054   3.735   6.310
 5979SOL     OW18835   6.257   6.732   1.088
 5979SOL    HW118836   6.207   6.655   1.049
 5979SOL    HW218837   6.276   6.714   1.185
 5980SOL     OW18838   3.188   2.567   0.757
 5980SOL    HW118839   3.208   2.634   0.828
 5980SOL    HW218840   3.226   2.598   0.670
 5981SOL     OW18841   3.027   2.485   1.218
 5981SOL    HW118842   3.043   2.395   1.176
 5981SOL    HW218843   3.109   2.513   1.268
 5982SOL     OW18844   5.498   2.663   1.390
 5982SOL    HW118845   5.506   2.564   1.377
 5982SOL    HW218846   5.554   2.710   1.322
 5983SOL     OW18847   6.707   1.397   3.337
 5983SOL    HW118848   6.674   1.362   3.425
 5983SOL    HW218849   6.805   1.378   3.329
 5984SOL     OW18850   6.074   5.974   3.190
 5984SOL    HW118851   6.007   5.927   3.133
 5984SOL    HW218852   6.120   6.044   3.135
 5985SOL     OW18853   0.378   3.845   2.689
 5985SOL    HW118854   0.406   3.772   2.751
 5985SOL    HW218855   0.459   3.881   2.642
 5986SOL     OW18856   3.828   3.355   3.332
 5986SOL    HW118857   3.789   3.264   3.348
 5986SOL    HW218858   3.928   3.349   3.331
 5987SOL     OW18859   6.989   5.784   4.469
 5987SOL    HW118860   0.057   5.796   4.433
 5987SOL    HW218861   6.993   5.758   4.565
 5988SOL     OW18862   1.140   2.977   0.323
 5988SOL    HW118863   1.043   2.993   0.344
 5988SOL    HW218864   1.166   3.030   0.243
 5989SOL     OW18865   1.864   6.779   5.418
 5989SOL    HW118866   1.886   6.688   5.454
 5989SOL    HW218867   1.785   6.816   5.466
 5990SOL     OW18868   2.207   4.129   1.640
 5990SOL    HW118869   2.279   4.185   1.600
 5990SOL    HW218870   2.237   4.095   1.730
 5991SOL     OW18871   5.485   1.261   0.752
 5991SOL    HW118872   5.583   1.272   0.736
 5991SOL    HW218873   5.446   1.348   0.781
 5992SOL     OW18874   2.797   5.037   3.445
 5992SOL    HW118875   2.892   5.065   3.431
 5992SOL    HW218876   2.792   4.938   3.454
 5993SOL     OW18877   5.468   2.186   0.658
 5993SOL    HW118878   5.394   2.243   0.622
 5993SOL    HW218879   5.556   2.232   0.642
 5994SOL     OW18880   0.147   3.579   0.141
 5994SOL    HW118881   0.118   3.674   0.153
 5994SOL    HW218882   0.194   3.569   0.053
 5995SOL     OW18883   5.534   3.261   1.156
 5995SOL    HW118884   5.599   3.299   1.090
 5995SOL    HW218885   5.581   3.196   1.216
 5996SOL     OW18886   2.684   6.948   1.842
 5996SOL    HW118887   2.766   6.987   1.800
 5996SOL    HW218888   2.603   6.996   1.807
 5997SOL     OW18889   6.088   0.397   3.952
 5997SOL    HW118890   6.118   0.370   3.860
 5997SOL    HW218891   6.110   0.493   3.968
 5998SOL     OW18892   6.242   6.295   6.719
 5998SOL    HW118893   6.225   6.323   6.814
 5998SOL    HW218894   6.255   6.376   6.662
 5999SOL     OW18895   5.426   3.628   1.349
 5999SOL    HW118896   5.377   3.550   1.311
 5999SOL    HW218897   5.378   3.713   1.326
 6000SOL     OW18898   1.126   4.707   1.082
 6000SOL    HW118899   1.090   4.792   1.042
 6000SOL    HW218900   1.123   4.634   1.014
 6001SOL     OW18901   6.673   5.842   5.146
 6001SOL    HW118902   6.770   5.851   5.122
 6001SOL    HW218903   6.648   5.915   5.209
 6002SOL     OW18904   5.368   4.690   4.781
 6002SOL    HW118905   5.418   4.738   4.708
 6002SOL    HW218906   5.277   4.730   4.791
 6003SOL     OW18907   2.616   2.262   5.235
 6003SOL    HW118908   2.530   2.260   5.184
 6003SOL    HW218909   2.676   2.331   5.196
 6004SOL     OW18910   5.321   3.311   5.021
 6004SOL    HW118911   5.371   3.269   4.945
 6004SOL    HW218912   5.386   3.360   5.080
 6005SOL     OW18913   3.896   4.183   0.364
 6005SOL    HW118914   3.941   4.106   0.409
 6005SOL    HW218915   3.801   4.187   0.395
 6006SOL     OW18916   3.020   6.347   6.826
 6006SOL    HW118917   3.038   6.279   6.755
 6006SOL    HW218918   3.103   6.364   6.878
 6007SOL     OW18919   2.466   6.709   5.093
 6007SOL    HW118920   2.470   6.808   5.078
 6007SOL    HW218921   2.485   6.690   5.189
 6008SOL     OW18922   2.022   4.176   6.599
 6008SOL    HW118923   2.120   4.195   6.592
 6008SOL    HW218924   1.973   4.228   6.529
 6009SOL     OW18925   3.647   5.448   2.814
 6009SOL    HW118926   3.666   5.354   2.786
 6009SOL    HW218927   3.710   5.510   2.768
 6010SOL     OW18928   0.223   4.851   4.962
 6010SOL    HW118929   0.257   4.885   4.874
 6010SOL    HW218930   0.125   4.834   4.955
 6011SOL     OW18931   5.014   1.682   3.090
 6011SOL    HW118932   4.914   1.692   3.096
 6011SOL    HW218933   5.037   1.640   3.002
 6012SOL     OW18934   6.556   1.192   6.040
 6012SOL    HW118935   6.590   1.126   6.107
 6012SOL    HW218936   6.499   1.260   6.087
 6013SOL     OW18937   5.803   1.267   2.461
 6013SOL    HW118938   5.876   1.335   2.466
 6013SOL    HW218939   5.715   1.312   2.447
 6014SOL     OW18940   3.590   3.839   4.313
 6014SOL    HW118941   3.534   3.895   4.251
 6014SOL    HW218942   3.651   3.781   4.259
 6015SOL     OW18943   6.141   6.953   4.233
 6015SOL    HW118944   6.086   0.001   4.276
 6015SOL    HW218945   6.214   6.995   4.180
 6016SOL     OW18946   4.316   2.296   4.777
 6016SOL    HW118947   4.257   2.350   4.837
 6016SOL    HW218948   4.309   2.200   4.802
 6017SOL     OW18949   1.512   1.767   5.297
 6017SOL    HW118950   1.557   1.784   5.385
 6017SOL    HW218951   1.449   1.690   5.307
 6018SOL     OW18952   2.826   1.484   3.986
 6018SOL    HW118953   2.891   1.443   4.051
 6018SOL    HW218954   2.735   1.446   4.002
 6019SOL     OW18955   6.617   4.546   6.526
 6019SOL    HW118956   6.662   4.626   6.487
 6019SOL    HW218957   6.632   4.467   6.466
 6020SOL     OW18958   0.773   5.415   5.258
 6020SOL    HW118959   0.710   5.354   5.306
 6020SOL    HW218960   0.723   5.469   5.190
 6021SOL     OW18961   5.430   0.310   3.344
 6021SOL    HW118962   5.514   0.264   3.313
 6021SOL    HW218963   5.452   0.403   3.371
 6022SOL     OW18964   6.333   2.922   1.619
 6022SOL    HW118965   6.235   2.940   1.623
 6022SOL    HW218966   6.350   2.835   1.571
 6023SOL     OW18967   4.806   6.541   2.490
 6023SOL    HW118968   4.712   6.574   2.500
 6023SOL    HW218969   4.838   6.506   2.578
 6024SOL     OW18970   0.230   5.932   6.498
 6024SOL    HW118971   0.310   5.979   6.535
 6024SOL    HW218972   0.211   5.851   6.554
 6025SOL     OW18973   3.141   0.810   5.746
 6025SOL    HW118974   3.095   0.899   5.750
 6025SOL    HW218975   3.073   0.739   5.724
 6026SOL     OW18976   5.800   5.552   3.422
 6026SOL    HW118977   5.745   5.610   3.482
 6026SOL    HW218978   5.815   5.598   3.335
 6027SOL     OW18979   5.788   5.008   6.462
 6027SOL    HW118980   5.867   4.998   6.523
 6027SOL    HW218981   5.709   4.964   6.503
 6028SOL     OW18982   5.936   6.278   6.081
 6028SOL    HW118983   5.957   6.196   6.134
 6028SOL    HW218984   5.998   6.351   6.107
 6029SOL     OW18985   3.185   1.865   2.677
 6029SOL    HW118986   3.277   1.826   2.683
 6029SOL    HW218987   3.127   1.804   2.623
 6030SOL     OW18988   6.307   3.209   4.571
 6030SOL    HW118989   6.297   3.283   4.638
 6030SOL    HW218990   6.216   3.175   4.546
 6031SOL     OW18991   0.207   6.582   4.297
 6031SOL    HW118992   0.115   6.551   4.323
 6031SOL    HW218993   0.202   6.644   4.220
 6032SOL     OW18994   3.523   6.801   2.931
 6032SOL    HW118995   3.556   6.707   2.920
 6032SOL    HW218996   3.493   6.815   3.026
 6033SOL     OW18997   0.942   1.514   2.440
 6033SOL    HW118998   0.875   1.471   2.380
 6033SOL    HW218999   0.897   1.587   2.492
 6034SOL     OW19000   0.600   0.324   0.668
 6034SOL    HW119001   0.631   0.327   0.763
 6034SOL    HW219002   0.619   0.412   0.625
 6035SOL     OW19003   2.443   0.192   2.375
 6035SOL    HW119004   2.371   0.161   2.312
 6035SOL    HW219005   2.531   0.190   2.327
 6036SOL     OW19006   6.464   3.234   0.649
 6036SOL    HW119007   6.414   3.298   0.709
 6036SOL    HW219008   6.552   3.273   0.625
 6037SOL     OW19009   4.411   1.011   5.807
 6037SOL    HW119010   4.331   1.070   5.809
 6037SOL    HW219011   4.382   0.917   5.790
 6038SOL     OW19012   1.574   1.336   6.084
 6038SOL    HW119013   1.567   1.315   5.986
 6038SOL    HW219014   1.617   1.259   6.131
 6039SOL     OW19015   3.986   3.163   3.773
 6039SOL    HW119016   3.996   3.161   3.873
 6039SOL    HW219017   3.907   3.108   3.746
 6040SOL     OW19018   0.831   2.260   0.269
 6040SOL    HW119019   0.755   2.211   0.226
 6040SOL    HW219020   0.796   2.338   0.320
 6041SOL     OW19021   0.435   3.398   5.131
 6041SOL    HW119022   0.421   3.444   5.218
 6041SOL    HW219023   0.514   3.336   5.138
 6042SOL     OW19024   2.949   5.886   3.886
 6042SOL    HW119025   2.954   5.899   3.985
 6042SOL    HW219026   2.854   5.888   3.857
 6043SOL     OW19027   2.370   6.708   2.279
 6043SOL    HW119028   2.375   6.706   2.379
 6043SOL    HW219029   2.342   6.800   2.250
 6044SOL     OW19030   0.230   3.347   0.257
 6044SOL    HW119031   0.207   3.432   0.210
 6044SOL    HW219032   0.146   3.306   0.294
 6045SOL     OW19033   5.541   1.192   3.969
 6045SOL    HW119034   5.515   1.103   4.007
 6045SOL    HW219035   5.538   1.261   4.041
 6046SOL     OW19036   3.540   3.423   2.824
 6046SOL    HW119037   3.610   3.390   2.761
 6046SOL    HW219038   3.503   3.345   2.876
 6047SOL     OW19039   0.197   1.869   0.213
 6047SOL    HW119040   0.115   1.917   0.184
 6047SOL    HW219041   0.183   1.830   0.304
 6048SOL     OW19042   5.936   5.789   2.994
 6048SOL    HW119043   5.968   5.703   2.953
 6048SOL    HW219044   5.894   5.846   2.923
 6049SOL     OW19045   4.954   4.790   6.267
 6049SOL    HW119046   4.859   4.802   6.294
 6049SOL    HW219047   4.997   4.721   6.326
 6050SOL     OW19048   2.832   5.358   2.755
 6050SOL    HW119049   2.821   5.454   2.782
 6050SOL    HW219050   2.754   5.305   2.789
 6051SOL     OW19051   0.712   1.254   2.476
 6051SOL    HW119052   0.687   1.338   2.523
 6051SOL    HW219053   0.631   1.197   2.464
 6052SOL     OW19054   5.458   5.335   0.526
 6052SOL    HW119055   5.515   5.295   0.599
 6052SOL    HW219056   5.405   5.262   0.483
 6053SOL     OW19057   4.181   2.316   6.342
 6053SOL    HW119058   4.280   2.308   6.352
 6053SOL    HW219059   4.143   2.226   6.321
 6054SOL     OW19060   4.268   3.702   0.691
 6054SOL    HW119061   4.347   3.641   0.685
 6054SOL    HW219062   4.293   3.784   0.742
 6055SOL     OW19063   3.345   4.033   1.433
 6055SOL    HW119064   3.332   3.934   1.434
 6055SOL    HW219065   3.261   4.078   1.465
 6056SOL     OW19066   5.537   5.457   3.207
 6056SOL    HW119067   5.535   5.457   3.307
 6056SOL    HW219068   5.538   5.551   3.173
 6057SOL     OW19069   5.736   1.239   3.494
 6057SOL    HW119070   5.654   1.275   3.538
 6057SOL    HW219071   5.815   1.253   3.554
 6058SOL     OW19072   0.154   2.600   5.806
 6058SOL    HW119073   0.175   2.696   5.785
 6058SOL    HW219074   0.239   2.548   5.810
 6059SOL     OW19075   4.036   2.609   7.024
 6059SOL    HW119076   4.012   2.513   0.013
 6059SOL    HW219077   4.005   2.639   6.934
 6060SOL     OW19078   2.276   2.629   0.635
 6060SOL    HW119079   2.315   2.654   0.724
 6060SOL    HW219080   2.177   2.646   0.637
 6061SOL     OW19081   3.179   4.078   0.179
 6061SOL    HW119082   3.162   3.980   0.191
 6061SOL    HW219083   3.098   4.130   0.208
 6062SOL     OW19084   2.088   2.242   6.375
 6062SOL    HW119085   2.146   2.278   6.302
 6062SOL    HW219086   1.994   2.233   6.342
 6063SOL     OW19087   4.661   4.077   6.493
 6063SOL    HW119088   4.620   4.163   6.523
 6063SOL    HW219089   4.739   4.055   6.552
 6064SOL     OW19090   5.474   6.095   0.700
 6064SOL    HW119091   5.477   6.008   0.651
 6064SOL    HW219092   5.382   6.110   0.736
 6065SOL     OW19093   2.450   6.298   1.478
 6065SOL    HW119094   2.484   6.216   1.524
 6065SOL    HW219095   2.452   6.284   1.379
 6066SOL     OW19096   5.878   5.679   2.259
 6066SOL    HW119097   5.831   5.673   2.347
 6066SOL    HW219098   5.971   5.644   2.268
 6067SOL     OW19099   0.055   5.832   5.530
 6067SOL    HW119100   7.018   5.783   5.592
 6067SOL    HW219101   0.062   5.927   5.559
 6068SOL     OW19102   4.669   2.158   4.401
 6068SOL    HW119103   4.588   2.100   4.409
 6068SOL    HW219104   4.665   2.231   4.470
 6069SOL     OW19105   0.513   4.940   6.100
 6069SOL    HW119106   0.538   4.959   6.006
 6069SOL    HW219107   0.545   4.849   6.126
 6070SOL     OW19108   2.618   1.219   0.851
 6070SOL    HW119109   2.691   1.210   0.920
 6070SOL    HW219110   2.532   1.240   0.897
 6071SOL     OW19111   5.898   0.880   6.170
 6071SOL    HW119112   5.959   0.875   6.249
 6071SOL    HW219113   5.878   0.976   6.149
 6072SOL     OW19114   6.787   3.127   0.030
 6072SOL    HW119115   6.743   3.048   0.072
 6072SOL    HW219116   6.795   3.201   0.097
 6073SOL     OW19117   4.645   3.671   1.026
 6073SOL    HW119118   4.695   3.605   0.970
 6073SOL    HW219119   4.584   3.623   1.088
 6074SOL     OW19120   0.670   6.469   2.790
 6074SOL    HW119121   0.597   6.404   2.812
 6074SOL    HW219122   0.649   6.558   2.829
 6075SOL     OW19123   5.944   0.329   0.120
 6075SOL    HW119124   5.991   0.296   0.038
 6075SOL    HW219125   5.984   0.415   0.150
 6076SOL     OW19126   0.652   6.763   3.667
 6076SOL    HW119127   0.725   6.699   3.641
 6076SOL    HW219128   0.565   6.714   3.671
 6077SOL     OW19129   5.094   5.786   2.765
 6077SOL    HW119130   5.014   5.846   2.763
 6077SOL    HW219131   5.170   5.831   2.717
 6078SOL     OW19132   4.991   4.297   0.871
 6078SOL    HW119133   4.925   4.366   0.841
 6078SOL    HW219134   5.063   4.289   0.802
 6079SOL     OW19135   3.530   2.096   0.458
 6079SOL    HW119136   3.505   2.014   0.406
 6079SOL    HW219137   3.543   2.073   0.554
 6080SOL     OW19138   0.325   3.638   5.692
 6080SOL    HW119139   0.370   3.724   5.672
 6080SOL    HW219140   0.225   3.651   5.692
 6081SOL     OW19141   1.887   3.763   3.593
 6081SOL    HW119142   1.814   3.762   3.525
 6081SOL    HW219143   1.974   3.782   3.549
 6082SOL     OW19144   5.060   1.427   1.304
 6082SOL    HW119145   5.010   1.342   1.287
 6082SOL    HW219146   4.998   1.495   1.343
 6083SOL     OW19147   5.128   0.035   6.549
 6083SOL    HW119148   5.191   0.014   6.474
 6083SOL    HW219149   5.034   0.020   6.518
 6084SOL     OW19150   6.107   5.008   2.983
 6084SOL    HW119151   6.013   4.975   2.981
 6084SOL    HW219152   6.168   4.932   3.007
 6085SOL     OW19153   0.638   6.642   0.738
 6085SOL    HW119154   0.639   6.635   0.837
 6085SOL    HW219155   0.544   6.631   0.704
 6086SOL     OW19156   3.112   3.549   7.020
 6086SOL    HW119157   3.021   3.537   6.979
 6086SOL    HW219158   3.182   3.530   6.951
 6087SOL     OW19159   4.160   6.886   0.680
 6087SOL    HW119160   4.062   6.867   0.680
 6087SOL    HW219161   4.175   6.985   0.681
 6088SOL     OW19162   4.424   6.098   2.514
 6088SOL    HW119163   4.329   6.121   2.494
 6088SOL    HW219164   4.483   6.174   2.486
 6089SOL     OW19165   6.374   4.034   2.929
 6089SOL    HW119166   6.289   3.996   2.967
 6089SOL    HW219167   6.361   4.053   2.832
 6090SOL     OW19168   3.763   5.986   5.161
 6090SOL    HW119169   3.825   6.000   5.083
 6090SOL    HW219170   3.769   6.065   5.222
 6091SOL     OW19171   0.357   1.916   2.176
 6091SOL    HW119172   0.456   1.918   2.190
 6091SOL    HW219173   0.323   2.010   2.166
 6092SOL     OW19174   2.714   6.872   1.321
 6092SOL    HW119175   2.732   6.777   1.295
 6092SOL    HW219176   2.626   6.878   1.367
 6093SOL     OW19177   2.627   2.591   1.729
 6093SOL    HW119178   2.528   2.586   1.717
 6093SOL    HW219179   2.664   2.670   1.681
 6094SOL     OW19180   0.542   6.638   5.407
 6094SOL    HW119181   0.634   6.600   5.413
 6094SOL    HW219182   0.545   6.737   5.420
 6095SOL     OW19183   5.265   5.356   2.210
 6095SOL    HW119184   5.262   5.357   2.310
 6095SOL    HW219185   5.342   5.412   2.179
 6096SOL     OW19186   5.116   6.022   3.053
 6096SOL    HW119187   5.184   6.055   3.118
 6096SOL    HW219188   5.131   6.064   2.964
 6097SOL     OW19189   3.156   5.292   2.340
 6097SOL    HW119190   3.158   5.392   2.344
 6097SOL    HW219191   3.097   5.263   2.265
 6098SOL     OW19192   6.494   0.827   5.270
 6098SOL    HW119193   6.538   0.908   5.308
 6098SOL    HW219194   6.433   0.786   5.338
 6099SOL     OW19195   4.093   0.260   5.489
 6099SOL    HW119196   4.121   0.239   5.582
 6099SOL    HW219197   4.132   0.192   5.426
 6100SOL     OW19198   0.756   5.794   5.327
 6100SOL    HW119199   0.737   5.753   5.416
 6100SOL    HW219200   0.721   5.735   5.254
 6101SOL     OW19201   0.279   2.716   1.709
 6101SOL    HW119202   0.273   2.805   1.664
 6101SOL    HW219203   0.304   2.646   1.642
 6102SOL     OW19204   3.515   0.142   2.856
 6102SOL    HW119205   3.470   0.131   2.945
 6102SOL    HW219206   3.553   0.055   2.827
 6103SOL     OW19207   6.222   1.086   2.693
 6103SOL    HW119208   6.222   1.022   2.770
 6103SOL    HW219209   6.135   1.082   2.645
 6104SOL     OW19210   6.622   1.364   4.525
 6104SOL    HW119211   6.644   1.401   4.435
 6104SOL    HW219212   6.707   1.349   4.577
 6105SOL     OW19213   4.104   4.273   5.839
 6105SOL    HW119214   4.180   4.337   5.849
 6105SOL    HW219215   4.134   4.181   5.864
 6106SOL     OW19216   6.238   4.437   5.051
 6106SOL    HW119217   6.154   4.383   5.057
 6106SOL    HW219218   6.314   4.377   5.026
 6107SOL     OW19219   5.491   4.970   5.488
 6107SOL    HW119220   5.577   5.020   5.502
 6107SOL    HW219221   5.511   4.878   5.454
 6108SOL     OW19222   2.489   1.654   6.311
 6108SOL    HW119223   2.447   1.727   6.257
 6108SOL    HW219224   2.452   1.656   6.404
 6109SOL     OW19225   0.314   6.330   3.820
 6109SOL    HW119226   0.300   6.384   3.737
 6109SOL    HW219227   0.225   6.301   3.855
 6110SOL     OW19228   1.315   1.105   4.332
 6110SOL    HW119229   1.347   1.076   4.241
 6110SOL    HW219230   1.392   1.111   4.395
 6111SOL     OW19231   2.185   3.398   0.580
 6111SOL    HW119232   2.270   3.372   0.626
 6111SOL    HW219233   2.207   3.451   0.498
 6112SOL     OW19234   4.466   6.543   3.637
 6112SOL    HW119235   4.559   6.575   3.654
 6112SOL    HW219236   4.466   6.480   3.559
 6113SOL     OW19237   2.982   5.234   0.776
 6113SOL    HW119238   2.989   5.307   0.843
 6113SOL    HW219239   2.975   5.273   0.684
 6114SOL     OW19240   4.527   2.486   0.840
 6114SOL    HW119241   4.457   2.470   0.910
 6114SOL    HW219242   4.485   2.526   0.759
 6115SOL     OW19243   0.525   0.868   5.010
 6115SOL    HW119244   0.544   0.795   4.944
 6115SOL    HW219245   0.430   0.895   5.003
 6116SOL     OW19246   5.777   3.715   0.330
 6116SOL    HW119247   5.715   3.777   0.281
 6116SOL    HW219248   5.767   3.623   0.294
 6117SOL     OW19249   1.977   2.227   1.526
 6117SOL    HW119250   2.046   2.281   1.574
 6117SOL    HW219251   1.907   2.197   1.591
 6118SOL     OW19252   5.392   0.723   1.807
 6118SOL    HW119253   5.423   0.632   1.832
 6118SOL    HW219254   5.414   0.741   1.711
 6119SOL     OW19255   0.288   1.399   6.685
 6119SOL    HW119256   0.382   1.422   6.656
 6119SOL    HW219257   0.265   1.453   6.766
 6120SOL     OW19258   3.202   0.232   4.011
 6120SOL    HW119259   3.255   0.258   4.092
 6120SOL    HW219260   3.110   0.204   4.039
 6121SOL     OW19261   2.146   1.876   5.267
 6121SOL    HW119262   2.096   1.894   5.182
 6121SOL    HW219263   2.191   1.960   5.297
 6122SOL     OW19264   4.780   4.951   4.898
 6122SOL    HW119265   4.697   4.971   4.847
 6122SOL    HW219266   4.777   4.999   4.986
 6123SOL     OW19267   5.941   1.155   5.091
 6123SOL    HW119268   5.855   1.197   5.120
 6123SOL    HW219269   5.963   1.079   5.152
 6124SOL     OW19270   2.751   5.586   3.820
 6124SOL    HW119271   2.847   5.565   3.799
 6124SOL    HW219272   2.702   5.502   3.842
 6125SOL     OW19273   3.371   1.576   5.778
 6125SOL    HW119274   3.367   1.528   5.865
 6125SOL    HW219275   3.279   1.583   5.740
 6126SOL     OW19276   6.029   3.302   6.441
 6126SOL    HW119277   5.952   3.249   6.406
 6126SOL    HW219278   6.110   3.284   6.386
 6127SOL     OW19279   5.276   1.740   2.752
 6127SOL    HW119280   5.260   1.789   2.666
 6127SOL    HW219281   5.208   1.668   2.762
 6128SOL     OW19282   5.714   6.157   6.722
 6128SOL    HW119283   5.769   6.240   6.712
 6128SOL    HW219284   5.687   6.147   6.818
 6129SOL     OW19285   3.434   5.857   3.007
 6129SOL    HW119286   3.343   5.823   2.984
 6129SOL    HW219287   3.444   5.861   3.107
 6130SOL     OW19288   5.653   3.202   6.868
 6130SOL    HW119289   5.658   3.283   6.926
 6130SOL    HW219290   5.560   3.167   6.868
 6131SOL     OW19291   6.437   2.038   3.042
 6131SOL    HW119292   6.469   1.944   3.052
 6131SOL    HW219293   6.362   2.041   2.975
 6132SOL     OW19294   4.191   6.796   6.425
 6132SOL    HW119295   4.264   6.757   6.369
 6132SOL    HW219296   4.227   6.873   6.478
 6133SOL     OW19297   0.840   1.948   2.613
 6133SOL    HW119298   0.814   1.977   2.705
 6133SOL    HW219299   0.923   1.997   2.585
 6134SOL     OW19300   0.451   6.646   5.671
 6134SOL    HW119301   0.479   6.651   5.575
 6134SOL    HW219302   0.410   6.557   5.689
 6135SOL     OW19303   6.733   0.169   0.669
 6135SOL    HW119304   6.665   0.157   0.742
 6135SOL    HW219305   6.709   0.251   0.616
 6136SOL     OW19306   1.221   2.019   3.629
 6136SOL    HW119307   1.124   2.022   3.604
 6136SOL    HW219308   1.235   2.068   3.715
 6137SOL     OW19309   0.306   4.731   1.205
 6137SOL    HW119310   0.343   4.639   1.222
 6137SOL    HW219311   0.366   4.779   1.141
 6138SOL     OW19312   5.180   0.630   2.355
 6138SOL    HW119313   5.245   0.690   2.307
 6138SOL    HW219314   5.117   0.686   2.409
 6139SOL     OW19315   1.750   1.514   5.030
 6139SOL    HW119316   1.739   1.420   4.997
 6139SOL    HW219317   1.725   1.578   4.957
 6140SOL     OW19318   1.972   0.175   2.638
 6140SOL    HW119319   1.961   0.086   2.682
 6140SOL    HW219320   2.016   0.239   2.701
 6141SOL     OW19321   1.143   0.971   6.823
 6141SOL    HW119322   1.194   0.887   6.844
 6141SOL    HW219323   1.157   1.037   6.896
 6142SOL     OW19324   6.035   0.527   1.524
 6142SOL    HW119325   6.085   0.578   1.454
 6142SOL    HW219326   6.076   0.544   1.613
 6143SOL     OW19327   0.323   3.407   5.514
 6143SOL    HW119328   0.258   3.338   5.483
 6143SOL    HW219329   0.299   3.496   5.476
 6144SOL     OW19330   3.703   5.372   2.384
 6144SOL    HW119331   3.625   5.368   2.446
 6144SOL    HW219332   3.784   5.404   2.434
 6145SOL     OW19333   4.886   3.260   3.703
 6145SOL    HW119334   4.949   3.244   3.627
 6145SOL    HW219335   4.807   3.311   3.670
 6146SOL     OW19336   5.866   0.286   5.401
 6146SOL    HW119337   5.849   0.188   5.407
 6146SOL    HW219338   5.956   0.302   5.360
 6147SOL     OW19339   0.964   2.265   5.332
 6147SOL    HW119340   0.892   2.227   5.274
 6147SOL    HW219341   1.048   2.213   5.320
 6148SOL     OW19342   3.292   5.410   6.895
 6148SOL    HW119343   3.324   5.320   6.863
 6148SOL    HW219344   3.346   5.437   6.975
 6149SOL     OW19345   3.856   1.603   1.904
 6149SOL    HW119346   3.779   1.574   1.962
 6149SOL    HW219347   3.887   1.693   1.934
 6150SOL     OW19348   0.059   4.377   4.819
 6150SOL    HW119349   0.066   4.415   4.727
 6150SOL    HW219350   0.112   4.432   4.883
 6151SOL     OW19351   4.032   4.968   2.880
 6151SOL    HW119352   3.950   4.915   2.898
 6151SOL    HW219353   4.095   4.915   2.824
 6152SOL     OW19354   1.728   4.104   3.306
 6152SOL    HW119355   1.707   4.193   3.347
 6152SOL    HW219356   1.824   4.101   3.281
 6153SOL     OW19357   4.934   5.938   0.857
 6153SOL    HW119358   4.931   6.019   0.916
 6153SOL    HW219359   4.881   5.865   0.899
 6154SOL     OW19360   5.196   3.920   2.324
 6154SOL    HW119361   5.126   3.891   2.260
 6154SOL    HW219362   5.281   3.869   2.307
 6155SOL     OW19363   1.965   1.349   3.968
 6155SOL    HW119364   1.885   1.323   4.022
 6155SOL    HW219365   1.934   1.384   3.879
 6156SOL     OW19366   5.529   4.285   2.261
 6156SOL    HW119367   5.454   4.242   2.311
 6156SOL    HW219368   5.564   4.221   2.192
 6157SOL     OW19369   0.672   3.088   1.230
 6157SOL    HW119370   0.712   3.076   1.320
 6157SOL    HW219371   0.689   3.006   1.175
 6158SOL     OW19372   2.990   1.833   5.347
 6158SOL    HW119373   2.981   1.884   5.432
 6158SOL    HW219374   3.046   1.885   5.283
 6159SOL     OW19375   5.742   2.834   0.172
 6159SOL    HW119376   5.771   2.922   0.135
 6159SOL    HW219377   5.682   2.849   0.251
 6160SOL     OW19378   0.813   0.561   1.272
 6160SOL    HW119379   0.869   0.604   1.343
 6160SOL    HW219380   0.727   0.611   1.264
 6161SOL     OW19381   4.704   3.857   0.048
 6161SOL    HW119382   4.792   3.846   0.002
 6161SOL    HW219383   4.720   3.877   0.145
 6162SOL     OW19384   6.564   5.767   2.299
 6162SOL    HW119385   6.527   5.725   2.217
 6162SOL    HW219386   6.567   5.866   2.288
 6163SOL     OW19387   6.183   5.974   2.770
 6163SOL    HW119388   6.237   5.908   2.822
 6163SOL    HW219389   6.090   5.939   2.756
 6164SOL     OW19390   2.967   3.590   4.392
 6164SOL    HW119391   2.915   3.538   4.460
 6164SOL    HW219392   3.039   3.532   4.353
 6165SOL     OW19393   3.390   1.839   0.046
 6165SOL    HW119394   3.466   1.782   0.077
 6165SOL    HW219395   3.355   1.893   0.122
 6166SOL     OW19396   3.003   2.164   6.259
 6166SOL    HW119397   3.091   2.126   6.288
 6166SOL    HW219398   2.969   2.228   6.329
 6167SOL     OW19399   1.570   3.360   3.067
 6167SOL    HW119400   1.540   3.389   2.977
 6167SOL    HW219401   1.670   3.362   3.071
 6168SOL     OW19402   0.527   3.577   3.658
 6168SOL    HW119403   0.600   3.623   3.709
 6168SOL    HW219404   0.560   3.555   3.566
 6169SOL     OW19405   1.982   0.829   6.647
 6169SOL    HW119406   1.947   0.787   6.563
 6169SOL    HW219407   2.057   0.891   6.624
 6170SOL     OW19408   2.756   4.393   0.787
 6170SOL    HW119409   2.779   4.489   0.804
 6170SOL    HW219410   2.750   4.377   0.689
 6171SOL     OW19411   2.170   3.619   1.705
 6171SOL    HW119412   2.175   3.566   1.790
 6171SOL    HW219413   2.074   3.631   1.679
 6172SOL     OW19414   2.825   5.849   2.654
 6172SOL    HW119415   2.853   5.910   2.580
 6172SOL    HW219416   2.732   5.872   2.683
 6173SOL     OW19417   1.554   5.723   2.175
 6173SOL    HW119418   1.637   5.763   2.213
 6173SOL    HW219419   1.487   5.708   2.248
 6174SOL     OW19420   6.081   4.636   2.135
 6174SOL    HW119421   6.000   4.674   2.090
 6174SOL    HW219422   6.112   4.699   2.206
 6175SOL     OW19423   5.192   0.370   3.434
 6175SOL    HW119424   5.277   0.339   3.391
 6175SOL    HW219425   5.139   0.290   3.463
 6176SOL     OW19426   5.139   3.174   6.489
 6176SOL    HW119427   5.089   3.214   6.565
 6176SOL    HW219428   5.092   3.196   6.403
 6177SOL     OW19429   6.735   3.186   2.083
 6177SOL    HW119430   6.684   3.111   2.041
 6177SOL    HW219431   6.672   3.252   2.123
 6178SOL     OW19432   5.727   3.374   2.045
 6178SOL    HW119433   5.775   3.308   1.987
 6178SOL    HW219434   5.748   3.466   2.013
 6179SOL     OW19435   0.492   1.955   5.129
 6179SOL    HW119436   0.543   1.927   5.210
 6179SOL    HW219437   0.406   1.904   5.124
 6180SOL     OW19438   3.582   0.028   6.104
 6180SOL    HW119439   3.572   6.970   6.049
 6180SOL    HW219440   3.608   0.105   6.046
 6181SOL     OW19441   4.057   5.936   6.718
 6181SOL    HW119442   4.110   5.853   6.739
 6181SOL    HW219443   4.089   5.974   6.632
 6182SOL     OW19444   4.978   6.374   6.139
 6182SOL    HW119445   5.032   6.295   6.111
 6182SOL    HW219446   5.039   6.446   6.172
 6183SOL     OW19447   3.237   0.744   2.846
 6183SOL    HW119448   3.298   0.752   2.924
 6183SOL    HW219449   3.199   0.651   2.843
 6184SOL     OW19450   6.065   0.424   6.722
 6184SOL    HW119451   6.094   0.454   6.631
 6184SOL    HW219452   6.075   0.499   6.787
 6185SOL     OW19453   1.355   3.188   5.606
 6185SOL    HW119454   1.405   3.170   5.521
 6185SOL    HW219455   1.402   3.143   5.682
 6186SOL     OW19456   5.239   6.959   4.500
 6186SOL    HW119457   5.230   6.914   4.589
 6186SOL    HW219458   5.149   6.995   4.473
 6187SOL     OW19459   2.773   4.717   4.644
 6187SOL    HW119460   2.731   4.626   4.651
 6187SOL    HW219461   2.809   4.743   4.733
 6188SOL     OW19462   2.854   0.058   1.461
 6188SOL    HW119463   2.830   7.013   1.392
 6188SOL    HW219464   2.808   0.144   1.439
 6189SOL     OW19465   5.244   4.481   2.997
 6189SOL    HW119466   5.199   4.538   3.066
 6189SOL    HW219467   5.196   4.393   2.990
 6190SOL     OW19468   5.189   2.922   5.727
 6190SOL    HW119469   5.168   2.969   5.812
 6190SOL    HW219470   5.105   2.884   5.689
 6191SOL     OW19471   6.349   2.580   6.421
 6191SOL    HW119472   6.395   2.501   6.462
 6191SOL    HW219473   6.253   2.558   6.404
 6192SOL     OW19474   3.149   2.124   0.506
 6192SOL    HW119475   3.069   2.065   0.513
 6192SOL    HW219476   3.209   2.109   0.585
 6193SOL     OW19477   5.920   6.604   1.204
 6193SOL    HW119478   5.947   6.698   1.182
 6193SOL    HW219479   5.917   6.592   1.303
 6194SOL     OW19480   1.750   0.636   0.557
 6194SOL    HW119481   1.676   0.581   0.597
 6194SOL    HW219482   1.818   0.654   0.628
 6195SOL     OW19483   2.812   6.658   6.097
 6195SOL    HW119484   2.712   6.657   6.101
 6195SOL    HW219485   2.848   6.577   6.142
 6196SOL     OW19486   0.155   1.198   5.882
 6196SOL    HW119487   0.178   1.291   5.856
 6196SOL    HW219488   0.207   1.172   5.963
 6197SOL     OW19489   2.184   3.123   0.736
 6197SOL    HW119490   2.233   3.042   0.770
 6197SOL    HW219491   2.174   3.116   0.637
 6198SOL     OW19492   4.064   5.109   2.360
 6198SOL    HW119493   4.026   5.018   2.377
 6198SOL    HW219494   4.007   5.158   2.294
 6199SOL     OW19495   1.105   0.669   6.127
 6199SOL    HW119496   1.036   0.606   6.093
 6199SOL    HW219497   1.149   0.630   6.209
 6200SOL     OW19498   3.940   0.780   6.228
 6200SOL    HW119499   3.893   0.780   6.316
 6200SOL    HW219500   3.908   0.858   6.173
 6201SOL     OW19501   2.407   4.449   3.998
 6201SOL    HW119502   2.339   4.383   4.032
 6201SOL    HW219503   2.434   4.510   4.072
 6202SOL     OW19504   3.149   2.805   1.484
 6202SOL    HW119505   3.063   2.857   1.481
 6202SOL    HW219506   3.128   2.707   1.486
 6203SOL     OW19507   5.234   2.053   5.127
 6203SOL    HW119508   5.302   2.094   5.188
 6203SOL    HW219509   5.198   1.969   5.168
 6204SOL     OW19510   1.676   6.715   6.019
 6204SOL    HW119511   1.679   6.618   6.046
 6204SOL    HW219512   1.670   6.722   5.920
 6205SOL     OW19513   4.931   6.454   0.154
 6205SOL    HW119514   5.029   6.474   0.152
 6205SOL    HW219515   4.906   6.400   0.073
 6206SOL     OW19516   5.359   0.002   3.387
 6206SOL    HW119517   5.316   6.939   3.365
 6206SOL    HW219518   5.374   0.054   3.302
 6207SOL     OW19519   1.876   4.345   4.458
 6207SOL    HW119520   1.893   4.370   4.362
 6207SOL    HW219521   1.936   4.399   4.517
 6208SOL     OW19522   5.517   5.913   6.100
 6208SOL    HW119523   5.448   5.858   6.146
 6208SOL    HW219524   5.608   5.881   6.125
 6209SOL     OW19525   3.216   5.081   0.930
 6209SOL    HW119526   3.278   5.012   0.892
 6209SOL    HW219527   3.169   5.127   0.855
 6210SOL     OW19528   6.956   5.052   2.963
 6210SOL    HW119529   6.922   5.013   2.878
 6210SOL    HW219530   6.980   4.978   3.026
 6211SOL     OW19531   2.640   0.317   5.060
 6211SOL    HW119532   2.704   0.255   5.105
 6211SOL    HW219533   2.677   0.342   4.970
 6212SOL     OW19534   0.003   6.989   3.844
 6212SOL    HW119535   7.017   0.046   3.788
 6212SOL    HW219536   0.017   7.015   3.939
 6213SOL     OW19537   6.756   0.272   0.108
 6213SOL    HW119538   6.816   0.294   0.032
 6213SOL    HW219539   6.811   0.261   0.192
 6214SOL     OW19540   5.812   5.086   2.479
 6214SOL    HW119541   5.858   5.032   2.549
 6214SOL    HW219542   5.876   5.155   2.444
 6215SOL     OW19543   2.273   5.008   1.087
 6215SOL    HW119544   2.291   4.963   1.175
 6215SOL    HW219545   2.317   4.956   1.014
 6216SOL     OW19546   6.620   1.936   2.467
 6216SOL    HW119547   6.652   2.031   2.458
 6216SOL    HW219548   6.641   1.903   2.559
 6217SOL     OW19549   5.361   2.651   1.726
 6217SOL    HW119550   5.357   2.692   1.635
 6217SOL    HW219551   5.457   2.636   1.751
 6218SOL     OW19552   3.894   4.882   4.446
 6218SOL    HW119553   3.798   4.892   4.422
 6218SOL    HW219554   3.903   4.868   4.544
 6219SOL     OW19555   0.741   1.503   4.120
 6219SOL    HW119556   0.827   1.532   4.077
 6219SOL    HW219557   0.679   1.582   4.127
 6220SOL     OW19558   1.622   3.896   5.132
 6220SOL    HW119559   1.570   3.874   5.214
 6220SOL    HW219560   1.571   3.963   5.078
 6221SOL     OW19561   4.506   5.189   4.447
 6221SOL    HW119562   4.488   5.238   4.532
 6221SOL    HW219563   4.444   5.221   4.376
 6222SOL     OW19564   0.424   1.541   1.271
 6222SOL    HW119565   0.520   1.525   1.291
 6222SOL    HW219566   0.404   1.639   1.276
 6223SOL     OW19567   5.245   3.945   4.284
 6223SOL    HW119568   5.308   3.894   4.226
 6223SOL    HW219569   5.164   3.889   4.303
 6224SOL     OW19570   2.739   0.362   4.779
 6224SOL    HW119571   2.795   0.435   4.741
 6224SOL    HW219572   2.649   0.363   4.735
 6225SOL     OW19573   4.307   2.246   6.632
 6225SOL    HW119574   4.248   2.272   6.556
 6225SOL    HW219575   4.278   2.295   6.715
 6226SOL     OW19576   6.614   6.562   4.260
 6226SOL    HW119577   6.520   6.533   4.244
 6226SOL    HW219578   6.630   6.573   4.359
 6227SOL     OW19579   2.704   4.615   6.721
 6227SOL    HW119580   2.728   4.518   6.729
 6227SOL    HW219581   2.753   4.655   6.644
 6228SOL     OW19582   6.929   1.196   2.515
 6228SOL    HW119583   7.003   1.183   2.581
 6228SOL    HW219584   6.967   1.201   2.423
 6229SOL     OW19585   1.403   2.469   2.251
 6229SOL    HW119586   1.386   2.521   2.167
 6229SOL    HW219587   1.437   2.531   2.322
 6230SOL     OW19588   1.782   2.203   3.464
 6230SOL    HW119589   1.725   2.150   3.401
 6230SOL    HW219590   1.807   2.290   3.421
 6231SOL     OW19591   6.804   5.165   1.739
 6231SOL    HW119592   6.876   5.177   1.671
 6231SOL    HW219593   6.734   5.235   1.727
 6232SOL     OW19594   0.941   1.571   6.642
 6232SOL    HW119595   0.964   1.628   6.721
 6232SOL    HW219596   1.018   1.571   6.578
 6233SOL     OW19597   4.466   1.616   6.492
 6233SOL    HW119598   4.539   1.677   6.522
 6233SOL    HW219599   4.386   1.629   6.551
 6234SOL     OW19600   1.738   2.692   3.273
 6234SOL    HW119601   1.759   2.785   3.244
 6234SOL    HW219602   1.665   2.655   3.216
 6235SOL     OW19603   2.072   6.079   2.967
 6235SOL    HW119604   1.991   6.034   3.005
 6235SOL    HW219605   2.047   6.169   2.933
 6236SOL     OW19606   6.801   3.955   0.233
 6236SOL    HW119607   6.707   3.989   0.227
 6236SOL    HW219608   6.859   4.006   0.170
 6237SOL     OW19609   3.709   6.156   6.928
 6237SOL    HW119610   3.683   6.190   6.837
 6237SOL    HW219611   3.643   6.087   6.958
 6238SOL     OW19612   4.412   4.069   1.000
 6238SOL    HW119613   4.398   4.166   1.022
 6238SOL    HW219614   4.491   4.061   0.938
 6239SOL     OW19615   2.478   0.383   3.744
 6239SOL    HW119616   2.396   0.425   3.707
 6239SOL    HW219617   2.453   0.318   3.816
 6240SOL     OW19618   2.142   3.642   0.426
 6240SOL    HW119619   2.125   3.706   0.351
 6240SOL    HW219620   2.056   3.603   0.456
 6241SOL     OW19621   4.539   0.427   1.530
 6241SOL    HW119622   4.602   0.437   1.607
 6241SOL    HW219623   4.487   0.342   1.540
 6242SOL     OW19624   3.739   2.094   3.701
 6242SOL    HW119625   3.642   2.086   3.719
 6242SOL    HW219626   3.788   2.113   3.786
 6243SOL     OW19627   5.428   5.240   3.120
 6243SOL    HW119628   5.479   5.157   3.138
 6243SOL    HW219629   5.476   5.319   3.158
 6244SOL     OW19630   1.884   2.044   2.212
 6244SOL    HW119631   1.881   2.046   2.112
 6244SOL    HW219632   1.908   2.135   2.246
 6245SOL     OW19633   2.185   3.840   0.804
 6245SOL    HW119634   2.198   3.886   0.716
 6245SOL    HW219635   2.115   3.769   0.794
 6246SOL     OW19636   4.076   0.712   6.983
 6246SOL    HW119637   4.011   0.750   0.024
 6246SOL    HW219638   4.163   0.693   0.005
 6247SOL     OW19639   6.664   5.838   2.875
 6247SOL    HW119640   6.729   5.773   2.837
 6247SOL    HW219641   6.648   5.816   2.971
 6248SOL     OW19642   1.123   5.221   1.455
 6248SOL    HW119643   1.080   5.134   1.431
 6248SOL    HW219644   1.167   5.212   1.545
 6249SOL     OW19645   5.403   4.238   6.359
 6249SOL    HW119646   5.450   4.214   6.444
 6249SOL    HW219647   5.389   4.156   6.304
 6250SOL     OW19648   5.919   5.335   5.887
 6250SOL    HW119649   5.922   5.272   5.810
 6250SOL    HW219650   5.934   5.285   5.972
 6251SOL     OW19651   4.472   1.804   0.857
 6251SOL    HW119652   4.381   1.807   0.816
 6251SOL    HW219653   4.520   1.723   0.826
 6252SOL     OW19654   1.940   6.131   5.408
 6252SOL    HW119655   2.017   6.184   5.443
 6252SOL    HW219656   1.967   6.081   5.326
 6253SOL     OW19657   2.428   4.351   1.488
 6253SOL    HW119658   2.436   4.320   1.393
 6253SOL    HW219659   2.370   4.432   1.492
 6254SOL     OW19660   5.442   0.279   0.343
 6254SOL    HW119661   5.397   0.360   0.305
 6254SOL    HW219662   5.430   0.278   0.442
 6255SOL     OW19663   0.024   2.295   2.867
 6255SOL    HW119664   6.989   2.369   2.836
 6255SOL    HW219665   7.011   2.208   2.836
 6256SOL     OW19666   3.655   5.145   3.920
 6256SOL    HW119667   3.667   5.242   3.939
 6256SOL    HW219668   3.618   5.133   3.828
 6257SOL     OW19669   4.234   2.813   0.496
 6257SOL    HW119670   4.217   2.905   0.460
 6257SOL    HW219671   4.150   2.759   0.489
 6258SOL     OW19672   4.922   2.494   2.774
 6258SOL    HW119673   4.990   2.472   2.705
 6258SOL    HW219674   4.833   2.510   2.730
 6259SOL     OW19675   3.087   2.203   1.783
 6259SOL    HW119676   3.046   2.285   1.822
 6259SOL    HW219677   3.109   2.219   1.687
 6260SOL     OW19678   3.498   3.482   0.646
 6260SOL    HW119679   3.573   3.477   0.580
 6260SOL    HW219680   3.460   3.575   0.647
 6261SOL     OW19681   4.665   0.661   6.707
 6261SOL    HW119682   4.597   0.720   6.663
 6261SOL    HW219683   4.620   0.579   6.743
 6262SOL     OW19684   0.440   5.967   5.237
 6262SOL    HW119685   0.447   6.064   5.261
 6262SOL    HW219686   0.408   5.916   5.317
 6263SOL     OW19687   6.442   1.204   0.798
 6263SOL    HW119688   6.474   1.195   0.703
 6263SOL    HW219689   6.432   1.301   0.820
 6264SOL     OW19690   2.048   1.567   6.699
 6264SOL    HW119691   1.987   1.631   6.652
 6264SOL    HW219692   2.033   1.575   6.798
 6265SOL     OW19693   4.728   3.880   1.185
 6265SOL    HW119694   4.789   3.937   1.129
 6265SOL    HW219695   4.702   3.799   1.133
 6266SOL     OW19696   2.587   6.889   2.106
 6266SOL    HW119697   2.636   6.862   2.189
 6266SOL    HW219698   2.652   6.898   2.031
 6267SOL     OW19699   2.335   7.014   6.523
 6267SOL    HW119700   2.282   6.936   6.554
 6267SOL    HW219701   2.403   6.985   6.456
 6268SOL     OW19702   3.078   5.374   2.952
 6268SOL    HW119703   3.047   5.368   3.047
 6268SOL    HW219704   2.999   5.363   2.891
 6269SOL     OW19705   6.095   4.838   0.493
 6269SOL    HW119706   6.154   4.761   0.517
 6269SOL    HW219707   6.150   4.910   0.452
 6270SOL     OW19708   0.829   1.184   4.495
 6270SOL    HW119709   0.782   1.272   4.505
 6270SOL    HW219710   0.927   1.200   4.485
 6271SOL     OW19711   6.134   1.832   1.085
 6271SOL    HW119712   6.158   1.929   1.097
 6271SOL    HW219713   6.177   1.778   1.157
 6272SOL     OW19714   1.817   2.153   3.720
 6272SOL    HW119715   1.825   2.180   3.623
 6272SOL    HW219716   1.909   2.146   3.759
 6273SOL     OW19717   4.368   0.607   2.375
 6273SOL    HW119718   4.384   0.545   2.452
 6273SOL    HW219719   4.340   0.555   2.295
 6274SOL     OW19720   2.571   6.473   6.582
 6274SOL    HW119721   2.498   6.521   6.534
 6274SOL    HW219722   2.615   6.535   6.647
 6275SOL     OW19723   2.921   0.399   4.312
 6275SOL    HW119724   2.940   0.322   4.251
 6275SOL    HW219725   2.994   0.467   4.302
 6276SOL     OW19726   1.526   5.126   3.778
 6276SOL    HW119727   1.494   5.034   3.800
 6276SOL    HW219728   1.451   5.191   3.791
 6277SOL     OW19729   5.827   3.141   3.925
 6277SOL    HW119730   5.849   3.239   3.931
 6277SOL    HW219731   5.815   3.105   4.018
 6278SOL     OW19732   4.684   0.883   4.390
 6278SOL    HW119733   4.777   0.863   4.420
 6278SOL    HW219734   4.648   0.805   4.339
 6279SOL     OW19735   4.793   1.498   6.992
 6279SOL    HW119736   4.852   1.459   0.039
 6279SOL    HW219737   4.724   1.556   0.011
 6280SOL     OW19738   0.766   5.277   5.993
 6280SOL    HW119739   0.669   5.279   5.966
 6280SOL    HW219740   0.823   5.306   5.917
 6281SOL     OW19741   2.806   6.711   5.267
 6281SOL    HW119742   2.851   6.622   5.256
 6281SOL    HW219743   2.825   6.768   5.187
 6282SOL     OW19744   1.368   0.280   3.152
 6282SOL    HW119745   1.345   0.182   3.150
 6282SOL    HW219746   1.290   0.331   3.187
 6283SOL     OW19747   0.743   3.268   5.364
 6283SOL    HW119748   0.689   3.319   5.431
 6283SOL    HW219749   0.697   3.269   5.276
 6284SOL     OW19750   2.054   4.915   6.272
 6284SOL    HW119751   2.052   5.013   6.294
 6284SOL    HW219752   2.138   4.893   6.222
 6285SOL     OW19753   2.188   4.500   2.774
 6285SOL    HW119754   2.205   4.428   2.841
 6285SOL    HW219755   2.275   4.537   2.742
 6286SOL     OW19756   6.040   0.002   5.193
 6286SOL    HW119757   6.074   0.096   5.201
 6286SOL    HW219758   6.003   7.013   5.101
 6287SOL     OW19759   3.918   4.890   2.545
 6287SOL    HW119760   3.884   4.857   2.457
 6287SOL    HW219761   3.841   4.918   2.602
 6288SOL     OW19762   5.237   3.804   1.294
 6288SOL    HW119763   5.238   3.899   1.261
 6288SOL    HW219764   5.177   3.750   1.236
 6289SOL     OW19765   1.069   6.773   2.409
 6289SOL    HW119766   1.024   6.814   2.330
 6289SOL    HW219767   1.020   6.690   2.435
 6290SOL     OW19768   6.208   3.184   3.619
 6290SOL    HW119769   6.126   3.137   3.651
 6290SOL    HW219770   6.185   3.277   3.590
 6291SOL     OW19771   4.097   3.647   3.267
 6291SOL    HW119772   4.076   3.570   3.327
 6291SOL    HW219773   4.130   3.724   3.323
 6292SOL     OW19774   0.062   1.660   1.847
 6292SOL    HW119775   0.089   1.696   1.937
 6292SOL    HW219776   0.084   1.563   1.842
 6293SOL     OW19777   5.297   4.962   0.805
 6293SOL    HW119778   5.374   4.986   0.747
 6293SOL    HW219779   5.253   4.880   0.770
 6294SOL     OW19780   3.731   5.707   2.368
 6294SOL    HW119781   3.746   5.737   2.274
 6294SOL    HW219782   3.769   5.774   2.431
 6295SOL     OW19783   6.736   6.351   5.850
 6295SOL    HW119784   6.681   6.307   5.779
 6295SOL    HW219785   6.709   6.314   5.939
 6296SOL     OW19786   0.113   0.813   2.320
 6296SOL    HW119787   0.050   0.862   2.260
 6296SOL    HW219788   0.091   0.715   2.319
 6297SOL     OW19789   5.764   0.894   5.458
 6297SOL    HW119790   5.833   0.869   5.390
 6297SOL    HW219791   5.691   0.825   5.458
 6298SOL     OW19792   0.079   1.647   4.128
 6298SOL    HW119793   0.033   1.563   4.098
 6298SOL    HW219794   0.019   1.699   4.188
 6299SOL     OW19795   6.015   3.121   0.622
 6299SOL    HW119796   6.064   3.206   0.606
 6299SOL    HW219797   6.072   3.058   0.675
 6300SOL     OW19798   4.952   1.429   3.800
 6300SOL    HW119799   4.912   1.442   3.709
 6300SOL    HW219800   4.981   1.518   3.836
 6301SOL     OW19801   2.942   0.715   0.797
 6301SOL    HW119802   2.988   0.626   0.787
 6301SOL    HW219803   2.872   0.724   0.727
 6302SOL     OW19804   0.029   0.797   2.584
 6302SOL    HW119805   0.039   0.802   2.484
 6302SOL    HW219806   6.961   0.823   2.609
 6303SOL     OW19807   1.834   5.787   4.935
 6303SOL    HW119808   1.782   5.703   4.948
 6303SOL    HW219809   1.815   5.825   4.845
 6304SOL     OW19810   4.012   1.199   5.236
 6304SOL    HW119811   4.019   1.294   5.268
 6304SOL    HW219812   3.982   1.140   5.311
 6305SOL     OW19813   5.439   1.570   2.211
 6305SOL    HW119814   5.340   1.566   2.221
 6305SOL    HW219815   5.464   1.551   2.116
 6306SOL     OW19816   6.154   2.698   4.610
 6306SOL    HW119817   6.128   2.765   4.541
 6306SOL    HW219818   6.252   2.703   4.626
 6307SOL     OW19819   1.901   4.960   0.106
 6307SOL    HW119820   1.963   4.888   0.074
 6307SOL    HW219821   1.945   5.011   0.180
 6308SOL     OW19822   3.556   2.543   5.564
 6308SOL    HW119823   3.631   2.486   5.599
 6308SOL    HW219824   3.468   2.503   5.590
 6309SOL     OW19825   5.929   2.070   5.091
 6309SOL    HW119826   6.019   2.053   5.131
 6309SOL    HW219827   5.876   2.128   5.153
 6310SOL     OW19828   0.439   5.328   4.226
 6310SOL    HW119829   0.487   5.346   4.312
 6310SOL    HW219830   0.482   5.379   4.152
 6311SOL     OW19831   5.918   6.254   3.826
 6311SOL    HW119832   6.010   6.252   3.865
 6311SOL    HW219833   5.881   6.161   3.824
 6312SOL     OW19834   5.142   4.730   5.445
 6312SOL    HW119835   5.180   4.673   5.518
 6312SOL    HW219836   5.145   4.826   5.472
 6313SOL     OW19837   2.978   5.093   3.727
 6313SOL    HW119838   3.043   5.027   3.765
 6313SOL    HW219839   3.002   5.114   3.633
 6314SOL     OW19840   1.534   6.833   3.768
 6314SOL    HW119841   1.608   6.854   3.704
 6314SOL    HW219842   1.567   6.767   3.836
 6315SOL     OW19843   2.269   4.019   0.594
 6315SOL    HW119844   2.316   3.938   0.558
 6315SOL    HW219845   2.335   4.091   0.613
 6316SOL     OW19846   4.556   1.454   5.605
 6316SOL    HW119847   4.503   1.531   5.639
 6316SOL    HW219848   4.561   1.459   5.505
 6317SOL     OW19849   6.033   5.162   4.449
 6317SOL    HW119850   6.122   5.207   4.441
 6317SOL    HW219851   5.985   5.166   4.362
 6318SOL     OW19852   1.918   2.112   4.473
 6318SOL    HW119853   1.965   2.185   4.423
 6318SOL    HW219854   1.885   2.148   4.560
 6319SOL     OW19855   0.953   1.834   2.895
 6319SOL    HW119856   1.017   1.854   2.822
 6319SOL    HW219857   1.001   1.833   2.983
 6320SOL     OW19858   0.364   1.735   3.169
 6320SOL    HW119859   0.276   1.767   3.202
 6320SOL    HW219860   0.357   1.639   3.143
 6321SOL     OW19861   2.671   3.897   5.890
 6321SOL    HW119862   2.650   3.920   5.795
 6321SOL    HW219863   2.692   3.981   5.940
 6322SOL     OW19864   1.812   0.661   6.455
 6322SOL    HW119865   1.762   0.695   6.535
 6322SOL    HW219866   1.757   0.676   6.373
 6323SOL     OW19867   4.429   1.388   1.028
 6323SOL    HW119868   4.498   1.456   1.053
 6323SOL    HW219869   4.375   1.363   1.109
 6324SOL     OW19870   3.763   2.259   5.934
 6324SOL    HW119871   3.679   2.296   5.973
 6324SOL    HW219872   3.840   2.280   5.994
 6325SOL     OW19873   1.592   2.480   2.894
 6325SOL    HW119874   1.647   2.546   2.842
 6325SOL    HW219875   1.646   2.445   2.971
 6326SOL     OW19876   4.255   6.221   1.192
 6326SOL    HW119877   4.275   6.305   1.242
 6326SOL    HW219878   4.192   6.164   1.246
 6327SOL     OW19879   3.978   5.182   5.986
 6327SOL    HW119880   4.059   5.125   5.970
 6327SOL    HW219881   3.900   5.144   5.935
 6328SOL     OW19882   2.964   4.678   6.449
 6328SOL    HW119883   3.024   4.757   6.439
 6328SOL    HW219884   2.961   4.627   6.363
 6329SOL     OW19885   1.338   1.414   2.675
 6329SOL    HW119886   1.298   1.462   2.597
 6329SOL    HW219887   1.297   1.447   2.760
 6330SOL     OW19888   3.615   0.860   0.177
 6330SOL    HW119889   3.579   0.898   0.091
 6330SOL    HW219890   3.593   0.923   0.252
 6331SOL     OW19891   5.568   2.755   2.350
 6331SOL    HW119892   5.580   2.853   2.340
 6331SOL    HW219893   5.653   2.708   2.324
 6332SOL     OW19894   5.275   6.528   2.747
 6332SOL    HW119895   5.275   6.534   2.847
 6332SOL    HW219896   5.253   6.435   2.719
 6333SOL     OW19897   1.918   5.284   2.981
 6333SOL    HW119898   1.835   5.228   2.987
 6333SOL    HW219899   1.978   5.247   2.911
 6334SOL     OW19900   2.818   1.711   2.737
 6334SOL    HW119901   2.734   1.699   2.685
 6334SOL    HW219902   2.803   1.684   2.832
 6335SOL     OW19903   0.473   1.687   0.313
 6335SOL    HW119904   0.459   1.761   0.247
 6335SOL    HW219905   0.435   1.602   0.276
 6336SOL     OW19906   1.265   3.092   5.065
 6336SOL    HW119907   1.351   3.062   5.105
 6336SOL    HW219908   1.244   3.184   5.097
 6337SOL     OW19909   6.921   4.910   4.737
 6337SOL    HW119910   6.825   4.939   4.737
 6337SOL    HW219911   6.944   4.872   4.827
 6338SOL     OW19912   3.874   0.966   4.147
 6338SOL    HW119913   3.824   1.052   4.142
 6338SOL    HW219914   3.918   0.947   4.058
 6339SOL     OW19915   0.451   2.772   4.823
 6339SOL    HW119916   0.522   2.705   4.800
 6339SOL    HW219917   0.361   2.733   4.802
 6340SOL     OW19918   2.647   5.357   3.892
 6340SOL    HW119919   2.550   5.375   3.876
 6340SOL    HW219920   2.664   5.259   3.887
 6341SOL     OW19921   6.533   5.367   2.210
 6341SOL    HW119922   6.575   5.411   2.131
 6341SOL    HW219923   6.594   5.297   2.246
 6342SOL     OW19924   1.326   3.477   0.745
 6342SOL    HW119925   1.284   3.537   0.813
 6342SOL    HW219926   1.271   3.394   0.735
 6343SOL     OW19927   4.576   0.907   0.448
 6343SOL    HW119928   4.642   0.870   0.383
 6343SOL    HW219929   4.495   0.940   0.399
 6344SOL     OW19930   6.839   4.650   4.636
 6344SOL    HW119931   6.752   4.656   4.587
 6344SOL    HW219932   6.864   4.740   4.671
 6345SOL     OW19933   2.579   2.363   1.937
 6345SOL    HW119934   2.675   2.348   1.962
 6345SOL    HW219935   2.569   2.354   1.838
 6346SOL     OW19936   0.545   5.659   4.232
 6346SOL    HW119937   0.616   5.599   4.196
 6346SOL    HW219938   0.492   5.698   4.156
 6347SOL     OW19939   2.829   0.261   0.835
 6347SOL    HW119940   2.865   0.168   0.833
 6347SOL    HW219941   2.891   0.320   0.887
 6348SOL     OW19942   1.006   2.546   4.835
 6348SOL    HW119943   1.027   2.574   4.929
 6348SOL    HW219944   0.993   2.447   4.833
 6349SOL     OW19945   1.717   0.924   0.472
 6349SOL    HW119946   1.747   0.829   0.482
 6349SOL    HW219947   1.617   0.928   0.474
 6350SOL     OW19948   0.458   5.226   3.386
 6350SOL    HW119949   0.394   5.250   3.459
 6350SOL    HW219950   0.408   5.191   3.307
 6351SOL     OW19951   6.647   1.496   2.963
 6351SOL    HW119952   6.669   1.414   3.016
 6351SOL    HW219953   6.726   1.558   2.964
 6352SOL     OW19954   0.513   5.385   2.282
 6352SOL    HW119955   0.582   5.406   2.351
 6352SOL    HW219956   0.556   5.382   2.192
 6353SOL     OW19957   0.354   6.486   1.934
 6353SOL    HW119958   0.290   6.518   2.004
 6353SOL    HW219959   0.393   6.398   1.960
 6354SOL     OW19960   6.856   6.744   4.680
 6354SOL    HW119961   6.787   6.809   4.713
 6354SOL    HW219962   6.841   6.725   4.583
 6355SOL     OW19963   1.019   2.875   2.339
 6355SOL    HW119964   0.931   2.922   2.349
 6355SOL    HW219965   1.050   2.842   2.428
 6356SOL     OW19966   3.284   2.998   0.714
 6356SOL    HW119967   3.277   3.097   0.701
 6356SOL    HW219968   3.280   2.953   0.624
 6357SOL     OW19969   4.969   1.872   0.780
 6357SOL    HW119970   5.050   1.817   0.798
 6357SOL    HW219971   4.944   1.865   0.684
 6358SOL     OW19972   0.847   3.490   4.059
 6358SOL    HW119973   0.763   3.469   4.107
 6358SOL    HW219974   0.847   3.586   4.031
 6359SOL     OW19975   0.208   1.985   6.677
 6359SOL    HW119976   0.237   1.889   6.674
 6359SOL    HW219977   0.150   1.999   6.757
 6360SOL     OW19978   3.224   5.148   4.418
 6360SOL    HW119979   3.140   5.131   4.470
 6360SOL    HW219980   3.210   5.124   4.322
 6361SOL     OW19981   3.172   6.634   6.092
 6361SOL    HW119982   3.077   6.607   6.103
 6361SOL    HW219983   3.181   6.732   6.114
 6362SOL     OW19984   6.112   5.152   6.542
 6362SOL    HW119985   6.138   5.090   6.468
 6362SOL    HW219986   6.021   5.187   6.525
 6363SOL     OW19987   0.875   5.867   4.228
 6363SOL    HW119988   0.810   5.929   4.184
 6363SOL    HW219989   0.945   5.920   4.275
 6364SOL     OW19990   1.927   2.768   6.661
 6364SOL    HW119991   1.972   2.680   6.644
 6364SOL    HW219992   1.975   2.840   6.609
 6365SOL     OW19993   4.686   5.327   2.829
 6365SOL    HW119994   4.743   5.405   2.804
 6365SOL    HW219995   4.617   5.313   2.758
 6366SOL     OW19996   0.176   4.571   5.097
 6366SOL    HW119997   0.248   4.549   5.163
 6366SOL    HW219998   0.190   4.665   5.064
 6367SOL     OW19999   6.141   6.530   2.625
 6367SOL    HW120000   6.206   6.606   2.631
 6367SOL    HW220001   6.138   6.483   2.713
 6368SOL     OW20002   3.502   0.710   3.374
 6368SOL    HW120003   3.446   0.670   3.446
 6368SOL    HW220004   3.598   0.710   3.402
 6369SOL     OW20005   2.246   5.175   5.482
 6369SOL    HW120006   2.173   5.205   5.544
 6369SOL    HW220007   2.215   5.185   5.387
 6370SOL     OW20008   5.606   2.600   1.923
 6370SOL    HW120009   5.696   2.586   1.883
 6370SOL    HW220010   5.591   2.697   1.938
 6371SOL     OW20011   4.631   1.704   4.121
 6371SOL    HW120012   4.642   1.661   4.032
 6371SOL    HW220013   4.554   1.662   4.170
 6372SOL     OW20014   3.258   6.549   2.166
 6372SOL    HW120015   3.172   6.542   2.216
 6372SOL    HW220016   3.260   6.636   2.116
 6373SOL     OW20017   3.122   5.452   0.324
 6373SOL    HW120018   3.210   5.406   0.334
 6373SOL    HW220019   3.072   5.410   0.248
 6374SOL     OW20020   3.154   3.040   2.731
 6374SOL    HW120021   3.079   3.001   2.784
 6374SOL    HW220022   3.158   3.139   2.747
 6375SOL     OW20023   1.783   5.863   2.263
 6375SOL    HW120024   1.754   5.949   2.222
 6375SOL    HW220025   1.882   5.855   2.259
 6376SOL     OW20026   0.574   2.511   5.061
 6376SOL    HW120027   0.527   2.424   5.075
 6376SOL    HW220028   0.609   2.515   4.967
 6377SOL     OW20029   0.962   2.006   3.546
 6377SOL    HW120030   0.880   1.952   3.562
 6377SOL    HW220031   0.943   2.077   3.478
 6378SOL     OW20032   4.513   5.012   3.175
 6378SOL    HW120033   4.598   4.980   3.218
 6378SOL    HW220034   4.478   5.091   3.226
 6379SOL     OW20035   2.492   4.796   2.027
 6379SOL    HW120036   2.436   4.803   2.109
 6379SOL    HW220037   2.503   4.887   1.986
 6380SOL     OW20038   1.145   0.666   5.825
 6380SOL    HW120039   1.148   0.664   5.925
 6380SOL    HW220040   1.081   0.597   5.792
 6381SOL     OW20041   2.970   3.211   2.056
 6381SOL    HW120042   2.950   3.308   2.040
 6381SOL    HW220043   2.958   3.160   1.971
 6382SOL     OW20044   0.886   4.670   4.860
 6382SOL    HW120045   0.795   4.710   4.847
 6382SOL    HW220046   0.955   4.743   4.857
 6383SOL     OW20047   4.283   1.401   4.099
 6383SOL    HW120048   4.351   1.472   4.118
 6383SOL    HW220049   4.273   1.342   4.179
 6384SOL     OW20050   0.046   4.705   2.431
 6384SOL    HW120051   7.021   4.785   2.397
 6384SOL    HW220052   0.118   4.681   2.366
 6385SOL     OW20053   1.043   5.955   4.897
 6385SOL    HW120054   1.048   6.055   4.890
 6385SOL    HW220055   1.061   5.915   4.807
 6386SOL     OW20056   2.383   5.570   1.665
 6386SOL    HW120057   2.421   5.628   1.736
 6386SOL    HW220058   2.390   5.615   1.576
 6387SOL     OW20059   6.476   1.188   5.612
 6387SOL    HW120060   6.478   1.274   5.664
 6387SOL    HW220061   6.460   1.112   5.675
 6388SOL     OW20062   2.148   5.282   2.810
 6388SOL    HW120063   2.141   5.185   2.787
 6388SOL    HW220064   2.212   5.294   2.886
 6389SOL     OW20065   0.955   4.977   1.431
 6389SOL    HW120066   0.868   5.000   1.473
 6389SOL    HW220067   0.997   4.901   1.481
 6390SOL     OW20068   0.610   2.760   4.274
 6390SOL    HW120069   0.551   2.829   4.233
 6390SOL    HW220070   0.706   2.784   4.258
 6391SOL     OW20071   3.583   1.023   6.971
 6391SOL    HW120072   3.571   1.011   6.873
 6391SOL    HW220073   3.647   1.098   6.988
 6392SOL     OW20074   1.661   5.911   4.003
 6392SOL    HW120075   1.726   5.858   4.058
 6392SOL    HW220076   1.568   5.889   4.033
 6393SOL     OW20077   5.381   1.482   0.815
 6393SOL    HW120078   5.467   1.531   0.829
 6393SOL    HW220079   5.312   1.516   0.879
 6394SOL     OW20080   3.353   4.817   1.752
 6394SOL    HW120081   3.425   4.759   1.789
 6394SOL    HW220082   3.378   4.913   1.762
 6395SOL     OW20083   6.103   2.235   0.215
 6395SOL    HW120084   6.084   2.208   0.121
 6395SOL    HW220085   6.054   2.175   0.278
 6396SOL     OW20086   6.824   3.815   5.754
 6396SOL    HW120087   6.744   3.813   5.814
 6396SOL    HW220088   6.806   3.762   5.672
 6397SOL     OW20089   6.828   0.983   0.337
 6397SOL    HW120090   6.764   1.044   0.383
 6397SOL    HW220091   6.922   1.015   0.353
 6398SOL     OW20092   3.822   0.898   1.152
 6398SOL    HW120093   3.738   0.874   1.104
 6398SOL    HW220094   3.889   0.935   1.087
 6399SOL     OW20095   2.214   6.435   6.549
 6399SOL    HW120096   2.261   6.349   6.571
 6399SOL    HW220097   2.282   6.505   6.529
 6400SOL     OW20098   2.637   4.810   4.262
 6400SOL    HW120099   2.735   4.820   4.277
 6400SOL    HW220100   2.589   4.889   4.301
 6401SOL     OW20101   0.990   4.209   4.973
 6401SOL    HW120102   0.963   4.304   4.991
 6401SOL    HW220103   1.035   4.204   4.884
 6402SOL     OW20104   1.868   2.479   3.383
 6402SOL    HW120105   1.854   2.575   3.410
 6402SOL    HW220106   1.879   2.474   3.284
 6403SOL     OW20107   1.139   6.898   1.382
 6403SOL    HW120108   1.097   6.874   1.295
 6403SOL    HW220109   1.199   6.977   1.368
 6404SOL     OW20110   5.015   0.902   2.983
 6404SOL    HW120111   5.027   0.821   3.040
 6404SOL    HW220112   4.918   0.912   2.960
 6405SOL     OW20113   3.436   0.874   1.717
 6405SOL    HW120114   3.501   0.830   1.779
 6405SOL    HW220115   3.437   0.973   1.732
 6406SOL     OW20116   2.564   2.057   3.743
 6406SOL    HW120117   2.604   1.968   3.719
 6406SOL    HW220118   2.490   2.044   3.809
 6407SOL     OW20119   5.207   5.345   5.946
 6407SOL    HW120120   5.169   5.351   5.853
 6407SOL    HW220121   5.134   5.361   6.012
 6408SOL     OW20122   5.718   2.318   0.663
 6408SOL    HW120123   5.716   2.416   0.643
 6408SOL    HW220124   5.740   2.305   0.760
 6409SOL     OW20125   0.766   4.978   1.979
 6409SOL    HW120126   0.667   4.993   1.974
 6409SOL    HW220127   0.807   5.047   2.038
 6410SOL     OW20128   1.208   1.142   2.017
 6410SOL    HW120129   1.108   1.133   2.015
 6410SOL    HW220130   1.241   1.125   2.110
 6411SOL     OW20131   1.193   1.265   3.522
 6411SOL    HW120132   1.281   1.222   3.540
 6411SOL    HW220133   1.175   1.263   3.423
 6412SOL     OW20134   6.317   2.934   4.327
 6412SOL    HW120135   6.312   2.839   4.298
 6412SOL    HW220136   6.401   2.976   4.291
 6413SOL     OW20137   0.490   4.854   1.040
 6413SOL    HW120138   0.574   4.804   1.023
 6413SOL    HW220139   0.439   4.864   0.954
 6414SOL     OW20140   6.310   6.709   2.799
 6414SOL    HW120141   6.262   6.756   2.873
 6414SOL    HW220142   6.341   6.776   2.732
 6415SOL     OW20143   1.799   1.553   2.494
 6415SOL    HW120144   1.708   1.513   2.485
 6415SOL    HW220145   1.812   1.623   2.423
 6416SOL     OW20146   2.556   6.621   6.147
 6416SOL    HW120147   2.559   6.521   6.149
 6416SOL    HW220148   2.471   6.651   6.105
 6417SOL     OW20149   0.702   6.698   3.992
 6417SOL    HW120150   0.642   6.715   3.914
 6417SOL    HW220151   0.796   6.718   3.966
 6418SOL     OW20152   0.036   5.828   2.738
 6418SOL    HW120153   0.071   5.905   2.685
 6418SOL    HW220154   6.962   5.820   2.725
 6419SOL     OW20155   2.475   3.635   0.971
 6419SOL    HW120156   2.440   3.722   1.007
 6419SOL    HW220157   2.572   3.644   0.951
 6420SOL     OW20158   1.021   3.166   6.550
 6420SOL    HW120159   0.923   3.149   6.532
 6420SOL    HW220160   1.069   3.173   6.463
 6421SOL     OW20161   5.811   2.293   0.298
 6421SOL    HW120162   5.787   2.376   0.247
 6421SOL    HW220163   5.872   2.316   0.373
 6422SOL     OW20164   5.877   2.546   3.011
 6422SOL    HW120165   5.874   2.553   3.111
 6422SOL    HW220166   5.921   2.460   2.985
 6423SOL     OW20167   4.669   4.093   0.867
 6423SOL    HW120168   4.758   4.060   0.834
 6423SOL    HW220169   4.674   4.191   0.884
 6424SOL     OW20170   6.461   4.288   4.954
 6424SOL    HW120171   6.504   4.288   4.864
 6424SOL    HW220172   6.527   4.261   5.023
 6425SOL     OW20173   0.339   5.287   1.071
 6425SOL    HW120174   0.268   5.240   1.019
 6425SOL    HW220175   0.393   5.221   1.123
 6426SOL     OW20176   6.982   3.148   3.397
 6426SOL    HW120177   6.963   3.217   3.467
 6426SOL    HW220178   6.912   3.154   3.325
 6427SOL     OW20179   1.039   2.670   5.814
 6427SOL    HW120180   0.948   2.662   5.854
 6427SOL    HW220181   1.098   2.723   5.875
 6428SOL     OW20182   6.490   3.256   4.355
 6428SOL    HW120183   6.547   3.329   4.393
 6428SOL    HW220184   6.428   3.222   4.426
 6429SOL     OW20185   0.964   1.013   5.091
 6429SOL    HW120186   1.010   1.101   5.105
 6429SOL    HW220187   0.905   1.019   5.011
 6430SOL     OW20188   6.116   3.184   7.013
 6430SOL    HW120189   6.047   3.254   6.993
 6430SOL    HW220190   6.203   3.210   6.970
 6431SOL     OW20191   5.766   1.133   3.043
 6431SOL    HW120192   5.831   1.112   2.970
 6431SOL    HW220193   5.701   1.058   3.053
 6432SOL     OW20194   5.972   3.887   0.427
 6432SOL    HW120195   6.018   3.823   0.490
 6432SOL    HW220196   5.897   3.840   0.382
 6433SOL     OW20197   2.516   3.613   1.621
 6433SOL    HW120198   2.516   3.631   1.523
 6433SOL    HW220199   2.584   3.671   1.665
 6434SOL     OW20200   1.657   4.994   0.267
 6434SOL    HW120201   1.724   4.991   0.194
 6434SOL    HW220202   1.582   4.931   0.247
 6435SOL     OW20203   4.836   3.524   0.870
 6435SOL    HW120204   4.924   3.558   0.835
 6435SOL    HW220205   4.852   3.472   0.954
 6436SOL     OW20206   1.795   2.488   2.156
 6436SOL    HW120207   1.881   2.469   2.108
 6436SOL    HW220208   1.796   2.443   2.245
 6437SOL     OW20209   0.388   1.046   0.085
 6437SOL    HW120210   0.408   1.087   7.020
 6437SOL    HW220211   0.451   1.084   0.153
 6438SOL     OW20212   1.205   3.835   4.103
 6438SOL    HW120213   1.208   3.746   4.059
 6438SOL    HW220214   1.242   3.828   4.196
 6439SOL     OW20215   0.428   6.353   2.286
 6439SOL    HW120216   0.490   6.377   2.359
 6439SOL    HW220217   0.336   6.385   2.307
 6440SOL     OW20218   0.497   0.755   1.833
 6440SOL    HW120219   0.449   0.687   1.889
 6440SOL    HW220220   0.431   0.819   1.795
 6441SOL     OW20221   4.094   1.570   2.977
 6441SOL    HW120222   4.027   1.627   3.025
 6441SOL    HW220223   4.186   1.609   2.989
 6442SOL     OW20224   3.127   0.233   3.281
 6442SOL    HW120225   3.192   0.254   3.354
 6442SOL    HW220226   3.044   0.194   3.320
 6443SOL     OW20227   2.385   0.882   0.257
 6443SOL    HW120228   2.404   0.971   0.299
 6443SOL    HW220229   2.467   0.825   0.261
 6444SOL     OW20230   0.493   1.141   2.904
 6444SOL    HW120231   0.399   1.149   2.936
 6444SOL    HW220232   0.551   1.204   2.955
 6445SOL     OW20233   3.565   4.107   5.801
 6445SOL    HW120234   3.538   4.094   5.897
 6445SOL    HW220235   3.650   4.161   5.798
 6446SOL     OW20236   0.008   2.274   0.770
 6446SOL    HW120237   6.935   2.295   0.780
 6446SOL    HW220238   0.028   2.188   0.818
 6447SOL     OW20239   1.768   0.157   2.921
 6447SOL    HW120240   1.724   0.164   3.011
 6447SOL    HW220241   1.700   0.133   2.852
 6448SOL     OW20242   6.848   2.452   2.754
 6448SOL    HW120243   6.852   2.394   2.673
 6448SOL    HW220244   6.912   2.528   2.744
 6449SOL     OW20245   4.054   2.648   1.123
 6449SOL    HW120246   4.075   2.698   1.207
 6449SOL    HW220247   3.967   2.600   1.135
 6450SOL     OW20248   6.797   3.340   0.226
 6450SOL    HW120249   6.706   3.360   0.262
 6450SOL    HW220250   6.836   3.264   0.278
 6451SOL     OW20251   2.345   6.462   3.896
 6451SOL    HW120252   2.386   6.539   3.945
 6451SOL    HW220253   2.264   6.431   3.945
 6452SOL     OW20254   4.108   5.969   4.608
 6452SOL    HW120255   4.196   5.962   4.655
 6452SOL    HW220256   4.117   6.030   4.529
 6453SOL     OW20257   1.836   5.443   6.804
 6453SOL    HW120258   1.780   5.479   6.879
 6453SOL    HW220259   1.922   5.407   6.842
 6454SOL     OW20260   3.426   1.142   4.836
 6454SOL    HW120261   3.408   1.052   4.796
 6454SOL    HW220262   3.470   1.130   4.925
 6455SOL     OW20263   5.808   3.161   6.340
 6455SOL    HW120264   5.730   3.131   6.285
 6455SOL    HW220265   5.775   3.223   6.413
 6456SOL     OW20266   0.132   1.013   4.775
 6456SOL    HW120267   0.055   1.048   4.722
 6456SOL    HW220268   0.211   1.000   4.715
 6457SOL     OW20269   5.980   2.407   2.548
 6457SOL    HW120270   5.997   2.495   2.502
 6457SOL    HW220271   5.908   2.358   2.500
 6458SOL     OW20272   1.431   6.424   3.486
 6458SOL    HW120273   1.382   6.356   3.433
 6458SOL    HW220274   1.404   6.418   3.582
 6459SOL     OW20275   5.248   4.538   0.837
 6459SOL    HW120276   5.237   4.444   0.804
 6459SOL    HW220277   5.188   4.552   0.916
 6460SOL     OW20278   3.010   4.830   1.186
 6460SOL    HW120279   3.097   4.810   1.231
 6460SOL    HW220280   2.975   4.918   1.220
 6461SOL     OW20281   3.106   6.201   5.499
 6461SOL    HW120282   3.119   6.196   5.597
 6461SOL    HW220283   3.009   6.214   5.479
 6462SOL     OW20284   2.113   3.182   3.139
 6462SOL    HW120285   2.052   3.195   3.217
 6462SOL    HW220286   2.149   3.271   3.110
 6463SOL     OW20287   0.798   3.953   5.706
 6463SOL    HW120288   0.745   3.959   5.621
 6463SOL    HW220289   0.844   3.864   5.710
 6464SOL     OW20290   1.642   5.236   2.147
 6464SOL    HW120291   1.714   5.304   2.131
 6464SOL    HW220292   1.556   5.283   2.168
 6465SOL     OW20293   6.344   0.747   2.666
 6465SOL    HW120294   6.344   0.819   2.596
 6465SOL    HW220295   6.333   0.790   2.757
 6466SOL     OW20296   6.901   2.337   5.182
 6466SOL    HW120297   6.916   2.335   5.281
 6466SOL    HW220298   6.835   2.267   5.157
 6467SOL     OW20299   3.607   0.676   6.179
 6467SOL    HW120300   3.582   0.762   6.133
 6467SOL    HW220301   3.678   0.694   6.247
 6468SOL     OW20302   5.173   4.272   1.979
 6468SOL    HW120303   5.228   4.274   1.895
 6468SOL    HW220304   5.097   4.335   1.970
 6469SOL     OW20305   6.235   1.167   5.859
 6469SOL    HW120306   6.236   1.249   5.916
 6469SOL    HW220307   6.323   1.120   5.866
 6470SOL     OW20308   6.240   6.101   4.602
 6470SOL    HW120309   6.165   6.067   4.659
 6470SOL    HW220310   6.321   6.115   4.659
 6471SOL     OW20311   5.838   5.781   5.585
 6471SOL    HW120312   5.934   5.810   5.583
 6471SOL    HW220313   5.834   5.681   5.596
 6472SOL     OW20314   1.743   6.151   1.317
 6472SOL    HW120315   1.669   6.161   1.383
 6472SOL    HW220316   1.792   6.238   1.309
 6473SOL     OW20317   2.802   0.514   5.239
 6473SOL    HW120318   2.718   0.537   5.288
 6473SOL    HW220319   2.786   0.518   5.141
 6474SOL     OW20320   2.601   3.267   5.887
 6474SOL    HW120321   2.660   3.196   5.847
 6474SOL    HW220322   2.613   3.352   5.836
 6475SOL     OW20323   5.085   5.433   3.575
 6475SOL    HW120324   5.116   5.517   3.531
 6475SOL    HW220325   5.139   5.417   3.657
 6476SOL     OW20326   5.411   4.810   2.383
 6476SOL    HW120327   5.477   4.772   2.317
 6476SOL    HW220328   5.318   4.789   2.352
 6477SOL     OW20329   6.504   6.637   0.258
 6477SOL    HW120330   6.537   6.706   0.194
 6477SOL    HW220331   6.554   6.646   0.345
 6478SOL     OW20332   5.083   6.103   1.619
 6478SOL    HW120333   5.037   6.016   1.638
 6478SOL    HW220334   5.182   6.089   1.618
 6479SOL     OW20335   3.598   6.142   2.612
 6479SOL    HW120336   3.671   6.087   2.572
 6479SOL    HW220337   3.564   6.097   2.695
 6480SOL     OW20338   2.875   1.237   1.404
 6480SOL    HW120339   2.921   1.206   1.321
 6480SOL    HW220340   2.791   1.284   1.379
 6481SOL     OW20341   4.609   0.862   1.092
 6481SOL    HW120342   4.527   0.840   1.146
 6481SOL    HW220343   4.601   0.956   1.057
 6482SOL     OW20344   0.024   0.332   6.429
 6482SOL    HW120345   0.052   0.239   6.402
 6482SOL    HW220346   0.047   0.347   6.525
 6483SOL     OW20347   2.087   5.836   1.839
 6483SOL    HW120348   2.027   5.903   1.882
 6483SOL    HW220349   2.179   5.843   1.878
 6484SOL     OW20350   5.400   6.662   3.839
 6484SOL    HW120351   5.355   6.582   3.799
 6484SOL    HW220352   5.345   6.697   3.915
 6485SOL     OW20353   0.835   2.872   3.201
 6485SOL    HW120354   0.748   2.913   3.230
 6485SOL    HW220355   0.826   2.772   3.200
 6486SOL     OW20356   1.947   3.242   3.357
 6486SOL    HW120357   2.015   3.312   3.380
 6486SOL    HW220358   1.935   3.180   3.435
 6487SOL     OW20359   5.830   5.130   3.222
 6487SOL    HW120360   5.752   5.172   3.177
 6487SOL    HW220361   5.822   5.030   3.217
 6488SOL     OW20362   3.344   5.247   5.901
 6488SOL    HW120363   3.269   5.195   5.944
 6488SOL    HW220364   3.324   5.345   5.907
 6489SOL     OW20365   2.505   2.048   6.224
 6489SOL    HW120366   2.603   2.036   6.207
 6489SOL    HW220367   2.457   1.962   6.204
 6490SOL     OW20368   5.025   1.502   0.875
 6490SOL    HW120369   5.116   1.475   0.844
 6490SOL    HW220370   5.033   1.555   0.960
 6491SOL     OW20371   4.609   0.849   6.143
 6491SOL    HW120372   4.520   0.893   6.151
 6491SOL    HW220373   4.603   0.775   6.075
 6492SOL     OW20374   5.665   6.265   5.907
 6492SOL    HW120375   5.659   6.305   5.816
 6492SOL    HW220376   5.758   6.229   5.921
 6493SOL     OW20377   1.224   6.488   5.336
 6493SOL    HW120378   1.126   6.504   5.328
 6493SOL    HW220379   1.242   6.389   5.331
 6494SOL     OW20380   1.405   0.416   3.652
 6494SOL    HW120381   1.376   0.392   3.559
 6494SOL    HW220382   1.354   0.360   3.718
 6495SOL     OW20383   5.690   4.494   2.243
 6495SOL    HW120384   5.644   4.406   2.254
 6495SOL    HW220385   5.789   4.482   2.255
 6496SOL     OW20386   0.704   6.349   3.224
 6496SOL    HW120387   0.662   6.426   3.272
 6496SOL    HW220388   0.748   6.381   3.140
 6497SOL     OW20389   0.283   5.842   0.157
 6497SOL    HW120390   0.259   5.801   0.069
 6497SOL    HW220391   0.254   5.937   0.159
 6498SOL     OW20392   1.180   4.366   3.868
 6498SOL    HW120393   1.080   4.361   3.880
 6498SOL    HW220394   1.222   4.281   3.900
 6499SOL     OW20395   6.099   1.381   3.285
 6499SOL    HW120396   6.138   1.384   3.193
 6499SOL    HW220397   6.020   1.319   3.285
 6500SOL     OW20398   5.859   4.855   3.217
 6500SOL    HW120399   5.799   4.776   3.209
 6500SOL    HW220400   5.933   4.848   3.150
 6501SOL     OW20401   6.877   3.397   0.793
 6501SOL    HW120402   6.870   3.457   0.872
 6501SOL    HW220403   6.878   3.302   0.823
 6502SOL     OW20404   1.217   5.157   1.694
 6502SOL    HW120405   1.300   5.105   1.676
 6502SOL    HW220406   1.149   5.097   1.737
 6503SOL     OW20407   4.603   0.152   4.578
 6503SOL    HW120408   4.523   0.096   4.596
 6503SOL    HW220409   4.634   0.195   4.663
 6504SOL     OW20410   1.665   1.051   0.802
 6504SOL    HW120411   1.676   0.987   0.878
 6504SOL    HW220412   1.621   1.003   0.725
 6505SOL     OW20413   5.767   5.484   0.641
 6505SOL    HW120414   5.738   5.579   0.654
 6505SOL    HW220415   5.757   5.459   0.545
 6506SOL     OW20416   2.146   1.512   0.711
 6506SOL    HW120417   2.063   1.457   0.722
 6506SOL    HW220418   2.202   1.472   0.639
 6507SOL     OW20419   2.978   0.615   2.155
 6507SOL    HW120420   2.880   0.617   2.136
 6507SOL    HW220421   3.029   0.630   2.071
 6508SOL     OW20422   2.358   1.458   2.437
 6508SOL    HW120423   2.282   1.438   2.498
 6508SOL    HW220424   2.349   1.551   2.401
 6509SOL     OW20425   0.517   2.812   4.024
 6509SOL    HW120426   0.608   2.853   4.021
 6509SOL    HW220427   0.510   2.739   3.956
 6510SOL     OW20428   6.008   4.861   6.603
 6510SOL    HW120429   6.092   4.869   6.550
 6510SOL    HW220430   5.972   4.768   6.595
 6511SOL     OW20431   6.878   6.726   5.734
 6511SOL    HW120432   6.948   6.795   5.756
 6511SOL    HW220433   6.892   6.645   5.791
 6512SOL     OW20434   5.265   5.853   3.836
 6512SOL    HW120435   5.279   5.773   3.779
 6512SOL    HW220436   5.168   5.875   3.841
 6513SOL     OW20437   1.600   6.921   3.487
 6513SOL    HW120438   1.501   6.938   3.482
 6513SOL    HW220439   1.647   6.981   3.422
 6514SOL     OW20440   3.371   0.163   3.781
 6514SOL    HW120441   3.303   0.140   3.851
 6514SOL    HW220442   3.460   0.127   3.808
 6515SOL     OW20443   0.796   1.113   3.480
 6515SOL    HW120444   0.857   1.080   3.408
 6515SOL    HW220445   0.729   1.042   3.503
 6516SOL     OW20446   1.333   1.486   6.110
 6516SOL    HW120447   1.403   1.417   6.122
 6516SOL    HW220448   1.295   1.480   6.017
 6517SOL     OW20449   1.905   1.881   0.844
 6517SOL    HW120450   1.918   1.789   0.881
 6517SOL    HW220451   1.849   1.935   0.908
 6518SOL     OW20452   5.618   6.270   1.041
 6518SOL    HW120453   5.651   6.184   1.003
 6518SOL    HW220454   5.518   6.269   1.042
 6519SOL     OW20455   1.320   2.528   3.587
 6519SOL    HW120456   1.293   2.509   3.681
 6519SOL    HW220457   1.409   2.574   3.586
 6520SOL     OW20458   5.840   5.457   1.842
 6520SOL    HW120459   5.790   5.515   1.906
 6520SOL    HW220460   5.847   5.502   1.753
 6521SOL     OW20461   1.469   2.369   5.639
 6521SOL    HW120462   1.496   2.355   5.735
 6521SOL    HW220463   1.373   2.397   5.636
 6522SOL     OW20464   2.486   5.358   4.648
 6522SOL    HW120465   2.467   5.281   4.709
 6522SOL    HW220466   2.422   5.432   4.667
 6523SOL     OW20467   1.979   2.705   6.945
 6523SOL    HW120468   1.958   2.763   6.866
 6523SOL    HW220469   2.072   2.669   6.936
 6524SOL     OW20470   4.046   3.598   5.009
 6524SOL    HW120471   4.073   3.614   5.104
 6524SOL    HW220472   4.076   3.507   4.981
 6525SOL     OW20473   0.300   2.569   4.490
 6525SOL    HW120474   0.222   2.578   4.553
 6525SOL    HW220475   0.267   2.570   4.396
 6526SOL     OW20476   1.630   5.451   3.606
 6526SOL    HW120477   1.674   5.414   3.524
 6526SOL    HW220478   1.700   5.487   3.668
 6527SOL     OW20479   2.555   1.344   4.049
 6527SOL    HW120480   2.489   1.341   4.124
 6527SOL    HW220481   2.625   1.274   4.063
 6528SOL     OW20482   0.459   7.017   3.350
 6528SOL    HW120483   0.539   6.979   3.304
 6528SOL    HW220484   0.475   7.021   3.448
 6529SOL     OW20485   6.806   3.086   2.388
 6529SOL    HW120486   6.825   3.075   2.290
 6529SOL    HW220487   6.801   2.996   2.431
 6530SOL     OW20488   0.598   2.022   0.450
 6530SOL    HW120489   0.564   2.043   0.359
 6530SOL    HW220490   0.689   1.981   0.444
 6531SOL     OW20491   5.373   2.556   4.832
 6531SOL    HW120492   5.320   2.581   4.751
 6531SOL    HW220493   5.363   2.458   4.849
 6532SOL     OW20494   1.016   2.312   6.791
 6532SOL    HW120495   1.009   2.411   6.804
 6532SOL    HW220496   1.047   2.293   6.698
 6533SOL     OW20497   4.269   0.730   0.943
 6533SOL    HW120498   4.349   0.677   0.915
 6533SOL    HW220499   4.272   0.744   1.042
 6534SOL     OW20500   2.133   3.568   0.141
 6534SOL    HW120501   2.171   3.660   0.147
 6534SOL    HW220502   2.167   3.524   0.057
 6535SOL     OW20503   2.031   3.526   5.604
 6535SOL    HW120504   2.116   3.504   5.557
 6535SOL    HW220505   2.019   3.625   5.608
 6536SOL     OW20506   6.465   2.462   6.663
 6536SOL    HW120507   6.471   2.529   6.737
 6536SOL    HW220508   6.450   2.371   6.701
 6537SOL     OW20509   1.159   0.380   6.783
 6537SOL    HW120510   1.199   0.289   6.786
 6537SOL    HW220511   1.101   0.394   6.864
 6538SOL     OW20512   1.823   3.227   6.169
 6538SOL    HW120513   1.724   3.235   6.179
 6538SOL    HW220514   1.845   3.194   6.077
 6539SOL     OW20515   3.149   1.736   6.147
 6539SOL    HW120516   3.134   1.655   6.204
 6539SOL    HW220517   3.241   1.771   6.163
 6540SOL     OW20518   3.465   2.069   4.089
 6540SOL    HW120519   3.518   2.103   4.167
 6540SOL    HW220520   3.411   1.989   4.117
 6541SOL     OW20521   2.840   2.853   5.441
 6541SOL    HW120522   2.833   2.938   5.388
 6541SOL    HW220523   2.774   2.855   5.516
 6542SOL     OW20524   6.214   3.965   3.565
 6542SOL    HW120525   6.131   3.977   3.619
 6542SOL    HW220526   6.263   3.883   3.596
 6543SOL     OW20527   0.545   5.950   6.323
 6543SOL    HW120528   0.547   5.858   6.363
 6543SOL    HW220529   0.617   5.957   6.254
 6544SOL     OW20530   0.201   6.059   2.620
 6544SOL    HW120531   0.151   6.089   2.539
 6544SOL    HW220532   0.299   6.060   2.601
 6545SOL     OW20533   5.824   3.471   5.957
 6545SOL    HW120534   5.775   3.383   5.960
 6545SOL    HW220535   5.894   3.467   5.886
 6546SOL     OW20536   3.845   4.495   5.908
 6546SOL    HW120537   3.925   4.551   5.890
 6546SOL    HW220538   3.766   4.554   5.924
 6547SOL     OW20539   5.145   0.587   6.824
 6547SOL    HW120540   5.070   0.642   6.786
 6547SOL    HW220541   5.223   0.646   6.844
 6548SOL     OW20542   5.894   3.940   5.603
 6548SOL    HW120543   5.858   4.029   5.632
 6548SOL    HW220544   5.940   3.950   5.515
 6549SOL     OW20545   2.782   2.074   2.378
 6549SOL    HW120546   2.789   1.979   2.349
 6549SOL    HW220547   2.778   2.077   2.478
 6550SOL     OW20548   1.318   5.156   3.093
 6550SOL    HW120549   1.241   5.219   3.089
 6550SOL    HW220550   1.294   5.076   3.147
 6551SOL     OW20551   2.947   5.375   2.071
 6551SOL    HW120552   2.923   5.451   2.012
 6551SOL    HW220553   2.864   5.329   2.103
 6552SOL     OW20554   4.688   5.500   6.463
 6552SOL    HW120555   4.634   5.582   6.484
 6552SOL    HW220556   4.776   5.528   6.424
 6553SOL     OW20557   0.149   3.018   2.825
 6553SOL    HW120558   0.115   3.065   2.743
 6553SOL    HW220559   0.072   2.972   2.871
 6554SOL     OW20560   0.395   3.827   4.576
 6554SOL    HW120561   0.392   3.757   4.505
 6554SOL    HW220562   0.337   3.904   4.550
 6555SOL     OW20563   0.531   1.157   1.806
 6555SOL    HW120564   0.630   1.166   1.793
 6555SOL    HW220565   0.505   1.061   1.792
 6556SOL     OW20566   3.959   0.499   4.024
 6556SOL    HW120567   4.032   0.518   4.090
 6556SOL    HW220568   3.926   0.406   4.037
 6557SOL     OW20569   5.141   6.108   0.447
 6557SOL    HW120570   5.172   6.189   0.496
 6557SOL    HW220571   5.076   6.057   0.503
 6558SOL     OW20572   6.674   6.265   6.134
 6558SOL    HW120573   6.736   6.261   6.212
 6558SOL    HW220574   6.579   6.264   6.167
 6559SOL     OW20575   3.483   3.127   1.349
 6559SOL    HW120576   3.564   3.100   1.297
 6559SOL    HW220577   3.418   3.051   1.353
 6560SOL     OW20578   4.134   1.419   0.563
 6560SOL    HW120579   4.055   1.406   0.502
 6560SOL    HW220580   4.104   1.466   0.646
 6561SOL     OW20581   3.345   3.692   4.367
 6561SOL    HW120582   3.436   3.733   4.379
 6561SOL    HW220583   3.276   3.763   4.381
 6562SOL     OW20584   6.696   4.066   5.504
 6562SOL    HW120585   6.648   4.031   5.424
 6562SOL    HW220586   6.772   4.004   5.527
 6563SOL     OW20587   0.894   5.355   2.447
 6563SOL    HW120588   0.921   5.445   2.413
 6563SOL    HW220589   0.901   5.353   2.546
 6564SOL     OW20590   1.531   5.929   2.600
 6564SOL    HW120591   1.587   6.003   2.562
 6564SOL    HW220592   1.584   5.843   2.597
 6565SOL     OW20593   6.581   3.570   5.030
 6565SOL    HW120594   6.533   3.568   4.942
 6565SOL    HW220595   6.548   3.494   5.087
 6566SOL     OW20596   3.476   0.305   0.892
 6566SOL    HW120597   3.383   0.335   0.871
 6566SOL    HW220598   3.474   0.239   0.967
 6567SOL     OW20599   6.180   2.928   0.776
 6567SOL    HW120600   6.276   2.956   0.776
 6567SOL    HW220601   6.142   2.938   0.868
 6568SOL     OW20602   4.388   3.842   1.702
 6568SOL    HW120603   4.479   3.867   1.735
 6568SOL    HW220604   4.350   3.917   1.649
 6569SOL     OW20605   0.891   5.378   6.472
 6569SOL    HW120606   0.814   5.321   6.502
 6569SOL    HW220607   0.977   5.328   6.487
 6570SOL     OW20608   6.340   3.797   1.911
 6570SOL    HW120609   6.389   3.747   1.840
 6570SOL    HW220610   6.317   3.734   1.985
 6571SOL     OW20611   2.627   6.215   3.640
 6571SOL    HW120612   2.674   6.278   3.578
 6571SOL    HW220613   2.587   6.140   3.587
 6572SOL     OW20614   1.294   4.454   5.840
 6572SOL    HW120615   1.257   4.542   5.870
 6572SOL    HW220616   1.313   4.398   5.921
 6573SOL     OW20617   1.528   2.127   1.978
 6573SOL    HW120618   1.519   2.051   1.914
 6573SOL    HW220619   1.552   2.091   2.069
 6574SOL     OW20620   1.629   4.325   4.209
 6574SOL    HW120621   1.726   4.339   4.231
 6574SOL    HW220622   1.582   4.413   4.207
 6575SOL     OW20623   2.147   1.529   3.006
 6575SOL    HW120624   2.230   1.523   2.950
 6575SOL    HW220625   2.089   1.602   2.971
 6576SOL     OW20626   1.495   6.217   3.812
 6576SOL    HW120627   1.549   6.135   3.791
 6576SOL    HW220628   1.401   6.190   3.832
 6577SOL     OW20629   0.107   3.231   5.086
 6577SOL    HW120630   0.167   3.311   5.087
 6577SOL    HW220631   0.059   3.224   5.173
 6578SOL     OW20632   6.503   5.491   3.212
 6578SOL    HW120633   6.483   5.554   3.287
 6578SOL    HW220634   6.430   5.494   3.144
 6579SOL     OW20635   1.087   4.022   3.074
 6579SOL    HW120636   1.149   3.945   3.058
 6579SOL    HW220637   1.127   4.084   3.141
 6580SOL     OW20638   5.767   2.415   1.530
 6580SOL    HW120639   5.858   2.376   1.520
 6580SOL    HW220640   5.720   2.371   1.607
 6581SOL     OW20641   2.472   2.587   5.507
 6581SOL    HW120642   2.494   2.680   5.476
 6581SOL    HW220643   2.483   2.523   5.430
 6582SOL     OW20644   6.836   0.331   1.961
 6582SOL    HW120645   6.803   0.270   1.888
 6582SOL    HW220646   6.782   0.316   2.044
 6583SOL     OW20647   5.770   2.140   5.995
 6583SOL    HW120648   5.715   2.082   5.935
 6583SOL    HW220649   5.853   2.169   5.946
 6584SOL     OW20650   5.522   2.415   0.341
 6584SOL    HW120651   5.469   2.430   0.257
 6584SOL    HW220652   5.608   2.369   0.318
 6585SOL     OW20653   3.085   0.954   1.807
 6585SOL    HW120654   3.100   1.000   1.895
 6585SOL    HW220655   3.157   0.979   1.743
 6586SOL     OW20656   6.838   1.857   6.767
 6586SOL    HW120657   6.856   1.952   6.742
 6586SOL    HW220658   6.765   1.820   6.709
 6587SOL     OW20659   1.784   6.144   2.323
 6587SOL    HW120660   1.870   6.172   2.280
 6587SOL    HW220661   1.741   6.223   2.367
 6588SOL     OW20662   2.938   2.584   0.310
 6588SOL    HW120663   2.876   2.525   0.362
 6588SOL    HW220664   2.901   2.677   0.307
 6589SOL     OW20665   5.358   2.156   5.784
 6589SOL    HW120666   5.277   2.150   5.724
 6589SOL    HW220667   5.409   2.070   5.779
 6590SOL     OW20668   6.896   1.222   5.846
 6590SOL    HW120669   6.853   1.224   5.756
 6590SOL    HW220670   6.992   1.195   5.837
 6591SOL     OW20671   5.407   0.091   3.123
 6591SOL    HW120672   5.429   0.171   3.067
 6591SOL    HW220673   5.308   0.085   3.134
 6592SOL     OW20674   5.761   5.681   4.714
 6592SOL    HW120675   5.699   5.714   4.643
 6592SOL    HW220676   5.783   5.756   4.776
 6593SOL     OW20677   5.171   1.086   2.596
 6593SOL    HW120678   5.179   1.185   2.590
 6593SOL    HW220679   5.174   1.047   2.504
 6594SOL     OW20680   5.980   0.942   6.732
 6594SOL    HW120681   5.916   0.867   6.715
 6594SOL    HW220682   5.931   1.022   6.764
 6595SOL     OW20683   1.775   3.665   0.012
 6595SOL    HW120684   1.777   3.619   0.101
 6595SOL    HW220685   1.696   3.726   0.008
 6596SOL     OW20686   3.068   6.792   5.461
 6596SOL    HW120687   3.100   6.816   5.369
 6596SOL    HW220688   3.003   6.716   5.456
 6597SOL     OW20689   6.806   4.103   6.691
 6597SOL    HW120690   6.798   4.040   6.768
 6597SOL    HW220691   6.717   4.147   6.675
 6598SOL     OW20692   2.343   5.571   4.768
 6598SOL    HW120693   2.324   5.640   4.698
 6598SOL    HW220694   2.258   5.546   4.814
 6599SOL     OW20695   4.313   3.065   6.015
 6599SOL    HW120696   4.377   2.988   6.021
 6599SOL    HW220697   4.347   3.131   5.947
 6600SOL     OW20698   4.106   5.068   4.700
 6600SOL    HW120699   4.162   5.130   4.645
 6600SOL    HW220700   4.017   5.109   4.717
 6601SOL     OW20701   0.860   0.302   1.164
 6601SOL    HW120702   0.885   0.229   1.227
 6601SOL    HW220703   0.849   0.387   1.215
 6602SOL     OW20704   6.640   1.215   1.564
 6602SOL    HW120705   6.590   1.129   1.576
 6602SOL    HW220706   6.613   1.280   1.634
 6603SOL     OW20707   2.427   2.202   2.088
 6603SOL    HW120708   2.492   2.128   2.106
 6603SOL    HW220709   2.468   2.268   2.026
 6604SOL     OW20710   4.216   5.691   4.040
 6604SOL    HW120711   4.218   5.748   3.958
 6604SOL    HW220712   4.298   5.633   4.043
 6605SOL     OW20713   4.938   6.412   0.419
 6605SOL    HW120714   4.936   6.447   0.326
 6605SOL    HW220715   4.865   6.345   0.432
 6606SOL     OW20716   6.164   1.326   3.041
 6606SOL    HW120717   6.127   1.344   2.950
 6606SOL    HW220718   6.241   1.263   3.034
 6607SOL     OW20719   1.361   1.695   3.025
 6607SOL    HW120720   1.279   1.740   3.059
 6607SOL    HW220721   1.338   1.602   2.997
 6608SOL     OW20722   5.500   5.124   4.951
 6608SOL    HW120723   5.504   5.058   5.026
 6608SOL    HW220724   5.586   5.174   4.945
 6609SOL     OW20725   5.845   1.570   0.254
 6609SOL    HW120726   5.923   1.533   0.305
 6609SOL    HW220727   5.854   1.669   0.246
 6610SOL     OW20728   3.452   1.314   0.456
 6610SOL    HW120729   3.423   1.408   0.436
 6610SOL    HW220730   3.371   1.257   0.472
 6611SOL     OW20731   5.883   3.134   3.096
 6611SOL    HW120732   5.950   3.086   3.040
 6611SOL    HW220733   5.917   3.140   3.190
 6612SOL     OW20734   1.004   6.085   6.875
 6612SOL    HW120735   0.948   6.003   6.863
 6612SOL    HW220736   1.037   6.089   6.969
 6613SOL     OW20737   5.045   5.007   1.212
 6613SOL    HW120738   4.994   4.938   1.264
 6613SOL    HW220739   5.060   5.087   1.270
 6614SOL     OW20740   5.247   5.056   5.570
 6614SOL    HW120741   5.332   5.005   5.557
 6614SOL    HW220742   5.265   5.135   5.628
 6615SOL     OW20743   0.419   3.675   5.288
 6615SOL    HW120744   0.334   3.641   5.330
 6615SOL    HW220745   0.396   3.733   5.210
 6616SOL     OW20746   4.960   1.384   4.102
 6616SOL    HW120747   4.936   1.409   4.008
 6616SOL    HW220748   4.922   1.451   4.165
 6617SOL     OW20749   4.339   7.016   5.003
 6617SOL    HW120750   4.363   0.043   5.085
 6617SOL    HW220751   4.420   6.969   4.968
 6618SOL     OW20752   0.181   5.022   1.235
 6618SOL    HW120753   0.151   4.957   1.165
 6618SOL    HW220754   0.279   5.037   1.226
 6619SOL     OW20755   6.716   6.216   1.760
 6619SOL    HW120756   6.684   6.166   1.679
 6619SOL    HW220757   6.772   6.293   1.731
 6620SOL     OW20758   4.184   3.401   5.798
 6620SOL    HW120759   4.159   3.321   5.744
 6620SOL    HW220760   4.129   3.403   5.882
 6621SOL     OW20761   2.547   3.956   0.418
 6621SOL    HW120762   2.505   4.037   0.377
 6621SOL    HW220763   2.475   3.896   0.453
 6622SOL     OW20764   6.407   5.475   1.363
 6622SOL    HW120765   6.473   5.449   1.292
 6622SOL    HW220766   6.364   5.562   1.338
 6623SOL     OW20767   3.737   3.958   2.456
 6623SOL    HW120768   3.672   3.942   2.529
 6623SOL    HW220769   3.815   3.896   2.466
 6624SOL     OW20770   4.594   5.275   4.133
 6624SOL    HW120771   4.542   5.233   4.207
 6624SOL    HW220772   4.594   5.216   4.053
 6625SOL     OW20773   5.646   0.194   6.879
 6625SOL    HW120774   5.602   0.265   6.824
 6625SOL    HW220775   5.669   0.231   6.969
 6626SOL     OW20776   3.079   5.105   3.440
 6626SOL    HW120777   3.155   5.163   3.408
 6626SOL    HW220778   3.116   5.019   3.476
 6627SOL     OW20779   2.175   6.427   1.858
 6627SOL    HW120780   2.161   6.394   1.765
 6627SOL    HW220781   2.261   6.476   1.864
 6628SOL     OW20782   4.261   6.142   3.405
 6628SOL    HW120783   4.179   6.086   3.398
 6628SOL    HW220784   4.250   6.225   3.350
 6629SOL     OW20785   3.095   3.807   0.144
 6629SOL    HW120786   3.041   3.764   0.217
 6629SOL    HW220787   3.147   3.737   0.095
 6630SOL     OW20788   3.343   1.525   6.503
 6630SOL    HW120789   3.341   1.425   6.505
 6630SOL    HW220790   3.295   1.557   6.421
 6631SOL     OW20791   4.010   0.344   1.491
 6631SOL    HW120792   4.085   0.280   1.475
 6631SOL    HW220793   3.941   0.333   1.420
 6632SOL     OW20794   6.322   2.603   2.880
 6632SOL    HW120795   6.417   2.570   2.881
 6632SOL    HW220796   6.265   2.539   2.931
 6633SOL     OW20797   0.525   6.862   1.924
 6633SOL    HW120798   0.613   6.853   1.971
 6633SOL    HW220799   0.515   6.788   1.857
 6634SOL     OW20800   6.916   2.638   5.659
 6634SOL    HW120801   7.013   2.639   5.684
 6634SOL    HW220802   6.861   2.664   5.738
 6635SOL     OW20803   4.354   4.713   2.849
 6635SOL    HW120804   4.364   4.636   2.787
 6635SOL    HW220805   4.319   4.792   2.799
 6636SOL     OW20806   1.712   3.148   4.249
 6636SOL    HW120807   1.737   3.244   4.241
 6636SOL    HW220808   1.681   3.114   4.160
 6637SOL     OW20809   6.730   2.305   1.838
 6637SOL    HW120810   6.728   2.235   1.910
 6637SOL    HW220811   6.803   2.285   1.773
 6638SOL     OW20812   2.276   0.227   6.698
 6638SOL    HW120813   2.326   0.171   6.632
 6638SOL    HW220814   2.188   0.254   6.660
 6639SOL     OW20815   4.367   5.575   6.203
 6639SOL    HW120816   4.388   5.590   6.299
 6639SOL    HW220817   4.337   5.480   6.189
 6640SOL     OW20818   6.080   2.744   3.152
 6640SOL    HW120819   6.056   2.672   3.218
 6640SOL    HW220820   6.068   2.709   3.059
 6641SOL     OW20821   2.558   5.088   6.999
 6641SOL    HW120822   2.638   5.029   6.988
 6641SOL    HW220823   2.514   5.100   6.910
 6642SOL     OW20824   6.182   6.653   0.009
 6642SOL    HW120825   6.228   6.727   6.986
 6642SOL    HW220826   6.112   6.690   0.070
 6643SOL     OW20827   3.515   5.781   0.282
 6643SOL    HW120828   3.493   5.760   0.187
 6643SOL    HW220829   3.524   5.880   0.292
 6644SOL     OW20830   2.020   4.090   2.165
 6644SOL    HW120831   1.948   4.031   2.202
 6644SOL    HW220832   2.077   4.124   2.240
 6645SOL     OW20833   6.111   4.621   5.242
 6645SOL    HW120834   6.039   4.638   5.175
 6645SOL    HW220835   6.189   4.576   5.196
 6646SOL     OW20836   1.682   6.200   3.489
 6646SOL    HW120837   1.653   6.164   3.577
 6646SOL    HW220838   1.620   6.274   3.461
 6647SOL     OW20839   4.261   1.715   2.066
 6647SOL    HW120840   4.265   1.805   2.024
 6647SOL    HW220841   4.238   1.724   2.163
 6648SOL     OW20842   4.054   5.945   1.764
 6648SOL    HW120843   4.037   5.849   1.784
 6648SOL    HW220844   4.134   5.954   1.705
 6649SOL     OW20845   4.212   2.218   5.904
 6649SOL    HW120846   4.290   2.178   5.952
 6649SOL    HW220847   4.243   2.259   5.818
 6650SOL     OW20848   3.176   0.919   3.831
 6650SOL    HW120849   3.236   0.925   3.752
 6650SOL    HW220850   3.080   0.927   3.802
 6651SOL     OW20851   1.306   1.825   0.359
 6651SOL    HW120852   1.278   1.731   0.380
 6651SOL    HW220853   1.346   1.866   0.441
 6652SOL     OW20854   0.947   5.453   3.291
 6652SOL    HW120855   1.026   5.459   3.352
 6652SOL    HW220856   0.867   5.493   3.336
 6653SOL     OW20857   3.260   3.733   3.414
 6653SOL    HW120858   3.300   3.795   3.346
 6653SOL    HW220859   3.183   3.778   3.458
 6654SOL     OW20860   1.781   3.527   1.719
 6654SOL    HW120861   1.705   3.464   1.733
 6654SOL    HW220862   1.763   3.613   1.767
 6655SOL     OW20863   2.041   0.363   0.717
 6655SOL    HW120864   2.061   0.370   0.619
 6655SOL    HW220865   2.020   0.268   0.739
 6656SOL     OW20866   0.078   2.774   1.889
 6656SOL    HW120867   0.025   2.828   1.823
 6656SOL    HW220868   0.162   2.741   1.846
 6657SOL     OW20869   3.128   4.744   5.893
 6657SOL    HW120870   3.138   4.826   5.949
 6657SOL    HW220871   3.192   4.674   5.925
 6658SOL     OW20872   6.157   6.963   5.714
 6658SOL    HW120873   6.232   6.906   5.680
 6658SOL    HW220874   6.190   7.018   5.791
 6659SOL     OW20875   1.707   2.916   6.739
 6659SOL    HW120876   1.670   2.935   6.648
 6659SOL    HW220877   1.791   2.862   6.730
 6660SOL     OW20878   0.665   6.753   2.500
 6660SOL    HW120879   0.699   6.844   2.480
 6660SOL    HW220880   0.578   6.738   2.453
 6661SOL     OW20881   0.024   6.120   3.647
 6661SOL    HW120882   0.052   6.156   3.736
 6661SOL    HW220883   0.100   6.125   3.583
 6662SOL     OW20884   1.358   3.677   5.737
 6662SOL    HW120885   1.443   3.727   5.717
 6662SOL    HW220886   1.283   3.742   5.750
 6663SOL     OW20887   0.584   5.044   2.265
 6663SOL    HW120888   0.606   5.094   2.182
 6663SOL    HW220889   0.668   5.027   2.317
 6664SOL     OW20890   0.095   1.636   2.609
 6664SOL    HW120891   0.033   1.560   2.590
 6664SOL    HW220892   0.163   1.642   2.536
 6665SOL     OW20893   2.679   6.739   2.593
 6665SOL    HW120894   2.709   6.644   2.586
 6665SOL    HW220895   2.679   6.767   2.689
 6666SOL     OW20896   5.941   0.733   0.580
 6666SOL    HW120897   5.894   0.768   0.661
 6666SOL    HW220898   5.945   0.804   0.511
 6667SOL     OW20899   6.429   5.089   4.748
 6667SOL    HW120900   6.395   5.048   4.663
 6667SOL    HW220901   6.359   5.149   4.786
 6668SOL     OW20902   0.152   6.424   1.519
 6668SOL    HW120903   0.171   6.429   1.421
 6668SOL    HW220904   0.167   6.513   1.561
 6669SOL     OW20905   1.099   5.330   3.052
 6669SOL    HW120906   1.102   5.426   3.081
 6669SOL    HW220907   1.017   5.286   3.089
 6670SOL     OW20908   3.950   4.334   0.901
 6670SOL    HW120909   3.896   4.282   0.834
 6670SOL    HW220910   4.011   4.396   0.852
 6671SOL     OW20911   0.342   2.930   5.488
 6671SOL    HW120912   0.286   2.941   5.406
 6671SOL    HW220913   0.435   2.962   5.469
 6672SOL     OW20914   0.734   0.560   5.577
 6672SOL    HW120915   0.754   0.485   5.514
 6672SOL    HW220916   0.672   0.624   5.534
 6673SOL     OW20917   4.803   5.530   1.440
 6673SOL    HW120918   4.830   5.491   1.528
 6673SOL    HW220919   4.807   5.459   1.370
 6674SOL     OW20920   0.619   6.870   5.162
 6674SOL    HW120921   0.625   6.811   5.081
 6674SOL    HW220922   0.706   6.918   5.174
 6675SOL     OW20923   6.671   6.227   0.502
 6675SOL    HW120924   6.707   6.145   0.457
 6675SOL    HW220925   6.601   6.268   0.444
 6676SOL     OW20926   0.803   1.758   0.697
 6676SOL    HW120927   0.748   1.730   0.618
 6676SOL    HW220928   0.745   1.809   0.761
 6677SOL     OW20929   6.485   4.320   0.358
 6677SOL    HW120930   6.509   4.404   0.408
 6677SOL    HW220931   6.394   4.290   0.387
 6678SOL     OW20932   0.301   3.055   4.072
 6678SOL    HW120933   0.272   3.106   3.991
 6678SOL    HW220934   0.270   2.960   4.064
 6679SOL     OW20935   1.539   1.065   4.837
 6679SOL    HW120936   1.622   1.096   4.791
 6679SOL    HW220937   1.512   0.976   4.800
 6680SOL     OW20938   2.617   0.624   6.431
 6680SOL    HW120939   2.555   0.651   6.357
 6680SOL    HW220940   2.712   0.636   6.401
 6681SOL     OW20941   5.130   5.912   0.057
 6681SOL    HW120942   5.193   5.854   0.109
 6681SOL    HW220943   5.049   5.860   0.032
 6682SOL     OW20944   6.935   5.472   2.095
 6682SOL    HW120945   6.937   5.554   2.037
 6682SOL    HW220946   6.964   5.495   2.187
 6683SOL     OW20947   5.298   1.693   4.365
 6683SOL    HW120948   5.242   1.623   4.409
 6683SOL    HW220949   5.239   1.753   4.311
 6684SOL     OW20950   2.015   1.221   2.795
 6684SOL    HW120951   2.079   1.290   2.762
 6684SOL    HW220952   2.018   1.218   2.895
 6685SOL     OW20953   5.506   2.938   6.406
 6685SOL    HW120954   5.546   2.901   6.490
 6685SOL    HW220955   5.423   2.888   6.384
 6686SOL     OW20956   5.523   3.489   4.405
 6686SOL    HW120957   5.615   3.480   4.443
 6686SOL    HW220958   5.526   3.547   4.324
 6687SOL     OW20959   1.124   0.846   0.196
 6687SOL    HW120960   1.149   0.789   0.274
 6687SOL    HW220961   1.033   0.885   0.212
 6688SOL     OW20962   0.680   5.189   2.531
 6688SOL    HW120963   0.756   5.217   2.474
 6688SOL    HW220964   0.713   5.174   2.625
 6689SOL     OW20965   4.267   4.977   0.089
 6689SOL    HW120966   4.286   4.882   0.112
 6689SOL    HW220967   4.338   5.011   0.026
 6690SOL     OW20968   1.309   1.820   0.678
 6690SOL    HW120969   1.317   1.733   0.726
 6690SOL    HW220970   1.213   1.835   0.653
 6691SOL     OW20971   1.295   5.205   0.906
 6691SOL    HW120972   1.309   5.301   0.931
 6691SOL    HW220973   1.359   5.147   0.956
 6692SOL     OW20974   4.217   4.135   6.210
 6692SOL    HW120975   4.170   4.072   6.149
 6692SOL    HW220976   4.254   4.212   6.158
 6693SOL     OW20977   4.101   3.808   5.323
 6693SOL    HW120978   4.032   3.880   5.316
 6693SOL    HW220979   4.056   3.719   5.321
 6694SOL     OW20980   2.763   6.510   0.495
 6694SOL    HW120981   2.827   6.584   0.478
 6694SOL    HW220982   2.806   6.423   0.473
 6695SOL     OW20983   1.522   1.696   6.320
 6695SOL    HW120984   1.474   1.739   6.243
 6695SOL    HW220985   1.455   1.660   6.385
 6696SOL     OW20986   1.918   3.032   1.546
 6696SOL    HW120987   2.002   3.064   1.501
 6696SOL    HW220988   1.860   3.110   1.567
 6697SOL     OW20989   5.293   2.626   3.752
 6697SOL    HW120990   5.231   2.579   3.689
 6697SOL    HW220991   5.246   2.706   3.791
 6698SOL     OW20992   3.014   4.359   0.434
 6698SOL    HW120993   3.030   4.386   0.339
 6698SOL    HW220994   3.101   4.364   0.484
 6699SOL     OW20995   1.374   3.473   6.622
 6699SOL    HW120996   1.292   3.451   6.675
 6699SOL    HW220997   1.444   3.402   6.637
 6700SOL     OW20998   0.012   6.902   6.154
 6700SOL    HW120999   0.084   6.835   6.174
 6700SOL    HW221000   6.958   6.856   6.114
 6701SOL     OW21001   0.589   2.748   1.300
 6701SOL    HW121002   0.610   2.655   1.329
 6701SOL    HW221003   0.620   2.813   1.370
 6702SOL     OW21004   1.446   3.498   0.497
 6702SOL    HW121005   1.390   3.490   0.580
 6702SOL    HW221006   1.534   3.455   0.513
 6703SOL     OW21007   0.502   2.548   6.540
 6703SOL    HW121008   0.409   2.542   6.576
 6703SOL    HW221009   0.562   2.584   6.611
 6704SOL     OW21010   5.155   2.554   3.105
 6704SOL    HW121011   5.134   2.612   3.026
 6704SOL    HW221012   5.159   2.610   3.187
 6705SOL     OW21013   6.043   1.302   1.187
 6705SOL    HW121014   6.076   1.210   1.165
 6705SOL    HW221015   6.071   1.326   1.280
 6706SOL     OW21016   0.712   6.176   0.140
 6706SOL    HW121017   0.753   6.122   0.214
 6706SOL    HW221018   0.617   6.198   0.163
 6707SOL     OW21019   1.295   5.656   2.319
 6707SOL    HW121020   1.236   5.647   2.398
 6707SOL    HW221021   1.252   5.613   2.240
 6708SOL     OW21022   2.391   6.107   1.715
 6708SOL    HW121023   2.411   6.024   1.767
 6708SOL    HW221024   2.385   6.083   1.617
 6709SOL     OW21025   4.732   1.716   3.076
 6709SOL    HW121026   4.720   1.812   3.048
 6709SOL    HW221027   4.695   1.656   3.005
 6710SOL     OW21028   1.885   2.059   0.555
 6710SOL    HW121029   1.875   1.973   0.505
 6710SOL    HW221030   1.815   2.065   0.627
 6711SOL     OW21031   5.205   3.658   0.245
 6711SOL    HW121032   5.127   3.627   0.191
 6711SOL    HW221033   5.184   3.645   0.342
 6712SOL     OW21034   3.463   6.010   1.602
 6712SOL    HW121035   3.492   6.040   1.512
 6712SOL    HW221036   3.425   6.087   1.653
 6713SOL     OW21037   1.949   1.764   3.262
 6713SOL    HW121038   1.856   1.800   3.276
 6713SOL    HW221039   1.992   1.812   3.186
 6714SOL     OW21040   6.633   0.245   4.598
 6714SOL    HW121041   6.699   0.170   4.592
 6714SOL    HW221042   6.565   0.224   4.668
 6715SOL     OW21043   6.549   2.184   0.500
 6715SOL    HW121044   6.630   2.199   0.443
 6715SOL    HW221045   6.538   2.086   0.518
 6716SOL     OW21046   2.710   6.024   0.833
 6716SOL    HW121047   2.790   6.038   0.775
 6716SOL    HW221048   2.701   5.927   0.855
 6717SOL     OW21049   4.111   1.162   6.799
 6717SOL    HW121050   4.130   1.254   6.767
 6717SOL    HW221051   4.087   1.164   6.896
 6718SOL     OW21052   3.201   6.881   0.420
 6718SOL    HW121053   3.267   6.864   0.494
 6718SOL    HW221054   3.126   6.816   0.427
 6719SOL     OW21055   0.755   1.007   5.432
 6719SOL    HW121056   0.755   0.937   5.361
 6719SOL    HW221057   0.675   0.993   5.492
 6720SOL     OW21058   1.908   4.496   1.497
 6720SOL    HW121059   1.829   4.503   1.435
 6720SOL    HW221060   1.941   4.588   1.520
 6721SOL     OW21061   0.308   6.008   3.176
 6721SOL    HW121062   0.249   5.977   3.102
 6721SOL    HW221063   0.404   5.995   3.149
 6722SOL     OW21064   4.964   4.922   6.667
 6722SOL    HW121065   5.031   4.873   6.611
 6722SOL    HW221066   5.010   4.996   6.715
 6723SOL     OW21067   4.416   0.899   2.816
 6723SOL    HW121068   4.496   0.882   2.758
 6723SOL    HW221069   4.364   0.976   2.779
 6724SOL     OW21070   3.598   4.590   5.693
 6724SOL    HW121071   3.570   4.678   5.654
 6724SOL    HW221072   3.698   4.585   5.696
 6725SOL     OW21073   6.985   5.141   1.274
 6725SOL    HW121074   6.918   5.068   1.261
 6725SOL    HW221075   0.051   5.109   1.246
 6726SOL     OW21076   2.165   2.366   1.630
 6726SOL    HW121077   2.232   2.296   1.657
 6726SOL    HW221078   2.213   2.449   1.603
 6727SOL     OW21079   3.273   3.829   0.664
 6727SOL    HW121080   3.228   3.780   0.590
 6727SOL    HW221081   3.311   3.764   0.730
 6728SOL     OW21082   4.590   1.413   4.809
 6728SOL    HW121083   4.645   1.428   4.727
 6728SOL    HW221084   4.508   1.470   4.805
 6729SOL     OW21085   5.346   6.077   3.503
 6729SOL    HW121086   5.348   6.002   3.569
 6729SOL    HW221087   5.398   6.154   3.538
 6730SOL     OW21088   1.424   0.208   2.113
 6730SOL    HW121089   1.412   0.139   2.042
 6730SOL    HW221090   1.432   0.299   2.071
 6731SOL     OW21091   2.060   4.397   2.165
 6731SOL    HW121092   2.115   4.316   2.187
 6731SOL    HW221093   2.057   4.409   2.066
 6732SOL     OW21094   2.455   5.661   0.454
 6732SOL    HW121095   2.392   5.630   0.525
 6732SOL    HW221096   2.487   5.583   0.401
 6733SOL     OW21097   6.094   5.989   4.784
 6733SOL    HW121098   6.140   5.902   4.803
 6733SOL    HW221099   5.999   5.970   4.757
 6734SOL     OW21100   2.816   3.692   5.831
 6734SOL    HW121101   2.749   3.757   5.865
 6734SOL    HW221102   2.769   3.615   5.789
 6735SOL     OW21103   0.821   6.318   6.815
 6735SOL    HW121104   0.848   6.224   6.833
 6735SOL    HW221105   0.787   6.326   6.721
 6736SOL     OW21106   2.329   4.369   2.452
 6736SOL    HW121107   2.241   4.416   2.460
 6736SOL    HW221108   2.378   4.374   2.539
 6737SOL     OW21109   2.219   0.181   1.062
 6737SOL    HW121110   2.151   0.142   1.000
 6737SOL    HW221111   2.180   0.190   1.153
 6738SOL     OW21112   4.664   1.528   1.637
 6738SOL    HW121113   4.658   1.448   1.696
 6738SOL    HW221114   4.715   1.601   1.684
 6739SOL     OW21115   4.184   0.039   5.379
 6739SOL    HW121116   4.187   7.013   5.465
 6739SOL    HW221117   4.255   0.005   5.317
 6740SOL     OW21118   5.875   3.145   5.571
 6740SOL    HW121119   5.972   3.166   5.578
 6740SOL    HW221120   5.840   3.117   5.661
 6741SOL     OW21121   0.538   6.692   5.915
 6741SOL    HW121122   0.490   6.773   5.946
 6741SOL    HW221123   0.532   6.686   5.815
 6742SOL     OW21124   6.144   6.042   5.124
 6742SOL    HW121125   6.055   6.077   5.094
 6742SOL    HW221126   6.180   6.100   5.198
 6743SOL     OW21127   5.985   2.550   1.193
 6743SOL    HW121128   6.013   2.637   1.234
 6743SOL    HW221129   5.887   2.536   1.208
 6744SOL     OW21130   5.388   6.132   4.660
 6744SOL    HW121131   5.335   6.063   4.710
 6744SOL    HW221132   5.435   6.191   4.725
 6745SOL     OW21133   1.031   3.212   2.962
 6745SOL    HW121134   0.941   3.247   2.990
 6745SOL    HW221135   1.055   3.251   2.873
 6746SOL     OW21136   0.082   0.983   0.905
 6746SOL    HW121137   0.035   1.070   0.890
 6746SOL    HW221138   0.122   0.983   0.997
 6747SOL     OW21139   4.669   5.714   6.723
 6747SOL    HW121140   4.590   5.655   6.739
 6747SOL    HW221141   4.753   5.667   6.752
 6748SOL     OW21142   6.989   6.402   1.987
 6748SOL    HW121143   6.895   6.393   2.019
 6748SOL    HW221144   6.991   6.411   1.888
 6749SOL     OW21145   3.169   5.570   1.194
 6749SOL    HW121146   3.266   5.592   1.190
 6749SOL    HW221147   3.150   5.516   1.276
 6750SOL     OW21148   2.183   3.040   5.236
 6750SOL    HW121149   2.162   3.138   5.232
 6750SOL    HW221150   2.257   3.019   5.172
 6751SOL     OW21151   3.994   1.588   5.843
 6751SOL    HW121152   4.089   1.557   5.848
 6751SOL    HW221153   3.992   1.686   5.824
 6752SOL     OW21154   6.718   1.944   0.252
 6752SOL    HW121155   6.620   1.927   0.263
 6752SOL    HW221156   6.744   1.929   0.157
 6753SOL     OW21157   6.187   1.231   6.900
 6753SOL    HW121158   6.131   1.314   6.907
 6753SOL    HW221159   6.189   1.200   6.806
 6754SOL     OW21160   4.802   1.103   6.603
 6754SOL    HW121161   4.894   1.079   6.635
 6754SOL    HW221162   4.807   1.186   6.547
 6755SOL     OW21163   5.070   2.054   3.487
 6755SOL    HW121164   5.126   2.078   3.408
 6755SOL    HW221165   4.997   2.122   3.497
 6756SOL     OW21166   4.882   3.879   3.655
 6756SOL    HW121167   4.968   3.930   3.663
 6756SOL    HW221168   4.870   3.821   3.735
 6757SOL     OW21169   6.196   4.739   1.797
 6757SOL    HW121170   6.249   4.654   1.808
 6757SOL    HW221171   6.223   4.784   1.712
 6758SOL     OW21172   5.892   1.477   3.008
 6758SOL    HW121173   5.908   1.408   3.078
 6758SOL    HW221174   5.968   1.542   3.007
 6759SOL     OW21175   1.379   4.922   2.940
 6759SOL    HW121176   1.461   4.870   2.917
 6759SOL    HW221177   1.405   5.002   2.995
 6760SOL     OW21178   0.344   3.846   5.097
 6760SOL    HW121179   0.245   3.858   5.093
 6760SOL    HW221180   0.389   3.936   5.099
 6761SOL     OW21181   5.896   2.793   6.550
 6761SOL    HW121182   5.828   2.854   6.591
 6761SOL    HW221183   5.979   2.795   6.606
 6762SOL     OW21184   0.182   4.076   3.044
 6762SOL    HW121185   0.131   4.162   3.048
 6762SOL    HW221186   0.122   3.999   3.066
 6763SOL     OW21187   5.790   6.765   4.770
 6763SOL    HW121188   5.845   6.728   4.695
 6763SOL    HW221189   5.716   6.702   4.792
 6764SOL     OW21190   2.231   3.551   6.604
 6764SOL    HW121191   2.186   3.465   6.578
 6764SOL    HW221192   2.265   3.596   6.522
 6765SOL     OW21193   5.045   5.170   2.528
 6765SOL    HW121194   5.140   5.177   2.498
 6765SOL    HW221195   5.034   5.089   2.586
 6766SOL     OW21196   1.902   2.412   6.064
 6766SOL    HW121197   1.922   2.509   6.051
 6766SOL    HW221198   1.897   2.367   5.975
 6767SOL     OW21199   0.279   2.769   6.257
 6767SOL    HW121200   0.254   2.711   6.179
 6767SOL    HW221201   0.211   2.759   6.329
 6768SOL     OW21202   6.569   0.830   6.198
 6768SOL    HW121203   6.614   0.862   6.114
 6768SOL    HW221204   6.608   0.878   6.277
 6769SOL     OW21205   1.268   2.868   6.234
 6769SOL    HW121206   1.261   2.853   6.333
 6769SOL    HW221207   1.182   2.908   6.201
 6770SOL     OW21208   6.709   1.528   4.284
 6770SOL    HW121209   6.647   1.536   4.206
 6770SOL    HW221210   6.800   1.502   4.253
 6771SOL     OW21211   6.280   1.551   2.637
 6771SOL    HW121212   6.348   1.610   2.679
 6771SOL    HW221213   6.232   1.500   2.709
 6772SOL     OW21214   1.291   0.467   2.324
 6772SOL    HW121215   1.243   0.531   2.384
 6772SOL    HW221216   1.301   0.507   2.233
 6773SOL     OW21217   1.733   0.845   2.560
 6773SOL    HW121218   1.715   0.803   2.470
 6773SOL    HW221219   1.736   0.944   2.550
 6774SOL     OW21220   3.798   1.369   5.104
 6774SOL    HW121221   3.817   1.286   5.156
 6774SOL    HW221222   3.829   1.357   5.010
 6775SOL     OW21223   0.918   2.626   4.352
 6775SOL    HW121224   0.884   2.534   4.332
 6775SOL    HW221225   1.000   2.644   4.298
 6776SOL     OW21226   3.359   3.735   3.821
 6776SOL    HW121227   3.403   3.821   3.795
 6776SOL    HW221228   3.310   3.698   3.743
 6777SOL     OW21229   0.450   6.238   6.176
 6777SOL    HW121230   0.533   6.231   6.120
 6777SOL    HW221231   0.396   6.154   6.167
 6778SOL     OW21232   6.511   6.018   2.203
 6778SOL    HW121233   6.543   6.032   2.110
 6778SOL    HW221234   6.486   6.107   2.243
 6779SOL     OW21235   4.692   4.671   0.012
 6779SOL    HW121236   4.763   4.681   6.966
 6779SOL    HW221237   4.726   4.709   0.098
 6780SOL     OW21238   4.747   0.673   2.796
 6780SOL    HW121239   4.824   0.612   2.779
 6780SOL    HW221240   4.686   0.673   2.717
 6781SOL     OW21241   6.452   3.287   3.346
 6781SOL    HW121242   6.429   3.342   3.427
 6781SOL    HW221243   6.472   3.349   3.269
 6782SOL     OW21244   0.538   1.084   3.281
 6782SOL    HW121245   0.556   1.062   3.377
 6782SOL    HW221246   0.598   1.029   3.222
 6783SOL     OW21247   0.222   6.513   6.757
 6783SOL    HW121248   0.252   6.421   6.730
 6783SOL    HW221249   0.144   6.540   6.701
 6784SOL     OW21250   1.324   4.932   0.554
 6784SOL    HW121251   1.260   5.002   0.587
 6784SOL    HW221252   1.402   4.977   0.510
 6785SOL     OW21253   5.394   4.761   1.889
 6785SOL    HW121254   5.412   4.664   1.906
 6785SOL    HW221255   5.425   4.785   1.797
 6786SOL     OW21256   6.568   1.971   5.333
 6786SOL    HW121257   6.631   2.034   5.287
 6786SOL    HW221258   6.600   1.954   5.426
 6787SOL     OW21259   3.951   1.691   1.339
 6787SOL    HW121260   4.002   1.724   1.419
 6787SOL    HW221261   3.867   1.744   1.329
 6788SOL     OW21262   1.230   4.233   1.355
 6788SOL    HW121263   1.174   4.298   1.304
 6788SOL    HW221264   1.276   4.171   1.291
 6789SOL     OW21265   5.339   3.477   2.454
 6789SOL    HW121266   5.321   3.492   2.357
 6789SOL    HW221267   5.436   3.489   2.473
 6790SOL     OW21268   0.120   5.684   1.103
 6790SOL    HW121269   0.203   5.635   1.078
 6790SOL    HW221270   0.043   5.622   1.102
 6791SOL     OW21271   2.661   6.490   3.386
 6791SOL    HW121272   2.726   6.417   3.409
 6791SOL    HW221273   2.619   6.525   3.469
 6792SOL     OW21274   3.366   5.867   6.741
 6792SOL    HW121275   3.447   5.817   6.772
 6792SOL    HW221276   3.292   5.856   6.807
 6793SOL     OW21277   2.355   4.408   6.546
 6793SOL    HW121278   2.355   4.308   6.547
 6793SOL    HW221279   2.269   4.441   6.509
 6794SOL     OW21280   4.820   2.528   4.506
 6794SOL    HW121281   4.783   2.613   4.545
 6794SOL    HW221282   4.784   2.516   4.413
 6795SOL     OW21283   0.938   1.125   2.119
 6795SOL    HW121284   0.872   1.085   2.056
 6795SOL    HW221285   0.901   1.210   2.157
 6796SOL     OW21286   6.675   2.604   2.452
 6796SOL    HW121287   6.771   2.598   2.478
 6796SOL    HW221288   6.627   2.521   2.482
 6797SOL     OW21289   1.926   3.849   1.295
 6797SOL    HW121290   1.978   3.931   1.318
 6797SOL    HW221291   1.881   3.862   1.206
 6798SOL     OW21292   4.575   1.150   1.880
 6798SOL    HW121293   4.511   1.077   1.904
 6798SOL    HW221294   4.594   1.145   1.782
 6799SOL     OW21295   5.851   6.833   2.975
 6799SOL    HW121296   5.821   6.921   2.937
 6799SOL    HW221297   5.771   6.773   2.985
 6800SOL     OW21298   6.589   2.895   2.683
 6800SOL    HW121299   6.517   2.827   2.699
 6800SOL    HW221300   6.673   2.848   2.656
 6801SOL     OW21301   1.660   5.214   4.935
 6801SOL    HW121302   1.615   5.126   4.923
 6801SOL    HW221303   1.615   5.264   5.010
 6802SOL     OW21304   2.810   4.465   1.613
 6802SOL    HW121305   2.736   4.401   1.633
 6802SOL    HW221306   2.876   4.465   1.688
 6803SOL     OW21307   5.926   5.087   6.844
 6803SOL    HW121308   6.025   5.080   6.828
 6803SOL    HW221309   5.884   4.997   6.831
 6804SOL     OW21310   3.192   5.208   1.778
 6804SOL    HW121311   3.175   5.303   1.803
 6804SOL    HW221312   3.120   5.150   1.816
 6805SOL     OW21313   0.818   4.849   3.821
 6805SOL    HW121314   0.747   4.812   3.761
 6805SOL    HW221315   0.775   4.900   3.896
 6806SOL     OW21316   5.664   3.607   2.477
 6806SOL    HW121317   5.707   3.598   2.566
 6806SOL    HW221318   5.733   3.593   2.405
 6807SOL     OW21319   3.311   3.188   2.471
 6807SOL    HW121320   3.408   3.200   2.452
 6807SOL    HW221321   3.262   3.174   2.385
 6808SOL     OW21322   3.947   6.491   3.235
 6808SOL    HW121323   4.045   6.471   3.239
 6808SOL    HW221324   3.907   6.445   3.156
 6809SOL     OW21325   5.313   2.380   0.499
 6809SOL    HW121326   5.252   2.308   0.464
 6809SOL    HW221327   5.389   2.392   0.436
 6810SOL     OW21328   2.473   6.661   4.632
 6810SOL    HW121329   2.393   6.720   4.626
 6810SOL    HW221330   2.532   6.676   4.552
 6811SOL     OW21331   6.548   1.738   1.269
 6811SOL    HW121332   6.456   1.714   1.238
 6811SOL    HW221333   6.556   1.725   1.367
 6812SOL     OW21334   3.421   4.388   5.384
 6812SOL    HW121335   3.406   4.341   5.471
 6812SOL    HW221336   3.335   4.427   5.352
 6813SOL     OW21337   0.167   3.537   1.841
 6813SOL    HW121338   0.220   3.621   1.855
 6813SOL    HW221339   0.079   3.560   1.800
 6814SOL     OW21340   4.614   2.182   1.790
 6814SOL    HW121341   4.541   2.217   1.849
 6814SOL    HW221342   4.702   2.195   1.835
 6815SOL     OW21343   0.815   5.827   0.204
 6815SOL    HW121344   0.836   5.923   0.224
 6815SOL    HW221345   0.716   5.814   0.202
 6816SOL     OW21346   6.347   6.472   4.206
 6816SOL    HW121347   6.287   6.551   4.193
 6816SOL    HW221348   6.300   6.403   4.262
 6817SOL     OW21349   5.348   0.880   2.028
 6817SOL    HW121350   5.385   0.858   1.937
 6817SOL    HW221351   5.421   0.920   2.084
 6818SOL     OW21352   0.243   0.107   5.541
 6818SOL    HW121353   0.268   0.033   5.603
 6818SOL    HW221354   0.200   0.181   5.593
 6819SOL     OW21355   5.619   4.010   0.968
 6819SOL    HW121356   5.581   3.949   1.038
 6819SOL    HW221357   5.643   3.957   0.887
 6820SOL     OW21358   2.539   3.796   1.409
 6820SOL    HW121359   2.478   3.827   1.481
 6820SOL    HW221360   2.509   3.834   1.321
 6821SOL     OW21361   3.095   3.195   6.112
 6821SOL    HW121362   3.061   3.124   6.174
 6821SOL    HW221363   3.031   3.206   6.036
 6822SOL     OW21364   6.615   3.976   5.265
 6822SOL    HW121365   6.573   3.904   5.209
 6822SOL    HW221366   6.662   4.041   5.206
 6823SOL     OW21367   6.493   3.384   5.776
 6823SOL    HW121368   6.409   3.396   5.828
 6823SOL    HW221369   6.519   3.287   5.774
 6824SOL     OW21370   0.775   0.717   3.833
 6824SOL    HW121371   0.842   0.756   3.896
 6824SOL    HW221372   0.683   0.724   3.872
 6825SOL     OW21373   4.718   4.334   1.305
 6825SOL    HW121374   4.647   4.263   1.314
 6825SOL    HW221375   4.722   4.388   1.389
 6826SOL     OW21376   5.880   1.241   3.263
 6826SOL    HW121377   5.836   1.206   3.181
 6826SOL    HW221378   5.825   1.216   3.343
 6827SOL     OW21379   4.923   5.684   5.672
 6827SOL    HW121380   4.896   5.657   5.580
 6827SOL    HW221381   4.997   5.752   5.666
 6828SOL     OW21382   2.544   2.403   2.469
 6828SOL    HW121383   2.615   2.364   2.410
 6828SOL    HW221384   2.485   2.462   2.415
 6829SOL     OW21385   5.619   6.313   4.304
 6829SOL    HW121386   5.694   6.342   4.363
 6829SOL    HW221387   5.532   6.346   4.342
 6830SOL     OW21388   4.399   6.393   2.096
 6830SOL    HW121389   4.456   6.475   2.094
 6830SOL    HW221390   4.376   6.371   2.191
 6831SOL     OW21391   1.830   1.048   6.759
 6831SOL    HW121392   1.909   1.109   6.764
 6831SOL    HW221393   1.862   0.953   6.759
 6832SOL     OW21394   2.848   3.452   6.950
 6832SOL    HW121395   2.851   3.392   6.870
 6832SOL    HW221396   2.784   3.527   6.934
 6833SOL     OW21397   4.576   5.137   6.717
 6833SOL    HW121398   4.572   5.233   6.744
 6833SOL    HW221399   4.659   5.121   6.664
 6834SOL     OW21400   5.669   5.513   5.297
 6834SOL    HW121401   5.672   5.459   5.380
 6834SOL    HW221402   5.616   5.465   5.227
 6835SOL     OW21403   3.768   7.022   3.362
 6835SOL    HW121404   3.682   0.018   3.408
 6835SOL    HW221405   3.844   0.036   3.413
 6836SOL     OW21406   0.738   4.719   0.010
 6836SOL    HW121407   0.698   4.732   6.943
 6836SOL    HW221408   0.712   4.796   0.068
 6837SOL     OW21409   6.569   1.775   1.840
 6837SOL    HW121410   6.562   1.823   1.753
 6837SOL    HW221411   6.510   1.818   1.907
 6838SOL     OW21412   2.714   4.214   6.247
 6838SOL    HW121413   2.797   4.269   6.249
 6838SOL    HW221414   2.669   4.218   6.336
 6839SOL     OW21415   5.721   2.530   5.474
 6839SOL    HW121416   5.642   2.512   5.532
 6839SOL    HW221417   5.691   2.552   5.382
 6840SOL     OW21418   3.346   6.972   4.538
 6840SOL    HW121419   3.380   0.016   4.602
 6840SOL    HW221420   3.408   6.894   4.536
 6841SOL     OW21421   4.190   6.612   0.607
 6841SOL    HW121422   4.275   6.576   0.569
 6841SOL    HW221423   4.202   6.708   0.632
 6842SOL     OW21424   1.176   3.249   3.655
 6842SOL    HW121425   1.221   3.324   3.608
 6842SOL    HW221426   1.151   3.279   3.747
 6843SOL     OW21427   4.912   2.967   1.775
 6843SOL    HW121428   4.868   2.957   1.864
 6843SOL    HW221429   4.858   3.027   1.717
 6844SOL     OW21430   3.370   6.831   5.029
 6844SOL    HW121431   3.440   6.830   4.959
 6844SOL    HW221432   3.349   6.737   5.057
 6845SOL     OW21433   3.756   3.828   0.119
 6845SOL    HW121434   3.831   3.817   0.054
 6845SOL    HW221435   3.781   3.785   0.206
 6846SOL     OW21436   4.101   3.378   3.647
 6846SOL    HW121437   4.088   3.284   3.677
 6846SOL    HW221438   4.114   3.437   3.726
 6847SOL     OW21439   5.445   2.594   2.518
 6847SOL    HW121440   5.391   2.646   2.585
 6847SOL    HW221441   5.505   2.657   2.468
 6848SOL     OW21442   0.659   6.040   5.051
 6848SOL    HW121443   0.678   5.949   5.089
 6848SOL    HW221444   0.722   6.106   5.090
 6849SOL     OW21445   3.452   0.569   5.085
 6849SOL    HW121446   3.387   0.621   5.140
 6849SOL    HW221447   3.451   0.473   5.113
 6850SOL     OW21448   6.532   3.610   1.827
 6850SOL    HW121449   6.475   3.528   1.817
 6850SOL    HW221450   6.628   3.587   1.812
 6851SOL     OW21451   1.379   5.957   6.367
 6851SOL    HW121452   1.434   6.018   6.425
 6851SOL    HW221453   1.317   5.904   6.424
 6852SOL     OW21454   6.184   4.802   2.320
 6852SOL    HW121455   6.278   4.822   2.294
 6852SOL    HW221456   6.172   4.819   2.418
 6853SOL     OW21457   6.178   4.368   4.715
 6853SOL    HW121458   6.080   4.381   4.727
 6853SOL    HW221459   6.204   4.278   4.751
 6854SOL     OW21460   6.774   1.536   0.087
 6854SOL    HW121461   6.854   1.575   0.133
 6854SOL    HW221462   6.717   1.488   0.153
 6855SOL     OW21463   3.216   6.807   2.106
 6855SOL    HW121464   3.152   6.884   2.114
 6855SOL    HW221465   3.300   6.828   2.157
 6856SOL     OW21466   0.921   5.996   5.823
 6856SOL    HW121467   0.836   6.048   5.822
 6856SOL    HW221468   0.901   5.899   5.809
 6857SOL     OW21469   4.765   1.051   7.006
 6857SOL    HW121470   4.751   1.075   0.078
 6857SOL    HW221471   4.713   1.113   6.948
 6858SOL     OW21472   3.707   3.006   6.737
 6858SOL    HW121473   3.633   3.048   6.684
 6858SOL    HW221474   3.671   2.928   6.788
 6859SOL     OW21475   3.866   1.098   0.216
 6859SOL    HW121476   3.913   1.166   0.160
 6859SOL    HW221477   3.877   1.007   0.175
 6860SOL     OW21478   4.915   3.561   0.136
 6860SOL    HW121479   4.870   3.573   0.048
 6860SOL    HW221480   4.853   3.589   0.209
 6861SOL     OW21481   5.830   3.605   0.871
 6861SOL    HW121482   5.784   3.677   0.819
 6861SOL    HW221483   5.848   3.527   0.810
 6862SOL     OW21484   2.555   5.013   4.405
 6862SOL    HW121485   2.627   5.074   4.439
 6862SOL    HW221486   2.474   5.067   4.382
 6863SOL     OW21487   1.068   3.389   3.860
 6863SOL    HW121488   1.118   3.470   3.890
 6863SOL    HW221489   0.991   3.372   3.922
 6864SOL     OW21490   4.078   5.507   6.276
 6864SOL    HW121491   4.106   5.439   6.344
 6864SOL    HW221492   4.026   5.579   6.322
 6865SOL     OW21493   0.132   2.953   4.549
 6865SOL    HW121494   0.195   2.993   4.616
 6865SOL    HW221495   0.043   2.996   4.557
 6866SOL     OW21496   0.907   3.504   2.505
 6866SOL    HW121497   0.979   3.489   2.437
 6866SOL    HW221498   0.850   3.581   2.477
 6867SOL     OW21499   1.818   5.367   3.261
 6867SOL    HW121500   1.724   5.340   3.242
 6867SOL    HW221501   1.876   5.344   3.182
 6868SOL     OW21502   1.858   5.303   4.742
 6868SOL    HW121503   1.805   5.279   4.823
 6868SOL    HW221504   1.851   5.401   4.725
 6869SOL     OW21505   0.324   3.218   4.916
 6869SOL    HW121506   0.259   3.192   4.988
 6869SOL    HW221507   0.368   3.304   4.940
 6870SOL     OW21508   6.276   3.397   2.970
 6870SOL    HW121509   6.245   3.353   2.886
 6870SOL    HW221510   6.313   3.329   3.033
 6871SOL     OW21511   4.928   5.865   1.653
 6871SOL    HW121512   5.006   5.827   1.703
 6871SOL    HW221513   4.871   5.918   1.716
 6872SOL     OW21514   3.072   4.100   0.609
 6872SOL    HW121515   3.169   4.106   0.632
 6872SOL    HW221516   3.046   4.181   0.555
 6873SOL     OW21517   5.668   4.711   4.378
 6873SOL    HW121518   5.618   4.721   4.464
 6873SOL    HW221519   5.686   4.614   4.361
 6874SOL     OW21520   0.745   1.819   5.904
 6874SOL    HW121521   0.833   1.800   5.947
 6874SOL    HW221522   0.740   1.771   5.816
 6875SOL     OW21523   3.894   0.716   4.726
 6875SOL    HW121524   3.851   0.629   4.752
 6875SOL    HW221525   3.845   0.755   4.649
 6876SOL     OW21526   3.491   5.568   4.672
 6876SOL    HW121527   3.526   5.477   4.695
 6876SOL    HW221528   3.527   5.635   4.737
 6877SOL     OW21529   1.571   3.769   6.049
 6877SOL    HW121530   1.626   3.767   6.133
 6877SOL    HW221531   1.527   3.680   6.036
 6878SOL     OW21532   1.110   1.219   4.438
 6878SOL    HW121533   1.132   1.317   4.433
 6878SOL    HW221534   1.177   1.168   4.384
 6879SOL     OW21535   6.865   1.219   5.299
 6879SOL    HW121536   6.818   1.180   5.220
 6879SOL    HW221537   6.801   1.274   5.353
 6880SOL     OW21538   1.508   4.164   4.539
 6880SOL    HW121539   1.479   4.091   4.602
 6880SOL    HW221540   1.451   4.161   4.456
 6881SOL     OW21541   5.433   5.741   1.548
 6881SOL    HW121542   5.414   5.682   1.626
 6881SOL    HW221543   5.442   5.685   1.466
 6882SOL     OW21544   2.462   5.917   5.609
 6882SOL    HW121545   2.432   6.012   5.603
 6882SOL    HW221546   2.540   5.903   5.549
 6883SOL     OW21547   3.250   6.111   2.027
 6883SOL    HW121548   3.259   6.210   2.027
 6883SOL    HW221549   3.220   6.080   1.936
 6884SOL     OW21550   1.837   5.266   2.529
 6884SOL    HW121551   1.795   5.307   2.448
 6884SOL    HW221552   1.921   5.315   2.551
 6885SOL     OW21553   4.044   4.858   5.142
 6885SOL    HW121554   3.996   4.783   5.188
 6885SOL    HW221555   3.995   4.883   5.058
 6886SOL     OW21556   5.303   1.029   1.616
 6886SOL    HW121557   5.282   1.021   1.714
 6886SOL    HW221558   5.218   1.039   1.565
 6887SOL     OW21559   6.093   0.870   4.956
 6887SOL    HW121560   6.160   0.943   4.946
 6887SOL    HW221561   6.008   0.896   4.909
 6888SOL     OW21562   5.920   0.104   4.317
 6888SOL    HW121563   5.935   0.125   4.413
 6888SOL    HW221564   5.825   0.124   4.292
 6889SOL     OW21565   1.859   4.744   6.046
 6889SOL    HW121566   1.922   4.698   6.108
 6889SOL    HW221567   1.813   4.818   6.093
 6890SOL     OW21568   2.204   0.640   1.151
 6890SOL    HW121569   2.137   0.628   1.224
 6890SOL    HW221570   2.178   0.586   1.071
 6891SOL     OW21571   4.203   5.597   5.473
 6891SOL    HW121572   4.146   5.525   5.434
 6891SOL    HW221573   4.296   5.588   5.438
 6892SOL     OW21574   3.091   1.567   4.919
 6892SOL    HW121575   3.073   1.478   4.877
 6892SOL    HW221576   3.161   1.556   4.990
 6893SOL     OW21577   5.597   0.820   1.281
 6893SOL    HW121578   5.657   0.744   1.259
 6893SOL    HW221579   5.544   0.799   1.363
 6894SOL     OW21580   5.870   4.496   6.607
 6894SOL    HW121581   5.927   4.414   6.598
 6894SOL    HW221582   5.886   4.539   6.695
 6895SOL     OW21583   4.024   5.483   5.913
 6895SOL    HW121584   4.018   5.396   5.962
 6895SOL    HW221585   3.954   5.486   5.842
 6896SOL     OW21586   4.539   1.545   2.828
 6896SOL    HW121587   4.480   1.624   2.813
 6896SOL    HW221588   4.500   1.486   2.899
 6897SOL     OW21589   3.734   0.721   0.968
 6897SOL    HW121590   3.827   0.730   0.932
 6897SOL    HW221591   3.719   0.627   0.998
 6898SOL     OW21592   3.817   1.109   2.689
 6898SOL    HW121593   3.854   1.079   2.601
 6898SOL    HW221594   3.825   1.208   2.696
 6899SOL     OW21595   5.502   6.265   6.299
 6899SOL    HW121596   5.572   6.324   6.259
 6899SOL    HW221597   5.436   6.239   6.228
 6900SOL     OW21598   4.616   1.117   6.808
 6900SOL    HW121599   4.525   1.078   6.795
 6900SOL    HW221600   4.669   1.105   6.724
 6901SOL     OW21601   1.720   0.841   6.993
 6901SOL    HW121602   1.788   0.912   6.976
 6901SOL    HW221603   1.723   0.813   0.064
 6902SOL     OW21604   6.388   5.647   2.453
 6902SOL    HW121605   6.448   5.597   2.515
 6902SOL    HW221606   6.444   5.704   2.392
 6903SOL     OW21607   4.365   4.459   0.379
 6903SOL    HW121608   4.288   4.401   0.352
 6903SOL    HW221609   4.450   4.408   0.370
 6904SOL     OW21610   0.735   0.770   2.820
 6904SOL    HW121611   0.758   0.866   2.805
 6904SOL    HW221612   0.781   0.737   2.903
 6905SOL     OW21613   3.737   5.702   0.971
 6905SOL    HW121614   3.715   5.697   1.069
 6905SOL    HW221615   3.654   5.687   0.918
 6906SOL     OW21616   6.068   6.381   3.297
 6906SOL    HW121617   6.112   6.461   3.256
 6906SOL    HW221618   6.138   6.316   3.327
 6907SOL     OW21619   3.171   0.493   1.206
 6907SOL    HW121620   3.199   0.484   1.110
 6907SOL    HW221621   3.249   0.477   1.266
 6908SOL     OW21622   5.582   6.884   6.953
 6908SOL    HW121623   5.598   6.961   7.015
 6908SOL    HW221624   5.484   6.867   6.947
 6909SOL     OW21625   2.337   2.432   6.979
 6909SOL    HW121626   2.339   2.385   6.891
 6909SOL    HW221627   2.332   2.365   0.029
 6910SOL     OW21628   5.236   1.223   1.355
 6910SOL    HW121629   5.227   1.148   1.289
 6910SOL    HW221630   5.186   1.303   1.323
 6911SOL     OW21631   4.414   0.781   4.985
 6911SOL    HW121632   4.400   0.840   5.064
 6911SOL    HW221633   4.439   0.689   5.015
 6912SOL     OW21634   4.443   4.566   2.103
 6912SOL    HW121635   4.405   4.608   2.020
 6912SOL    HW221636   4.463   4.470   2.086
 6913SOL     OW21637   4.496   5.641   5.454
 6913SOL    HW121638   4.516   5.599   5.543
 6913SOL    HW221639   4.519   5.576   5.382
 6914SOL     OW21640   6.371   4.973   6.936
 6914SOL    HW121641   6.429   5.029   6.996
 6914SOL    HW221642   6.324   5.032   6.871
 6915SOL     OW21643   0.259   6.172   1.015
 6915SOL    HW121644   0.307   6.158   1.102
 6915SOL    HW221645   0.202   6.092   0.995
 6916SOL     OW21646   6.317   0.715   5.780
 6916SOL    HW121647   6.251   0.789   5.769
 6916SOL    HW221648   6.360   0.695   5.692
 6917SOL     OW21649   4.912   0.193   6.437
 6917SOL    HW121650   4.878   0.286   6.448
 6917SOL    HW221651   4.839   0.128   6.457
 6918SOL     OW21652   2.269   3.032   3.922
 6918SOL    HW121653   2.268   2.935   3.946
 6918SOL    HW221654   2.266   3.041   3.823
 6919SOL     OW21655   1.491   6.462   3.174
 6919SOL    HW121656   1.396   6.479   3.201
 6919SOL    HW221657   1.548   6.538   3.207
 6920SOL     OW21658   5.587   5.674   4.513
 6920SOL    HW121659   5.531   5.718   4.443
 6920SOL    HW221660   5.560   5.578   4.520
 6921SOL     OW21661   1.192   6.099   3.607
 6921SOL    HW121662   1.253   6.020   3.615
 6921SOL    HW221663   1.113   6.074   3.550
 6922SOL     OW21664   1.941   6.876   0.723
 6922SOL    HW121665   1.899   6.937   0.656
 6922SOL    HW221666   1.897   6.786   0.718
 6923SOL     OW21667   5.020   6.098   4.008
 6923SOL    HW121668   4.991   6.020   3.954
 6923SOL    HW221669   5.063   6.166   3.948
 6924SOL     OW21670   6.300   5.813   2.174
 6924SOL    HW121671   6.357   5.752   2.117
 6924SOL    HW221672   6.352   5.895   2.196
 6925SOL     OW21673   5.435   5.516   2.475
 6925SOL    HW121674   5.385   5.430   2.471
 6925SOL    HW221675   5.482   5.524   2.563
 6926SOL     OW21676   2.931   4.100   5.338
 6926SOL    HW121677   2.925   4.129   5.433
 6926SOL    HW221678   2.986   4.166   5.286
 6927SOL     OW21679   4.195   3.425   1.150
 6927SOL    HW121680   4.192   3.524   1.139
 6927SOL    HW221681   4.251   3.401   1.229
 6928SOL     OW21682   0.166   0.675   6.454
 6928SOL    HW121683   0.128   0.588   6.487
 6928SOL    HW221684   0.188   0.734   6.532
 6929SOL     OW21685   2.764   5.252   1.385
 6929SOL    HW121686   2.786   5.231   1.480
 6929SOL    HW221687   2.837   5.219   1.325
 6930SOL     OW21688   0.498   0.422   3.238
 6930SOL    HW121689   0.590   0.385   3.252
 6930SOL    HW221690   0.431   0.358   3.273
 6931SOL     OW21691   2.128   0.125   6.916
 6931SOL    HW121692   2.195   0.173   6.859
 6931SOL    HW221693   2.110   0.179   6.999
 6932SOL     OW21694   2.408   2.396   0.585
 6932SOL    HW121695   2.464   2.393   0.668
 6932SOL    HW221696   2.383   2.490   0.564
 6933SOL     OW21697   2.352   5.700   5.182
 6933SOL    HW121698   2.364   5.640   5.262
 6933SOL    HW221699   2.256   5.704   5.157
 6934SOL     OW21700   5.402   5.039   6.377
 6934SOL    HW121701   5.481   5.008   6.430
 6934SOL    HW221702   5.420   5.131   6.341
 6935SOL     OW21703   4.570   5.578   3.122
 6935SOL    HW121704   4.476   5.575   3.087
 6935SOL    HW221705   4.633   5.598   3.047
 6936SOL     OW21706   0.731   4.545   0.581
 6936SOL    HW121707   0.778   4.543   0.670
 6936SOL    HW221708   0.696   4.453   0.560
 6937SOL     OW21709   4.528   6.316   5.773
 6937SOL    HW121710   4.603   6.252   5.793
 6937SOL    HW221711   4.553   6.407   5.805
 6938SOL     OW21712   5.675   2.358   5.049
 6938SOL    HW121713   5.707   2.359   4.955
 6938SOL    HW221714   5.673   2.264   5.083
 6939SOL     OW21715   6.754   4.806   2.178
 6939SOL    HW121716   6.688   4.737   2.151
 6939SOL    HW221717   6.756   4.880   2.111
 6940SOL     OW21718   4.285   0.241   4.842
 6940SOL    HW121719   4.350   0.260   4.768
 6940SOL    HW221720   4.304   0.151   4.881
 6941SOL     OW21721   4.059   3.329   4.932
 6941SOL    HW121722   4.069   3.258   4.862
 6941SOL    HW221723   3.976   3.311   4.986
 6942SOL     OW21724   6.107   1.718   0.113
 6942SOL    HW121725   6.092   1.621   0.128
 6942SOL    HW221726   6.024   1.769   0.136
 6943SOL     OW21727   5.818   5.738   6.693
 6943SOL    HW121728   5.855   5.815   6.745
 6943SOL    HW221729   5.718   5.744   6.689
 6944SOL     OW21730   1.140   6.511   0.355
 6944SOL    HW121731   1.150   6.460   0.269
 6944SOL    HW221732   1.215   6.487   0.416
 6945SOL     OW21733   4.742   2.102   5.933
 6945SOL    HW121734   4.726   2.138   6.024
 6945SOL    HW221735   4.794   2.017   5.939
 6946SOL     OW21736   6.026   3.579   3.703
 6946SOL    HW121737   6.058   3.589   3.797
 6946SOL    HW221738   5.985   3.664   3.672
 6947SOL     OW21739   3.981   0.031   1.512
 6947SOL    HW121740   3.893   0.070   1.486
 6947SOL    HW221741   3.970   6.960   1.540
 6948SOL     OW21742   3.936   2.409   5.465
 6948SOL    HW121743   3.961   2.502   5.494
 6948SOL    HW221744   4.011   2.369   5.413
 6949SOL     OW21745   4.730   0.998   2.583
 6949SOL    HW121746   4.664   1.035   2.518
 6949SOL    HW221747   4.814   0.973   2.535
 6950SOL     OW21748   3.206   1.546   3.776
 6950SOL    HW121749   3.253   1.607   3.712
 6950SOL    HW221750   3.206   1.588   3.867
 6951SOL     OW21751   4.762   4.825   5.396
 6951SOL    HW121752   4.682   4.813   5.337
 6951SOL    HW221753   4.827   4.751   5.378
 6952SOL     OW21754   6.958   4.270   5.091
 6952SOL    HW121755   0.012   4.231   5.139
 6952SOL    HW221756   6.989   4.313   5.006
 6953SOL     OW21757   5.377   2.625   5.104
 6953SOL    HW121758   5.339   2.546   5.152
 6953SOL    HW221759   5.395   2.601   5.009
 6954SOL     OW21760   0.277   4.481   1.758
 6954SOL    HW121761   0.356   4.541   1.746
 6954SOL    HW221762   0.200   4.517   1.706
 6955SOL     OW21763   6.712   0.238   2.811
 6955SOL    HW121764   6.656   0.171   2.763
 6955SOL    HW221765   6.808   0.209   2.808
 6956SOL     OW21766   2.434   4.304   1.225
 6956SOL    HW121767   2.352   4.253   1.199
 6956SOL    HW221768   2.472   4.348   1.145
 6957SOL     OW21769   1.092   4.428   6.749
 6957SOL    HW121770   1.030   4.363   6.705
 6957SOL    HW221771   1.184   4.391   6.751
 6958SOL     OW21772   2.486   3.697   5.962
 6958SOL    HW121773   2.430   3.676   5.882
 6958SOL    HW221774   2.558   3.762   5.938
 6959SOL     OW21775   3.760   1.233   4.050
 6959SOL    HW121776   3.732   1.187   3.966
 6959SOL    HW221777   3.690   1.220   4.120
 6960SOL     OW21778   0.511   5.298   6.924
 6960SOL    HW121779   0.477   5.317   7.017
 6960SOL    HW221780   0.556   5.209   6.922
 6961SOL     OW21781   6.370   1.541   2.965
 6961SOL    HW121782   6.464   1.511   2.951
 6961SOL    HW221783   6.314   1.463   2.991
 6962SOL     OW21784   3.715   3.550   1.168
 6962SOL    HW121785   3.767   3.557   1.083
 6962SOL    HW221786   3.761   3.487   1.230
 6963SOL     OW21787   6.252   6.289   2.485
 6963SOL    HW121788   6.157   6.263   2.498
 6963SOL    HW221789   6.262   6.388   2.498
 6964SOL     OW21790   3.090   5.893   5.383
 6964SOL    HW121791   3.061   5.960   5.315
 6964SOL    HW221792   3.181   5.917   5.417
 6965SOL     OW21793   6.342   1.618   5.432
 6965SOL    HW121794   6.386   1.675   5.502
 6965SOL    HW221795   6.272   1.560   5.474
 6966SOL     OW21796   5.098   2.362   4.025
 6966SOL    HW121797   5.151   2.439   4.062
 6966SOL    HW221798   5.106   2.284   4.087
 6967SOL     OW21799   2.446   2.586   5.785
 6967SOL    HW121800   2.354   2.569   5.822
 6967SOL    HW221801   2.439   2.604   5.687
 6968SOL     OW21802   4.390   0.041   4.273
 6968SOL    HW121803   4.485   0.067   4.293
 6968SOL    HW221804   4.363   0.077   4.184
 6969SOL     OW21805   3.019   2.957   0.622
 6969SOL    HW121806   2.996   2.877   0.566
 6969SOL    HW221807   3.117   2.973   0.618
 6970SOL     OW21808   4.371   4.353   0.952
 6970SOL    HW121809   4.467   4.361   0.980
 6970SOL    HW221810   4.359   4.400   0.864
 6971SOL     OW21811   6.393   0.948   1.918
 6971SOL    HW121812   6.437   0.956   2.008
 6971SOL    HW221813   6.379   0.851   1.896
 6972SOL     OW21814   5.389   5.015   4.502
 6972SOL    HW121815   5.294   5.020   4.530
 6972SOL    HW221816   5.413   5.097   4.450
 6973SOL     OW21817   1.502   4.054   3.149
 6973SOL    HW121818   1.593   4.074   3.186
 6973SOL    HW221819   1.498   4.084   3.054
 6974SOL     OW21820   3.303   3.964   5.028
 6974SOL    HW121821   3.217   4.011   5.049
 6974SOL    HW221822   3.306   3.878   5.078
 6975SOL     OW21823   3.123   7.008   6.580
 6975SOL    HW121824   3.088   6.926   6.534
 6975SOL    HW221825   3.115   0.062   6.518
 6976SOL     OW21826   0.878   6.451   0.919
 6976SOL    HW121827   0.836   6.540   0.901
 6976SOL    HW221828   0.950   6.461   0.988
 6977SOL     OW21829   4.755   2.815   2.167
 6977SOL    HW121830   4.755   2.888   2.099
 6977SOL    HW221831   4.758   2.854   2.259
 6978SOL     OW21832   4.355   1.699   3.055
 6978SOL    HW121833   4.395   1.752   2.980
 6978SOL    HW221834   4.385   1.737   3.142
 6979SOL     OW21835   0.739   4.042   3.517
 6979SOL    HW121836   0.824   3.991   3.502
 6979SOL    HW221837   0.713   4.087   3.431
 6980SOL     OW21838   4.297   1.137   4.740
 6980SOL    HW121839   4.227   1.067   4.734
 6980SOL    HW221840   4.384   1.095   4.766
 6981SOL     OW21841   2.805   3.993   0.351
 6981SOL    HW121842   2.876   3.922   0.353
 6981SOL    HW221843   2.721   3.957   0.391
 6982SOL     OW21844   0.549   6.908   5.512
 6982SOL    HW121845   0.581   6.991   5.467
 6982SOL    HW221846   0.460   6.925   5.554
 6983SOL     OW21847   6.802   0.900   2.635
 6983SOL    HW121848   6.733   0.833   2.662
 6983SOL    HW221849   6.789   0.984   2.688
 6984SOL     OW21850   1.712   1.484   5.637
 6984SOL    HW121851   1.766   1.453   5.716
 6984SOL    HW221852   1.664   1.568   5.661
 6985SOL     OW21853   5.026   0.095   4.019
 6985SOL    HW121854   5.052   0.171   3.959
 6985SOL    HW221855   5.047   0.009   3.974
 6986SOL     OW21856   1.539   6.852   4.786
 6986SOL    HW121857   1.519   6.795   4.707
 6986SOL    HW221858   1.606   6.922   4.761
 6987SOL     OW21859   6.787   3.482   6.532
 6987SOL    HW121860   6.789   3.385   6.505
 6987SOL    HW221861   6.872   3.526   6.501
 6988SOL     OW21862   5.343   1.579   6.014
 6988SOL    HW121863   5.306   1.578   5.921
 6988SOL    HW221864   5.432   1.534   6.015
 6989SOL     OW21865   2.196   3.013   3.584
 6989SOL    HW121866   2.101   2.985   3.569
 6989SOL    HW221867   2.198   3.094   3.642
 6990SOL     OW21868   3.936   2.981   1.054
 6990SOL    HW121869   3.952   3.080   1.049
 6990SOL    HW221870   3.984   2.943   1.133
 6991SOL     OW21871   4.082   4.479   5.329
 6991SOL    HW121872   4.060   4.433   5.415
 6991SOL    HW221873   4.157   4.431   5.284
 6992SOL     OW21874   6.242   6.619   4.686
 6992SOL    HW121875   6.143   6.632   4.677
 6992SOL    HW221876   6.280   6.694   4.741
 6993SOL     OW21877   0.271   6.984   3.681
 6993SOL    HW121878   0.266   0.002   3.771
 6993SOL    HW221879   0.199   7.021   3.622
 6994SOL     OW21880   1.573   2.578   0.241
 6994SOL    HW121881   1.485   2.624   0.251
 6994SOL    HW221882   1.580   2.505   0.309
 6995SOL     OW21883   1.020   5.152   3.997
 6995SOL    HW121884   1.114   5.180   4.016
 6995SOL    HW221885   1.001   5.066   4.046
 6996SOL     OW21886   1.983   0.052   6.348
 6996SOL    HW121887   1.894   0.093   6.327
 6996SOL    HW221888   2.045   0.068   6.271
 6997SOL     OW21889   4.754   5.676   4.162
 6997SOL    HW121890   4.854   5.665   4.163
 6997SOL    HW221891   4.723   5.685   4.068
 6998SOL     OW21892   2.924   1.772   3.667
 6998SOL    HW121893   2.928   1.673   3.679
 6998SOL    HW221894   2.829   1.803   3.672
 6999SOL     OW21895   5.350   1.893   6.947
 6999SOL    HW121896   5.334   1.890   0.021
 6999SOL    HW221897   5.275   1.941   6.901
 7000SOL     OW21898   6.457   0.254   1.353
 7000SOL    HW121899   6.376   0.297   1.393
 7000SOL    HW221900   6.502   0.318   1.290
 7001SOL     OW21901   2.765   1.804   6.265
 7001SOL    HW121902   2.699   1.735   6.295
 7001SOL    HW221903   2.821   1.766   6.192
 7002SOL     OW21904   2.092   4.660   2.261
 7002SOL    HW121905   2.056   4.567   2.258
 7002SOL    HW221906   2.117   4.690   2.169
 7003SOL     OW21907   1.530   5.985   5.784
 7003SOL    HW121908   1.527   6.077   5.823
 7003SOL    HW221909   1.440   5.942   5.793
 7004SOL     OW21910   1.631   3.882   6.667
 7004SOL    HW121911   1.580   3.844   6.590
 7004SOL    HW221912   1.567   3.903   6.742
 7005SOL     OW21913   6.521   6.749   6.300
 7005SOL    HW121914   6.536   6.675   6.366
 7005SOL    HW221915   6.570   6.727   6.215
 7006SOL     OW21916   4.527   4.788   3.877
 7006SOL    HW121917   4.504   4.705   3.927
 7006SOL    HW221918   4.504   4.777   3.780
 7007SOL     OW21919   4.718   5.075   2.754
 7007SOL    HW121920   4.682   5.164   2.781
 7007SOL    HW221921   4.677   5.004   2.811
 7008SOL     OW21922   1.065   4.931   4.171
 7008SOL    HW121923   1.029   4.850   4.217
 7008SOL    HW221924   1.110   4.990   4.239
 7009SOL     OW21925   0.023   4.132   2.249
 7009SOL    HW121926   6.952   4.155   2.231
 7009SOL    HW221927   0.077   4.146   2.166
 7010SOL     OW21928   4.934   4.523   6.600
 7010SOL    HW121929   4.841   4.509   6.564
 7010SOL    HW221930   4.951   4.458   6.674
 7011SOL     OW21931   1.072   0.951   5.463
 7011SOL    HW121932   1.115   0.893   5.532
 7011SOL    HW221933   0.974   0.931   5.458
 7012SOL     OW21934   1.389   1.416   1.468
 7012SOL    HW121935   1.395   1.318   1.487
 7012SOL    HW221936   1.408   1.433   1.371
 7013SOL     OW21937   6.849   1.833   1.840
 7013SOL    HW121938   6.763   1.804   1.881
 7013SOL    HW221939   6.921   1.768   1.862
 7014SOL     OW21940   2.232   5.174   0.509
 7014SOL    HW121941   2.234   5.091   0.564
 7014SOL    HW221942   2.317   5.180   0.456
 7015SOL     OW21943   4.975   2.024   2.455
 7015SOL    HW121944   5.012   2.099   2.510
 7015SOL    HW221945   5.006   2.032   2.361
 7016SOL     OW21946   4.324   4.397   1.492
 7016SOL    HW121947   4.393   4.373   1.559
 7016SOL    HW221948   4.233   4.383   1.531
 7017SOL     OW21949   4.785   1.657   4.908
 7017SOL    HW121950   4.814   1.743   4.867
 7017SOL    HW221951   4.862   1.593   4.911
 7018SOL     OW21952   0.802   3.274   3.059
 7018SOL    HW121953   0.712   3.288   3.017
 7018SOL    HW221954   0.804   3.186   3.105
 7019SOL     OW21955   1.196   5.732   1.256
 7019SOL    HW121956   1.107   5.772   1.233
 7019SOL    HW221957   1.259   5.805   1.283
 7020SOL     OW21958   6.999   6.476   6.609
 7020SOL    HW121959   6.978   6.418   6.531
 7020SOL    HW221960   6.936   6.554   6.611
 7021SOL     OW21961   3.903   0.123   6.218
 7021SOL    HW121962   3.910   0.105   6.120
 7021SOL    HW221963   3.915   0.037   6.269
 7022SOL     OW21964   4.237   5.347   6.110
 7022SOL    HW121965   4.197   5.405   6.040
 7022SOL    HW221966   4.191   5.362   6.197
 7023SOL     OW21967   5.318   4.178   2.415
 7023SOL    HW121968   5.250   4.239   2.373
 7023SOL    HW221969   5.291   4.083   2.399
 7024SOL     OW21970   6.268   6.240   1.325
 7024SOL    HW121971   6.336   6.313   1.323
 7024SOL    HW221972   6.188   6.269   1.272
 7025SOL     OW21973   2.352   0.755   6.975
 7025SOL    HW121974   2.285   0.754   0.026
 7025SOL    HW221975   2.435   0.707   7.003
 7026SOL     OW21976   3.788   1.413   1.478
 7026SOL    HW121977   3.883   1.443   1.468
 7026SOL    HW221978   3.734   1.485   1.523
 7027SOL     OW21979   5.264   5.571   3.766
 7027SOL    HW121980   5.343   5.517   3.738
 7027SOL    HW221981   5.226   5.534   3.851
 7028SOL     OW21982   3.027   0.336   4.594
 7028SOL    HW121983   3.074   0.293   4.517
 7028SOL    HW221984   2.956   0.273   4.628
 7029SOL     OW21985   4.567   1.749   5.053
 7029SOL    HW121986   4.494   1.681   5.047
 7029SOL    HW221987   4.645   1.719   4.998
 7030SOL     OW21988   1.913   3.155   3.995
 7030SOL    HW121989   1.822   3.191   4.017
 7030SOL    HW221990   1.981   3.205   4.048
 7031SOL     OW21991   1.573   1.337   4.380
 7031SOL    HW121992   1.506   1.366   4.449
 7031SOL    HW221993   1.545   1.370   4.290
 7032SOL     OW21994   5.764   2.223   3.792
 7032SOL    HW121995   5.672   2.191   3.816
 7032SOL    HW221996   5.784   2.199   3.697
 7033SOL     OW21997   0.374   0.094   4.945
 7033SOL    HW121998   0.415   0.159   5.008
 7033SOL    HW221999   0.444   0.030   4.913
 7034SOL     OW22000   0.077   5.290   3.266
 7034SOL    HW122001   0.083   5.225   3.343
 7034SOL    HW222002   0.091   5.240   3.180
 7035SOL     OW22003   6.736   4.818   2.461
 7035SOL    HW122004   6.669   4.744   2.448
 7035SOL    HW222005   6.781   4.837   2.374
 7036SOL     OW22006   6.655   4.630   0.861
 7036SOL    HW122007   6.591   4.585   0.799
 7036SOL    HW222008   6.746   4.590   0.849
 7037SOL     OW22009   1.245   0.553   6.488
 7037SOL    HW122010   1.278   0.537   6.581
 7037SOL    HW222011   1.194   0.639   6.486
 7038SOL     OW22012   2.088   3.298   4.126
 7038SOL    HW122013   2.095   3.383   4.179
 7038SOL    HW222014   2.156   3.233   4.160
 7039SOL     OW22015   3.529   2.540   6.704
 7039SOL    HW122016   3.462   2.491   6.760
 7039SOL    HW222017   3.482   2.581   6.626
 7040SOL     OW22018   5.118   2.777   6.956
 7040SOL    HW122019   5.202   2.746   7.000
 7040SOL    HW222020   5.115   2.743   6.862
 7041SOL     OW22021   1.807   1.373   3.667
 7041SOL    HW122022   1.862   1.453   3.647
 7041SOL    HW222023   1.865   1.291   3.665
 7042SOL     OW22024   1.375   0.820   6.037
 7042SOL    HW122025   1.359   0.822   6.136
 7042SOL    HW222026   1.382   0.913   6.002
 7043SOL     OW22027   1.679   1.955   2.373
 7043SOL    HW122028   1.769   1.982   2.337
 7043SOL    HW222029   1.616   2.032   2.369
 7044SOL     OW22030   6.489   6.367   1.853
 7044SOL    HW122031   6.400   6.383   1.895
 7044SOL    HW222032   6.495   6.272   1.823
 7045SOL     OW22033   6.632   4.835   0.182
 7045SOL    HW122034   6.539   4.815   0.153
 7045SOL    HW222035   6.635   4.925   0.225
 7046SOL     OW22036   3.210   1.222   4.201
 7046SOL    HW122037   3.264   1.232   4.285
 7046SOL    HW222038   3.266   1.177   4.131
 7047SOL     OW22039   1.577   0.340   2.636
 7047SOL    HW122040   1.601   0.349   2.539
 7047SOL    HW222041   1.477   0.339   2.645
 7048SOL     OW22042   6.633   5.522   0.429
 7048SOL    HW122043   6.535   5.513   0.414
 7048SOL    HW222044   6.674   5.573   0.353
 7049SOL     OW22045   2.062   1.152   6.367
 7049SOL    HW122046   2.148   1.136   6.318
 7049SOL    HW222047   2.077   1.218   6.441
 7050SOL     OW22048   3.964   3.571   4.737
 7050SOL    HW122049   4.001   3.600   4.825
 7050SOL    HW222050   3.964   3.649   4.674
 7051SOL     OW22051   6.666   6.534   3.282
 7051SOL    HW122052   6.665   6.594   3.202
 7051SOL    HW222053   6.581   6.544   3.333
 7052SOL     OW22054   6.851   0.956   4.810
 7052SOL    HW122055   6.821   0.870   4.769
 7052SOL    HW222056   6.806   0.969   4.898
 7053SOL     OW22057   6.642   4.509   5.885
 7053SOL    HW122058   6.722   4.503   5.825
 7053SOL    HW222059   6.611   4.603   5.891
 7054SOL     OW22060   6.595   1.778   1.543
 7054SOL    HW122061   6.678   1.722   1.551
 7054SOL    HW222062   6.618   1.863   1.495
 7055SOL     OW22063   4.587   1.392   4.301
 7055SOL    HW122064   4.497   1.435   4.312
 7055SOL    HW222065   4.576   1.293   4.294
 7056SOL     OW22066   4.194   5.056   4.054
 7056SOL    HW122067   4.140   5.114   3.994
 7056SOL    HW222068   4.235   4.982   4.001
 7057SOL     OW22069   6.186   5.668   2.647
 7057SOL    HW122070   6.232   5.683   2.559
 7057SOL    HW222071   6.252   5.679   2.721
 7058SOL     OW22072   0.035   4.504   4.573
 7058SOL    HW122073   6.971   4.550   4.583
 7058SOL    HW222074   0.041   4.462   4.483
 7059SOL     OW22075   2.076   1.162   2.438
 7059SOL    HW122076   2.093   1.116   2.525
 7059SOL    HW222077   2.063   1.260   2.455
 7060SOL     OW22078   2.955   6.592   1.074
 7060SOL    HW122079   3.018   6.532   1.024
 7060SOL    HW222080   2.956   6.567   1.171
 7061SOL     OW22081   0.415   0.930   2.752
 7061SOL    HW122082   0.504   0.893   2.722
 7061SOL    HW222083   0.431   1.010   2.810
 7062SOL     OW22084   6.827   1.089   5.582
 7062SOL    HW122085   6.818   1.168   5.523
 7062SOL    HW222086   6.918   1.050   5.574
 7063SOL     OW22087   2.315   6.989   2.031
 7063SOL    HW122088   2.267   6.915   1.984
 7063SOL    HW222089   2.405   6.956   2.060
 7064SOL     OW22090   4.016   2.658   0.485
 7064SOL    HW122091   3.962   2.742   0.478
 7064SOL    HW222092   3.966   2.590   0.539
 7065SOL     OW22093   3.225   3.156   2.152
 7065SOL    HW122094   3.225   3.065   2.195
 7065SOL    HW222095   3.130   3.185   2.137
 7066SOL     OW22096   2.493   5.218   1.016
 7066SOL    HW122097   2.430   5.293   0.996
 7066SOL    HW222098   2.471   5.178   1.105
 7067SOL     OW22099   0.371   3.930   4.250
 7067SOL    HW122100   0.344   3.958   4.158
 7067SOL    HW222101   0.469   3.909   4.251
 7068SOL     OW22102   1.008   0.154   3.002
 7068SOL    HW122103   0.980   0.210   2.924
 7068SOL    HW222104   0.950   0.176   3.080
 7069SOL     OW22105   0.974   4.456   5.051
 7069SOL    HW122106   0.945   4.544   5.011
 7069SOL    HW222107   1.013   4.472   5.142
 7070SOL     OW22108   5.514   5.436   3.503
 7070SOL    HW122109   5.583   5.382   3.455
 7070SOL    HW222110   5.558   5.487   3.578
 7071SOL     OW22111   1.608   0.071   5.014
 7071SOL    HW122112   1.649   7.011   4.980
 7071SOL    HW222113   1.556   0.052   5.097
 7072SOL     OW22114   0.765   6.901   6.980
 7072SOL    HW122115   0.748   6.830   6.911
 7072SOL    HW222116   0.758   6.861   0.047
 7073SOL     OW22117   1.641   1.954   6.373
 7073SOL    HW122118   1.668   1.987   6.282
 7073SOL    HW222119   1.594   1.867   6.365
 7074SOL     OW22120   3.038   1.553   0.131
 7074SOL    HW122121   2.955   1.496   0.136
 7074SOL    HW222122   3.117   1.495   0.115
 7075SOL     OW22123   0.698   5.397   2.010
 7075SOL    HW122124   0.753   5.480   2.002
 7075SOL    HW222125   0.753   5.325   2.054
 7076SOL     OW22126   3.673   1.566   6.330
 7076SOL    HW122127   3.597   1.601   6.275
 7076SOL    HW222128   3.698   1.475   6.298
 7077SOL     OW22129   1.588   4.892   6.622
 7077SOL    HW122130   1.570   4.915   6.527
 7077SOL    HW222131   1.545   4.960   6.682
 7078SOL     OW22132   6.494   0.520   2.324
 7078SOL    HW122133   6.411   0.532   2.270
 7078SOL    HW222134   6.571   0.563   2.277
 7079SOL     OW22135   5.571   6.151   5.414
 7079SOL    HW122136   5.609   6.243   5.426
 7079SOL    HW222137   5.580   6.099   5.499
 7080SOL     OW22138   5.916   0.198   4.024
 7080SOL    HW122139   5.891   0.184   4.120
 7080SOL    HW222140   6.005   0.244   4.019
 7081SOL     OW22141   4.837   0.462   5.462
 7081SOL    HW122142   4.892   0.527   5.515
 7081SOL    HW222143   4.807   0.505   5.377
 7082SOL     OW22144   6.218   1.168   6.619
 7082SOL    HW122145   6.157   1.239   6.583
 7082SOL    HW222146   6.302   1.211   6.652
 7083SOL     OW22147   3.235   0.502   6.011
 7083SOL    HW122148   3.321   0.470   6.050
 7083SOL    HW222149   3.221   0.459   5.922
 7084SOL     OW22150   5.990   6.120   0.478
 7084SOL    HW122151   6.018   6.215   0.490
 7084SOL    HW222152   6.066   6.060   0.504
 7085SOL     OW22153   3.526   1.144   0.968
 7085SOL    HW122154   3.571   1.230   0.991
 7085SOL    HW222155   3.453   1.162   0.902
 7086SOL     OW22156   0.887   1.546   6.035
 7086SOL    HW122157   0.930   1.458   6.059
 7086SOL    HW222158   0.807   1.561   6.092
 7087SOL     OW22159   2.334   2.698   5.019
 7087SOL    HW122160   2.342   2.797   5.032
 7087SOL    HW222161   2.299   2.680   4.927
 7088SOL     OW22162   0.560   2.265   5.634
 7088SOL    HW122163   0.597   2.358   5.643
 7088SOL    HW222164   0.613   2.203   5.692
 7089SOL     OW22165   2.891   1.754   1.651
 7089SOL    HW122166   2.957   1.695   1.603
 7089SOL    HW222167   2.799   1.716   1.640
 7090SOL     OW22168   2.261   2.418   4.837
 7090SOL    HW122169   2.305   2.381   4.755
 7090SOL    HW222170   2.286   2.515   4.846
 7091SOL     OW22171   6.743   6.458   1.059
 7091SOL    HW122172   6.826   6.463   1.004
 7091SOL    HW222173   6.760   6.405   1.142
 7092SOL     OW22174   2.721   2.470   0.501
 7092SOL    HW122175   2.789   2.499   0.568
 7092SOL    HW222176   2.635   2.519   0.517
 7093SOL     OW22177   4.495   3.211   5.812
 7093SOL    HW122178   4.507   3.305   5.847
 7093SOL    HW222179   4.582   3.162   5.820
 7094SOL     OW22180   6.964   0.820   6.332
 7094SOL    HW122181   6.988   0.723   6.335
 7094SOL    HW222182   7.016   0.869   6.402
 7095SOL     OW22183   0.451   4.091   6.651
 7095SOL    HW122184   0.436   4.155   6.727
 7095SOL    HW222185   0.529   4.121   6.597
 7096SOL     OW22186   4.914   0.324   2.912
 7096SOL    HW122187   4.821   0.320   2.876
 7096SOL    HW222188   4.967   0.246   2.878
 7097SOL     OW22189   1.683   1.017   1.818
 7097SOL    HW122190   1.676   0.948   1.746
 7097SOL    HW222191   1.761   1.076   1.801
 7098SOL     OW22192   1.143   0.305   5.995
 7098SOL    HW122193   1.059   0.317   5.941
 7098SOL    HW222194   1.133   0.350   6.084
 7099SOL     OW22195   0.048   0.972   5.571
 7099SOL    HW122196   0.065   0.997   5.475
 7099SOL    HW222197   0.123   1.005   5.628
 7100SOL     OW22198   5.771   2.023   1.154
 7100SOL    HW122199   5.737   1.953   1.216
 7100SOL    HW222200   5.822   1.981   1.080
 7101SOL     OW22201   1.347   0.484   4.022
 7101SOL    HW122202   1.285   0.557   4.050
 7101SOL    HW222203   1.378   0.434   4.103
 7102SOL     OW22204   4.928   2.906   0.645
 7102SOL    HW122205   4.987   2.843   0.596
 7102SOL    HW222206   4.876   2.962   0.580
 7103SOL     OW22207   2.935   0.394   5.933
 7103SOL    HW122208   2.955   0.360   6.025
 7103SOL    HW222209   2.855   0.345   5.897
 7104SOL     OW22210   0.416   2.249   1.859
 7104SOL    HW122211   0.371   2.258   1.770
 7104SOL    HW222212   0.398   2.331   1.914
 7105SOL     OW22213   2.002   3.833   5.580
 7105SOL    HW122214   2.039   3.909   5.526
 7105SOL    HW222215   1.915   3.803   5.541
 7106SOL     OW22216   3.162   2.663   5.414
 7106SOL    HW122217   3.192   2.606   5.491
 7106SOL    HW222218   3.169   2.610   5.329
 7107SOL     OW22219   1.933   1.068   0.458
 7107SOL    HW122220   1.855   1.006   0.449
 7107SOL    HW222221   1.997   1.051   0.382
 7108SOL     OW22222   4.562   6.595   1.839
 7108SOL    HW122223   4.497   6.527   1.806
 7108SOL    HW222224   4.530   6.687   1.817
 7109SOL     OW22225   3.733   6.245   6.359
 7109SOL    HW122226   3.647   6.199   6.382
 7109SOL    HW222227   3.737   6.334   6.405
 7110SOL     OW22228   3.209   4.869   3.446
 7110SOL    HW122229   3.303   4.853   3.476
 7110SOL    HW222230   3.200   4.847   3.349
 7111SOL     OW22231   1.613   2.517   3.539
 7111SOL    HW122232   1.673   2.528   3.460
 7111SOL    HW222233   1.650   2.447   3.600
 7112SOL     OW22234   2.045   6.201   2.214
 7112SOL    HW122235   2.086   6.292   2.225
 7112SOL    HW222236   2.116   6.131   2.217
 7113SOL     OW22237   3.779   3.698   5.115
 7113SOL    HW122238   3.875   3.682   5.096
 7113SOL    HW222239   3.759   3.675   5.210
 7114SOL     OW22240   3.921   6.632   0.778
 7114SOL    HW122241   3.834   6.585   0.769
 7114SOL    HW222242   3.986   6.596   0.710
 7115SOL     OW22243   4.296   1.550   1.622
 7115SOL    HW122244   4.325   1.469   1.673
 7115SOL    HW222245   4.351   1.559   1.539
 7116SOL     OW22246   6.309   3.655   3.001
 7116SOL    HW122247   6.223   3.692   3.035
 7116SOL    HW222248   6.301   3.556   2.989
 7117SOL     OW22249   6.177   6.869   2.444
 7117SOL    HW122250   6.139   6.792   2.392
 7117SOL    HW222251   6.229   6.927   2.382
 7118SOL     OW22252   6.935   3.138   2.636
 7118SOL    HW122253   6.915   3.108   2.543
 7118SOL    HW222254   6.859   3.113   2.696
 7119SOL     OW22255   1.212   2.142   2.885
 7119SOL    HW122256   1.281   2.196   2.933
 7119SOL    HW222257   1.163   2.201   2.821
 7120SOL     OW22258   4.880   6.268   3.360
 7120SOL    HW122259   4.872   6.354   3.411
 7120SOL    HW222260   4.938   6.205   3.411
 7121SOL     OW22261   3.139   6.845   1.659
 7121SOL    HW122262   3.116   6.772   1.724
 7121SOL    HW222263   3.155   6.930   1.708
 7122SOL     OW22264   6.404   7.003   0.428
 7122SOL    HW122265   6.483   7.017   0.368
 7122SOL    HW222266   6.435   6.997   0.523
 7123SOL     OW22267   2.402   5.391   0.287
 7123SOL    HW122268   2.303   5.382   0.279
 7123SOL    HW222269   2.435   5.332   0.361
 7124SOL     OW22270   0.287   5.777   0.409
 7124SOL    HW122271   0.269   5.777   0.311
 7124SOL    HW222272   0.220   5.719   0.456
 7125SOL     OW22273   0.344   6.847   3.131
 7125SOL    HW122274   0.376   6.886   3.217
 7125SOL    HW222275   0.389   6.760   3.115
 7126SOL     OW22276   1.525   4.507   0.857
 7126SOL    HW122277   1.623   4.526   0.858
 7126SOL    HW222278   1.510   4.409   0.872
 7127SOL     OW22279   2.610   0.114   4.548
 7127SOL    HW122280   2.687   0.078   4.600
 7127SOL    HW222281   2.644   0.178   4.479
 7128SOL     OW22282   3.237   3.980   1.840
 7128SOL    HW122283   3.147   4.023   1.851
 7128SOL    HW222284   3.258   3.927   1.922
 7129SOL     OW22285   2.610   2.021   1.451
 7129SOL    HW122286   2.620   2.021   1.551
 7129SOL    HW222287   2.534   2.081   1.426
 7130SOL     OW22288   2.959   0.193   2.391
 7130SOL    HW122289   2.884   0.136   2.426
 7130SOL    HW222290   2.922   0.266   2.334
 7131SOL     OW22291   2.916   1.498   3.711
 7131SOL    HW122292   3.010   1.498   3.744
 7131SOL    HW222293   2.853   1.501   3.789
 7132SOL     OW22294   3.310   4.074   2.645
 7132SOL    HW122295   3.241   4.067   2.717
 7132SOL    HW222296   3.279   4.026   2.563
 7133SOL     OW22297   5.864   4.148   2.053
 7133SOL    HW122298   5.916   4.064   2.039
 7133SOL    HW222299   5.839   4.156   2.150
 7134SOL     OW22300   5.371   4.670   2.856
 7134SOL    HW122301   5.357   4.663   2.758
 7134SOL    HW222302   5.345   4.584   2.900
 7135SOL     OW22303   0.952   2.177   5.695
 7135SOL    HW122304   0.958   2.274   5.669
 7135SOL    HW222305   1.028   2.154   5.755
 7136SOL     OW22306   2.173   1.972   6.821
 7136SOL    HW122307   2.076   1.987   6.806
 7136SOL    HW222308   2.198   1.880   6.791
 7137SOL     OW22309   4.237   1.696   5.347
 7137SOL    HW122310   4.215   1.756   5.270
 7137SOL    HW222311   4.328   1.656   5.334
 7138SOL     OW22312   1.914   3.198   6.696
 7138SOL    HW122313   1.869   3.276   6.740
 7138SOL    HW222314   1.925   3.124   6.763
 7139SOL     OW22315   2.750   1.908   0.260
 7139SOL    HW122316   2.745   1.999   0.218
 7139SOL    HW222317   2.709   1.840   0.199
 7140SOL     OW22318   0.089   3.930   5.049
 7140SOL    HW122319   0.099   4.017   5.000
 7140SOL    HW222320   7.016   3.908   5.056
 7141SOL     OW22321   1.283   6.791   2.020
 7141SOL    HW122322   1.268   6.780   2.118
 7141SOL    HW222323   1.381   6.780   1.999
 7142SOL     OW22324   3.694   6.707   3.621
 7142SOL    HW122325   3.740   6.629   3.580
 7142SOL    HW222326   3.704   6.705   3.720
 7143SOL     OW22327   2.421   2.185   4.124
 7143SOL    HW122328   2.428   2.096   4.080
 7143SOL    HW222329   2.498   2.242   4.095
 7144SOL     OW22330   1.384   3.134   3.794
 7144SOL    HW122331   1.468   3.104   3.749
 7144SOL    HW222332   1.307   3.121   3.732
 7145SOL     OW22333   4.325   6.238   6.072
 7145SOL    HW122334   4.296   6.156   6.024
 7145SOL    HW222335   4.290   6.237   6.166
 7146SOL     OW22336   2.872   5.484   1.676
 7146SOL    HW122337   2.875   5.386   1.656
 7146SOL    HW222338   2.838   5.533   1.596
 7147SOL     OW22339   0.257   1.143   3.012
 7147SOL    HW122340   0.162   1.173   3.012
 7147SOL    HW222341   0.266   1.061   3.069
 7148SOL     OW22342   0.268   1.354   0.504
 7148SOL    HW122343   0.210   1.364   0.585
 7148SOL    HW222344   0.211   1.343   0.423
 7149SOL     OW22345   0.024   0.866   4.496
 7149SOL    HW122346   7.018   0.912   4.413
 7149SOL    HW222347   0.109   0.818   4.479
 7150SOL     OW22348   6.233   3.875   6.755
 7150SOL    HW122349   6.203   3.967   6.780
 7150SOL    HW222350   6.161   3.830   6.702
 7151SOL     OW22351   2.367   6.712   1.406
 7151SOL    HW122352   2.412   6.624   1.420
 7151SOL    HW222353   2.350   6.726   1.309
 7152SOL     OW22354   0.888   2.694   3.866
 7152SOL    HW122355   0.982   2.727   3.864
 7152SOL    HW222356   0.886   2.594   3.865
 7153SOL     OW22357   3.470   1.793   3.434
 7153SOL    HW122358   3.380   1.767   3.398
 7153SOL    HW222359   3.507   1.869   3.380
 7154SOL     OW22360   4.378   6.054   4.959
 7154SOL    HW122361   4.381   6.079   4.862
 7154SOL    HW222362   4.303   5.988   4.973
 7155SOL     OW22363   2.282   1.459   3.496
 7155SOL    HW122364   2.199   1.465   3.440
 7155SOL    HW222365   2.347   1.529   3.468
 7156SOL     OW22366   1.279   5.515   4.791
 7156SOL    HW122367   1.213   5.494   4.864
 7156SOL    HW222368   1.274   5.445   4.720
 7157SOL     OW22369   4.934   4.039   0.789
 7157SOL    HW122370   5.022   3.992   0.802
 7157SOL    HW222371   4.942   4.134   0.817
 7158SOL     OW22372   5.020   6.899   4.231
 7158SOL    HW122373   5.119   6.910   4.221
 7158SOL    HW222374   4.976   6.989   4.232
 7159SOL     OW22375   0.836   5.466   0.247
 7159SOL    HW122376   0.766   5.495   0.181
 7159SOL    HW222377   0.910   5.420   0.199
 7160SOL     OW22378   6.460   1.003   1.648
 7160SOL    HW122379   6.412   0.953   1.720
 7160SOL    HW222380   6.400   1.073   1.609
 7161SOL     OW22381   3.390   4.028   4.204
 7161SOL    HW122382   3.319   3.981   4.152
 7161SOL    HW222383   3.349   4.071   4.285
 7162SOL     OW22384   3.417   4.913   4.156
 7162SOL    HW122385   3.419   5.013   4.150
 7162SOL    HW222386   3.441   4.874   4.067
 7163SOL     OW22387   1.586   6.350   2.784
 7163SOL    HW122388   1.513   6.418   2.791
 7163SOL    HW222389   1.673   6.392   2.811
 7164SOL     OW22390   2.850   2.000   4.302
 7164SOL    HW122391   2.844   1.918   4.360
 7164SOL    HW222392   2.902   1.980   4.220
 7165SOL     OW22393   5.291   6.071   2.610
 7165SOL    HW122394   5.336   6.063   2.521
 7165SOL    HW222395   5.237   6.155   2.613
 7166SOL     OW22396   4.667   5.616   2.256
 7166SOL    HW122397   4.742   5.588   2.196
 7166SOL    HW222398   4.592   5.651   2.200
 7167SOL     OW22399   5.415   3.514   5.948
 7167SOL    HW122400   5.489   3.474   5.893
 7167SOL    HW222401   5.333   3.457   5.941
 7168SOL     OW22402   0.522   1.847   4.283
 7168SOL    HW122403   0.492   1.913   4.351
 7168SOL    HW222404   0.613   1.813   4.306
 7169SOL     OW22405   2.090   2.497   6.588
 7169SOL    HW122406   2.104   2.448   6.502
 7169SOL    HW222407   2.047   2.436   6.655
 7170SOL     OW22408   6.027   5.064   3.688
 7170SOL    HW122409   6.016   5.033   3.593
 7170SOL    HW222410   6.116   5.109   3.698
 7171SOL     OW22411   4.035   2.934   5.925
 7171SOL    HW122412   3.994   2.951   6.015
 7171SOL    HW222413   4.117   2.990   5.915
 7172SOL     OW22414   0.481   0.390   1.767
 7172SOL    HW122415   0.470   0.292   1.780
 7172SOL    HW222416   0.396   0.436   1.790
 7173SOL     OW22417   6.084   6.410   5.326
 7173SOL    HW122418   6.167   6.410   5.271
 7173SOL    HW222419   6.011   6.459   5.278
 7174SOL     OW22420   0.792   5.941   6.160
 7174SOL    HW122421   0.871   5.934   6.221
 7174SOL    HW222422   0.788   5.860   6.101
 7175SOL     OW22423   6.105   3.437   5.504
 7175SOL    HW122424   6.175   3.499   5.468
 7175SOL    HW222425   6.014   3.469   5.477
 7176SOL     OW22426   7.022   3.241   1.443
 7176SOL    HW122427   0.014   3.226   1.540
 7176SOL    HW222428   0.075   3.292   1.403
 7177SOL     OW22429   1.245   5.515   1.777
 7177SOL    HW122430   1.320   5.491   1.839
 7177SOL    HW222431   1.231   5.614   1.779
 7178SOL     OW22432   6.891   1.694   6.332
 7178SOL    HW122433   6.923   1.655   6.246
 7178SOL    HW222434   6.965   1.746   6.374
 7179SOL     OW22435   1.581   4.953   6.349
 7179SOL    HW122436   1.659   4.951   6.287
 7179SOL    HW222437   1.496   4.957   6.296
 7180SOL     OW22438   0.357   0.223   2.800
 7180SOL    HW122439   0.323   0.132   2.825
 7180SOL    HW222440   0.426   0.215   2.729
 7181SOL     OW22441   5.700   6.448   2.736
 7181SOL    HW122442   5.624   6.511   2.725
 7181SOL    HW222443   5.778   6.480   2.682
 7182SOL     OW22444   4.000   3.655   5.973
 7182SOL    HW122445   4.090   3.650   6.015
 7182SOL    HW222446   3.963   3.563   5.961
 7183SOL     OW22447   1.913   3.873   3.836
 7183SOL    HW122448   1.837   3.834   3.888
 7183SOL    HW222449   1.924   3.821   3.751
 7184SOL     OW22450   2.487   5.426   2.749
 7184SOL    HW122451   2.531   5.449   2.837
 7184SOL    HW222452   2.389   5.446   2.754
 7185SOL     OW22453   4.203   2.940   7.013
 7185SOL    HW122454   4.266   2.864   7.001
 7185SOL    HW222455   4.113   2.914   6.978
 7186SOL     OW22456   0.233   0.102   4.480
 7186SOL    HW122457   0.207   0.108   4.576
 7186SOL    HW222458   0.187   0.023   4.438
 7187SOL     OW22459   1.523   5.287   1.164
 7187SOL    HW122460   1.605   5.277   1.108
 7187SOL    HW222461   1.468   5.363   1.130
 7188SOL     OW22462   5.364   0.007   1.720
 7188SOL    HW122463   5.406   6.994   1.637
 7188SOL    HW222464   5.297   0.076   1.696
 7189SOL     OW22465   6.767   0.989   5.073
 7189SOL    HW122466   6.676   0.991   5.115
 7189SOL    HW222467   6.829   0.935   5.129
 7190SOL     OW22468   4.395   5.099   2.949
 7190SOL    HW122469   4.304   5.082   2.985
 7190SOL    HW222470   4.461   5.104   3.024
 7191SOL     OW22471   0.996   3.213   1.424
 7191SOL    HW122472   1.032   3.264   1.503
 7191SOL    HW222473   1.069   3.199   1.357
 7192SOL     OW22474   3.618   4.908   6.722
 7192SOL    HW122475   3.608   4.890   6.820
 7192SOL    HW222476   3.632   4.822   6.674
 7193SOL     OW22477   5.509   1.714   3.930
 7193SOL    HW122478   5.418   1.672   3.929
 7193SOL    HW222479   5.531   1.748   3.839
 7194SOL     OW22480   3.302   1.657   1.437
 7194SOL    HW122481   3.315   1.754   1.458
 7194SOL    HW222482   3.247   1.648   1.354
 7195SOL     OW22483   0.226   6.022   1.787
 7195SOL    HW122484   0.263   6.114   1.770
 7195SOL    HW222485   0.128   6.029   1.807
 7196SOL     OW22486   3.694   2.956   1.248
 7196SOL    HW122487   3.790   2.935   1.229
 7196SOL    HW222488   3.672   2.933   1.343
 7197SOL     OW22489   1.246   1.738   4.087
 7197SOL    HW122490   1.281   1.756   3.995
 7197SOL    HW222491   1.322   1.718   4.148
 7198SOL     OW22492   0.123   6.338   6.058
 7198SOL    HW122493   0.220   6.356   6.042
 7198SOL    HW222494   0.103   6.241   6.044
 7199SOL     OW22495   5.245   6.784   3.303
 7199SOL    HW122496   5.180   6.740   3.241
 7199SOL    HW222497   5.299   6.714   3.349
 7200SOL     OW22498   2.359   2.006   2.358
 7200SOL    HW122499   2.414   2.005   2.275
 7200SOL    HW222500   2.397   2.072   2.422
 7201SOL     OW22501   2.334   4.893   3.016
 7201SOL    HW122502   2.391   4.964   3.058
 7201SOL    HW222503   2.254   4.876   3.074
 7202SOL     OW22504   3.409   0.174   5.618
 7202SOL    HW122505   3.324   0.122   5.607
 7202SOL    HW222506   3.401   0.236   5.696
 7203SOL     OW22507   5.821   0.038   6.705
 7203SOL    HW122508   5.822   0.110   6.635
 7203SOL    HW222509   5.770   0.069   6.785
 7204SOL     OW22510   6.119   1.668   3.013
 7204SOL    HW122511   6.218   1.656   3.012
 7204SOL    HW222512   6.090   1.707   2.925
 7205SOL     OW22513   1.709   4.256   1.337
 7205SOL    HW122514   1.794   4.273   1.288
 7205SOL    HW222515   1.693   4.158   1.345
 7206SOL     OW22516   5.612   1.712   1.683
 7206SOL    HW122517   5.593   1.656   1.603
 7206SOL    HW222518   5.577   1.805   1.668
 7207SOL     OW22519   4.212   6.573   1.873
 7207SOL    HW122520   4.181   6.598   1.965
 7207SOL    HW222521   4.215   6.654   1.815
 7208SOL     OW22522   3.063   0.443   5.092
 7208SOL    HW122523   2.966   0.461   5.103
 7208SOL    HW222524   3.105   0.518   5.040
 7209SOL     OW22525   2.984   3.253   4.253
 7209SOL    HW122526   3.057   3.308   4.295
 7209SOL    HW222527   2.954   3.296   4.168
 7210SOL     OW22528   5.048   0.118   4.441
 7210SOL    HW122529   4.998   0.123   4.355
 7210SOL    HW222530   5.084   0.209   4.464
 7211SOL     OW22531   0.889   4.980   2.411
 7211SOL    HW122532   0.863   4.964   2.507
 7211SOL    HW222533   0.967   4.923   2.388
 7212SOL     OW22534   4.788   6.903   3.766
 7212SOL    HW122535   4.884   6.914   3.790
 7212SOL    HW222536   4.760   6.976   3.705
 7213SOL     OW22537   5.188   6.767   4.742
 7213SOL    HW122538   5.143   6.681   4.715
 7213SOL    HW222539   5.175   6.782   4.840
 7214SOL     OW22540   0.493   4.611   5.448
 7214SOL    HW122541   0.449   4.636   5.535
 7214SOL    HW222542   0.481   4.685   5.382
 7215SOL     OW22543   1.119   3.347   2.036
 7215SOL    HW122544   1.185   3.356   1.961
 7215SOL    HW222545   1.034   3.307   2.001
 7216SOL     OW22546   3.077   1.474   2.392
 7216SOL    HW122547   3.073   1.517   2.302
 7216SOL    HW222548   3.015   1.395   2.394
 7217SOL     OW22549   0.590   3.074   1.855
 7217SOL    HW122550   0.505   3.086   1.804
 7217SOL    HW222551   0.608   2.976   1.868
 7218SOL     OW22552   6.229   2.574   5.610
 7218SOL    HW122553   6.153   2.526   5.568
 7218SOL    HW222554   6.224   2.671   5.587
 7219SOL     OW22555   3.277   0.856   1.057
 7219SOL    HW122556   3.202   0.922   1.057
 7219SOL    HW222557   3.314   0.846   1.149
 7220SOL     OW22558   6.739   1.110   2.793
 7220SOL    HW122559   6.788   1.169   2.857
 7220SOL    HW222560   6.648   1.147   2.777
 7221SOL     OW22561   5.992   4.485   5.507
 7221SOL    HW122562   5.959   4.486   5.413
 7221SOL    HW222563   6.074   4.428   5.513
 7222SOL     OW22564   6.770   6.730   3.758
 7222SOL    HW122565   6.754   6.681   3.672
 7222SOL    HW222566   6.865   6.759   3.763
 7223SOL     OW22567   4.828   0.949   5.112
 7223SOL    HW122568   4.895   0.894   5.162
 7223SOL    HW222569   4.842   0.936   5.013
 7224SOL     OW22570   6.066   0.879   3.805
 7224SOL    HW122571   5.993   0.934   3.845
 7224SOL    HW222572   6.058   0.882   3.705
 7225SOL     OW22573   2.693   0.625   1.476
 7225SOL    HW122574   2.791   0.629   1.492
 7225SOL    HW222575   2.646   0.689   1.538
 7226SOL     OW22576   5.836   6.676   5.446
 7226SOL    HW122577   5.764   6.736   5.480
 7226SOL    HW222578   5.909   6.669   5.514
 7227SOL     OW22579   6.750   2.711   5.852
 7227SOL    HW122580   6.671   2.651   5.866
 7227SOL    HW222581   6.757   2.775   5.930
 7228SOL     OW22582   2.653   0.618   3.091
 7228SOL    HW122583   2.609   0.528   3.084
 7228SOL    HW222584   2.609   0.681   3.028
 7229SOL     OW22585   6.696   0.126   3.296
 7229SOL    HW122586   6.733   0.037   3.322
 7229SOL    HW222587   6.652   0.119   3.206
 7230SOL     OW22588   6.195   5.444   1.504
 7230SOL    HW122589   6.192   5.482   1.596
 7230SOL    HW222590   6.289   5.443   1.471
 7231SOL     OW22591   5.862   0.989   0.048
 7231SOL    HW122592   5.860   1.040   6.986
 7231SOL    HW222593   5.862   1.053   0.124
 7232SOL     OW22594   3.787   3.882   0.993
 7232SOL    HW122595   3.808   3.921   1.082
 7232SOL    HW222596   3.729   3.944   0.942
 7233SOL     OW22597   0.669   1.975   5.353
 7233SOL    HW122598   0.759   1.938   5.327
 7233SOL    HW222599   0.657   2.066   5.311
 7234SOL     OW22600   4.818   2.080   3.244
 7234SOL    HW122601   4.890   2.147   3.262
 7234SOL    HW222602   4.823   2.051   3.149
 7235SOL     OW22603   6.045   2.966   4.430
 7235SOL    HW122604   6.025   3.055   4.471
 7235SOL    HW222605   6.139   2.964   4.399
 7236SOL     OW22606   1.933   1.588   3.552
 7236SOL    HW122607   1.867   1.662   3.540
 7236SOL    HW222608   1.966   1.557   3.463
 7237SOL     OW22609   5.588   4.846   4.634
 7237SOL    HW122610   5.518   4.896   4.583
 7237SOL    HW222611   5.674   4.897   4.631
 7238SOL     OW22612   1.715   0.868   1.583
 7238SOL    HW122613   1.663   0.786   1.557
 7238SOL    HW222614   1.780   0.891   1.511
 7239SOL     OW22615   3.753   0.977   1.892
 7239SOL    HW122616   3.742   1.076   1.892
 7239SOL    HW222617   3.821   0.951   1.824
 7240SOL     OW22618   2.925   3.214   2.354
 7240SOL    HW122619   2.929   3.181   2.260
 7240SOL    HW222620   2.966   3.305   2.359
 7241SOL     OW22621   4.745   6.948   4.477
 7241SOL    HW122622   4.733   0.023   4.477
 7241SOL    HW222623   4.785   6.920   4.389
 7242SOL     OW22624   6.079   5.228   0.878
 7242SOL    HW122625   6.056   5.193   0.969
 7242SOL    HW222626   6.059   5.326   0.875
 7243SOL     OW22627   0.452   5.904   0.698
 7243SOL    HW122628   0.505   5.885   0.782
 7243SOL    HW222629   0.376   5.839   0.692
 7244SOL     OW22630   4.847   1.741   0.987
 7244SOL    HW122631   4.908   1.690   1.047
 7244SOL    HW222632   4.899   1.778   0.910
 7245SOL     OW22633   5.815   2.146   4.081
 7245SOL    HW122634   5.807   2.155   4.180
 7245SOL    HW222635   5.725   2.131   4.040
 7246SOL     OW22636   1.086   5.811   5.568
 7246SOL    HW122637   1.037   5.725   5.583
 7246SOL    HW222638   1.073   5.839   5.473
 7247SOL     OW22639   3.669   5.325   4.253
 7247SOL    HW122640   3.644   5.416   4.287
 7247SOL    HW222641   3.743   5.334   4.186
 7248SOL     OW22642   3.490   0.671   4.270
 7248SOL    HW122643   3.588   0.649   4.265
 7248SOL    HW222644   3.479   0.771   4.272
 7249SOL     OW22645   5.103   3.725   5.868
 7249SOL    HW122646   5.020   3.778   5.883
 7249SOL    HW222647   5.160   3.771   5.799
 7250SOL     OW22648   2.880   3.516   6.664
 7250SOL    HW122649   2.897   3.601   6.714
 7250SOL    HW222650   2.785   3.512   6.635
 7251SOL     OW22651   5.665   0.973   5.162
 7251SOL    HW122652   5.690   0.933   5.250
 7251SOL    HW222653   5.654   0.900   5.094
 7252SOL     OW22654   4.410   3.570   5.396
 7252SOL    HW122655   4.379   3.518   5.476
 7252SOL    HW222656   4.334   3.584   5.333
 7253SOL     OW22657   5.222   4.753   1.177
 7253SOL    HW122658   5.227   4.715   1.269
 7253SOL    HW222659   5.136   4.803   1.166
 7254SOL     OW22660   5.933   6.482   4.824
 7254SOL    HW122661   5.957   6.531   4.740
 7254SOL    HW222662   5.849   6.430   4.810
 7255SOL     OW22663   3.899   3.083   2.789
 7255SOL    HW122664   3.953   3.057   2.709
 7255SOL    HW222665   3.812   3.033   2.788
 7256SOL     OW22666   3.352   5.480   4.089
 7256SOL    HW122667   3.258   5.511   4.104
 7256SOL    HW222668   3.385   5.434   4.171
 7257SOL     OW22669   6.320   4.403   2.655
 7257SOL    HW122670   6.220   4.415   2.656
 7257SOL    HW222671   6.348   4.357   2.739
 7258SOL     OW22672   2.858   0.374   5.603
 7258SOL    HW122673   2.781   0.381   5.539
 7258SOL    HW222674   2.870   0.279   5.631
 7259SOL     OW22675   3.275   4.599   6.409
 7259SOL    HW122676   3.217   4.575   6.331
 7259SOL    HW222677   3.234   4.562   6.493
 7260SOL     OW22678   4.558   2.062   2.627
 7260SOL    HW122679   4.513   2.149   2.646
 7260SOL    HW222680   4.658   2.074   2.631
 7261SOL     OW22681   2.052   4.857   0.920
 7261SOL    HW122682   1.998   4.840   0.838
 7261SOL    HW222683   2.149   4.858   0.896
 7262SOL     OW22684   6.561   0.838   4.745
 7262SOL    HW122685   6.638   0.804   4.691
 7262SOL    HW222686   6.561   0.938   4.745
 7263SOL     OW22687   5.174   6.230   1.848
 7263SOL    HW122688   5.205   6.147   1.893
 7263SOL    HW222689   5.131   6.208   1.761
 7264SOL     OW22690   0.750   6.596   4.532
 7264SOL    HW122691   0.800   6.536   4.469
 7264SOL    HW222692   0.793   6.686   4.535
 7265SOL     OW22693   4.380   3.445   6.663
 7265SOL    HW122694   4.402   3.474   6.570
 7265SOL    HW222695   4.388   3.346   6.670
 7266SOL     OW22696   4.279   1.437   2.063
 7266SOL    HW122697   4.278   1.536   2.052
 7266SOL    HW222698   4.256   1.414   2.158
 7267SOL     OW22699   5.485   2.849   4.425
 7267SOL    HW122700   5.506   2.831   4.521
 7267SOL    HW222701   5.569   2.844   4.371
 7268SOL     OW22702   3.637   0.612   0.596
 7268SOL    HW122703   3.632   0.580   0.501
 7268SOL    HW222704   3.691   0.547   0.650
 7269SOL     OW22705   1.387   0.458   1.775
 7269SOL    HW122706   1.316   0.423   1.836
 7269SOL    HW222707   1.437   0.532   1.820
 7270SOL     OW22708   3.208   2.173   2.468
 7270SOL    HW122709   3.143   2.180   2.543
 7270SOL    HW222710   3.161   2.192   2.381
 7271SOL     OW22711   6.014   5.386   3.582
 7271SOL    HW122712   5.972   5.402   3.493
 7271SOL    HW222713   5.945   5.360   3.648
 7272SOL     OW22714   6.257   2.688   0.701
 7272SOL    HW122715   6.216   2.766   0.748
 7272SOL    HW222716   6.186   2.633   0.657
 7273SOL     OW22717   5.691   5.309   5.543
 7273SOL    HW122718   5.750   5.383   5.573
 7273SOL    HW222719   5.713   5.225   5.594
 7274SOL     OW22720   5.358   4.745   4.262
 7274SOL    HW122721   5.449   4.730   4.223
 7274SOL    HW222722   5.320   4.830   4.227
 7275SOL     OW22723   5.666   6.574   1.628
 7275SOL    HW122724   5.665   6.606   1.533
 7275SOL    HW222725   5.608   6.492   1.635
 7276SOL     OW22726   3.486   1.981   3.791
 7276SOL    HW122727   3.478   2.014   3.885
 7276SOL    HW222728   3.415   2.023   3.735
 7277SOL     OW22729   6.258   1.991   4.021
 7277SOL    HW122730   6.191   2.046   3.972
 7277SOL    HW222731   6.298   1.923   3.959
 7278SOL     OW22732   3.839   2.159   3.938
 7278SOL    HW122733   3.917   2.219   3.954
 7278SOL    HW222734   3.780   2.158   4.019
 7279SOL     OW22735   4.148   3.322   1.433
 7279SOL    HW122736   4.161   3.223   1.442
 7279SOL    HW222737   4.178   3.367   1.517
 7280SOL     OW22738   6.977   1.808   5.358
 7280SOL    HW122739   6.950   1.716   5.330
 7280SOL    HW222740   0.020   1.844   5.293
 7281SOL     OW22741   3.387   6.302   2.959
 7281SOL    HW122742   3.445   6.237   2.910
 7281SOL    HW222743   3.441   6.380   2.989
 7282SOL     OW22744   0.071   3.053   1.049
 7282SOL    HW122745   0.141   3.124   1.045
 7282SOL    HW222746   0.035   3.047   1.142
 7283SOL     OW22747   3.616   5.771   2.848
 7283SOL    HW122748   3.545   5.799   2.912
 7283SOL    HW222749   3.597   5.678   2.814
 7284SOL     OW22750   0.599   0.519   2.759
 7284SOL    HW122751   0.528   0.513   2.829
 7284SOL    HW222752   0.633   0.613   2.753
 7285SOL     OW22753   4.947   2.694   1.993
 7285SOL    HW122754   4.886   2.733   2.062
 7285SOL    HW222755   5.039   2.685   2.030
 7286SOL     OW22756   6.062   1.483   4.077
 7286SOL    HW122757   6.002   1.543   4.024
 7286SOL    HW222758   6.139   1.537   4.112
 7287SOL     OW22759   3.617   1.416   4.544
 7287SOL    HW122760   3.587   1.490   4.605
 7287SOL    HW222761   3.623   1.452   4.451
 7288SOL     OW22762   3.297   1.801   1.979
 7288SOL    HW122763   3.272   1.889   2.017
 7288SOL    HW222764   3.356   1.814   1.899
 7289SOL     OW22765   6.501   2.601   1.756
 7289SOL    HW122766   6.516   2.502   1.747
 7289SOL    HW222767   6.586   2.650   1.734
 7290SOL     OW22768   3.677   2.082   4.843
 7290SOL    HW122769   3.658   2.135   4.926
 7290SOL    HW222770   3.713   1.993   4.868
 7291SOL     OW22771   1.272   1.092   0.721
 7291SOL    HW122772   1.195   1.056   0.772
 7291SOL    HW222773   1.255   1.082   0.623
 7292SOL     OW22774   3.882   1.027   2.432
 7292SOL    HW122775   3.835   1.068   2.355
 7292SOL    HW222776   3.981   1.041   2.422
 7293SOL     OW22777   6.456   0.717   4.329
 7293SOL    HW122778   6.553   0.702   4.347
 7293SOL    HW222779   6.442   0.812   4.299
 7294SOL     OW22780   3.724   0.397   3.201
 7294SOL    HW122781   3.629   0.404   3.171
 7294SOL    HW222782   3.727   0.390   3.301
 7295SOL     OW22783   5.388   4.056   1.705
 7295SOL    HW122784   5.427   4.074   1.615
 7295SOL    HW222785   5.297   4.017   1.695
 7296SOL     OW22786   3.687   6.258   2.094
 7296SOL    HW122787   3.746   6.238   2.016
 7296SOL    HW222788   3.634   6.176   2.117
 7297SOL     OW22789   3.846   6.890   0.864
 7297SOL    HW122790   3.883   6.799   0.845
 7297SOL    HW222791   3.748   6.890   0.848
 7298SOL     OW22792   4.109   4.848   1.463
 7298SOL    HW122793   4.015   4.815   1.467
 7298SOL    HW222794   4.168   4.787   1.517
 7299SOL     OW22795   0.843   3.276   6.783
 7299SOL    HW122796   0.943   3.281   6.783
 7299SOL    HW222797   0.806   3.354   6.732
 7300SOL     OW22798   0.668   3.517   1.350
 7300SOL    HW122799   0.683   3.539   1.253
 7300SOL    HW222800   0.713   3.585   1.407
 7301SOL     OW22801   4.329   2.054   0.286
 7301SOL    HW122802   4.413   1.999   0.287
 7301SOL    HW222803   4.342   2.136   0.342
 7302SOL     OW22804   5.404   2.078   6.246
 7302SOL    HW122805   5.341   2.058   6.321
 7302SOL    HW222806   5.483   2.128   6.281
 7303SOL     OW22807   3.066   2.191   1.453
 7303SOL    HW122808   3.133   2.186   1.379
 7303SOL    HW222809   2.974   2.179   1.416
 7304SOL     OW22810   2.113   6.916   0.199
 7304SOL    HW122811   2.022   6.876   0.186
 7304SOL    HW222812   2.145   6.953   0.112
 7305SOL     OW22813   6.548   0.166   6.313
 7305SOL    HW122814   6.634   0.119   6.294
 7305SOL    HW222815   6.566   0.262   6.334
 7306SOL     OW22816   1.473   3.315   1.291
 7306SOL    HW122817   1.500   3.409   1.311
 7306SOL    HW222818   1.424   3.312   1.204
 7307SOL     OW22819   3.404   6.648   1.718
 7307SOL    HW122820   3.322   6.653   1.775
 7307SOL    HW222821   3.386   6.589   1.639
 7308SOL     OW22822   3.790   1.523   2.858
 7308SOL    HW122823   3.886   1.495   2.860
 7308SOL    HW222824   3.762   1.542   2.764
 7309SOL     OW22825   2.121   4.929   3.753
 7309SOL    HW122826   2.183   4.966   3.684
 7309SOL    HW222827   2.029   4.920   3.715
 7310SOL     OW22828   2.680   3.221   0.054
 7310SOL    HW122829   2.739   3.164   7.021
 7310SOL    HW222830   2.646   3.298   0.001
 7311SOL     OW22831   0.556   6.545   6.157
 7311SOL    HW122832   0.503   6.462   6.171
 7311SOL    HW222833   0.539   6.581   6.066
 7312SOL     OW22834   6.344   2.040   4.814
 7312SOL    HW122835   6.279   2.019   4.887
 7312SOL    HW222836   6.311   2.001   4.728
 7313SOL     OW22837   3.289   1.066   2.718
 7313SOL    HW122838   3.249   1.148   2.757
 7313SOL    HW222839   3.389   1.070   2.727
 7314SOL     OW22840   2.092   5.683   5.117
 7314SOL    HW122841   2.039   5.616   5.169
 7314SOL    HW222842   2.104   5.650   5.023
 7315SOL     OW22843   2.849   5.627   2.815
 7315SOL    HW122844   2.891   5.645   2.904
 7315SOL    HW222845   2.864   5.706   2.755
 7316SOL     OW22846   3.838   0.554   1.841
 7316SOL    HW122847   3.822   0.550   1.742
 7316SOL    HW222848   3.782   0.486   1.886
 7317SOL     OW22849   5.852   1.851   0.934
 7317SOL    HW122850   5.807   1.822   0.850
 7317SOL    HW222851   5.944   1.813   0.937
 7318SOL     OW22852   5.125   6.143   1.229
 7318SOL    HW122853   5.223   6.141   1.247
 7318SOL    HW222854   5.080   6.204   1.294
 7319SOL     OW22855   4.922   5.941   6.451
 7319SOL    HW122856   4.825   5.947   6.428
 7319SOL    HW222857   4.934   5.885   6.533
 7320SOL     OW22858   1.147   3.260   0.015
 7320SOL    HW122859   1.048   3.260   0.030
 7320SOL    HW222860   1.181   3.166   0.011
 7321SOL     OW22861   2.136   2.559   5.422
 7321SOL    HW122862   2.052   2.516   5.456
 7321SOL    HW222863   2.178   2.613   5.495
 7322SOL     OW22864   2.152   1.929   4.240
 7322SOL    HW122865   2.078   1.892   4.296
 7322SOL    HW222866   2.161   1.875   4.157
 7323SOL     OW22867   1.866   1.958   1.109
 7323SOL    HW122868   1.955   1.956   1.063
 7323SOL    HW222869   1.877   2.001   1.199
 7324SOL     OW22870   4.862   3.725   4.538
 7324SOL    HW122871   4.844   3.631   4.508
 7324SOL    HW222872   4.907   3.723   4.627
 7325SOL     OW22873   4.125   1.188   6.330
 7325SOL    HW122874   4.138   1.180   6.231
 7325SOL    HW222875   4.204   1.149   6.377
 7326SOL     OW22876   3.675   6.516   0.732
 7326SOL    HW122877   3.594   6.504   0.790
 7326SOL    HW222878   3.646   6.550   0.642
 7327SOL     OW22879   1.524   4.557   3.309
 7327SOL    HW122880   1.471   4.586   3.229
 7327SOL    HW222881   1.619   4.584   3.298
 7328SOL     OW22882   5.155   5.559   6.336
 7328SOL    HW122883   5.147   5.496   6.414
 7328SOL    HW222884   5.068   5.606   6.322
 7329SOL     OW22885   2.737   3.697   0.904
 7329SOL    HW122886   2.769   3.719   0.812
 7329SOL    HW222887   2.735   3.780   0.960
 7330SOL     OW22888   2.853   3.316   0.702
 7330SOL    HW122889   2.803   3.326   0.616
 7330SOL    HW222890   2.847   3.221   0.733
 7331SOL     OW22891   5.217   1.298   2.198
 7331SOL    HW122892   5.123   1.262   2.201
 7331SOL    HW222893   5.215   1.397   2.207
 7332SOL     OW22894   2.773   6.962   5.402
 7332SOL    HW122895   2.839   6.891   5.378
 7332SOL    HW222896   2.682   6.921   5.412
 7333SOL     OW22897   5.940   1.355   0.923
 7333SOL    HW122898   5.976   1.404   1.002
 7333SOL    HW222899   5.987   1.267   0.914
 7334SOL     OW22900   1.173   4.371   4.734
 7334SOL    HW122901   1.178   4.272   4.752
 7334SOL    HW222902   1.131   4.386   4.645
 7335SOL     OW22903   0.534   3.171   2.733
 7335SOL    HW122904   0.551   3.073   2.746
 7335SOL    HW222905   0.619   3.216   2.705
 7336SOL     OW22906   2.521   0.246   0.450
 7336SOL    HW122907   2.589   0.273   0.519
 7336SOL    HW222908   2.535   0.151   0.424
 7337SOL     OW22909   3.237   1.380   3.396
 7337SOL    HW122910   3.263   1.386   3.300
 7337SOL    HW222911   3.148   1.334   3.404
 7338SOL     OW22912   5.341   3.822   0.987
 7338SOL    HW122913   5.258   3.877   0.980
 7338SOL    HW222914   5.389   3.843   1.072
 7339SOL     OW22915   0.282   6.660   3.928
 7339SOL    HW122916   0.344   6.626   4.000
 7339SOL    HW222917   0.333   6.669   3.843
 7340SOL     OW22918   2.283   6.315   6.917
 7340SOL    HW122919   2.359   6.380   6.919
 7340SOL    HW222920   2.300   6.243   6.985
 7341SOL     OW22921   6.270   5.477   3.581
 7341SOL    HW122922   6.182   5.437   3.603
 7341SOL    HW222923   6.275   5.570   3.619
 7342SOL     OW22924   0.439   5.423   0.493
 7342SOL    HW122925   0.393   5.488   0.554
 7342SOL    HW222926   0.536   5.419   0.517
 7343SOL     OW22927   0.025   2.400   3.221
 7343SOL    HW122928   0.119   2.376   3.195
 7343SOL    HW222929   6.986   2.332   3.184
 7344SOL     OW22930   2.262   1.009   6.627
 7344SOL    HW122931   2.272   1.086   6.564
 7344SOL    HW222932   2.278   0.923   6.578
 7345SOL     OW22933   1.957   6.920   6.556
 7345SOL    HW122934   1.950   6.822   6.536
 7345SOL    HW222935   1.992   6.968   6.476
 7346SOL     OW22936   3.493   5.117   3.364
 7346SOL    HW122937   3.468   5.079   3.275
 7346SOL    HW222938   3.583   5.159   3.358
 7347SOL     OW22939   6.734   3.248   3.177
 7347SOL    HW122940   6.704   3.221   3.268
 7347SOL    HW222941   6.680   3.326   3.146
 7348SOL     OW22942   6.314   0.894   6.104
 7348SOL    HW122943   6.268   0.872   6.018
 7348SOL    HW222944   6.411   0.870   6.097
 7349SOL     OW22945   3.878   1.459   1.206
 7349SOL    HW122946   3.791   1.445   1.254
 7349SOL    HW222947   3.925   1.538   1.245
 7350SOL     OW22948   2.355   0.812   3.230
 7350SOL    HW122949   2.437   0.795   3.286
 7350SOL    HW222950   2.371   0.891   3.171
 7351SOL     OW22951   4.394   4.472   0.658
 7351SOL    HW122952   4.367   4.465   0.562
 7351SOL    HW222953   4.465   4.541   0.668
 7352SOL     OW22954   6.604   0.697   3.445
 7352SOL    HW122955   6.686   0.741   3.481
 7352SOL    HW222956   6.620   0.598   3.437
 7353SOL     OW22957   5.589   1.647   5.687
 7353SOL    HW122958   5.580   1.566   5.746
 7353SOL    HW222959   5.645   1.625   5.607
 7354SOL     OW22960   5.737   4.468   4.941
 7354SOL    HW122961   5.648   4.495   4.906
 7354SOL    HW222962   5.727   4.428   5.032
 7355SOL     OW22963   6.813   5.841   1.151
 7355SOL    HW122964   6.809   5.797   1.061
 7355SOL    HW222965   6.726   5.828   1.199
 7356SOL     OW22966   0.019   1.941   6.003
 7356SOL    HW122967   0.019   2.009   5.929
 7356SOL    HW222968   0.035   1.987   6.090
 7357SOL     OW22969   0.928   1.359   0.827
 7357SOL    HW122970   0.868   1.281   0.841
 7357SOL    HW222971   0.935   1.379   0.729
 7358SOL     OW22972   3.555   0.891   3.773
 7358SOL    HW122973   3.538   0.831   3.851
 7358SOL    HW222974   3.469   0.933   3.744
 7359SOL     OW22975   3.024   3.267   3.810
 7359SOL    HW122976   2.958   3.285   3.737
 7359SOL    HW222977   3.117   3.284   3.777
 7360SOL     OW22978   0.930   4.244   6.655
 7360SOL    HW122979   0.993   4.187   6.602
 7360SOL    HW222980   0.852   4.269   6.597
 7361SOL     OW22981   4.476   6.719   1.470
 7361SOL    HW122982   4.532   6.798   1.445
 7361SOL    HW222983   4.501   6.689   1.562
 7362SOL     OW22984   1.465   6.258   6.487
 7362SOL    HW122985   1.382   6.299   6.526
 7362SOL    HW222986   1.520   6.217   6.561
 7363SOL     OW22987   4.447   2.312   6.327
 7363SOL    HW122988   4.463   2.382   6.397
 7363SOL    HW222989   4.532   2.263   6.309
 7364SOL     OW22990   4.723   0.083   0.856
 7364SOL    HW122991   4.687   0.012   0.916
 7364SOL    HW222992   4.775   0.149   0.909
 7365SOL     OW22993   4.683   6.944   1.069
 7365SOL    HW122994   4.733   6.895   1.141
 7365SOL    HW222995   4.629   7.018   1.111
 7366SOL     OW22996   1.549   0.133   0.266
 7366SOL    HW122997   1.475   0.083   0.222
 7366SOL    HW222998   1.515   0.178   0.349
 7367SOL     OW22999   4.422   2.756   6.911
 7367SOL    HW123000   4.508   2.807   6.920
 7367SOL    HW223001   4.434   2.663   6.945
 7368SOL     OW23002   3.440   3.110   4.430
 7368SOL    HW123003   3.485   3.042   4.373
 7368SOL    HW223004   3.371   3.065   4.486
 7369SOL     OW23005   6.013   0.475   6.155
 7369SOL    HW123006   5.925   0.520   6.147
 7369SOL    HW223007   6.076   0.513   6.087
 7370SOL     OW23008   0.729   6.002   0.831
 7370SOL    HW123009   0.714   6.043   0.741
 7370SOL    HW223010   0.712   6.070   0.902
 7371SOL     OW23011   1.171   4.896   4.614
 7371SOL    HW123012   1.203   4.806   4.644
 7371SOL    HW223013   1.207   4.967   4.675
 7372SOL     OW23014   3.275   0.703   5.245
 7372SOL    HW123015   3.175   0.714   5.241
 7372SOL    HW223016   3.318   0.793   5.238
 7373SOL     OW23017   3.641   0.337   1.316
 7373SOL    HW123018   3.682   0.407   1.258
 7373SOL    HW223019   3.543   0.331   1.296
 7374SOL     OW23020   2.553   3.521   6.444
 7374SOL    HW123021   2.463   3.499   6.406
 7374SOL    HW223022   2.561   3.480   6.535
 7375SOL     OW23023   2.971   6.184   3.269
 7375SOL    HW123024   2.921   6.194   3.183
 7375SOL    HW223025   3.069   6.193   3.252
 7376SOL     OW23026   3.292   3.799   6.446
 7376SOL    HW123027   3.261   3.856   6.370
 7376SOL    HW223028   3.223   3.729   6.465
 7377SOL     OW23029   6.220   5.885   1.708
 7377SOL    HW123030   6.126   5.921   1.705
 7377SOL    HW223031   6.263   5.895   1.619
 7378SOL     OW23032   0.455   2.269   5.112
 7378SOL    HW123033   0.461   2.172   5.088
 7378SOL    HW223034   0.449   2.279   5.211
 7379SOL     OW23035   4.578   0.635   0.366
 7379SOL    HW123036   4.651   0.601   0.306
 7379SOL    HW223037   4.618   0.666   0.452
 7380SOL     OW23038   6.635   3.037   6.670
 7380SOL    HW123039   6.539   3.015   6.652
 7380SOL    HW223040   6.641   3.108   6.740
 7381SOL     OW23041   4.948   2.158   0.044
 7381SOL    HW123042   5.046   2.180   0.051
 7381SOL    HW223043   4.911   2.197   6.985
 7382SOL     OW23044   1.286   5.253   3.782
 7382SOL    HW123045   1.244   5.225   3.869
 7382SOL    HW223046   1.244   5.337   3.749
 7383SOL     OW23047   1.629   4.393   3.048
 7383SOL    HW123048   1.667   4.366   3.137
 7383SOL    HW223049   1.568   4.471   3.060
 7384SOL     OW23050   6.495   1.908   0.568
 7384SOL    HW123051   6.400   1.941   0.569
 7384SOL    HW223052   6.506   1.839   0.496
 7385SOL     OW23053   5.141   0.670   1.917
 7385SOL    HW123054   5.224   0.724   1.900
 7385SOL    HW223055   5.165   0.590   1.973
 7386SOL     OW23056   6.679   1.809   6.010
 7386SOL    HW123057   6.711   1.823   5.917
 7386SOL    HW223058   6.712   1.883   6.069
 7387SOL     OW23059   5.092   6.239   3.759
 7387SOL    HW123060   5.172   6.295   3.780
 7387SOL    HW223061   5.010   6.296   3.761
 7388SOL     OW23062   5.207   3.899   4.876
 7388SOL    HW123063   5.248   3.813   4.905
 7388SOL    HW223064   5.273   3.952   4.823
 7389SOL     OW23065   0.658   3.224   5.086
 7389SOL    HW123066   0.711   3.141   5.070
 7389SOL    HW223067   0.647   3.275   5.001
 7390SOL     OW23068   4.036   0.522   6.796
 7390SOL    HW123069   3.946   0.540   6.756
 7390SOL    HW223070   4.066   0.603   6.847
 7391SOL     OW23071   0.584   4.982   0.135
 7391SOL    HW123072   0.558   5.036   0.054
 7391SOL    HW223073   0.623   5.043   0.204
 7392SOL     OW23074   2.405   4.738   2.281
 7392SOL    HW123075   2.312   4.730   2.316
 7392SOL    HW223076   2.454   4.652   2.294
 7393SOL     OW23077   0.881   3.730   6.997
 7393SOL    HW123078   0.826   3.812   6.977
 7393SOL    HW223079   0.942   3.712   6.920
 7394SOL     OW23080   2.311   2.816   6.028
 7394SOL    HW123081   2.371   2.759   6.084
 7394SOL    HW223082   2.348   2.822   5.935
 7395SOL     OW23083   2.571   0.606   6.998
 7395SOL    HW123084   2.498   0.541   6.977
 7395SOL    HW223085   2.659   0.560   6.989
 7396SOL     OW23086   6.821   6.772   1.718
 7396SOL    HW123087   6.913   6.754   1.682
 7396SOL    HW223088   6.771   6.686   1.728
 7397SOL     OW23089   6.240   4.140   4.880
 7397SOL    HW123090   6.328   4.160   4.922
 7397SOL    HW223091   6.199   4.060   4.924
 7398SOL     OW23092   4.467   6.472   3.163
 7398SOL    HW123093   4.476   6.559   3.115
 7398SOL    HW223094   4.519   6.475   3.248
 7399SOL     OW23095   5.119   4.724   4.474
 7399SOL    HW123096   5.105   4.630   4.443
 7399SOL    HW223097   5.209   4.755   4.444
 7400SOL     OW23098   2.485   4.309   0.413
 7400SOL    HW123099   2.440   4.277   0.496
 7400SOL    HW223100   2.584   4.311   0.428
 7401SOL     OW23101   5.946   2.652   5.243
 7401SOL    HW123102   5.849   2.625   5.246
 7401SOL    HW223103   5.953   2.752   5.239
 7402SOL     OW23104   2.270   6.001   4.133
 7402SOL    HW123105   2.225   5.949   4.205
 7402SOL    HW223106   2.204   6.062   4.090
 7403SOL     OW23107   2.552   2.990   1.586
 7403SOL    HW123108   2.613   3.069   1.591
 7403SOL    HW223109   2.476   3.002   1.650
 7404SOL     OW23110   1.154   1.918   2.687
 7404SOL    HW123111   1.192   1.995   2.738
 7404SOL    HW223112   1.225   1.875   2.632
 7405SOL     OW23113   4.221   4.630   6.394
 7405SOL    HW123114   4.258   4.538   6.385
 7405SOL    HW223115   4.293   4.697   6.378
 7406SOL     OW23116   0.539   6.441   2.530
 7406SOL    HW123117   0.524   6.372   2.601
 7406SOL    HW223118   0.576   6.524   2.572
 7407SOL     OW23119   2.839   0.941   5.970
 7407SOL    HW123120   2.882   0.998   5.900
 7407SOL    HW223121   2.854   0.844   5.949
 7408SOL     OW23122   0.639   3.691   5.446
 7408SOL    HW123123   0.660   3.779   5.488
 7408SOL    HW223124   0.558   3.699   5.389
 7409SOL     OW23125   2.498   6.954   5.036
 7409SOL    HW123126   2.459   0.021   5.048
 7409SOL    HW223127   2.596   6.962   5.017
 7410SOL     OW23128   4.230   5.581   5.772
 7410SOL    HW123129   4.209   5.593   5.675
 7410SOL    HW223130   4.157   5.529   5.816
 7411SOL     OW23131   5.196   4.344   5.783
 7411SOL    HW123132   5.237   4.261   5.819
 7411SOL    HW223133   5.268   4.408   5.756
 7412SOL     OW23134   1.988   1.290   6.772
 7412SOL    HW123135   1.888   1.295   6.776
 7412SOL    HW223136   2.025   1.379   6.747
 7413SOL     OW23137   6.982   3.438   4.143
 7413SOL    HW123138   6.934   3.526   4.138
 7413SOL    HW223139   0.054   3.454   4.164
 7414SOL     OW23140   0.507   4.961   1.443
 7414SOL    HW123141   0.545   4.878   1.403
 7414SOL    HW223142   0.475   4.942   1.536
 7415SOL     OW23143   3.219   1.683   3.382
 7415SOL    HW123144   3.128   1.722   3.370
 7415SOL    HW223145   3.211   1.588   3.413
 7416SOL     OW23146   6.603   0.084   3.026
 7416SOL    HW123147   6.612   0.166   2.970
 7416SOL    HW223148   6.662   0.012   2.989
 7417SOL     OW23149   0.470   5.065   1.190
 7417SOL    HW123150   0.479   4.981   1.137
 7417SOL    HW223151   0.491   5.045   1.286
 7418SOL     OW23152   1.277   3.491   6.960
 7418SOL    HW123153   1.321   3.535   0.014
 7418SOL    HW223154   1.243   3.401   6.987
 7419SOL     OW23155   6.299   2.263   5.380
 7419SOL    HW123156   6.303   2.262   5.280
 7419SOL    HW223157   6.211   2.300   5.409
 7420SOL     OW23158   6.714   5.676   2.488
 7420SOL    HW123159   6.657   5.612   2.539
 7420SOL    HW223160   6.666   5.703   2.404
 7421SOL     OW23161   4.334   1.832   1.482
 7421SOL    HW123162   4.271   1.788   1.546
 7421SOL    HW223163   4.300   1.924   1.459
 7422SOL     OW23164   0.604   1.560   0.767
 7422SOL    HW123165   0.562   1.630   0.824
 7422SOL    HW223166   0.651   1.493   0.825
 7423SOL     OW23167   2.247   4.445   0.377
 7423SOL    HW123168   2.328   4.387   0.393
 7423SOL    HW223169   2.165   4.397   0.409
 7424SOL     OW23170   5.152   0.382   4.459
 7424SOL    HW123171   5.059   0.405   4.484
 7424SOL    HW223172   5.180   0.436   4.380
 7425SOL     OW23173   3.456   0.136   4.710
 7425SOL    HW123174   3.458   0.201   4.634
 7425SOL    HW223175   3.539   0.149   4.766
 7426SOL     OW23176   0.362   1.236   6.405
 7426SOL    HW123177   0.331   1.169   6.474
 7426SOL    HW223178   0.423   1.302   6.449
 7427SOL     OW23179   5.311   5.558   5.169
 7427SOL    HW123180   5.340   5.473   5.124
 7427SOL    HW223181   5.342   5.636   5.115
 7428SOL     OW23182   4.306   0.825   5.408
 7428SOL    HW123183   4.279   0.887   5.335
 7428SOL    HW223184   4.364   0.874   5.473
 7429SOL     OW23185   6.171   6.249   3.979
 7429SOL    HW123186   6.211   6.339   3.993
 7429SOL    HW223187   6.218   6.182   4.035
 7430SOL     OW23188   0.553   4.219   4.128
 7430SOL    HW123189   0.629   4.155   4.138
 7430SOL    HW223190   0.468   4.168   4.115
 7431SOL     OW23191   0.272   4.141   2.404
 7431SOL    HW123192   0.297   4.063   2.461
 7431SOL    HW223193   0.181   4.128   2.366
 7432SOL     OW23194   1.783   6.502   5.225
 7432SOL    HW123195   1.877   6.536   5.223
 7432SOL    HW223196   1.755   6.489   5.319
 7433SOL     OW23197   0.402   6.508   1.061
 7433SOL    HW123198   0.432   6.454   1.140
 7433SOL    HW223199   0.425   6.459   0.977
 7434SOL     OW23200   3.833   6.678   0.406
 7434SOL    HW123201   3.903   6.607   0.410
 7434SOL    HW223202   3.877   6.768   0.416
 7435SOL     OW23203   1.437   5.632   0.142
 7435SOL    HW123204   1.367   5.581   0.190
 7435SOL    HW223205   1.397   5.715   0.103
 7436SOL     OW23206   4.294   3.905   0.293
 7436SOL    HW123207   4.362   3.878   0.361
 7436SOL    HW223208   4.339   3.954   0.219
 7437SOL     OW23209   0.017   6.461   5.406
 7437SOL    HW123210   0.110   6.432   5.431
 7437SOL    HW223211   0.008   6.461   5.306
 7438SOL     OW23212   5.688   3.965   1.403
 7438SOL    HW123213   5.736   4.039   1.357
 7438SOL    HW223214   5.716   3.962   1.499
 7439SOL     OW23215   1.560   6.231   2.546
 7439SOL    HW123216   1.577   6.269   2.637
 7439SOL    HW223217   1.465   6.199   2.540
 7440SOL     OW23218   0.767   1.265   3.702
 7440SOL    HW123219   0.779   1.218   3.615
 7440SOL    HW223220   0.763   1.198   3.776
 7441SOL     OW23221   6.452   0.157   3.908
 7441SOL    HW123222   6.391   0.095   3.858
 7441SOL    HW223223   6.439   0.250   3.874
 7442SOL     OW23224   1.689   0.801   6.176
 7442SOL    HW123225   1.629   0.746   6.120
 7442SOL    HW223226   1.637   0.843   6.251
 7443SOL     OW23227   6.830   2.518   1.933
 7443SOL    HW123228   6.786   2.431   1.911
 7443SOL    HW223229   6.828   2.578   1.853
 7444SOL     OW23230   1.072   2.659   5.088
 7444SOL    HW123231   1.087   2.755   5.110
 7444SOL    HW223232   0.978   2.634   5.112
 7445SOL     OW23233   6.083   3.077   1.661
 7445SOL    HW123234   5.995   3.035   1.683
 7445SOL    HW223235   6.081   3.111   1.567
 7446SOL     OW23236   6.072   3.443   3.206
 7446SOL    HW123237   5.995   3.421   3.146
 7446SOL    HW223238   6.157   3.410   3.166
 7447SOL     OW23239   0.430   3.942   6.387
 7447SOL    HW123240   0.374   3.860   6.400
 7447SOL    HW223241   0.448   3.985   6.475
 7448SOL     OW23242   0.312   0.160   6.460
 7448SOL    HW123243   0.364   0.078   6.484
 7448SOL    HW223244   0.232   0.134   6.406
 7449SOL     OW23245   4.261   7.005   1.764
 7449SOL    HW123246   4.277   6.960   1.676
 7449SOL    HW223247   4.170   0.022   1.765
 7450SOL     OW23248   3.727   1.258   1.922
 7450SOL    HW123249   3.680   1.332   1.970
 7450SOL    HW223250   3.710   1.266   1.824
 7451SOL     OW23251   1.232   0.460   2.916
 7451SOL    HW123252   1.212   0.366   2.942
 7451SOL    HW223253   1.197   0.522   2.986
 7452SOL     OW23254   1.729   5.734   3.435
 7452SOL    HW123255   1.714   5.785   3.351
 7452SOL    HW223256   1.709   5.637   3.419
 7453SOL     OW23257   6.264   4.598   5.531
 7453SOL    HW123258   6.234   4.509   5.496
 7453SOL    HW223259   6.184   4.650   5.563
 7454SOL     OW23260   1.174   3.026   6.736
 7454SOL    HW123261   1.113   3.080   6.677
 7454SOL    HW223262   1.256   3.079   6.757
 7455SOL     OW23263   5.172   0.713   0.947
 7455SOL    HW123264   5.267   0.725   0.978
 7455SOL    HW223265   5.161   0.756   0.858
 7456SOL     OW23266   1.114   3.825   6.294
 7456SOL    HW123267   1.136   3.912   6.250
 7456SOL    HW223268   1.110   3.753   6.224
 7457SOL     OW23269   6.848   6.728   6.063
 7457SOL    HW123270   6.779   6.776   6.009
 7457SOL    HW223271   6.886   6.652   6.010
 7458SOL     OW23272   2.366   0.756   0.950
 7458SOL    HW123273   2.364   0.696   1.030
 7458SOL    HW223274   2.429   0.720   0.882
 7459SOL     OW23275   3.963   6.186   4.440
 7459SOL    HW123276   3.971   6.230   4.350
 7459SOL    HW223277   3.962   6.256   4.511
 7460SOL     OW23278   1.040   5.306   0.170
 7460SOL    HW123279   1.026   5.218   0.214
 7460SOL    HW223280   1.136   5.333   0.178
 7461SOL     OW23281   4.293   0.959   4.333
 7461SOL    HW123282   4.201   0.991   4.356
 7461SOL    HW223283   4.336   1.024   4.270
 7462SOL     OW23284   2.419   1.659   3.371
 7462SOL    HW123285   2.399   1.611   3.286
 7462SOL    HW223286   2.377   1.750   3.369
 7463SOL     OW23287   3.641   3.803   2.216
 7463SOL    HW123288   3.668   3.843   2.304
 7463SOL    HW223289   3.719   3.807   2.153
 7464SOL     OW23290   4.727   6.635   0.146
 7464SOL    HW123291   4.787   6.566   0.187
 7464SOL    HW223292   4.706   6.705   0.214
 7465SOL     OW23293   3.901   0.529   3.044
 7465SOL    HW123294   3.856   0.455   3.095
 7465SOL    HW223295   3.999   0.513   3.042
 7466SOL     OW23296   6.033   0.180   0.374
 7466SOL    HW123297   5.938   0.183   0.403
 7466SOL    HW223298   6.055   0.263   0.323
 7467SOL     OW23299   4.833   2.098   0.874
 7467SOL    HW123300   4.739   2.077   0.847
 7467SOL    HW223301   4.892   2.018   0.857
 7468SOL     OW23302   5.849   4.033   4.411
 7468SOL    HW123303   5.767   4.055   4.358
 7468SOL    HW223304   5.895   3.954   4.370
 7469SOL     OW23305   5.175   0.992   1.853
 7469SOL    HW123306   5.209   0.925   1.920
 7469SOL    HW223307   5.076   0.983   1.844
 7470SOL     OW23308   6.907   3.605   3.115
 7470SOL    HW123309   6.995   3.609   3.067
 7470SOL    HW223310   6.836   3.643   3.056
 7471SOL     OW23311   6.423   4.899   5.451
 7471SOL    HW123312   6.439   4.803   5.474
 7471SOL    HW223313   6.346   4.905   5.387
 7472SOL     OW23314   3.928   5.107   3.337
 7472SOL    HW123315   4.021   5.089   3.305
 7472SOL    HW223316   3.900   5.034   3.400
 7473SOL     OW23317   1.156   3.354   5.042
 7473SOL    HW123318   1.076   3.383   5.095
 7473SOL    HW223319   1.155   3.398   4.953
 7474SOL     OW23320   2.493   1.264   3.370
 7474SOL    HW123321   2.410   1.272   3.425
 7474SOL    HW223322   2.560   1.333   3.399
 7475SOL     OW23323   4.791   0.837   6.433
 7475SOL    HW123324   4.783   0.927   6.475
 7475SOL    HW223325   4.754   0.839   6.341
 7476SOL     OW23326   1.917   6.613   4.791
 7476SOL    HW123327   1.875   6.553   4.859
 7476SOL    HW223328   2.001   6.652   4.828
 7477SOL     OW23329   5.080   3.620   4.139
 7477SOL    HW123330   5.030   3.572   4.067
 7477SOL    HW223331   5.024   3.694   4.176
 7478SOL     OW23332   0.572   4.428   1.541
 7478SOL    HW123333   0.662   4.436   1.583
 7478SOL    HW223334   0.507   4.488   1.587
 7479SOL     OW23335   3.827   0.334   5.262
 7479SOL    HW123336   3.753   0.401   5.271
 7479SOL    HW223337   3.789   0.244   5.242
 7480SOL     OW23338   6.044   5.298   0.494
 7480SOL    HW123339   6.034   5.393   0.522
 7480SOL    HW223340   6.040   5.239   0.575
 7481SOL     OW23341   5.692   6.310   0.070
 7481SOL    HW123342   5.692   6.267   0.160
 7481SOL    HW223343   5.767   6.375   0.064
 7482SOL     OW23344   4.908   0.020   4.711
 7482SOL    HW123345   4.900   0.014   4.612
 7482SOL    HW223346   4.977   0.088   4.735
 7483SOL     OW23347   3.465   0.429   6.265
 7483SOL    HW123348   3.502   0.513   6.226
 7483SOL    HW223349   3.383   0.450   6.318
 7484SOL     OW23350   3.744   0.132   1.846
 7484SOL    HW123351   3.671   0.141   1.913
 7484SOL    HW223352   3.714   0.168   1.758
 7485SOL     OW23353   0.900   6.691   5.151
 7485SOL    HW123354   0.893   6.694   5.251
 7485SOL    HW223355   0.975   6.749   5.121
 7486SOL     OW23356   0.902   1.838   5.304
 7486SOL    HW123357   0.908   1.749   5.349
 7486SOL    HW223358   0.922   1.827   5.206
 7487SOL     OW23359   3.711   5.271   3.321
 7487SOL    HW123360   3.773   5.193   3.312
 7487SOL    HW223361   3.765   5.355   3.329
 7488SOL     OW23362   4.776   0.657   5.288
 7488SOL    HW123363   4.713   0.641   5.211
 7488SOL    HW223364   4.860   0.698   5.253
 7489SOL     OW23365   6.625   3.719   3.661
 7489SOL    HW123366   6.706   3.730   3.719
 7489SOL    HW223367   6.654   3.700   3.567
 7490SOL     OW23368   5.466   0.314   2.983
 7490SOL    HW123369   5.474   0.411   3.007
 7490SOL    HW223370   5.546   0.287   2.929
 7491SOL     OW23371   0.478   6.669   0.362
 7491SOL    HW123372   0.393   6.672   0.309
 7491SOL    HW223373   0.519   6.760   0.365
 7492SOL     OW23374   2.244   2.414   3.677
 7492SOL    HW123375   2.317   2.444   3.738
 7492SOL    HW223376   2.276   2.412   3.583
 7493SOL     OW23377   5.216   4.639   6.734
 7493SOL    HW123378   5.245   4.687   6.652
 7493SOL    HW223379   5.118   4.652   6.748
 7494SOL     OW23380   4.989   2.056   1.539
 7494SOL    HW123381   4.968   2.151   1.563
 7494SOL    HW223382   4.914   2.020   1.482
 7495SOL     OW23383   0.810   1.801   2.408
 7495SOL    HW123384   0.889   1.811   2.348
 7495SOL    HW223385   0.818   1.863   2.486
 7496SOL     OW23386   0.522   5.420   5.665
 7496SOL    HW123387   0.570   5.355   5.606
 7496SOL    HW223388   0.520   5.384   5.758
 7497SOL     OW23389   1.652   5.092   2.597
 7497SOL    HW123390   1.603   5.074   2.511
 7497SOL    HW223391   1.721   5.162   2.583
 7498SOL     OW23392   5.876   2.036   4.579
 7498SOL    HW123393   5.793   2.001   4.622
 7498SOL    HW223394   5.919   1.963   4.526
 7499SOL     OW23395   3.914   4.896   3.879
 7499SOL    HW123396   3.868   4.917   3.965
 7499SOL    HW223397   4.002   4.853   3.899
 7500SOL     OW23398   4.871   4.298   1.722
 7500SOL    HW123399   4.912   4.357   1.652
 7500SOL    HW223400   4.888   4.202   1.699
 7501SOL     OW23401   0.529   4.896   3.779
 7501SOL    HW123402   0.552   4.828   3.709
 7501SOL    HW223403   0.521   4.851   3.868
 7502SOL     OW23404   1.846   2.395   4.018
 7502SOL    HW123405   1.933   2.378   3.972
 7502SOL    HW223406   1.787   2.448   3.957
 7503SOL     OW23407   2.416   2.894   7.021
 7503SOL    HW123408   2.414   2.965   6.952
 7503SOL    HW223409   2.372   2.811   6.986
 7504SOL     OW23410   3.913   5.366   4.071
 7504SOL    HW123411   3.945   5.322   4.155
 7504SOL    HW223412   3.942   5.462   4.070
 7505SOL     OW23413   1.713   0.966   4.374
 7505SOL    HW123414   1.669   0.964   4.285
 7505SOL    HW223415   1.725   0.872   4.408
 7506SOL     OW23416   3.675   1.197   3.113
 7506SOL    HW123417   3.715   1.288   3.126
 7506SOL    HW223418   3.748   1.131   3.097
 7507SOL     OW23419   2.083   6.901   5.660
 7507SOL    HW123420   1.989   6.885   5.691
 7507SOL    HW223421   2.134   6.816   5.663
 7508SOL     OW23422   5.308   5.279   3.764
 7508SOL    HW123423   5.223   5.234   3.792
 7508SOL    HW223424   5.320   5.268   3.665
 7509SOL     OW23425   4.163   4.016   5.938
 7509SOL    HW123426   4.254   4.010   5.898
 7509SOL    HW223427   4.097   3.969   5.879
 7510SOL     OW23428   3.419   3.536   4.829
 7510SOL    HW123429   3.417   3.468   4.756
 7510SOL    HW223430   3.424   3.627   4.789
 7511SOL     OW23431   1.163   1.514   2.162
 7511SOL    HW123432   1.103   1.437   2.140
 7511SOL    HW223433   1.128   1.560   2.244
 7512SOL     OW23434   1.826   2.830   1.703
 7512SOL    HW123435   1.871   2.894   1.641
 7512SOL    HW223436   1.878   2.824   1.789
 7513SOL     OW23437   1.345   3.645   6.401
 7513SOL    HW123438   1.334   3.580   6.476
 7513SOL    HW223439   1.262   3.699   6.390
 7514SOL     OW23440   3.771   5.392   3.614
 7514SOL    HW123441   3.717   5.470   3.581
 7514SOL    HW223442   3.860   5.392   3.568
 7515SOL     OW23443   0.559   5.011   2.977
 7515SOL    HW123444   0.578   4.935   3.039
 7515SOL    HW223445   0.487   5.069   3.016
 7516SOL     OW23446   1.379   2.361   1.813
 7516SOL    HW123447   1.431   2.436   1.852
 7516SOL    HW223448   1.378   2.284   1.876
 7517SOL     OW23449   0.652   4.770   1.315
 7517SOL    HW123450   0.674   4.672   1.315
 7517SOL    HW223451   0.725   4.820   1.267
 7518SOL     OW23452   5.187   4.468   3.374
 7518SOL    HW123453   5.154   4.476   3.468
 7518SOL    HW223454   5.167   4.376   3.340
 7519SOL     OW23455   1.981   0.108   4.075
 7519SOL    HW123456   2.010   0.184   4.018
 7519SOL    HW223457   1.970   0.140   4.170
 7520SOL     OW23458   2.601   6.893   3.571
 7520SOL    HW123459   2.509   6.915   3.536
 7520SOL    HW223460   2.658   6.975   3.567
 7521SOL     OW23461   4.047   3.178   5.658
 7521SOL    HW123462   4.122   3.135   5.607
 7521SOL    HW223463   3.974   3.111   5.672
 7522SOL     OW23464   1.565   0.389   2.366
 7522SOL    HW123465   1.485   0.379   2.307
 7522SOL    HW223466   1.601   0.482   2.357
 7523SOL     OW23467   6.576   6.569   6.083
 7523SOL    HW123468   6.530   6.551   5.996
 7523SOL    HW223469   6.652   6.505   6.094
 7524SOL     OW23470   6.133   0.987   4.487
 7524SOL    HW123471   6.080   1.037   4.556
 7524SOL    HW223472   6.223   0.966   4.525
 7525SOL     OW23473   0.804   0.169   0.611
 7525SOL    HW123474   0.719   0.220   0.625
 7525SOL    HW223475   0.794   0.076   0.647
 7526SOL     OW23476   3.273   3.411   5.032
 7526SOL    HW123477   3.288   3.461   5.118
 7526SOL    HW223478   3.332   3.449   4.961
 7527SOL     OW23479   4.121   5.891   2.093
 7527SOL    HW123480   4.023   5.907   2.079
 7527SOL    HW223481   4.167   5.886   2.004
 7528SOL     OW23482   5.759   3.273   6.598
 7528SOL    HW123483   5.732   3.206   6.666
 7528SOL    HW223484   5.806   3.349   6.644
 7529SOL     OW23485   2.406   6.994   4.695
 7529SOL    HW123486   2.472   0.017   4.636
 7529SOL    HW223487   2.374   0.031   4.766
 7530SOL     OW23488   6.951   3.189   3.008
 7530SOL    HW123489   6.873   3.239   3.046
 7530SOL    HW223490   6.951   3.198   2.908
 7531SOL     OW23491   2.675   1.525   4.722
 7531SOL    HW123492   2.704   1.611   4.679
 7531SOL    HW223493   2.673   1.537   4.821
 7532SOL     OW23494   4.806   4.921   2.169
 7532SOL    HW123495   4.825   5.000   2.111
 7532SOL    HW223496   4.861   4.927   2.252
 7533SOL     OW23497   3.575   0.794   4.896
 7533SOL    HW123498   3.672   0.815   4.894
 7533SOL    HW223499   3.554   0.744   4.980
 7534SOL     OW23500   5.186   6.446   4.211
 7534SOL    HW123501   5.250   6.370   4.222
 7534SOL    HW223502   5.099   6.411   4.176
 7535SOL     OW23503   2.717   4.847   0.702
 7535SOL    HW123504   2.697   4.752   0.678
 7535SOL    HW223505   2.775   4.849   0.784
 7536SOL     OW23506   3.621   5.290   5.625
 7536SOL    HW123507   3.614   5.277   5.724
 7536SOL    HW223508   3.589   5.208   5.578
 7537SOL     OW23509   1.884   4.623   5.505
 7537SOL    HW123510   1.865   4.524   5.498
 7537SOL    HW223511   1.837   4.670   5.430
 7538SOL     OW23512   3.193   3.892   4.058
 7538SOL    HW123513   3.201   3.796   4.029
 7538SOL    HW223514   3.116   3.901   4.120
 7539SOL     OW23515   0.962   2.063   4.547
 7539SOL    HW123516   1.014   2.048   4.463
 7539SOL    HW223517   0.981   1.990   4.612
 7540SOL     OW23518   2.257   1.275   6.918
 7540SOL    HW123519   2.161   1.273   6.889
 7540SOL    HW223520   2.303   1.194   6.882
 7541SOL     OW23521   6.946   2.879   5.098
 7541SOL    HW123522   6.951   2.879   5.198
 7541SOL    HW223523   6.931   2.786   5.066
 7542SOL     OW23524   1.587   0.201   5.763
 7542SOL    HW123525   1.627   0.123   5.810
 7542SOL    HW223526   1.522   0.247   5.823
 7543SOL     OW23527   3.367   2.295   0.440
 7543SOL    HW123528   3.286   2.247   0.473
 7543SOL    HW223529   3.436   2.228   0.413
 7544SOL     OW23530   1.404   1.887   2.586
 7544SOL    HW123531   1.420   1.984   2.568
 7544SOL    HW223532   1.475   1.852   2.648
 7545SOL     OW23533   4.280   0.436   3.983
 7545SOL    HW123534   4.372   0.400   3.967
 7545SOL    HW223535   4.231   0.442   3.896
 7546SOL     OW23536   5.315   0.038   5.726
 7546SOL    HW123537   5.255   6.983   5.737
 7546SOL    HW223538   5.294   0.084   5.639
 7547SOL     OW23539   3.014   0.297   6.917
 7547SOL    HW123540   3.113   0.280   6.908
 7547SOL    HW223541   2.965   0.241   6.851
 7548SOL     OW23542   1.589   2.819   1.427
 7548SOL    HW123543   1.582   2.919   1.417
 7548SOL    HW223544   1.519   2.775   1.371
 7549SOL     OW23545   5.999   1.082   2.530
 7549SOL    HW123546   5.938   1.152   2.493
 7549SOL    HW223547   5.948   0.997   2.543
 7550SOL     OW23548   1.343   5.461   1.032
 7550SOL    HW123549   1.288   5.428   1.108
 7550SOL    HW223550   1.309   5.549   1.000
 7551SOL     OW23551   5.119   4.083   6.377
 7551SOL    HW123552   5.088   4.009   6.437
 7551SOL    HW223553   5.206   4.057   6.334
 7552SOL     OW23554   3.716   5.450   3.882
 7552SOL    HW123555   3.745   5.436   3.787
 7552SOL    HW223556   3.784   5.410   3.944
 7553SOL     OW23557   3.977   3.983   5.707
 7553SOL    HW123558   3.952   4.037   5.626
 7553SOL    HW223559   3.895   3.946   5.749
 7554SOL     OW23560   6.993   1.685   1.041
 7554SOL    HW123561   6.895   1.691   1.063
 7554SOL    HW223562   7.004   1.640   0.953
 7555SOL     OW23563   1.296   5.840   5.736
 7555SOL    HW123564   1.306   5.745   5.766
 7555SOL    HW223565   1.204   5.854   5.700
 7556SOL     OW23566   6.423   4.342   3.330
 7556SOL    HW123567   6.355   4.270   3.340
 7556SOL    HW223568   6.397   4.401   3.253
 7557SOL     OW23569   3.981   3.885   0.682
 7557SOL    HW123570   3.926   3.803   0.665
 7557SOL    HW223571   4.010   3.886   0.778
 7558SOL     OW23572   1.419   2.616   3.290
 7558SOL    HW123573   1.473   2.677   3.347
 7558SOL    HW223574   1.379   2.544   3.348
 7559SOL     OW23575   1.318   5.003   0.093
 7559SOL    HW123576   1.222   4.995   0.065
 7559SOL    HW223577   1.332   4.950   0.176
 7560SOL     OW23578   4.645   0.271   5.535
 7560SOL    HW123579   4.705   0.327   5.478
 7560SOL    HW223580   4.631   0.316   5.623
 7561SOL     OW23581   0.293   4.114   0.467
 7561SOL    HW123582   0.312   4.018   0.444
 7561SOL    HW223583   0.244   4.157   0.392
 7562SOL     OW23584   4.861   6.107   4.761
 7562SOL    HW123585   4.820   6.026   4.719
 7562SOL    HW223586   4.943   6.080   4.811
 7563SOL     OW23587   2.203   1.234   4.002
 7563SOL    HW123588   2.257   1.240   3.919
 7563SOL    HW223589   2.115   1.279   3.988
 7564SOL     OW23590   5.598   5.449   4.010
 7564SOL    HW123591   5.691   5.459   4.046
 7564SOL    HW223592   5.555   5.539   4.005
 7565SOL     OW23593   4.831   5.250   6.913
 7565SOL    HW123594   4.790   5.320   6.854
 7565SOL    HW223595   4.786   5.252   7.002
 7566SOL     OW23596   1.426   5.848   4.136
 7566SOL    HW123597   1.334   5.813   4.154
 7566SOL    HW223598   1.482   5.839   4.218
 7567SOL     OW23599   2.747   3.269   0.466
 7567SOL    HW123600   2.772   3.303   0.376
 7567SOL    HW223601   2.655   3.230   0.462
 7568SOL     OW23602   4.153   4.879   2.663
 7568SOL    HW123603   4.208   4.916   2.588
 7568SOL    HW223604   4.057   4.876   2.635
 7569SOL     OW23605   4.043   6.788   2.043
 7569SOL    HW123606   4.119   6.853   2.047
 7569SOL    HW223607   4.056   6.717   2.113
 7570SOL     OW23608   5.719   4.836   4.937
 7570SOL    HW123609   5.667   4.886   4.867
 7570SOL    HW223610   5.817   4.843   4.917
 7571SOL     OW23611   5.810   4.269   1.315
 7571SOL    HW123612   5.835   4.357   1.354
 7571SOL    HW223613   5.718   4.275   1.275
 7572SOL     OW23614   6.997   1.227   3.009
 7572SOL    HW123615   6.939   1.147   3.025
 7572SOL    HW223616   6.991   1.289   3.087
 7573SOL     OW23617   2.669   5.349   5.256
 7573SOL    HW123618   2.750   5.290   5.249
 7573SOL    HW223619   2.640   5.376   5.164
 7574SOL     OW23620   4.813   6.451   2.222
 7574SOL    HW123621   4.817   6.506   2.305
 7574SOL    HW223622   4.801   6.354   2.246
 7575SOL     OW23623   5.057   2.613   4.986
 7575SOL    HW123624   5.114   2.690   5.014
 7575SOL    HW223625   5.116   2.536   4.960
 7576SOL     OW23626   0.010   3.605   1.504
 7576SOL    HW123627   6.947   3.559   1.488
 7576SOL    HW223628   0.084   3.552   1.463
 7577SOL     OW23629   4.514   0.965   4.799
 7577SOL    HW123630   4.490   0.920   4.713
 7577SOL    HW223631   4.482   0.909   4.876
 7578SOL     OW23632   2.264   5.185   4.853
 7578SOL    HW123633   2.359   5.152   4.860
 7578SOL    HW223634   2.226   5.158   4.764
 7579SOL     OW23635   4.345   2.308   3.670
 7579SOL    HW123636   4.251   2.281   3.694
 7579SOL    HW223637   4.409   2.244   3.712
 7580SOL     OW23638   2.054   3.335   2.047
 7580SOL    HW123639   2.091   3.403   1.983
 7580SOL    HW223640   2.028   3.253   1.997
 7581SOL     OW23641   5.430   0.772   1.044
 7581SOL    HW123642   5.470   0.852   1.000
 7581SOL    HW223643   5.482   0.749   1.126
 7582SOL     OW23644   3.314   2.331   0.835
 7582SOL    HW123645   3.400   2.370   0.867
 7582SOL    HW223646   3.254   2.405   0.804
 7583SOL     OW23647   0.117   4.257   2.684
 7583SOL    HW123648   0.089   4.178   2.629
 7583SOL    HW223649   0.200   4.234   2.735
 7584SOL     OW23650   2.409   1.717   1.687
 7584SOL    HW123651   2.385   1.670   1.603
 7584SOL    HW223652   2.508   1.730   1.691
 7585SOL     OW23653   1.611   4.793   5.970
 7585SOL    HW123654   1.695   4.750   6.003
 7585SOL    HW223655   1.535   4.768   6.029
 7586SOL     OW23656   2.132   1.880   3.068
 7586SOL    HW123657   2.227   1.861   3.092
 7586SOL    HW223658   2.102   1.815   2.998
 7587SOL     OW23659   2.494   1.133   5.902
 7587SOL    HW123660   2.500   1.045   5.950
 7587SOL    HW223661   2.404   1.174   5.918
 7588SOL     OW23662   0.737   4.214   1.850
 7588SOL    HW123663   0.796   4.147   1.804
 7588SOL    HW223664   0.758   4.305   1.815
 7589SOL     OW23665   5.149   6.389   6.878
 7589SOL    HW123666   5.214   6.314   6.891
 7589SOL    HW223667   5.157   6.425   6.785
 7590SOL     OW23668   1.918   0.687   6.053
 7590SOL    HW123669   1.946   0.617   6.119
 7590SOL    HW223670   1.855   0.750   6.096
 7591SOL     OW23671   6.244   5.392   6.924
 7591SOL    HW123672   6.166   5.451   6.944
 7591SOL    HW223673   6.320   5.417   6.984
 7592SOL     OW23674   4.757   4.861   6.023
 7592SOL    HW123675   4.832   4.844   5.959
 7592SOL    HW223676   4.790   4.850   6.117
 7593SOL     OW23677   5.789   4.632   0.878
 7593SOL    HW123678   5.820   4.551   0.828
 7593SOL    HW223679   5.692   4.647   0.860
 7594SOL     OW23680   0.888   7.023   3.886
 7594SOL    HW123681   0.976   0.034   3.918
 7594SOL    HW223682   0.902   6.932   3.846
 7595SOL     OW23683   5.757   2.821   6.913
 7595SOL    HW123684   5.728   2.836   7.008
 7595SOL    HW223685   5.856   2.836   6.906
 7596SOL     OW23686   4.620   5.030   1.829
 7596SOL    HW123687   4.553   5.050   1.900
 7596SOL    HW223688   4.639   4.932   1.828
 7597SOL     OW23689   2.426   5.993   1.467
 7597SOL    HW123690   2.411   5.901   1.432
 7597SOL    HW223691   2.521   6.019   1.454
 7598SOL     OW23692   6.543   0.844   2.173
 7598SOL    HW123693   6.445   0.826   2.177
 7598SOL    HW223694   6.577   0.869   2.263
 7599SOL     OW23695   6.409   2.622   2.292
 7599SOL    HW123696   6.352   2.693   2.335
 7599SOL    HW223697   6.420   2.644   2.195
 7600SOL     OW23698   2.443   2.306   3.135
 7600SOL    HW123699   2.516   2.255   3.090
 7600SOL    HW223700   2.354   2.279   3.097
 7601SOL     OW23701   1.958   0.485   5.177
 7601SOL    HW123702   2.002   0.539   5.248
 7601SOL    HW223703   2.020   0.412   5.147
 7602SOL     OW23704   2.245   3.407   5.442
 7602SOL    HW123705   2.299   3.328   5.413
 7602SOL    HW223706   2.303   3.488   5.445
 7603SOL     OW23707   6.733   0.923   1.720
 7603SOL    HW123708   6.641   0.946   1.689
 7603SOL    HW223709   6.729   0.892   1.815
 7604SOL     OW23710   5.089   5.547   0.020
 7604SOL    HW123711   5.117   5.455   0.046
 7604SOL    HW223712   5.010   5.575   0.074
 7605SOL     OW23713   6.049   3.621   6.076
 7605SOL    HW123714   5.988   3.544   6.058
 7605SOL    HW223715   6.125   3.620   6.011
 7606SOL     OW23716   5.701   1.538   3.290
 7606SOL    HW123717   5.703   1.469   3.363
 7606SOL    HW223718   5.792   1.547   3.250
 7607SOL     OW23719   4.839   6.787   6.037
 7607SOL    HW123720   4.825   6.859   5.969
 7607SOL    HW223721   4.874   6.705   5.993
 7608SOL     OW23722   3.726   3.144   4.754
 7608SOL    HW123723   3.632   3.172   4.735
 7608SOL    HW223724   3.762   3.094   4.675
 7609SOL     OW23725   1.913   3.020   3.561
 7609SOL    HW123726   1.893   2.948   3.627
 7609SOL    HW223727   1.841   3.024   3.492
 7610SOL     OW23728   5.654   0.429   2.077
 7610SOL    HW123729   5.696   0.519   2.088
 7610SOL    HW223730   5.619   0.397   2.165
 7611SOL     OW23731   2.287   1.943   1.732
 7611SOL    HW123732   2.366   1.886   1.711
 7611SOL    HW223733   2.203   1.894   1.707
 7612SOL     OW23734   4.461   1.808   2.799
 7612SOL    HW123735   4.365   1.819   2.775
 7612SOL    HW223736   4.518   1.844   2.725
 7613SOL     OW23737   5.629   0.900   3.109
 7613SOL    HW123738   5.648   0.915   3.206
 7613SOL    HW223739   5.538   0.859   3.099
 7614SOL     OW23740   4.073   1.141   0.396
 7614SOL    HW123741   3.993   1.102   0.350
 7614SOL    HW223742   4.086   1.236   0.365
 7615SOL     OW23743   3.981   4.537   6.267
 7615SOL    HW123744   3.989   4.441   6.239
 7615SOL    HW223745   4.067   4.568   6.308
 7616SOL     OW23746   6.993   4.840   3.128
 7616SOL    HW123747   7.004   4.757   3.074
 7616SOL    HW223748   6.996   4.818   3.225
 7617SOL     OW23749   3.578   5.865   3.273
 7617SOL    HW123750   3.485   5.833   3.290
 7617SOL    HW223751   3.641   5.788   3.276
 7618SOL     OW23752   2.110   2.008   0.713
 7618SOL    HW123753   2.041   1.958   0.766
 7618SOL    HW223754   2.069   2.043   0.629
 7619SOL     OW23755   6.300   3.568   5.930
 7619SOL    HW123756   6.354   3.613   6.001
 7619SOL    HW223757   6.317   3.612   5.842
 7620SOL     OW23758   3.260   6.497   1.534
 7620SOL    HW123759   3.169   6.528   1.561
 7620SOL    HW223760   3.265   6.398   1.542
 7621SOL     OW23761   2.257   2.654   0.956
 7621SOL    HW123762   2.163   2.678   0.982
 7621SOL    HW223763   2.271   2.556   0.970
 7622SOL     OW23764   4.603   1.605   1.083
 7622SOL    HW123765   4.516   1.646   1.111
 7622SOL    HW223766   4.672   1.677   1.073
 7623SOL     OW23767   5.714   0.055   5.259
 7623SOL    HW123768   5.737   0.034   5.354
 7623SOL    HW223769   5.717   6.995   5.205
 7624SOL     OW23770   0.130   1.021   4.000
 7624SOL    HW123771   0.079   0.995   4.082
 7624SOL    HW223772   0.086   0.983   3.919
 7625SOL     OW23773   3.507   5.826   0.827
 7625SOL    HW123774   3.591   5.862   0.787
 7625SOL    HW223775   3.429   5.881   0.797
 7626SOL     OW23776   2.264   4.422   5.001
 7626SOL    HW123777   2.287   4.402   5.096
 7626SOL    HW223778   2.342   4.468   4.957
 7627SOL     OW23779   6.945   1.634   0.282
 7627SOL    HW123780   0.002   1.666   0.331
 7627SOL    HW223781   6.873   1.614   0.348
 7628SOL     OW23782   4.768   1.419   0.911
 7628SOL    HW123783   4.707   1.498   0.914
 7628SOL    HW223784   4.862   1.451   0.897
 7629SOL     OW23785   6.290   5.779   3.197
 7629SOL    HW123786   6.213   5.842   3.191
 7629SOL    HW223787   6.261   5.694   3.241
 7630SOL     OW23788   6.584   1.221   2.181
 7630SOL    HW123789   6.492   1.251   2.158
 7630SOL    HW223790   6.588   1.198   2.278
 7631SOL     OW23791   1.408   1.024   3.301
 7631SOL    HW123792   1.444   0.931   3.315
 7631SOL    HW223793   1.421   1.077   3.384
 7632SOL     OW23794   4.451   0.580   5.426
 7632SOL    HW123795   4.529   0.615   5.479
 7632SOL    HW223796   4.379   0.649   5.422
 7633SOL     OW23797   5.447   4.054   6.707
 7633SOL    HW123798   5.487   4.063   6.798
 7633SOL    HW223799   5.516   4.076   6.638
 7634SOL     OW23800   0.897   2.492   2.584
 7634SOL    HW123801   0.844   2.427   2.529
 7634SOL    HW223802   0.882   2.474   2.681
 7635SOL     OW23803   2.538   4.820   5.654
 7635SOL    HW123804   2.451   4.774   5.635
 7635SOL    HW223805   2.520   4.908   5.700
 7636SOL     OW23806   2.001   0.080   3.252
 7636SOL    HW123807   2.062   0.086   3.332
 7636SOL    HW223808   1.947   0.164   3.246
 7637SOL     OW23809   2.857   6.284   3.818
 7637SOL    HW123810   2.834   6.233   3.735
 7637SOL    HW223811   2.774   6.298   3.873
 7638SOL     OW23812   4.298   4.530   1.833
 7638SOL    HW123813   4.360   4.455   1.853
 7638SOL    HW223814   4.217   4.495   1.786
 7639SOL     OW23815   6.756   1.706   4.468
 7639SOL    HW123816   6.714   1.625   4.427
 7639SOL    HW223817   6.809   1.680   4.548
 7640SOL     OW23818   2.352   3.323   5.802
 7640SOL    HW123819   2.429   3.298   5.861
 7640SOL    HW223820   2.321   3.416   5.825
 7641SOL     OW23821   6.247   2.941   3.232
 7641SOL    HW123822   6.223   3.030   3.194
 7641SOL    HW223823   6.180   2.873   3.203
 7642SOL     OW23824   1.772   1.311   2.704
 7642SOL    HW123825   1.797   1.408   2.694
 7642SOL    HW223826   1.853   1.258   2.727
 7643SOL     OW23827   5.536   3.068   3.569
 7643SOL    HW123828   5.533   3.148   3.509
 7643SOL    HW223829   5.627   3.060   3.608
 7644SOL     OW23830   6.337   3.752   3.728
 7644SOL    HW123831   6.293   3.690   3.793
 7644SOL    HW223832   6.406   3.702   3.676
 7645SOL     OW23833   3.535   3.052   0.098
 7645SOL    HW123834   3.540   3.147   0.066
 7645SOL    HW223835   3.628   3.020   0.119
 7646SOL     OW23836   0.763   0.950   2.006
 7646SOL    HW123837   0.846   0.899   2.026
 7646SOL    HW223838   0.705   0.897   1.943
 7647SOL     OW23839   2.278   4.906   0.366
 7647SOL    HW123840   2.287   4.969   0.289
 7647SOL    HW223841   2.351   4.838   0.362
 7648SOL     OW23842   3.500   0.710   3.962
 7648SOL    HW123843   3.528   0.680   4.053
 7648SOL    HW223844   3.404   0.684   3.946
 7649SOL     OW23845   3.089   1.530   1.582
 7649SOL    HW123846   3.072   1.441   1.624
 7649SOL    HW223847   3.179   1.530   1.539
 7650SOL     OW23848   5.847   4.375   0.770
 7650SOL    HW123849   5.819   4.280   0.778
 7650SOL    HW223850   5.938   4.387   0.810
 7651SOL     OW23851   4.943   2.610   6.245
 7651SOL    HW123852   4.918   2.706   6.238
 7651SOL    HW223853   4.922   2.563   6.159
 7652SOL     OW23854   1.071   3.418   3.247
 7652SOL    HW123855   1.017   3.354   3.302
 7652SOL    HW223856   1.092   3.376   3.158
 7653SOL     OW23857   4.291   2.268   2.487
 7653SOL    HW123858   4.343   2.305   2.564
 7653SOL    HW223859   4.286   2.336   2.414
 7654SOL     OW23860   5.312   3.713   3.769
 7654SOL    HW123861   5.364   3.755   3.695
 7654SOL    HW223862   5.264   3.632   3.733
 7655SOL     OW23863   5.122   5.309   5.426
 7655SOL    HW123864   5.221   5.310   5.413
 7655SOL    HW223865   5.100   5.345   5.516
 7656SOL     OW23866   1.012   0.038   4.435
 7656SOL    HW123867   0.941   6.997   4.406
 7656SOL    HW223868   0.989   0.074   4.525
 7657SOL     OW23869   4.607   1.402   4.014
 7657SOL    HW123870   4.639   1.380   4.106
 7657SOL    HW223871   4.625   1.325   3.953
 7658SOL     OW23872   4.268   0.174   6.222
 7658SOL    HW123873   4.206   0.243   6.183
 7658SOL    HW223874   4.245   0.160   6.318
 7659SOL     OW23875   4.799   6.019   6.996
 7659SOL    HW123876   4.759   6.058   0.055
 7659SOL    HW223877   4.840   6.093   6.941
 7660SOL     OW23878   5.715   4.887   4.038
 7660SOL    HW123879   5.776   4.918   3.965
 7660SOL    HW223880   5.762   4.820   4.096
 7661SOL     OW23881   5.975   3.397   4.298
 7661SOL    HW123882   6.068   3.415   4.331
 7661SOL    HW223883   5.978   3.367   4.203
 7662SOL     OW23884   6.334   5.412   2.984
 7662SOL    HW123885   6.413   5.355   3.006
 7662SOL    HW223886   6.260   5.354   2.949
 7663SOL     OW23887   6.889   5.920   0.157
 7663SOL    HW123888   6.953   5.981   0.111
 7663SOL    HW223889   6.880   5.948   0.253
 7664SOL     OW23890   2.521   5.705   4.925
 7664SOL    HW123891   2.492   5.706   5.021
 7664SOL    HW223892   2.460   5.647   4.872
 7665SOL     OW23893   2.699   5.358   4.178
 7665SOL    HW123894   2.681   5.377   4.082
 7665SOL    HW223895   2.724   5.262   4.189
 7666SOL     OW23896   2.870   0.959   1.641
 7666SOL    HW123897   2.944   0.970   1.707
 7666SOL    HW223898   2.801   1.030   1.656
 7667SOL     OW23899   5.306   6.064   5.612
 7667SOL    HW123900   5.334   6.098   5.522
 7667SOL    HW223901   5.345   5.974   5.628
 7668SOL     OW23902   3.165   4.191   1.615
 7668SOL    HW123903   3.108   4.152   1.543
 7668SOL    HW223904   3.118   4.182   1.703
 7669SOL     OW23905   4.628   6.237   4.873
 7669SOL    HW123906   4.608   6.171   4.945
 7669SOL    HW223907   4.725   6.234   4.851
 7670SOL     OW23908   1.216   5.685   0.979
 7670SOL    HW123909   1.217   5.718   1.074
 7670SOL    HW223910   1.134   5.719   0.933
 7671SOL     OW23911   5.549   2.202   4.673
 7671SOL    HW123912   5.624   2.267   4.687
 7671SOL    HW223913   5.551   2.133   4.745
 7672SOL     OW23914   6.397   0.681   1.818
 7672SOL    HW123915   6.438   0.666   1.728
 7672SOL    HW223916   6.467   0.670   1.889
 7673SOL     OW23917   0.199   3.975   6.999
 7673SOL    HW123918   0.221   3.945   6.906
 7673SOL    HW223919   0.277   4.025   0.012
 7674SOL     OW23920   6.126   0.608   5.248
 7674SOL    HW123921   6.179   0.640   5.170
 7674SOL    HW223922   6.184   0.553   5.308
 7675SOL     OW23923   5.017   0.100   3.377
 7675SOL    HW123924   5.081   0.112   3.301
 7675SOL    HW223925   4.925   0.087   3.342
 7676SOL     OW23926   1.601   0.598   1.601
 7676SOL    HW123927   1.572   0.565   1.511
 7676SOL    HW223928   1.580   0.529   1.670
 7677SOL     OW23929   1.609   2.096   3.006
 7677SOL    HW123930   1.535   2.163   3.004
 7677SOL    HW223931   1.617   2.059   3.099
 7678SOL     OW23932   5.561   6.788   6.085
 7678SOL    HW123933   5.636   6.750   6.029
 7678SOL    HW223934   5.518   6.863   6.036
 7679SOL     OW23935   1.294   5.328   4.584
 7679SOL    HW123936   1.367   5.314   4.517
 7679SOL    HW223937   1.211   5.358   4.537
 7680SOL     OW23938   5.388   0.952   6.706
 7680SOL    HW123939   5.382   1.052   6.700
 7680SOL    HW223940   5.422   0.915   6.620
 7681SOL     OW23941   2.780   2.091   6.089
 7681SOL    HW123942   2.814   2.085   5.996
 7681SOL    HW223943   2.857   2.089   6.153
 7682SOL     OW23944   2.857   6.861   1.022
 7682SOL    HW123945   2.914   6.781   1.040
 7682SOL    HW223946   2.767   6.848   1.064
 7683SOL     OW23947   6.882   2.191   3.148
 7683SOL    HW123948   6.934   2.183   3.062
 7683SOL    HW223949   6.876   2.102   3.192
 7684SOL     OW23950   3.889   2.580   6.077
 7684SOL    HW123951   3.936   2.667   6.062
 7684SOL    HW223952   3.894   2.555   6.174
 7685SOL     OW23953   4.069   3.765   1.337
 7685SOL    HW123954   4.003   3.736   1.406
 7685SOL    HW223955   4.122   3.842   1.373
 7686SOL     OW23956   3.196   0.775   3.521
 7686SOL    HW123957   3.102   0.802   3.541
 7686SOL    HW223958   3.215   0.792   3.424
 7687SOL     OW23959   4.453   4.800   6.470
 7687SOL    HW123960   4.469   4.894   6.440
 7687SOL    HW223961   4.409   4.801   6.560
 7688SOL     OW23962   6.780   0.495   2.860
 7688SOL    HW123963   6.770   0.522   2.956
 7688SOL    HW223964   6.756   0.398   2.851
 7689SOL     OW23965   3.505   6.007   4.804
 7689SOL    HW123966   3.491   6.047   4.895
 7689SOL    HW223967   3.416   5.990   4.762
 7690SOL     OW23968   0.834   5.229   2.208
 7690SOL    HW123969   0.858   5.298   2.276
 7690SOL    HW223970   0.913   5.170   2.191
 7691SOL     OW23971   6.062   3.815   5.779
 7691SOL    HW123972   6.125   3.862   5.841
 7691SOL    HW223973   6.022   3.881   5.716
 7692SOL     OW23974   1.398   6.476   1.166
 7692SOL    HW123975   1.302   6.449   1.156
 7692SOL    HW223976   1.454   6.396   1.184
 7693SOL     OW23977   5.531   1.562   0.430
 7693SOL    HW123978   5.538   1.625   0.507
 7693SOL    HW223979   5.554   1.610   0.345
 7694SOL     OW23980   5.935   5.353   3.971
 7694SOL    HW123981   5.941   5.453   3.979
 7694SOL    HW223982   5.880   5.330   3.890
 7695SOL     OW23983   4.567   0.339   6.484
 7695SOL    HW123984   4.587   0.437   6.479
 7695SOL    HW223985   4.601   0.302   6.570
 7696SOL     OW23986   1.272   4.123   5.429
 7696SOL    HW123987   1.338   4.130   5.504
 7696SOL    HW223988   1.293   4.193   5.360
 7697SOL     OW23989   4.389   1.576   2.482
 7697SOL    HW123990   4.342   1.488   2.468
 7697SOL    HW223991   4.323   1.644   2.515
 7698SOL     OW23992   6.948   2.867   5.384
 7698SOL    HW123993   6.970   2.774   5.415
 7698SOL    HW223994   6.922   2.923   5.463
 7699SOL     OW23995   2.707   4.065   0.726
 7699SOL    HW123996   2.787   4.115   0.760
 7699SOL    HW223997   2.730   3.967   0.720
 7700SOL     OW23998   5.688   6.711   4.464
 7700SOL    HW123999   5.760   6.780   4.462
 7700SOL    HW224000   5.640   6.708   4.377
 7701SOL     OW24001   6.688   2.140   5.160
 7701SOL    HW124002   6.634   2.221   5.134
 7701SOL    HW224003   6.664   2.064   5.099
 7702SOL     OW24004   2.125   6.380   5.988
 7702SOL    HW124005   2.106   6.467   6.034
 7702SOL    HW224006   2.040   6.330   5.975
 7703SOL     OW24007   0.785   2.514   5.244
 7703SOL    HW124008   0.710   2.530   5.181
 7703SOL    HW224009   0.805   2.416   5.247
 7704SOL     OW24010   2.872   4.599   1.094
 7704SOL    HW124011   2.914   4.554   1.015
 7704SOL    HW224012   2.942   4.646   1.147
 7705SOL     OW24013   3.577   4.159   5.033
 7705SOL    HW124014   3.574   4.140   5.131
 7705SOL    HW224015   3.495   4.122   4.990
 7706SOL     OW24016   6.734   0.838   5.663
 7706SOL    HW124017   6.765   0.930   5.638
 7706SOL    HW224018   6.665   0.845   5.735
 7707SOL     OW24019   0.247   5.754   6.933
 7707SOL    HW124020   0.305   5.675   6.911
 7707SOL    HW224021   0.218   5.798   6.848
 7708SOL     OW24022   5.190   1.455   4.490
 7708SOL    HW124023   5.265   1.392   4.509
 7708SOL    HW224024   5.104   1.406   4.488
 7709SOL     OW24025   3.878   2.231   1.753
 7709SOL    HW124026   3.790   2.264   1.787
 7709SOL    HW224027   3.942   2.307   1.746
 7710SOL     OW24028   2.901   2.293   6.463
 7710SOL    HW124029   2.810   2.255   6.479
 7710SOL    HW224030   2.961   2.270   6.540
 7711SOL     OW24031   4.926   5.791   4.711
 7711SOL    HW124032   4.918   5.767   4.614
 7711SOL    HW224033   5.022   5.785   4.739
 7712SOL     OW24034   5.143   4.726   0.009
 7712SOL    HW124035   5.162   4.818   6.998
 7712SOL    HW224036   5.181   4.658   6.972
 7713SOL     OW24037   0.346   5.560   6.443
 7713SOL    HW124038   0.295   5.578   6.358
 7713SOL    HW224039   0.363   5.462   6.451
 7714SOL     OW24040   5.185   3.524   4.450
 7714SOL    HW124041   5.189   3.442   4.393
 7714SOL    HW224042   5.242   3.595   4.411
 7715SOL     OW24043   3.920   2.174   2.055
 7715SOL    HW124044   3.874   2.217   1.977
 7715SOL    HW224045   3.851   2.131   2.114
 7716SOL     OW24046   4.326   2.393   4.031
 7716SOL    HW124047   4.370   2.307   4.004
 7716SOL    HW224048   4.362   2.422   4.120
 7717SOL     OW24049   3.163   0.318   6.602
 7717SOL    HW124050   3.077   0.288   6.561
 7717SOL    HW224051   3.195   0.248   6.666
 7718SOL     OW24052   2.805   6.334   4.215
 7718SOL    HW124053   2.767   6.351   4.124
 7718SOL    HW224054   2.745   6.372   4.284
 7719SOL     OW24055   5.966   2.926   5.280
 7719SOL    HW124056   5.881   2.915   5.332
 7719SOL    HW224057   6.029   2.983   5.332
 7720SOL     OW24058   6.007   6.591   1.974
 7720SOL    HW124059   6.015   6.655   2.050
 7720SOL    HW224060   5.921   6.608   1.926
 7721SOL     OW24061   0.881   4.933   2.696
 7721SOL    HW124062   0.831   4.846   2.701
 7721SOL    HW224063   0.973   4.921   2.731
 7722SOL     OW24064   0.701   6.168   4.426
 7722SOL    HW124065   0.625   6.217   4.467
 7722SOL    HW224066   0.769   6.146   4.497
 7723SOL     OW24067   0.006   2.119   0.539
 7723SOL    HW124068   0.007   2.177   0.620
 7723SOL    HW224069   6.960   2.152   0.475
 7724SOL     OW24070   2.012   6.148   0.385
 7724SOL    HW124071   2.063   6.214   0.439
 7724SOL    HW224072   1.999   6.064   0.437
 7725SOL     OW24073   4.964   3.307   4.180
 7725SOL    HW124074   5.056   3.308   4.220
 7725SOL    HW224075   4.966   3.255   4.094
 7726SOL     OW24076   5.573   4.257   3.507
 7726SOL    HW124077   5.569   4.319   3.429
 7726SOL    HW224078   5.489   4.203   3.512
 7727SOL     OW24079   5.582   2.871   2.030
 7727SOL    HW124080   5.556   2.960   1.992
 7727SOL    HW224081   5.528   2.853   2.112
 7728SOL     OW24082   2.356   2.581   2.345
 7728SOL    HW124083   2.324   2.671   2.377
 7728SOL    HW224084   2.398   2.591   2.255
 7729SOL     OW24085   4.625   2.277   7.019
 7729SOL    HW124086   4.700   2.250   0.055
 7729SOL    HW224087   4.565   2.199   7.002
 7730SOL     OW24088   4.638   0.327   2.016
 7730SOL    HW124089   4.683   0.294   2.099
 7730SOL    HW224090   4.684   0.288   1.936
 7731SOL     OW24091   0.175   1.393   4.578
 7731SOL    HW124092   0.207   1.315   4.525
 7731SOL    HW224093   0.113   1.448   4.523
 7732SOL     OW24094   4.152   5.360   0.488
 7732SOL    HW124095   4.085   5.287   0.476
 7732SOL    HW224096   4.239   5.321   0.519
 7733SOL     OW24097   2.567   6.490   0.664
 7733SOL    HW124098   2.558   6.568   0.727
 7733SOL    HW224099   2.643   6.507   0.602
 7734SOL     OW24100   1.785   3.048   2.458
 7734SOL    HW124101   1.693   3.075   2.485
 7734SOL    HW224102   1.785   3.023   2.361
 7735SOL     OW24103   5.023   4.166   1.105
 7735SOL    HW124104   5.010   4.217   1.020
 7735SOL    HW224105   5.010   4.228   1.183
 7736SOL     OW24106   5.624   4.324   6.167
 7736SOL    HW124107   5.541   4.290   6.212
 7736SOL    HW224108   5.704   4.287   6.212
 7737SOL     OW24109   4.672   2.548   0.400
 7737SOL    HW124110   4.665   2.612   0.324
 7737SOL    HW224111   4.624   2.584   0.480
 7738SOL     OW24112   2.134   5.098   6.966
 7738SOL    HW124113   2.049   5.066   7.008
 7738SOL    HW224114   2.172   5.025   6.908
 7739SOL     OW24115   5.506   3.538   2.730
 7739SOL    HW124116   5.534   3.615   2.787
 7739SOL    HW224117   5.416   3.506   2.760
 7740SOL     OW24118   0.635   6.083   3.688
 7740SOL    HW124119   0.721   6.039   3.662
 7740SOL    HW224120   0.629   6.173   3.645
 7741SOL     OW24121   2.890   5.677   4.593
 7741SOL    HW124122   2.984   5.643   4.607
 7741SOL    HW224123   2.827   5.626   4.652
 7742SOL     OW24124   6.767   1.032   4.004
 7742SOL    HW124125   6.784   0.933   4.011
 7742SOL    HW224126   6.718   1.051   3.918
 7743SOL     OW24127   4.961   3.133   2.108
 7743SOL    HW124128   4.872   3.089   2.090
 7743SOL    HW224129   5.029   3.063   2.130
 7744SOL     OW24130   0.195   6.334   4.945
 7744SOL    HW124131   0.179   6.375   4.855
 7744SOL    HW224132   0.290   6.304   4.951
 7745SOL     OW24133   4.737   3.381   5.295
 7745SOL    HW124134   4.702   3.465   5.254
 7745SOL    HW224135   4.813   3.346   5.241
 7746SOL     OW24136   1.441   0.421   6.372
 7746SOL    HW124137   1.506   0.479   6.323
 7746SOL    HW224138   1.365   0.477   6.406
 7747SOL     OW24139   4.983   4.925   0.940
 7747SOL    HW124140   4.942   4.984   0.870
 7747SOL    HW224141   5.039   4.981   1.002
 7748SOL     OW24142   2.337   4.105   6.533
 7748SOL    HW124143   2.422   4.067   6.569
 7748SOL    HW224144   2.301   4.046   6.461
 7749SOL     OW24145   5.634   3.899   6.167
 7749SOL    HW124146   5.653   3.817   6.221
 7749SOL    HW224147   5.639   3.878   6.070
 7750SOL     OW24148   4.855   5.507   2.702
 7750SOL    HW124149   4.945   5.487   2.664
 7750SOL    HW224150   4.813   5.582   2.651
 7751SOL     OW24151   0.453   2.760   1.043
 7751SOL    HW124152   0.509   2.756   1.126
 7751SOL    HW224153   0.506   2.804   0.970
 7752SOL     OW24154   3.665   1.431   3.552
 7752SOL    HW124155   3.663   1.480   3.465
 7752SOL    HW224156   3.634   1.337   3.537
 7753SOL     OW24157   3.992   1.565   5.533
 7753SOL    HW124158   3.984   1.508   5.614
 7753SOL    HW224159   4.037   1.651   5.557
 7754SOL     OW24160   5.517   5.351   1.611
 7754SOL    HW124161   5.472   5.274   1.656
 7754SOL    HW224162   5.610   5.326   1.586
 7755SOL     OW24163   0.312   5.017   5.160
 7755SOL    HW124164   0.282   4.942   5.102
 7755SOL    HW224165   0.388   5.065   5.116
 7756SOL     OW24166   2.509   4.502   2.280
 7756SOL    HW124167   2.476   4.429   2.340
 7756SOL    HW224168   2.603   4.483   2.252
 7757SOL     OW24169   0.133   4.128   0.899
 7757SOL    HW124170   0.224   4.099   0.867
 7757SOL    HW224171   0.138   4.150   0.996
 7758SOL     OW24172   0.264   1.662   5.492
 7758SOL    HW124173   0.331   1.737   5.496
 7758SOL    HW224174   0.303   1.581   5.534
 7759SOL     OW24175   3.601   1.294   2.353
 7759SOL    HW124176   3.590   1.281   2.254
 7759SOL    HW224177   3.528   1.353   2.387
 7760SOL     OW24178   4.938   3.087   0.145
 7760SOL    HW124179   5.017   3.038   0.106
 7760SOL    HW224180   4.971   3.168   0.195
 7761SOL     OW24181   5.321   5.228   3.492
 7761SOL    HW124182   5.278   5.225   3.402
 7761SOL    HW224183   5.394   5.295   3.493
 7762SOL     OW24184   5.217   1.704   1.988
 7762SOL    HW124185   5.169   1.765   1.924
 7762SOL    HW224186   5.315   1.728   1.989
 7763SOL     OW24187   2.180   0.249   2.827
 7763SOL    HW124188   2.191   0.164   2.880
 7763SOL    HW224189   2.111   0.306   2.871
 7764SOL     OW24190   3.505   4.808   5.542
 7764SOL    HW124191   3.433   4.862   5.585
 7764SOL    HW224192   3.578   4.869   5.510
 7765SOL     OW24193   5.152   4.373   4.549
 7765SOL    HW124194   5.058   4.340   4.561
 7765SOL    HW224195   5.215   4.295   4.547
 7766SOL     OW24196   6.374   2.630   6.144
 7766SOL    HW124197   6.330   2.643   6.232
 7766SOL    HW224198   6.305   2.629   6.072
 7767SOL     OW24199   4.596   0.248   4.314
 7767SOL    HW124200   4.597   0.227   4.412
 7767SOL    HW224201   4.643   0.335   4.299
 7768SOL     OW24202   3.683   6.130   4.631
 7768SOL    HW124203   3.739   6.077   4.568
 7768SOL    HW224204   3.663   6.075   4.712
 7769SOL     OW24205   3.585   2.794   6.894
 7769SOL    HW124206   3.541   2.774   6.981
 7769SOL    HW224207   3.542   2.741   6.821
 7770SOL     OW24208   1.212   3.625   3.843
 7770SOL    HW124209   1.276   3.672   3.904
 7770SOL    HW224210   1.238   3.642   3.748
 7771SOL     OW24211   1.157   3.738   5.214
 7771SOL    HW124212   1.114   3.699   5.133
 7771SOL    HW224213   1.212   3.668   5.259
 7772SOL     OW24214   5.421   6.378   2.375
 7772SOL    HW124215   5.439   6.412   2.283
 7772SOL    HW224216   5.343   6.316   2.374
 7773SOL     OW24217   2.909   0.205   6.523
 7773SOL    HW124218   2.837   0.137   6.510
 7773SOL    HW224219   2.872   0.286   6.567
 7774SOL     OW24220   5.282   1.041   2.332
 7774SOL    HW124221   5.261   1.124   2.280
 7774SOL    HW224222   5.367   1.054   2.383
 7775SOL     OW24223   3.421   1.502   1.161
 7775SOL    HW124224   3.463   1.434   1.222
 7775SOL    HW224225   3.327   1.520   1.192
 7776SOL     OW24226   3.407   0.933   4.200
 7776SOL    HW124227   3.372   0.991   4.127
 7776SOL    HW224228   3.335   0.916   4.267
 7777SOL     OW24229   5.730   5.179   2.908
 7777SOL    HW124230   5.797   5.239   2.951
 7777SOL    HW224231   5.652   5.234   2.877
 7778SOL     OW24232   1.048   4.414   2.270
 7778SOL    HW124233   1.139   4.381   2.296
 7778SOL    HW224234   0.980   4.381   2.336
 7779SOL     OW24235   3.481   6.466   2.297
 7779SOL    HW124236   3.397   6.515   2.273
 7779SOL    HW224237   3.458   6.376   2.334
 7780SOL     OW24238   6.606   5.582   4.240
 7780SOL    HW124239   6.629   5.679   4.243
 7780SOL    HW224240   6.689   5.528   4.257
 7781SOL     OW24241   2.454   3.119   0.436
 7781SOL    HW124242   2.373   3.065   0.458
 7781SOL    HW224243   2.536   3.062   0.444
 7782SOL     OW24244   5.916   4.309   4.424
 7782SOL    HW124245   5.879   4.216   4.419
 7782SOL    HW224246   5.938   4.332   4.519
 7783SOL     OW24247   1.321   6.499   4.192
 7783SOL    HW124248   1.399   6.559   4.201
 7783SOL    HW224249   1.279   6.484   4.282
 7784SOL     OW24250   1.816   2.124   2.819
 7784SOL    HW124251   1.901   2.165   2.852
 7784SOL    HW224252   1.746   2.133   2.889
 7785SOL     OW24253   6.507   6.295   2.808
 7785SOL    HW124254   6.471   6.220   2.752
 7785SOL    HW224255   6.602   6.274   2.832
 7786SOL     OW24256   5.016   0.879   6.171
 7786SOL    HW124257   4.949   0.949   6.195
 7786SOL    HW224258   5.009   0.858   6.074
 7787SOL     OW24259   1.856   2.667   1.285
 7787SOL    HW124260   1.882   2.571   1.292
 7787SOL    HW224261   1.790   2.689   1.357
 7788SOL     OW24262   1.019   3.551   1.551
 7788SOL    HW124263   0.940   3.571   1.608
 7788SOL    HW224264   1.077   3.483   1.596
 7789SOL     OW24265   3.832   0.932   6.016
 7789SOL    HW124266   3.741   0.908   5.984
 7789SOL    HW224267   3.900   0.899   5.951
 7790SOL     OW24268   4.089   4.801   4.269
 7790SOL    HW124269   4.071   4.837   4.178
 7790SOL    HW224270   4.004   4.799   4.322
 7791SOL     OW24271   2.796   5.789   1.703
 7791SOL    HW124272   2.880   5.741   1.727
 7791SOL    HW224273   2.756   5.747   1.622
 7792SOL     OW24274   1.530   1.417   2.475
 7792SOL    HW124275   1.492   1.402   2.383
 7792SOL    HW224276   1.456   1.424   2.541
 7793SOL     OW24277   5.066   1.627   1.116
 7793SOL    HW124278   5.130   1.700   1.140
 7793SOL    HW224279   5.069   1.555   1.185
 7794SOL     OW24280   1.605   0.912   3.559
 7794SOL    HW124281   1.658   0.960   3.490
 7794SOL    HW224282   1.529   0.864   3.515
 7795SOL     OW24283   3.841   3.745   1.509
 7795SOL    HW124284   3.762   3.684   1.516
 7795SOL    HW224285   3.897   3.736   1.592
 7796SOL     OW24286   3.522   1.721   0.549
 7796SOL    HW124287   3.453   1.668   0.500
 7796SOL    HW224288   3.575   1.775   0.484
 7797SOL     OW24289   1.151   6.349   2.812
 7797SOL    HW124290   1.084   6.416   2.780
 7797SOL    HW224291   1.242   6.390   2.813
 7798SOL     OW24292   1.898   3.563   0.961
 7798SOL    HW124293   1.953   3.575   0.879
 7798SOL    HW224294   1.821   3.502   0.941
 7799SOL     OW24295   2.410   6.362   4.348
 7799SOL    HW124296   2.496   6.411   4.363
 7799SOL    HW224297   2.428   6.275   4.302
 7800SOL     OW24298   1.677   1.223   2.228
 7800SOL    HW124299   1.689   1.322   2.219
 7800SOL    HW224300   1.611   1.191   2.161
 7801SOL     OW24301   1.516   1.939   0.826
 7801SOL    HW124302   1.548   1.882   0.903
 7801SOL    HW224303   1.440   1.892   0.780
 7802SOL     OW24304   6.461   4.649   3.673
 7802SOL    HW124305   6.469   4.743   3.706
 7802SOL    HW224306   6.365   4.631   3.650
 7803SOL     OW24307   2.864   2.556   5.982
 7803SOL    HW124308   2.853   2.540   6.081
 7803SOL    HW224309   2.905   2.475   5.940
 7804SOL     OW24310   2.726   1.939   5.282
 7804SOL    HW124311   2.822   1.912   5.274
 7804SOL    HW224312   2.693   1.973   5.193
 7805SOL     OW24313   5.161   3.039   6.922
 7805SOL    HW124314   5.157   2.940   6.933
 7805SOL    HW224315   5.075   3.073   6.883
 7806SOL     OW24316   6.304   1.998   5.346
 7806SOL    HW124317   6.398   1.965   5.343
 7806SOL    HW224318   6.303   2.093   5.376
 7807SOL     OW24319   1.709   5.357   5.757
 7807SOL    HW124320   1.786   5.358   5.820
 7807SOL    HW224321   1.695   5.264   5.723
 7808SOL     OW24322   0.257   3.778   3.965
 7808SOL    HW124323   0.216   3.728   3.889
 7808SOL    HW224324   0.357   3.776   3.956
 7809SOL     OW24325   4.544   6.634   2.515
 7809SOL    HW124326   4.456   6.671   2.544
 7809SOL    HW224327   4.565   6.668   2.423
 7810SOL     OW24328   1.755   6.935   5.673
 7810SOL    HW124329   1.816   6.941   5.752
 7810SOL    HW224330   1.760   7.020   5.620
 7811SOL     OW24331   1.187   5.841   3.221
 7811SOL    HW124332   1.144   5.752   3.211
 7811SOL    HW224333   1.210   5.879   3.131
 7812SOL     OW24334   2.690   1.366   5.927
 7812SOL    HW124335   2.648   1.276   5.914
 7812SOL    HW224336   2.623   1.429   5.964
 7813SOL     OW24337   5.742   1.293   0.726
 7813SOL    HW124338   5.813   1.323   0.789
 7813SOL    HW224339   5.768   1.317   0.632
 7814SOL     OW24340   5.994   2.300   1.777
 7814SOL    HW124341   6.018   2.307   1.680
 7814SOL    HW224342   6.077   2.304   1.832
 7815SOL     OW24343   4.769   5.155   3.614
 7815SOL    HW124344   4.728   5.208   3.539
 7815SOL    HW224345   4.863   5.132   3.590
 7816SOL     OW24346   1.104   1.217   5.435
 7816SOL    HW124347   1.067   1.124   5.431
 7816SOL    HW224348   1.188   1.223   5.381
 7817SOL     OW24349   4.309   1.963   6.597
 7817SOL    HW124350   4.290   2.051   6.640
 7817SOL    HW224351   4.232   1.937   6.539
 7818SOL     OW24352   6.071   0.935   3.254
 7818SOL    HW124353   6.016   1.017   3.239
 7818SOL    HW224354   6.167   0.960   3.264
 7819SOL     OW24355   1.549   2.614   4.614
 7819SOL    HW124356   1.529   2.569   4.701
 7819SOL    HW224357   1.616   2.559   4.564
 7820SOL     OW24358   1.122   1.184   5.871
 7820SOL    HW124359   1.067   1.101   5.859
 7820SOL    HW224360   1.167   1.207   5.785
 7821SOL     OW24361   4.185   5.650   6.658
 7821SOL    HW124362   4.121   5.661   6.582
 7821SOL    HW224363   4.134   5.634   6.742
 7822SOL     OW24364   0.685   1.391   4.631
 7822SOL    HW124365   0.732   1.473   4.663
 7822SOL    HW224366   0.632   1.352   4.706
 7823SOL     OW24367   2.724   2.908   6.112
 7823SOL    HW124368   2.649   2.850   6.081
 7823SOL    HW224369   2.780   2.857   6.178
 7824SOL     OW24370   5.848   4.188   3.096
 7824SOL    HW124371   5.880   4.098   3.126
 7824SOL    HW224372   5.866   4.199   2.998
 7825SOL     OW24373   3.907   3.224   3.013
 7825SOL    HW124374   3.955   3.209   3.099
 7825SOL    HW224375   3.939   3.158   2.945
 7826SOL     OW24376   6.288   0.184   0.835
 7826SOL    HW124377   6.250   0.152   0.922
 7826SOL    HW224378   6.220   0.173   0.763
 7827SOL     OW24379   4.215   3.569   0.449
 7827SOL    HW124380   4.281   3.573   0.374
 7827SOL    HW224381   4.243   3.633   0.521
 7828SOL     OW24382   1.445   6.725   1.080
 7828SOL    HW124383   1.450   6.633   1.119
 7828SOL    HW224384   1.351   6.743   1.050
 7829SOL     OW24385   3.664   3.653   2.526
 7829SOL    HW124386   3.574   3.672   2.487
 7829SOL    HW224387   3.714   3.591   2.465
 7830SOL     OW24388   6.559   3.978   0.502
 7830SOL    HW124389   6.618   3.898   0.500
 7830SOL    HW224390   6.532   4.003   0.409
 7831SOL     OW24391   1.930   2.564   0.400
 7831SOL    HW124392   1.943   2.473   0.361
 7831SOL    HW224393   1.939   2.559   0.500
 7832SOL     OW24394   3.647   2.971   6.240
 7832SOL    HW124395   3.633   2.886   6.189
 7832SOL    HW224396   3.610   3.048   6.188
 7833SOL     OW24397   6.634   6.570   1.741
 7833SOL    HW124398   6.604   6.489   1.792
 7833SOL    HW224399   6.560   6.637   1.739
 7834SOL     OW24400   5.571   1.345   1.074
 7834SOL    HW124401   5.660   1.348   1.119
 7834SOL    HW224402   5.531   1.254   1.087
 7835SOL     OW24403   2.034   2.373   4.271
 7835SOL    HW124404   1.937   2.357   4.251
 7835SOL    HW224405   2.086   2.370   4.185
 7836SOL     OW24406   1.844   0.544   0.083
 7836SOL    HW124407   1.836   0.641   0.059
 7836SOL    HW224408   1.839   0.534   0.183
 7837SOL     OW24409   5.633   5.835   2.139
 7837SOL    HW124410   5.725   5.795   2.133
 7837SOL    HW224411   5.634   5.912   2.202
 7838SOL     OW24412   3.868   6.180   3.958
 7838SOL    HW124413   3.964   6.166   3.934
 7838SOL    HW224414   3.812   6.173   3.875
 7839SOL     OW24415   6.961   4.315   3.409
 7839SOL    HW124416   6.864   4.337   3.396
 7839SOL    HW224417   6.995   4.359   3.492
 7840SOL     OW24418   5.055   3.419   6.238
 7840SOL    HW124419   5.050   3.437   6.140
 7840SOL    HW224420   4.967   3.385   6.270
 7841SOL     OW24421   1.001   2.298   6.244
 7841SOL    HW124422   1.024   2.262   6.154
 7841SOL    HW224423   1.002   2.398   6.241
 7842SOL     OW24424   2.661   0.293   2.662
 7842SOL    HW124425   2.694   0.320   2.572
 7842SOL    HW224426   2.739   0.281   2.724
 7843SOL     OW24427   0.085   2.515   2.312
 7843SOL    HW124428   0.154   2.581   2.341
 7843SOL    HW224429   0.077   2.517   2.212
 7844SOL     OW24430   4.074   2.152   3.692
 7844SOL    HW124431   4.124   2.069   3.719
 7844SOL    HW224432   4.043   2.200   3.774
 7845SOL     OW24433   0.696   1.242   4.165
 7845SOL    HW124434   0.633   1.207   4.235
 7845SOL    HW224435   0.712   1.339   4.180
 7846SOL     OW24436   4.675   6.835   2.327
 7846SOL    HW124437   4.654   6.913   2.387
 7846SOL    HW224438   4.765   6.798   2.351
 7847SOL     OW24439   0.644   0.054   0.162
 7847SOL    HW124440   0.601   7.020   0.231
 7847SOL    HW224441   0.688   7.020   0.092
 7848SOL     OW24442   3.659   3.980   1.666
 7848SOL    HW124443   3.661   3.906   1.733
 7848SOL    HW224444   3.600   4.054   1.699
 7849SOL     OW24445   4.985   4.295   4.948
 7849SOL    HW124446   4.948   4.346   5.025
 7849SOL    HW224447   5.017   4.359   4.878
 7850SOL     OW24448   1.089   2.705   4.641
 7850SOL    HW124449   1.052   2.660   4.560
 7850SOL    HW224450   1.059   2.656   4.723
 7851SOL     OW24451   3.964   6.680   1.146
 7851SOL    HW124452   3.894   6.746   1.169
 7851SOL    HW224453   3.931   6.619   1.073
 7852SOL     OW24454   2.550   6.687   6.992
 7852SOL    HW124455   2.471   6.638   0.004
 7852SOL    HW224456   2.583   6.753   0.035
 7853SOL     OW24457   2.094   2.634   0.193
 7853SOL    HW124458   2.046   2.590   0.270
 7853SOL    HW224459   2.028   2.654   0.120
 7854SOL     OW24460   3.657   3.996   3.691
 7854SOL    HW124461   3.669   3.899   3.715
 7854SOL    HW224462   3.649   4.050   3.775
 7855SOL     OW24463   3.245   0.015   4.898
 7855SOL    HW124464   3.254   6.942   4.919
 7855SOL    HW224465   3.329   0.047   4.854
 7856SOL     OW24466   2.926   3.742   6.825
 7856SOL    HW124467   2.826   3.751   6.827
 7856SOL    HW224468   2.968   3.828   6.852
 7857SOL     OW24469   0.418   2.639   5.494
 7857SOL    HW124470   0.359   2.719   5.479
 7857SOL    HW224471   0.384   2.562   5.439
 7858SOL     OW24472   5.786   3.427   2.653
 7858SOL    HW124473   5.695   3.435   2.694
 7858SOL    HW224474   5.854   3.462   2.717
 7859SOL     OW24475   0.405   6.655   0.615
 7859SOL    HW124476   0.434   6.652   0.520
 7859SOL    HW224477   0.310   6.686   0.620
 7860SOL     OW24478   4.287   6.485   1.339
 7860SOL    HW124479   4.350   6.555   1.305
 7860SOL    HW224480   4.338   6.413   1.386
 7861SOL     OW24481   5.700   3.814   0.736
 7861SOL    HW124482   5.766   3.854   0.672
 7861SOL    HW224483   5.617   3.789   0.687
 7862SOL     OW24484   3.165   4.487   1.637
 7862SOL    HW124485   3.100   4.505   1.711
 7862SOL    HW224486   3.175   4.388   1.624
 7863SOL     OW24487   4.416   5.983   2.757
 7863SOL    HW124488   4.474   5.902   2.761
 7863SOL    HW224489   4.376   5.990   2.666
 7864SOL     OW24490   1.025   5.714   5.094
 7864SOL    HW124491   1.073   5.786   5.144
 7864SOL    HW224492   0.953   5.755   5.038
 7865SOL     OW24493   4.627   0.605   3.052
 7865SOL    HW124494   4.656   0.619   2.957
 7865SOL    HW224495   4.680   0.531   3.093
 7866SOL     OW24496   2.719   2.481   5.610
 7866SOL    HW124497   2.622   2.502   5.600
 7866SOL    HW224498   2.767   2.504   5.526
 7867SOL     OW24499   5.955   3.491   1.650
 7867SOL    HW124500   5.954   3.508   1.551
 7867SOL    HW224501   6.038   3.531   1.689
 7868SOL     OW24502   4.768   0.530   0.177
 7868SOL    HW124503   4.719   0.460   0.124
 7868SOL    HW224504   4.809   0.596   0.114
 7869SOL     OW24505   6.274   1.903   4.281
 7869SOL    HW124506   6.248   1.964   4.206
 7869SOL    HW224507   6.373   1.899   4.288
 7870SOL     OW24508   7.000   0.250   2.924
 7870SOL    HW124509   0.002   0.340   2.890
 7870SOL    HW224510   0.015   0.179   2.866
 7871SOL     OW24511   5.739   3.179   4.394
 7871SOL    HW124512   5.778   3.271   4.389
 7871SOL    HW224513   5.764   3.128   4.312
 7872SOL     OW24514   0.388   4.466   4.248
 7872SOL    HW124515   0.327   4.419   4.312
 7872SOL    HW224516   0.420   4.402   4.179
 7873SOL     OW24517   6.677   5.627   4.763
 7873SOL    HW124518   6.685   5.569   4.682
 7873SOL    HW224519   6.660   5.721   4.734
 7874SOL     OW24520   5.895   0.509   0.430
 7874SOL    HW124521   5.896   0.595   0.481
 7874SOL    HW224522   5.963   0.513   0.357
 7875SOL     OW24523   4.534   3.287   0.282
 7875SOL    HW124524   4.539   3.295   0.382
 7875SOL    HW224525   4.500   3.373   0.243
 7876SOL     OW24526   0.475   1.460   5.093
 7876SOL    HW124527   0.397   1.515   5.122
 7876SOL    HW224528   0.551   1.472   5.156
 7877SOL     OW24529   5.962   3.241   2.545
 7877SOL    HW124530   5.939   3.149   2.577
 7877SOL    HW224531   5.895   3.306   2.579
 7878SOL     OW24532   3.621   3.767   1.326
 7878SOL    HW124533   3.522   3.753   1.316
 7878SOL    HW224534   3.669   3.707   1.262
 7879SOL     OW24535   6.500   1.108   4.750
 7879SOL    HW124536   6.580   1.155   4.787
 7879SOL    HW224537   6.474   1.150   4.663
 7880SOL     OW24538   1.678   6.476   6.174
 7880SOL    HW124539   1.694   6.517   6.264
 7880SOL    HW224540   1.597   6.417   6.178
 7881SOL     OW24541   0.828   5.641   4.381
 7881SOL    HW124542   0.922   5.606   4.380
 7881SOL    HW224543   0.822   5.722   4.323
 7882SOL     OW24544   1.862   4.776   1.795
 7882SOL    HW124545   1.878   4.859   1.742
 7882SOL    HW224546   1.803   4.714   1.742
 7883SOL     OW24547   3.340   1.456   2.670
 7883SOL    HW124548   3.260   1.419   2.717
 7883SOL    HW224549   3.409   1.384   2.660
 7884SOL     OW24550   0.651   3.113   4.352
 7884SOL    HW124551   0.594   3.111   4.434
 7884SOL    HW224552   0.722   3.043   4.359
 7885SOL     OW24553   6.366   5.185   2.351
 7885SOL    HW124554   6.420   5.232   2.281
 7885SOL    HW224555   6.272   5.173   2.319
 7886SOL     OW24556   4.646   4.669   2.752
 7886SOL    HW124557   4.606   4.724   2.679
 7886SOL    HW224558   4.585   4.593   2.774
 7887SOL     OW24559   0.746   2.968   0.822
 7887SOL    HW124560   0.792   3.055   0.839
 7887SOL    HW224561   0.811   2.903   0.782
 7888SOL     OW24562   6.680   1.350   4.923
 7888SOL    HW124563   6.634   1.422   4.872
 7888SOL    HW224564   6.658   1.358   5.020
 7889SOL     OW24565   5.491   5.046   0.623
 7889SOL    HW124566   5.584   5.081   0.611
 7889SOL    HW224567   5.482   4.958   0.576
 7890SOL     OW24568   2.293   2.740   3.105
 7890SOL    HW124569   2.248   2.824   3.074
 7890SOL    HW224570   2.379   2.762   3.150
 7891SOL     OW24571   6.390   1.244   4.548
 7891SOL    HW124572   6.476   1.293   4.533
 7891SOL    HW224573   6.347   1.223   4.460
 7892SOL     OW24574   1.093   1.662   4.888
 7892SOL    HW124575   1.162   1.732   4.873
 7892SOL    HW224576   1.119   1.607   4.968
 7893SOL     OW24577   6.123   6.288   0.862
 7893SOL    HW124578   6.159   6.202   0.900
 7893SOL    HW224579   6.157   6.300   0.769
 7894SOL     OW24580   3.311   0.962   6.541
 7894SOL    HW124581   3.324   0.867   6.512
 7894SOL    HW224582   3.215   0.977   6.565
 7895SOL     OW24583   6.447   6.542   2.670
 7895SOL    HW124584   6.425   6.604   2.745
 7895SOL    HW224585   6.440   6.447   2.702
 7896SOL     OW24586   2.314   1.397   0.486
 7896SOL    HW124587   2.323   1.301   0.458
 7896SOL    HW224588   2.352   1.456   0.415
 7897SOL     OW24589   4.208   1.459   0.871
 7897SOL    HW124590   4.160   1.387   0.921
 7897SOL    HW224591   4.299   1.472   0.910
 7898SOL     OW24592   5.044   6.659   3.643
 7898SOL    HW124593   5.007   6.644   3.734
 7898SOL    HW224594   5.138   6.693   3.650
 7899SOL     OW24595   6.004   4.305   3.542
 7899SOL    HW124596   5.950   4.357   3.609
 7899SOL    HW224597   6.098   4.297   3.575
 7900SOL     OW24598   0.505   3.404   0.399
 7900SOL    HW124599   0.506   3.310   0.432
 7900SOL    HW224600   0.420   3.420   0.348
 7901SOL     OW24601   0.568   2.182   0.163
 7901SOL    HW124602   0.496   2.238   0.205
 7901SOL    HW224603   0.530   2.094   0.137
 7902SOL     OW24604   1.679   6.732   1.291
 7902SOL    HW124605   1.612   6.735   1.216
 7902SOL    HW224606   1.647   6.669   1.362
 7903SOL     OW24607   3.059   1.878   5.653
 7903SOL    HW124608   3.149   1.902   5.690
 7903SOL    HW224609   3.005   1.835   5.725
 7904SOL     OW24610   4.865   2.912   2.413
 7904SOL    HW124611   4.837   2.898   2.508
 7904SOL    HW224612   4.916   2.997   2.406
 7905SOL     OW24613   6.391   2.280   0.939
 7905SOL    HW124614   6.399   2.298   0.841
 7905SOL    HW224615   6.480   2.289   0.983
 7906SOL     OW24616   0.735   5.630   6.663
 7906SOL    HW124617   0.764   5.637   6.758
 7906SOL    HW224618   0.814   5.640   6.603
 7907SOL     OW24619   6.221   6.569   3.076
 7907SOL    HW124620   6.209   6.667   3.091
 7907SOL    HW224621   6.199   6.546   2.982
 7908SOL     OW24622   1.935   0.369   5.876
 7908SOL    HW124623   1.906   0.458   5.910
 7908SOL    HW224624   1.858   0.324   5.830
 7909SOL     OW24625   6.369   3.357   1.425
 7909SOL    HW124626   6.454   3.364   1.372
 7909SOL    HW224627   6.390   3.321   1.516
 7910SOL     OW24628   1.337   4.395   4.963
 7910SOL    HW124629   1.273   4.360   4.894
 7910SOL    HW224630   1.349   4.325   5.034
 7911SOL     OW24631   5.829   4.755   6.070
 7911SOL    HW124632   5.750   4.713   6.115
 7911SOL    HW224633   5.911   4.700   6.086
 7912SOL     OW24634   5.768   5.763   0.657
 7912SOL    HW124635   5.736   5.846   0.704
 7912SOL    HW224636   5.772   5.780   0.559
 7913SOL     OW24637   1.447   5.191   6.757
 7913SOL    HW124638   1.455   5.238   6.845
 7913SOL    HW224639   1.412   5.255   6.688
 7914SOL     OW24640   1.168   6.959   4.765
 7914SOL    HW124641   1.230   7.010   4.705
 7914SOL    HW224642   1.079   7.005   4.768
 7915SOL     OW24643   2.742   5.217   2.159
 7915SOL    HW124644   2.778   5.140   2.211
 7915SOL    HW224645   2.673   5.185   2.094
 7916SOL     OW24646   1.128   0.143   3.316
 7916SOL    HW124647   1.067   0.199   3.260
 7916SOL    HW224648   1.105   0.156   3.413
 7917SOL     OW24649   5.039   1.960   1.807
 7917SOL    HW124650   4.946   1.927   1.818
 7917SOL    HW224651   5.059   1.971   1.709
 7918SOL     OW24652   2.173   3.051   2.757
 7918SOL    HW124653   2.117   3.004   2.689
 7918SOL    HW224654   2.127   3.135   2.786
 7919SOL     OW24655   0.811   6.533   4.830
 7919SOL    HW124656   0.749   6.472   4.879
 7919SOL    HW224657   0.773   6.552   4.739
 7920SOL     OW24658   4.651   0.347   1.251
 7920SOL    HW124659   4.689   0.431   1.212
 7920SOL    HW224660   4.577   0.370   1.314
 7921SOL     OW24661   5.354   2.648   0.760
 7921SOL    HW124662   5.377   2.571   0.701
 7921SOL    HW224663   5.265   2.631   0.804
 7922SOL     OW24664   2.924   7.019   2.732
 7922SOL    HW124665   3.012   7.020   2.686
 7922SOL    HW224666   2.927   6.955   2.809
 7923SOL     OW24667   4.368   0.688   0.114
 7923SOL    HW124668   4.415   0.754   0.055
 7923SOL    HW224669   4.364   0.724   0.207
 7924SOL     OW24670   5.443   6.208   0.246
 7924SOL    HW124671   5.456   6.140   0.318
 7924SOL    HW224672   5.352   6.200   0.208
 7925SOL     OW24673   1.096   5.147   6.425
 7925SOL    HW124674   1.171   5.209   6.447
 7925SOL    HW224675   1.089   5.076   6.494
 7926SOL     OW24676   5.006   6.239   5.866
 7926SOL    HW124677   4.981   6.293   5.786
 7926SOL    HW224678   4.948   6.158   5.872
 7927SOL     OW24679   4.406   6.962   3.528
 7927SOL    HW124680   4.368   6.891   3.587
 7927SOL    HW224681   4.334   7.003   3.474
 7928SOL     OW24682   5.552   1.816   3.667
 7928SOL    HW124683   5.494   1.896   3.684
 7928SOL    HW224684   5.563   1.804   3.568
 7929SOL     OW24685   4.913   4.357   5.730
 7929SOL    HW124686   5.002   4.365   5.775
 7929SOL    HW224687   4.886   4.260   5.728
 7930SOL     OW24688   4.373   6.019   6.449
 7930SOL    HW124689   4.430   6.004   6.369
 7930SOL    HW224690   4.425   6.068   6.519
 7931SOL     OW24691   4.505   1.261   0.713
 7931SOL    HW124692   4.571   1.195   0.677
 7931SOL    HW224693   4.504   1.256   0.813
 7932SOL     OW24694   1.149   3.785   1.553
 7932SOL    HW124695   1.128   3.830   1.466
 7932SOL    HW224696   1.101   3.697   1.557
 7933SOL     OW24697   1.051   1.709   6.847
 7933SOL    HW124698   1.150   1.697   6.847
 7933SOL    HW224699   1.029   1.806   6.852
 7934SOL     OW24700   0.114   5.292   0.898
 7934SOL    HW124701   0.053   5.361   0.937
 7934SOL    HW224702   0.083   5.201   0.925
 7935SOL     OW24703   6.511   3.429   3.713
 7935SOL    HW124704   6.460   3.472   3.638
 7935SOL    HW224705   6.542   3.339   3.685
 7936SOL     OW24706   2.195   5.774   3.368
 7936SOL    HW124707   2.237   5.776   3.459
 7936SOL    HW224708   2.122   5.706   3.367
 7937SOL     OW24709   4.519   1.125   0.999
 7937SOL    HW124710   4.526   1.220   1.031
 7937SOL    HW224711   4.423   1.097   1.001
 7938SOL     OW24712   2.438   0.322   3.095
 7938SOL    HW124713   2.428   0.314   2.996
 7938SOL    HW224714   2.484   0.241   3.130
 7939SOL     OW24715   1.327   0.710   2.744
 7939SOL    HW124716   1.328   0.616   2.776
 7939SOL    HW224717   1.421   0.744   2.737
 7940SOL     OW24718   5.850   1.645   4.976
 7940SOL    HW124719   5.939   1.616   4.941
 7940SOL    HW224720   5.777   1.605   4.921
 7941SOL     OW24721   3.468   6.877   1.037
 7941SOL    HW124722   3.378   6.855   1.077
 7941SOL    HW224723   3.499   6.965   1.074
 7942SOL     OW24724   1.229   4.181   0.778
 7942SOL    HW124725   1.213   4.113   0.850
 7942SOL    HW224726   1.142   4.207   0.737
 7943SOL     OW24727   1.225   6.441   6.262
 7943SOL    HW124728   1.162   6.479   6.194
 7943SOL    HW224729   1.178   6.370   6.315
 7944SOL     OW24730   1.450   2.029   1.385
 7944SOL    HW124731   1.512   2.012   1.308
 7944SOL    HW224732   1.457   2.125   1.412
 7945SOL     OW24733   6.336   3.183   3.114
 7945SOL    HW124734   6.391   3.139   3.043
 7945SOL    HW224735   6.395   3.205   3.192
 7946SOL     OW24736   4.342   1.783   6.191
 7946SOL    HW124737   4.304   1.693   6.210
 7946SOL    HW224738   4.267   1.849   6.181
 7947SOL     OW24739   0.018   3.938   6.318
 7947SOL    HW124740   0.110   3.967   6.294
 7947SOL    HW224741   7.016   3.977   6.406
 7948SOL     OW24742   1.394   5.919   1.127
 7948SOL    HW124743   1.361   5.919   1.032
 7948SOL    HW224744   1.464   5.849   1.138
 7949SOL     OW24745   2.354   5.461   5.340
 7949SOL    HW124746   2.255   5.458   5.327
 7949SOL    HW224747   2.397   5.391   5.283
 7950SOL     OW24748   6.342   4.427   5.765
 7950SOL    HW124749   6.440   4.428   5.785
 7950SOL    HW224750   6.326   4.469   5.676
 7951SOL     OW24751   4.118   6.996   2.986
 7951SOL    HW124752   4.087   0.036   3.056
 7951SOL    HW224753   4.142   6.909   3.029
 7952SOL     OW24754   6.773   3.645   5.226
 7952SOL    HW124755   6.815   3.726   5.185
 7952SOL    HW224756   6.703   3.609   5.165
 7953SOL     OW24757   1.788   0.162   0.141
 7953SOL    HW124758   1.704   0.149   0.194
 7953SOL    HW224759   1.769   0.221   0.063
 7954SOL     OW24760   3.505   3.326   0.047
 7954SOL    HW124761   3.583   3.385   0.028
 7954SOL    HW224762   3.448   3.318   6.989
 7955SOL     OW24763   0.515   1.410   6.522
 7955SOL    HW124764   0.602   1.368   6.546
 7955SOL    HW224765   0.526   1.509   6.511
 7956SOL     OW24766   0.033   6.765   0.233
 7956SOL    HW124767   0.070   6.849   0.274
 7956SOL    HW224768   6.976   6.788   0.179
 7957SOL     OW24769   5.290   1.362   5.599
 7957SOL    HW124770   5.378   1.319   5.580
 7957SOL    HW224771   5.233   1.360   5.517
 7958SOL     OW24772   4.211   2.366   6.861
 7958SOL    HW124773   4.226   2.354   6.959
 7958SOL    HW224774   4.116   2.393   6.846
 7959SOL     OW24775   4.874   2.904   0.372
 7959SOL    HW124776   4.832   2.816   0.348
 7959SOL    HW224777   4.854   2.970   0.300
 7960SOL     OW24778   0.713   1.682   4.651
 7960SOL    HW124779   0.706   1.780   4.632
 7960SOL    HW224780   0.680   1.664   4.743
 7961SOL     OW24781   5.876   6.986   0.686
 7961SOL    HW124782   5.800   0.027   0.676
 7961SOL    HW224783   5.962   0.012   0.682
 7962SOL     OW24784   6.033   6.753   5.260
 7962SOL    HW124785   5.962   6.744   5.330
 7962SOL    HW224786   6.032   6.846   5.223
 7963SOL     OW24787   5.925   6.276   3.087
 7963SOL    HW124788   5.950   6.321   3.172
 7963SOL    HW224789   6.004   6.227   3.050
 7964SOL     OW24790   6.227   3.536   1.207
 7964SOL    HW124791   6.297   3.607   1.220
 7964SOL    HW224792   6.234   3.469   1.281
 7965SOL     OW24793   5.114   1.742   6.403
 7965SOL    HW124794   5.036   1.764   6.462
 7965SOL    HW224795   5.108   1.797   6.320
 7966SOL     OW24796   6.010   3.289   4.970
 7966SOL    HW124797   5.921   3.316   5.007
 7966SOL    HW224798   6.022   3.190   4.981
 7967SOL     OW24799   1.418   4.679   0.639
 7967SOL    HW124800   1.434   4.646   0.732
 7967SOL    HW224801   1.392   4.775   0.641
 7968SOL     OW24802   2.234   2.765   3.971
 7968SOL    HW124803   2.280   2.707   3.904
 7968SOL    HW224804   2.167   2.710   4.022
 7969SOL     OW24805   3.011   4.258   6.790
 7969SOL    HW124806   3.102   4.219   6.782
 7969SOL    HW224807   3.018   4.350   6.830
 7970SOL     OW24808   6.526   2.681   4.042
 7970SOL    HW124809   6.588   2.611   4.077
 7970SOL    HW224810   6.449   2.692   4.106
 7971SOL     OW24811   3.184   0.988   6.909
 7971SOL    HW124812   3.151   1.054   6.842
 7971SOL    HW224813   3.107   0.937   6.947
 7972SOL     OW24814   3.547   4.216   4.443
 7972SOL    HW124815   3.458   4.173   4.456
 7972SOL    HW224816   3.588   4.235   4.533
 7973SOL     OW24817   6.373   4.880   2.149
 7973SOL    HW124818   6.297   4.919   2.097
 7973SOL    HW224819   6.444   4.847   2.086
 7974SOL     OW24820   0.851   3.229   4.516
 7974SOL    HW124821   0.835   3.139   4.556
 7974SOL    HW224822   0.765   3.280   4.513
 7975SOL     OW24823   4.539   0.503   0.004
 7975SOL    HW124824   4.464   0.532   0.064
 7975SOL    HW224825   4.623   0.550   0.031
 7976SOL     OW24826   0.822   0.482   0.286
 7976SOL    HW124827   0.832   0.388   0.253
 7976SOL    HW224828   0.849   0.546   0.214
 7977SOL     OW24829   5.481   5.351   2.852
 7977SOL    HW124830   5.463   5.321   2.945
 7977SOL    HW224831   5.410   5.316   2.791
 7978SOL     OW24832   0.126   3.429   1.306
 7978SOL    HW124833   0.118   3.484   1.223
 7978SOL    HW224834   0.215   3.447   1.349
 7979SOL     OW24835   2.795   2.592   5.351
 7979SOL    HW124836   2.834   2.679   5.378
 7979SOL    HW224837   2.722   2.607   5.284
 7980SOL     OW24838   3.896   5.292   1.776
 7980SOL    HW124839   3.940   5.321   1.860
 7980SOL    HW224840   3.800   5.320   1.777
 7981SOL     OW24841   1.982   3.603   4.299
 7981SOL    HW124842   1.920   3.525   4.287
 7981SOL    HW224843   1.931   3.680   4.337
 7982SOL     OW24844   6.792   1.030   6.265
 7982SOL    HW124845   6.852   0.951   6.272
 7982SOL    HW224846   6.832   1.098   6.203
 7983SOL     OW24847   3.619   0.744   1.949
 7983SOL    HW124848   3.635   0.667   1.887
 7983SOL    HW224849   3.683   0.818   1.928
 7984SOL     OW24850   6.441   2.784   3.065
 7984SOL    HW124851   6.373   2.723   3.024
 7984SOL    HW224852   6.399   2.837   3.138
 7985SOL     OW24853   3.091   2.903   5.536
 7985SOL    HW124854   3.139   2.843   5.472
 7985SOL    HW224855   2.997   2.916   5.505
 7986SOL     OW24856   4.039   0.891   3.911
 7986SOL    HW124857   4.101   0.846   3.975
 7986SOL    HW224858   4.072   0.984   3.893
 7987SOL     OW24859   1.120   3.195   6.281
 7987SOL    HW124860   1.076   3.106   6.270
 7987SOL    HW224861   1.108   3.248   6.197
 7988SOL     OW24862   6.515   0.671   0.906
 7988SOL    HW124863   6.581   0.595   0.908
 7988SOL    HW224864   6.550   0.746   0.962
 7989SOL     OW24865   0.774   4.521   0.902
 7989SOL    HW124866   0.704   4.583   0.867
 7989SOL    HW224867   0.739   4.427   0.899
 7990SOL     OW24868   4.861   5.153   4.731
 7990SOL    HW124869   4.873   5.076   4.793
 7990SOL    HW224870   4.839   5.235   4.784
 7991SOL     OW24871   5.869   0.731   4.575
 7991SOL    HW124872   5.886   0.780   4.490
 7991SOL    HW224873   5.950   0.679   4.600
 7992SOL     OW24874   1.951   0.473   6.657
 7992SOL    HW124875   1.978   0.385   6.619
 7992SOL    HW224876   1.913   0.530   6.585
 7993SOL     OW24877   6.436   6.125   0.722
 7993SOL    HW124878   6.350   6.136   0.772
 7993SOL    HW224879   6.462   6.213   0.681
 7994SOL     OW24880   6.758   0.715   4.313
 7994SOL    HW124881   6.818   0.635   4.319
 7994SOL    HW224882   6.765   0.768   4.398
 7995SOL     OW24883   0.092   5.717   1.439
 7995SOL    HW124884   0.102   5.805   1.485
 7995SOL    HW224885   0.141   5.719   1.352
 7996SOL     OW24886   2.173   6.460   3.531
 7996SOL    HW124887   2.120   6.441   3.449
 7996SOL    HW224888   2.149   6.394   3.602
 7997SOL     OW24889   2.299   1.778   5.901
 7997SOL    HW124890   2.214   1.745   5.860
 7997SOL    HW224891   2.360   1.812   5.829
 7998SOL     OW24892   2.357   0.828   1.288
 7998SOL    HW124893   2.447   0.819   1.245
 7998SOL    HW224894   2.301   0.749   1.264
 7999SOL     OW24895   0.746   0.339   3.348
 7999SOL    HW124896   0.831   0.393   3.352
 7999SOL    HW224897   0.723   0.306   3.440
 8000SOL     OW24898   4.298   5.729   0.805
 8000SOL    HW124899   4.341   5.646   0.841
 8000SOL    HW224900   4.356   5.767   0.733
 8001SOL     OW24901   4.895   4.539   1.382
 8001SOL    HW124902   4.822   4.598   1.348
 8001SOL    HW224903   4.890   4.535   1.482
 8002SOL     OW24904   1.138   0.454   4.342
 8002SOL    HW124905   1.222   0.411   4.308
 8002SOL    HW224906   1.067   0.384   4.351
 8003SOL     OW24907   3.027   5.628   3.153
 8003SOL    HW124908   3.051   5.545   3.204
 8003SOL    HW224909   2.969   5.686   3.210
 8004SOL     OW24910   1.702   3.638   3.945
 8004SOL    HW124911   1.654   3.553   3.925
 8004SOL    HW224912   1.695   3.658   4.043
 8005SOL     OW24913   2.617   0.144   3.974
 8005SOL    HW124914   2.695   0.097   4.015
 8005SOL    HW224915   2.546   0.158   4.043
 8006SOL     OW24916   4.831   5.252   6.140
 8006SOL    HW124917   4.777   5.211   6.067
 8006SOL    HW224918   4.771   5.298   6.204
 8007SOL     OW24919   7.002   0.801   1.161
 8007SOL    HW124920   6.916   0.848   1.142
 8007SOL    HW224921   0.026   0.848   1.235
 8008SOL     OW24922   4.344   5.145   0.549
 8008SOL    HW124923   4.309   5.075   0.487
 8008SOL    HW224924   4.444   5.139   0.554
 8009SOL     OW24925   6.739   1.433   0.909
 8009SOL    HW124926   6.747   1.450   0.811
 8009SOL    HW224927   6.817   1.379   0.940
 8010SOL     OW24928   3.583   0.858   5.928
 8010SOL    HW124929   3.494   0.898   5.950
 8010SOL    HW224930   3.597   0.858   5.829
 8011SOL     OW24931   4.226   1.921   2.746
 8011SOL    HW124932   4.177   1.924   2.833
 8011SOL    HW224933   4.195   1.995   2.687
 8012SOL     OW24934   6.469   0.582   4.789
 8012SOL    HW124935   6.477   0.553   4.885
 8012SOL    HW224936   6.490   0.679   4.782
 8013SOL     OW24937   3.769   0.426   3.467
 8013SOL    HW124938   3.707   0.396   3.538
 8013SOL    HW224939   3.770   0.526   3.464
 8014SOL     OW24940   2.771   2.404   3.275
 8014SOL    HW124941   2.732   2.344   3.205
 8014SOL    HW224942   2.862   2.434   3.245
 8015SOL     OW24943   3.185   6.973   4.294
 8015SOL    HW124944   3.090   6.953   4.316
 8015SOL    HW224945   3.244   6.947   4.370
 8016SOL     OW24946   3.496   2.591   5.310
 8016SOL    HW124947   3.526   2.558   5.400
 8016SOL    HW224948   3.403   2.560   5.293
 8017SOL     OW24949   5.892   5.932   0.995
 8017SOL    HW124950   5.972   5.920   0.936
 8017SOL    HW224951   5.809   5.928   0.939
 8018SOL     OW24952   3.055   3.912   0.815
 8018SOL    HW124953   3.041   4.001   0.771
 8018SOL    HW224954   3.144   3.876   0.789
 8019SOL     OW24955   2.677   3.569   0.398
 8019SOL    HW124956   2.698   3.472   0.405
 8019SOL    HW224957   2.606   3.593   0.464
 8020SOL     OW24958   0.345   0.563   6.755
 8020SOL    HW124959   0.360   0.471   6.720
 8020SOL    HW224960   0.432   0.604   6.781
 8021SOL     OW24961   1.104   3.230   0.720
 8021SOL    HW124962   1.013   3.219   0.761
 8021SOL    HW224963   1.157   3.146   0.732
 8022SOL     OW24964   4.605   6.938   2.082
 8022SOL    HW124965   4.640   6.905   2.170
 8022SOL    HW224966   4.675   6.928   2.013
 8023SOL     OW24967   4.033   5.421   2.416
 8023SOL    HW124968   4.105   5.360   2.449
 8023SOL    HW224969   4.074   5.502   2.374
 8024SOL     OW24970   2.368   1.013   6.886
 8024SOL    HW124971   2.322   1.005   6.797
 8024SOL    HW224972   2.368   0.924   6.931
 8025SOL     OW24973   0.990   6.436   1.614
 8025SOL    HW124974   1.072   6.413   1.561
 8025SOL    HW224975   1.009   6.429   1.711
 8026SOL     OW24976   0.728   6.345   6.491
 8026SOL    HW124977   0.632   6.370   6.486
 8026SOL    HW224978   0.783   6.411   6.439
 8027SOL     OW24979   3.737   0.413   6.714
 8027SOL    HW124980   3.698   0.409   6.622
 8027SOL    HW224981   3.759   0.320   6.745
 8028SOL     OW24982   3.525   6.084   6.405
 8028SOL    HW124983   3.484   6.079   6.496
 8028SOL    HW224984   3.455   6.066   6.336
 8029SOL     OW24985   0.868   0.360   1.847
 8029SOL    HW124986   0.924   0.354   1.764
 8029SOL    HW224987   0.836   0.453   1.859
 8030SOL     OW24988   0.648   4.278   0.865
 8030SOL    HW124989   0.575   4.282   0.797
 8030SOL    HW224990   0.616   4.227   0.945
 8031SOL     OW24991   0.194   0.498   2.171
 8031SOL    HW124992   0.108   0.515   2.218
 8031SOL    HW224993   0.268   0.489   2.238
 8032SOL     OW24994   0.114   2.750   0.248
 8032SOL    HW124995   0.048   2.734   0.175
 8032SOL    HW224996   0.179   2.820   0.219
 8033SOL     OW24997   3.923   4.197   1.600
 8033SOL    HW124998   3.930   4.198   1.501
 8033SOL    HW224999   3.830   4.223   1.627
 8034SOL     OW25000   0.724   6.936   5.901
 8034SOL    HW125001   0.709   6.841   5.931
 8034SOL    HW225002   0.717   6.997   5.980
 8035SOL     OW25003   6.124   6.805   4.893
 8035SOL    HW125004   6.158   6.712   4.899
 8035SOL    HW225005   6.043   6.815   4.951
 8036SOL     OW25006   5.143   3.508   3.721
 8036SOL    HW125007   5.195   3.423   3.729
 8036SOL    HW225008   5.074   3.498   3.650
 8037SOL     OW25009   2.475   1.540   6.021
 8037SOL    HW125010   2.416   1.606   5.974
 8037SOL    HW225011   2.474   1.560   6.119
 8038SOL     OW25012   6.690   5.444   1.995
 8038SOL    HW125013   6.701   5.428   1.897
 8038SOL    HW225014   6.780   5.444   2.039
 8039SOL     OW25015   2.063   2.258   4.930
 8039SOL    HW125016   2.123   2.202   4.987
 8039SOL    HW225017   2.118   2.324   4.879
 8040SOL     OW25018   0.427   6.303   6.433
 8040SOL    HW125019   0.436   6.286   6.335
 8040SOL    HW225020   0.440   6.217   6.483
 8041SOL     OW25021   3.257   1.414   3.110
 8041SOL    HW125022   3.246   1.489   3.046
 8041SOL    HW225023   3.310   1.341   3.067
 8042SOL     OW25024   3.607   3.891   6.034
 8042SOL    HW125025   3.658   3.855   6.113
 8042SOL    HW225026   3.558   3.974   6.061
 8043SOL     OW25027   4.886   5.210   0.245
 8043SOL    HW125028   4.796   5.246   0.224
 8043SOL    HW225029   4.926   5.170   0.162
 8044SOL     OW25030   1.251   2.954   1.461
 8044SOL    HW125031   1.163   2.925   1.425
 8044SOL    HW225032   1.241   2.983   1.556
 8045SOL     OW25033   6.260   3.435   4.712
 8045SOL    HW125034   6.242   3.434   4.811
 8045SOL    HW225035   6.327   3.506   4.692
 8046SOL     OW25036   0.157   4.179   1.195
 8046SOL    HW125037   0.168   4.081   1.211
 8046SOL    HW225038   0.196   4.230   1.272
 8047SOL     OW25039   2.739   6.236   6.636
 8047SOL    HW125040   2.672   6.309   6.617
 8047SOL    HW225041   2.816   6.274   6.687
 8048SOL     OW25042   3.983   1.874   6.492
 8048SOL    HW125043   3.949   1.806   6.427
 8048SOL    HW225044   3.909   1.937   6.515
 8049SOL     OW25045   1.753   1.200   0.595
 8049SOL    HW125046   1.817   1.155   0.534
 8049SOL    HW225047   1.736   1.143   0.675
 8050SOL     OW25048   0.503   5.296   5.897
 8050SOL    HW125049   0.468   5.332   5.983
 8050SOL    HW225050   0.478   5.199   5.889
 8051SOL     OW25051   4.657   6.497   2.822
 8051SOL    HW125052   4.610   6.409   2.836
 8051SOL    HW225053   4.688   6.532   2.910
 8052SOL     OW25054   2.725   1.664   2.996
 8052SOL    HW125055   2.681   1.575   2.993
 8052SOL    HW225056   2.713   1.706   3.086
 8053SOL     OW25057   1.252   2.580   6.820
 8053SOL    HW125058   1.163   2.622   6.831
 8053SOL    HW225059   1.309   2.636   6.759
 8054SOL     OW25060   5.317   3.664   4.936
 8054SOL    HW125061   5.318   3.625   5.029
 8054SOL    HW225062   5.278   3.597   4.873
 8055SOL     OW25063   6.301   0.356   0.258
 8055SOL    HW125064   6.291   0.283   0.190
 8055SOL    HW225065   6.398   0.370   0.278
 8056SOL     OW25066   2.691   1.743   3.995
 8056SOL    HW125067   2.715   1.833   4.030
 8056SOL    HW225068   2.758   1.676   4.026
 8057SOL     OW25069   3.027   2.178   2.231
 8057SOL    HW125070   2.950   2.160   2.293
 8057SOL    HW225071   3.007   2.260   2.177
 8058SOL     OW25072   4.056   6.526   2.191
 8058SOL    HW125073   4.079   6.479   2.106
 8058SOL    HW225074   3.983   6.475   2.238
 8059SOL     OW25075   3.660   3.147   5.797
 8059SOL    HW125076   3.577   3.153   5.741
 8059SOL    HW225077   3.714   3.068   5.769
 8060SOL     OW25078   0.160   0.935   6.172
 8060SOL    HW125079   0.219   1.013   6.154
 8060SOL    HW225080   0.127   0.939   6.267
 8061SOL     OW25081   6.961   1.102   1.935
 8061SOL    HW125082   6.960   1.027   2.000
 8061SOL    HW225083   6.868   1.134   1.919
 8062SOL     OW25084   4.595   4.562   5.769
 8062SOL    HW125085   4.597   4.661   5.754
 8062SOL    HW225086   4.663   4.537   5.838
 8063SOL     OW25087   2.270   4.635   3.223
 8063SOL    HW125088   2.346   4.680   3.270
 8063SOL    HW225089   2.203   4.704   3.195
 8064SOL     OW25090   0.223   2.353   0.633
 8064SOL    HW125091   0.144   2.323   0.685
 8064SOL    HW225092   0.196   2.428   0.571
 8065SOL     OW25093   4.744   0.160   6.699
 8065SOL    HW125094   4.760   0.233   6.766
 8065SOL    HW225095   4.818   0.093   6.704
 8066SOL     OW25096   0.455   0.139   6.070
 8066SOL    HW125097   0.463   0.192   6.154
 8066SOL    HW225098   0.394   0.187   6.006
 8067SOL     OW25099   5.309   0.680   4.063
 8067SOL    HW125100   5.333   0.604   4.003
 8067SOL    HW225101   5.241   0.650   4.130
 8068SOL     OW25102   6.766   3.381   1.750
 8068SOL    HW125103   6.822   3.412   1.827
 8068SOL    HW225104   6.798   3.424   1.666
 8069SOL     OW25105   1.189   2.511   2.514
 8069SOL    HW125106   1.229   2.578   2.576
 8069SOL    HW225107   1.091   2.506   2.529
 8070SOL     OW25108   5.564   3.822   1.163
 8070SOL    HW125109   5.574   3.725   1.139
 8070SOL    HW225110   5.614   3.841   1.248
 8071SOL     OW25111   3.074   0.420   6.205
 8071SOL    HW125112   3.127   0.460   6.131
 8071SOL    HW225113   3.048   0.326   6.181
 8072SOL     OW25114   2.160   2.318   5.251
 8072SOL    HW125115   2.184   2.412   5.275
 8072SOL    HW225116   2.174   2.259   5.331
 8073SOL     OW25117   5.260   0.627   6.543
 8073SOL    HW125118   5.336   0.578   6.501
 8073SOL    HW225119   5.205   0.564   6.598
 8074SOL     OW25120   6.799   0.714   0.396
 8074SOL    HW125121   6.725   0.713   0.464
 8074SOL    HW225122   6.826   0.808   0.378
 8075SOL     OW25123   0.131   0.045   1.249
 8075SOL    HW125124   0.212   7.014   1.268
 8075SOL    HW225125   0.157   0.125   1.195
 8076SOL     OW25126   6.483   6.363   0.344
 8076SOL    HW125127   6.479   6.454   0.303
 8076SOL    HW225128   6.413   6.304   0.303
 8077SOL     OW25129   5.897   4.518   1.349
 8077SOL    HW125130   5.995   4.496   1.342
 8077SOL    HW225131   5.865   4.554   1.262
 8078SOL     OW25132   6.354   1.108   1.268
 8078SOL    HW125133   6.338   1.039   1.339
 8078SOL    HW225134   6.395   1.064   1.188
 8079SOL     OW25135   0.340   1.059   6.612
 8079SOL    HW125136   0.250   1.014   6.612
 8079SOL    HW225137   0.358   1.097   6.702
 8080SOL     OW25138   1.642   3.494   3.446
 8080SOL    HW125139   1.594   3.557   3.385
 8080SOL    HW225140   1.738   3.489   3.419
 8081SOL     OW25141   6.454   0.273   5.307
 8081SOL    HW125142   6.538   0.326   5.294
 8081SOL    HW225143   6.465   0.183   5.264
 8082SOL     OW25144   4.004   2.132   4.473
 8082SOL    HW125145   4.007   2.106   4.377
 8082SOL    HW225146   4.077   2.199   4.491
 8083SOL     OW25147   6.548   3.028   4.209
 8083SOL    HW125148   6.530   3.115   4.254
 8083SOL    HW225149   6.538   3.040   4.110
 8084SOL     OW25150   4.777   1.559   6.248
 8084SOL    HW125151   4.711   1.634   6.238
 8084SOL    HW225152   4.858   1.579   6.194
 8085SOL     OW25153   1.791   5.652   4.084
 8085SOL    HW125154   1.796   5.594   4.002
 8085SOL    HW225155   1.706   5.632   4.133
 8086SOL     OW25156   6.650   2.193   2.833
 8086SOL    HW125157   6.622   2.099   2.815
 8086SOL    HW225158   6.644   2.211   2.931
 8087SOL     OW25159   0.041   1.173   6.364
 8087SOL    HW125160   0.062   1.263   6.404
 8087SOL    HW225161   0.024   1.183   6.266
 8088SOL     OW25162   0.347   6.823   5.052
 8088SOL    HW125163   0.334   6.901   4.992
 8088SOL    HW225164   0.400   6.852   5.132
 8089SOL     OW25165   6.489   1.834   6.742
 8089SOL    HW125166   6.556   1.827   6.669
 8089SOL    HW225167   6.414   1.894   6.713
 8090SOL     OW25168   4.453   2.629   5.066
 8090SOL    HW125169   4.476   2.694   5.138
 8090SOL    HW225170   4.369   2.582   5.091
 8091SOL     OW25171   0.434   4.062   4.816
 8091SOL    HW125172   0.460   3.970   4.845
 8091SOL    HW225173   0.485   4.087   4.734
 8092SOL     OW25174   4.857   0.455   5.843
 8092SOL    HW125175   4.841   0.364   5.880
 8092SOL    HW225176   4.901   0.512   5.913
 8093SOL     OW25177   3.374   6.531   3.468
 8093SOL    HW125178   3.444   6.492   3.526
 8093SOL    HW225179   3.284   6.514   3.508
 8094SOL     OW25180   2.203   3.905   4.058
 8094SOL    HW125181   2.182   3.943   4.148
 8094SOL    HW225182   2.178   3.972   3.988
 8095SOL     OW25183   0.974   4.924   4.892
 8095SOL    HW125184   0.977   4.946   4.795
 8095SOL    HW225185   1.049   4.970   4.939
 8096SOL     OW25186   0.650   4.934   0.665
 8096SOL    HW125187   0.684   5.027   0.673
 8096SOL    HW225188   0.717   4.878   0.615
 8097SOL     OW25189   4.389   6.709   6.742
 8097SOL    HW125190   4.328   6.644   6.696
 8097SOL    HW225191   4.452   6.660   6.802
 8098SOL     OW25192   2.075   5.938   4.882
 8098SOL    HW125193   2.049   5.843   4.863
 8098SOL    HW225194   2.141   5.940   4.958
 8099SOL     OW25195   1.987   4.045   2.434
 8099SOL    HW125196   1.905   4.005   2.476
 8099SOL    HW225197   2.008   4.131   2.479
 8100SOL     OW25198   6.983   0.195   6.871
 8100SOL    HW125199   6.961   0.291   6.854
 8100SOL    HW225200   0.000   0.186   6.961
 8101SOL     OW25201   2.023   5.873   0.810
 8101SOL    HW125202   2.122   5.877   0.821
 8101SOL    HW225203   1.997   5.906   0.720
 8102SOL     OW25204   0.838   4.136   4.151
 8102SOL    HW125205   0.888   4.093   4.075
 8102SOL    HW225206   0.880   4.225   4.172
 8103SOL     OW25207   4.341   0.826   1.226
 8103SOL    HW125208   4.338   0.848   1.323
 8103SOL    HW225209   4.298   0.899   1.173
 8104SOL     OW25210   1.292   5.508   6.929
 8104SOL    HW125211   1.364   5.519   6.861
 8104SOL    HW225212   1.330   5.525   7.020
 8105SOL     OW25213   0.039   6.891   3.462
 8105SOL    HW125214   0.076   6.978   3.432
 8105SOL    HW225215   0.070   6.871   3.555
 8106SOL     OW25216   2.923   6.907   6.131
 8106SOL    HW125217   2.882   6.816   6.125
 8106SOL    HW225218   3.022   6.899   6.134
 8107SOL     OW25219   1.245   6.769   6.950
 8107SOL    HW125220   1.198   6.782   0.013
 8107SOL    HW225221   1.227   6.676   6.917
 8108SOL     OW25222   1.189   1.351   6.863
 8108SOL    HW125223   1.103   1.399   6.882
 8108SOL    HW225224   1.219   1.303   6.946
 8109SOL     OW25225   0.016   3.400   2.286
 8109SOL    HW125226   6.946   3.419   2.260
 8109SOL    HW225227   0.076   3.420   2.209
 8110SOL     OW25228   4.233   4.899   0.463
 8110SOL    HW125229   4.292   4.840   0.408
 8110SOL    HW225230   4.189   4.844   0.535
 8111SOL     OW25231   6.401   0.978   2.485
 8111SOL    HW125232   6.497   0.951   2.484
 8111SOL    HW225233   6.380   1.027   2.569
 8112SOL     OW25234   1.810   4.977   6.209
 8112SOL    HW125235   1.825   5.072   6.180
 8112SOL    HW225236   1.893   4.943   6.254
 8113SOL     OW25237   4.749   5.020   6.542
 8113SOL    HW125238   4.827   4.999   6.600
 8113SOL    HW225239   4.748   4.957   6.464
 8114SOL     OW25240   1.851   3.510   2.820
 8114SOL    HW125241   1.943   3.525   2.855
 8114SOL    HW225242   1.839   3.414   2.796
 8115SOL     OW25243   1.907   1.591   5.878
 8115SOL    HW125244   1.904   1.493   5.861
 8115SOL    HW225245   1.904   1.608   5.976
 8116SOL     OW25246   3.961   3.314   1.680
 8116SOL    HW125247   4.060   3.328   1.682
 8116SOL    HW225248   3.920   3.348   1.765
 8117SOL     OW25249   2.122   6.918   4.019
 8117SOL    HW125250   2.082   6.876   3.938
 8117SOL    HW225251   2.075   7.004   4.040
 8118SOL     OW25252   6.630   3.228   6.859
 8118SOL    HW125253   6.707   3.181   6.903
 8118SOL    HW225254   6.631   3.324   6.886
 8119SOL     OW25255   5.200   6.422   6.584
 8119SOL    HW125256   5.290   6.384   6.564
 8119SOL    HW225257   5.129   6.364   6.545
 8120SOL     OW25258   2.500   6.358   2.604
 8120SOL    HW125259   2.423   6.294   2.609
 8120SOL    HW225260   2.467   6.451   2.623
 8121SOL     OW25261   1.713   2.428   2.417
 8121SOL    HW125262   1.739   2.386   2.505
 8121SOL    HW225263   1.649   2.503   2.434
 8122SOL     OW25264   0.625   4.082   1.096
 8122SOL    HW125265   0.586   4.110   1.184
 8122SOL    HW225266   0.648   3.985   1.099
 8123SOL     OW25267   6.892   2.160   6.756
 8123SOL    HW125268   6.908   2.256   6.778
 8123SOL    HW225269   6.973   2.106   6.780
 8124SOL     OW25270   6.073   6.121   5.696
 8124SOL    HW125271   6.039   6.139   5.604
 8124SOL    HW225272   6.169   6.150   5.702
 8125SOL     OW25273   1.305   5.261   2.078
 8125SOL    HW125274   1.347   5.316   2.006
 8125SOL    HW225275   1.338   5.166   2.070
 8126SOL     OW25276   3.168   5.925   5.005
 8126SOL    HW125277   3.164   5.958   4.911
 8126SOL    HW225278   3.261   5.896   5.027
 8127SOL     OW25279   3.911   1.706   6.289
 8127SOL    HW125280   3.945   1.712   6.195
 8127SOL    HW225281   3.826   1.653   6.290
 8128SOL     OW25282   3.190   2.802   0.920
 8128SOL    HW125283   3.202   2.867   0.845
 8128SOL    HW225284   3.273   2.796   0.974
 8129SOL     OW25285   0.726   2.239   2.546
 8129SOL    HW125286   0.692   2.147   2.528
 8129SOL    HW225287   0.754   2.246   2.642
 8130SOL     OW25288   6.652   6.224   6.981
 8130SOL    HW125289   6.664   6.246   0.053
 8130SOL    HW225290   6.601   6.296   6.935
 8131SOL     OW25291   1.630   2.374   0.470
 8131SOL    HW125292   1.719   2.330   0.462
 8131SOL    HW225293   1.584   2.341   0.552
 8132SOL     OW25294   6.278   1.799   4.961
 8132SOL    HW125295   6.275   1.723   5.025
 8132SOL    HW225296   6.269   1.765   4.868
 8133SOL     OW25297   3.711   4.915   1.274
 8133SOL    HW125298   3.696   5.014   1.281
 8133SOL    HW225299   3.661   4.879   1.195
 8134SOL     OW25300   5.496   2.460   5.591
 8134SOL    HW125301   5.563   2.433   5.660
 8134SOL    HW225302   5.445   2.540   5.625
 8135SOL     OW25303   2.554   6.645   1.960
 8135SOL    HW125304   2.646   6.640   1.921
 8135SOL    HW225305   2.557   6.700   2.043
 8136SOL     OW25306   4.971   4.471   2.012
 8136SOL    HW125307   4.957   4.517   2.100
 8136SOL    HW225308   4.884   4.469   1.961
 8137SOL     OW25309   4.624   1.820   6.258
 8137SOL    HW125310   4.620   1.883   6.336
 8137SOL    HW225311   4.534   1.779   6.243
 8138SOL     OW25312   5.345   1.213   1.933
 8138SOL    HW125313   5.335   1.228   2.031
 8138SOL    HW225314   5.285   1.138   1.904
 8139SOL     OW25315   0.885   1.791   3.315
 8139SOL    HW125316   0.935   1.754   3.237
 8139SOL    HW225317   0.812   1.727   3.342
 8140SOL     OW25318   5.022   2.731   2.902
 8140SOL    HW125319   5.007   2.797   2.828
 8140SOL    HW225320   4.972   2.647   2.881
 8141SOL     OW25321   5.691   3.692   3.955
 8141SOL    HW125322   5.783   3.731   3.952
 8141SOL    HW225323   5.625   3.762   3.928
 8142SOL     OW25324   6.722   6.338   0.206
 8142SOL    HW125325   6.801   6.364   0.262
 8142SOL    HW225326   6.639   6.343   0.262
 8143SOL     OW25327   6.652   3.269   5.442
 8143SOL    HW125328   6.750   3.286   5.441
 8143SOL    HW225329   6.635   3.176   5.472
 8144SOL     OW25330   4.652   6.809   0.314
 8144SOL    HW125331   4.580   6.865   0.354
 8144SOL    HW225332   4.739   6.830   0.359
 8145SOL     OW25333   4.624   6.265   3.462
 8145SOL    HW125334   4.719   6.265   3.430
 8145SOL    HW225335   4.579   6.180   3.434
 8146SOL     OW25336   3.616   1.868   4.610
 8146SOL    HW125337   3.652   1.902   4.524
 8146SOL    HW225338   3.577   1.944   4.663
 8147SOL     OW25339   5.682   1.014   2.708
 8147SOL    HW125340   5.603   1.019   2.647
 8147SOL    HW225341   5.721   1.106   2.719
 8148SOL     OW25342   6.854   4.351   2.898
 8148SOL    HW125343   6.797   4.434   2.900
 8148SOL    HW225344   6.796   4.272   2.880
 8149SOL     OW25345   3.628   5.149   3.647
 8149SOL    HW125346   3.686   5.223   3.612
 8149SOL    HW225347   3.533   5.164   3.618
 8150SOL     OW25348   1.101   6.086   1.009
 8150SOL    HW125349   1.129   6.118   0.919
 8150SOL    HW225350   1.006   6.055   1.007
 8151SOL     OW25351   0.385   1.888   4.692
 8151SOL    HW125352   0.346   1.860   4.605
 8151SOL    HW225353   0.485   1.888   4.686
 8152SOL     OW25354   1.578   0.611   3.269
 8152SOL    HW125355   1.656   0.672   3.254
 8152SOL    HW225356   1.545   0.576   3.182
 8153SOL     OW25357   1.879   6.624   0.457
 8153SOL    HW125358   1.879   6.657   0.551
 8153SOL    HW225359   1.794   6.574   0.439
 8154SOL     OW25360   2.467   6.710   2.958
 8154SOL    HW125361   2.509   6.760   3.034
 8154SOL    HW225362   2.416   6.773   2.900
 8155SOL     OW25363   2.912   3.466   4.669
 8155SOL    HW125364   2.927   3.442   4.765
 8155SOL    HW225365   2.814   3.482   4.654
 8156SOL     OW25366   6.753   0.445   5.404
 8156SOL    HW125367   6.802   0.518   5.452
 8156SOL    HW225368   6.793   0.356   5.428
 8157SOL     OW25369   5.767   2.086   6.825
 8157SOL    HW125370   5.711   2.078   6.907
 8157SOL    HW225371   5.782   2.183   6.804
 8158SOL     OW25372   1.789   5.439   2.048
 8158SOL    HW125373   1.887   5.451   2.065
 8158SOL    HW225374   1.772   5.438   1.950
 8159SOL     OW25375   0.646   5.508   1.173
 8159SOL    HW125376   0.680   5.568   1.245
 8159SOL    HW225377   0.712   5.505   1.098
 8160SOL     OW25378   4.541   1.909   1.697
 8160SOL    HW125379   4.575   2.002   1.706
 8160SOL    HW225380   4.469   1.906   1.628
 8161SOL     OW25381   4.013   2.628   1.417
 8161SOL    HW125382   3.992   2.648   1.513
 8161SOL    HW225383   3.930   2.599   1.370
 8162SOL     OW25384   5.916   0.876   1.890
 8162SOL    HW125385   5.898   0.778   1.876
 8162SOL    HW225386   5.838   0.929   1.858
 8163SOL     OW25387   1.880   3.154   5.316
 8163SOL    HW125388   1.894   3.056   5.303
 8163SOL    HW225389   1.964   3.203   5.290
 8164SOL     OW25390   4.974   3.345   2.310
 8164SOL    HW125391   4.903   3.412   2.287
 8164SOL    HW225392   4.976   3.273   2.242
 8165SOL     OW25393   2.178   4.750   2.019
 8165SOL    HW125394   2.212   4.713   1.933
 8165SOL    HW225395   2.193   4.849   2.021
 8166SOL     OW25396   3.979   6.783   1.564
 8166SOL    HW125397   3.945   6.762   1.656
 8166SOL    HW225398   3.997   6.698   1.515
 8167SOL     OW25399   5.314   2.783   4.204
 8167SOL    HW125400   5.372   2.798   4.284
 8167SOL    HW225401   5.294   2.686   4.196
 8168SOL     OW25402   2.735   2.365   2.717
 8168SOL    HW125403   2.701   2.277   2.685
 8168SOL    HW225404   2.757   2.422   2.638
 8169SOL     OW25405   5.477   4.139   4.987
 8169SOL    HW125406   5.440   4.232   4.984
 8169SOL    HW225407   5.479   4.101   4.894
 8170SOL     OW25408   1.281   5.222   4.139
 8170SOL    HW125409   1.269   5.158   4.214
 8170SOL    HW225410   1.375   5.257   4.140
 8171SOL     OW25411   1.713   1.095   6.167
 8171SOL    HW125412   1.668   1.128   6.250
 8171SOL    HW225413   1.732   0.997   6.177
 8172SOL     OW25414   0.001   6.173   1.444
 8172SOL    HW125415   0.068   6.120   1.496
 8172SOL    HW225416   7.003   6.125   1.360
 8173SOL     OW25417   5.803   3.137   0.317
 8173SOL    HW125418   5.791   3.236   0.328
 8173SOL    HW225419   5.811   3.116   0.220
 8174SOL     OW25420   5.297   6.737   2.242
 8174SOL    HW125421   5.292   6.725   2.341
 8174SOL    HW225422   5.219   6.692   2.198
 8175SOL     OW25423   1.754   2.309   4.260
 8175SOL    HW125424   1.699   2.225   4.256
 8175SOL    HW225425   1.778   2.337   4.167
 8176SOL     OW25426   4.297   5.846   3.818
 8176SOL    HW125427   4.391   5.825   3.793
 8176SOL    HW225428   4.246   5.872   3.736
 8177SOL     OW25429   1.325   6.456   5.917
 8177SOL    HW125430   1.259   6.509   5.970
 8177SOL    HW225431   1.307   6.468   5.820
 8178SOL     OW25432   2.537   6.899   5.792
 8178SOL    HW125433   2.600   6.822   5.789
 8178SOL    HW225434   2.456   6.874   5.844
 8179SOL     OW25435   3.592   0.590   0.333
 8179SOL    HW125436   3.498   0.558   0.344
 8179SOL    HW225437   3.591   0.681   0.291
 8180SOL     OW25438   4.753   4.122   5.266
 8180SOL    HW125439   4.719   4.165   5.183
 8180SOL    HW225440   4.680   4.122   5.335
 8181SOL     OW25441   2.267   2.345   2.272
 8181SOL    HW125442   2.286   2.438   2.303
 8181SOL    HW225443   2.337   2.317   2.206
 8182SOL     OW25444   5.686   2.817   5.775
 8182SOL    HW125445   5.641   2.758   5.842
 8182SOL    HW225446   5.644   2.803   5.685
 8183SOL     OW25447   2.416   2.703   3.575
 8183SOL    HW125448   2.369   2.791   3.574
 8183SOL    HW225449   2.464   2.690   3.488
 8184SOL     OW25450   5.779   6.053   4.581
 8184SOL    HW125451   5.775   6.076   4.679
 8184SOL    HW225452   5.686   6.042   4.546
 8185SOL     OW25453   1.690   1.843   3.296
 8185SOL    HW125454   1.628   1.766   3.278
 8185SOL    HW225455   1.638   1.919   3.335
 8186SOL     OW25456   4.335   3.988   6.850
 8186SOL    HW125457   4.341   4.058   6.921
 8186SOL    HW225458   4.373   3.902   6.886
 8187SOL     OW25459   1.935   1.933   5.940
 8187SOL    HW125460   1.968   1.858   5.882
 8187SOL    HW225461   1.953   2.020   5.895
 8188SOL     OW25462   5.075   2.744   2.327
 8188SOL    HW125463   4.989   2.786   2.357
 8188SOL    HW225464   5.145   2.815   2.320
 8189SOL     OW25465   6.803   5.354   2.709
 8189SOL    HW125466   6.778   5.332   2.615
 8189SOL    HW225467   6.759   5.290   2.771
 8190SOL     OW25468   5.869   3.569   2.335
 8190SOL    HW125469   5.892   3.612   2.247
 8190SOL    HW225470   5.953   3.557   2.389
 8191SOL     OW25471   6.338   4.867   1.573
 8191SOL    HW125472   6.403   4.840   1.644
 8191SOL    HW225473   6.375   4.841   1.483
 8192SOL     OW25474   1.142   2.635   0.640
 8192SOL    HW125475   1.175   2.543   0.663
 8192SOL    HW225476   1.218   2.700   0.648
 8193SOL     OW25477   3.753   6.797   5.582
 8193SOL    HW125478   3.678   6.813   5.518
 8193SOL    HW225479   3.821   6.871   5.573
 8194SOL     OW25480   2.424   0.484   2.302
 8194SOL    HW125481   2.409   0.580   2.279
 8194SOL    HW225482   2.339   0.445   2.336
 8195SOL     OW25483   5.557   1.579   1.473
 8195SOL    HW125484   5.588   1.485   1.487
 8195SOL    HW225485   5.457   1.581   1.473
 8196SOL     OW25486   2.112   0.723   0.120
 8196SOL    HW125487   2.097   0.642   0.175
 8196SOL    HW225488   2.088   0.704   0.025
 8197SOL     OW25489   0.226   0.242   1.101
 8197SOL    HW125490   0.223   0.224   1.002
 8197SOL    HW225491   0.318   0.271   1.126
 8198SOL     OW25492   3.445   0.430   3.085
 8198SOL    HW125493   3.408   0.523   3.082
 8198SOL    HW225494   3.374   0.366   3.112
 8199SOL     OW25495   5.924   4.872   1.380
 8199SOL    HW125496   6.000   4.916   1.331
 8199SOL    HW225497   5.913   4.778   1.347
 8200SOL     OW25498   4.213   3.404   1.669
 8200SOL    HW125499   4.243   3.318   1.711
 8200SOL    HW225500   4.292   3.465   1.659
 8201SOL     OW25501   0.317   1.242   5.187
 8201SOL    HW125502   0.271   1.202   5.108
 8201SOL    HW225503   0.386   1.308   5.157
 8202SOL     OW25504   1.930   3.881   4.396
 8202SOL    HW125505   1.865   3.955   4.409
 8202SOL    HW225506   1.995   3.880   4.472
 8203SOL     OW25507   5.937   4.595   0.287
 8203SOL    HW125508   5.898   4.576   0.377
 8203SOL    HW225509   6.036   4.578   0.289
 8204SOL     OW25510   3.013   0.456   0.690
 8204SOL    HW125511   3.064   0.475   0.606
 8204SOL    HW225512   2.923   0.419   0.666
 8205SOL     OW25513   4.857   6.487   3.497
 8205SOL    HW125514   4.935   6.528   3.544
 8205SOL    HW225515   4.811   6.557   3.442
 8206SOL     OW25516   3.650   1.780   4.879
 8206SOL    HW125517   3.640   1.805   4.783
 8206SOL    HW225518   3.583   1.831   4.933
 8207SOL     OW25519   2.692   6.050   0.025
 8207SOL    HW125520   2.696   6.139   0.071
 8207SOL    HW225521   2.632   5.989   0.077
 8208SOL     OW25522   1.737   6.224   6.821
 8208SOL    HW125523   1.767   6.270   6.904
 8208SOL    HW225524   1.812   6.224   6.754
 8209SOL     OW25525   1.088   5.483   4.975
 8209SOL    HW125526   1.042   5.401   5.008
 8209SOL    HW225527   1.064   5.561   5.033
 8210SOL     OW25528   2.400   1.582   0.285
 8210SOL    HW125529   2.404   1.671   0.239
 8210SOL    HW225530   2.323   1.529   0.248
 8211SOL     OW25531   3.877   4.009   3.486
 8211SOL    HW125532   3.948   3.939   3.492
 8211SOL    HW225533   3.816   4.002   3.565
 8212SOL     OW25534   4.333   4.723   6.763
 8212SOL    HW125535   4.397   4.785   6.808
 8212SOL    HW225536   4.250   4.772   6.740
 8213SOL     OW25537   4.525   4.343   1.649
 8213SOL    HW125538   4.477   4.308   1.729
 8213SOL    HW225539   4.572   4.428   1.673
 8214SOL     OW25540   4.018   5.174   3.870
 8214SOL    HW125541   3.968   5.094   3.836
 8214SOL    HW225542   3.955   5.240   3.910
 8215SOL     OW25543   2.550   6.286   6.139
 8215SOL    HW125544   2.521   6.280   6.235
 8215SOL    HW225545   2.542   6.196   6.096
 8216SOL     OW25546   5.295   5.721   1.164
 8216SOL    HW125547   5.325   5.654   1.232
 8216SOL    HW225548   5.255   5.800   1.210
 8217SOL     OW25549   3.740   6.605   3.868
 8217SOL    HW125550   3.681   6.525   3.857
 8217SOL    HW225551   3.722   6.647   3.957
 8218SOL     OW25552   1.767   6.576   4.301
 8218SOL    HW125553   1.822   6.581   4.218
 8218SOL    HW225554   1.752   6.481   4.325
 8219SOL     OW25555   4.063   3.130   3.222
 8219SOL    HW125556   4.024   3.093   3.307
 8219SOL    HW225557   4.129   3.066   3.185
 8220SOL     OW25558   3.928   4.130   5.465
 8220SOL    HW125559   3.846   4.078   5.441
 8220SOL    HW225560   3.985   4.140   5.384
 8221SOL     OW25561   6.470   4.078   4.360
 8221SOL    HW125562   6.433   4.115   4.274
 8221SOL    HW225563   6.534   4.144   4.399
 8222SOL     OW25564   5.516   2.608   6.418
 8222SOL    HW125565   5.493   2.520   6.461
 8222SOL    HW225566   5.435   2.666   6.417
 8223SOL     OW25567   1.684   6.478   5.500
 8223SOL    HW125568   1.648   6.571   5.509
 8223SOL    HW225569   1.621   6.414   5.544
 8224SOL     OW25570   5.624   1.239   6.417
 8224SOL    HW125571   5.532   1.274   6.437
 8224SOL    HW225572   5.639   1.156   6.471
 8225SOL     OW25573   5.821   3.095   0.031
 8225SOL    HW125574   5.753   3.114   6.985
 8225SOL    HW225575   5.894   3.038   7.017
 8226SOL     OW25576   3.636   1.297   6.539
 8226SOL    HW125577   3.722   1.247   6.539
 8226SOL    HW225578   3.650   1.388   6.579
 8227SOL     OW25579   4.827   3.073   2.815
 8227SOL    HW125580   4.818   3.159   2.765
 8227SOL    HW225581   4.848   3.093   2.911
 8228SOL     OW25582   2.978   1.227   5.017
 8228SOL    HW125583   2.988   1.290   4.941
 8228SOL    HW225584   2.914   1.265   5.084
 8229SOL     OW25585   4.703   4.840   0.882
 8229SOL    HW125586   4.680   4.927   0.839
 8229SOL    HW225587   4.792   4.848   0.928
 8230SOL     OW25588   6.250   1.138   6.234
 8230SOL    HW125589   6.254   1.073   6.158
 8230SOL    HW225590   6.339   1.143   6.279
 8231SOL     OW25591   3.343   1.392   2.347
 8231SOL    HW125592   3.359   1.427   2.255
 8231SOL    HW225593   3.262   1.436   2.386
 8232SOL     OW25594   4.172   6.583   2.951
 8232SOL    HW125595   4.270   6.584   2.932
 8232SOL    HW225596   4.122   6.569   2.866
 8233SOL     OW25597   2.285   1.704   6.936
 8233SOL    HW125598   2.333   1.735   7.018
 8233SOL    HW225599   2.192   1.674   6.961
 8234SOL     OW25600   1.379   2.901   0.150
 8234SOL    HW125601   1.439   2.897   0.070
 8234SOL    HW225602   1.291   2.942   0.124
 8235SOL     OW25603   0.500   0.450   1.116
 8235SOL    HW125604   0.538   0.540   1.094
 8235SOL    HW225605   0.428   0.460   1.184
 8236SOL     OW25606   1.043   6.826   1.140
 8236SOL    HW125607   0.952   6.815   1.099
 8236SOL    HW225608   1.109   6.847   1.068
 8237SOL     OW25609   4.066   5.189   5.456
 8237SOL    HW125610   4.102   5.137   5.378
 8237SOL    HW225611   4.060   5.285   5.431
 8238SOL     OW25612   0.029   5.559   0.294
 8238SOL    HW125613   0.009   5.558   0.392
 8238SOL    HW225614   7.003   5.633   0.251
 8239SOL     OW25615   4.208   1.847   5.589
 8239SOL    HW125616   4.125   1.901   5.581
 8239SOL    HW225617   4.226   1.798   5.503
 8240SOL     OW25618   3.591   3.803   4.908
 8240SOL    HW125619   3.506   3.829   4.954
 8240SOL    HW225620   3.574   3.793   4.810
 8241SOL     OW25621   1.012   3.033   5.402
 8241SOL    HW125622   0.917   3.043   5.431
 8241SOL    HW225623   1.054   3.124   5.393
 8242SOL     OW25624   0.552   2.396   3.122
 8242SOL    HW125625   0.487   2.320   3.127
 8242SOL    HW225626   0.639   2.368   3.160
 8243SOL     OW25627   1.632   6.608   3.473
 8243SOL    HW125628   1.586   6.697   3.484
 8243SOL    HW225629   1.564   6.535   3.475
 8244SOL     OW25630   5.928   0.597   3.604
 8244SOL    HW125631   6.012   0.613   3.553
 8244SOL    HW225632   5.851   0.641   3.557
 8245SOL     OW25633   5.198   3.090   1.817
 8245SOL    HW125634   5.196   2.990   1.825
 8245SOL    HW225635   5.113   3.121   1.775
 8246SOL     OW25636   2.030   4.937   6.587
 8246SOL    HW125637   2.076   4.888   6.513
 8246SOL    HW225638   2.012   5.031   6.558
 8247SOL     OW25639   2.396   5.052   3.286
 8247SOL    HW125640   2.456   5.084   3.213
 8247SOL    HW225641   2.406   4.953   3.297
 8248SOL     OW25642   6.868   6.170   2.993
 8248SOL    HW125643   6.897   6.250   3.045
 8248SOL    HW225644   6.899   6.087   3.040
 8249SOL     OW25645   3.058   1.106   6.673
 8249SOL    HW125646   3.019   1.185   6.626
 8249SOL    HW225647   2.984   1.041   6.695
 8250SOL     OW25648   1.315   1.683   6.625
 8250SOL    HW125649   1.321   1.632   6.711
 8250SOL    HW225650   1.248   1.640   6.566
 8251SOL     OW25651   0.958   1.912   5.575
 8251SOL    HW125652   0.944   2.010   5.593
 8251SOL    HW225653   0.949   1.895   5.477
 8252SOL     OW25654   0.691   2.188   6.719
 8252SOL    HW125655   0.686   2.249   6.798
 8252SOL    HW225656   0.674   2.240   6.635
 8253SOL     OW25657   5.949   4.963   6.257
 8253SOL    HW125658   5.898   4.903   6.196
 8253SOL    HW225659   5.891   4.990   6.334
 8254SOL     OW25660   5.505   5.195   6.651
 8254SOL    HW125661   5.594   5.166   6.687
 8254SOL    HW225662   5.432   5.147   6.699
 8255SOL     OW25663   1.512   0.082   5.514
 8255SOL    HW125664   1.540   0.108   5.606
 8255SOL    HW225665   1.488   0.165   5.462
 8256SOL     OW25666   1.419   5.774   3.335
 8256SOL    HW125667   1.476   5.855   3.349
 8256SOL    HW225668   1.334   5.801   3.289
 8257SOL     OW25669   4.989   3.503   3.490
 8257SOL    HW125670   4.984   3.586   3.434
 8257SOL    HW225671   4.999   3.423   3.431
 8258SOL     OW25672   0.333   2.963   3.373
 8258SOL    HW125673   0.296   3.048   3.335
 8258SOL    HW225674   0.300   2.952   3.467
 8259SOL     OW25675   5.562   2.490   4.079
 8259SOL    HW125676   5.542   2.400   4.119
 8259SOL    HW225677   5.628   2.478   4.004
 8260SOL     OW25678   4.946   2.300   6.464
 8260SOL    HW125679   4.953   2.387   6.513
 8260SOL    HW225680   4.941   2.225   6.530
 8261SOL     OW25681   6.113   1.781   2.782
 8261SOL    HW125682   6.078   1.874   2.796
 8261SOL    HW225683   6.052   1.733   2.719
 8262SOL     OW25684   4.867   4.172   1.975
 8262SOL    HW125685   4.865   4.233   2.053
 8262SOL    HW225686   4.891   4.223   1.893
 8263SOL     OW25687   6.199   1.512   6.855
 8263SOL    HW125688   6.261   1.434   6.850
 8263SOL    HW225689   6.207   1.555   6.945
 8264SOL     OW25690   2.957   0.680   1.547
 8264SOL    HW125691   3.002   0.685   1.458
 8264SOL    HW225692   2.935   0.772   1.579
 8265SOL     OW25693   4.529   5.591   0.071
 8265SOL    HW125694   4.487   5.515   0.020
 8265SOL    HW225695   4.478   5.675   0.053
 8266SOL     OW25696   3.873   1.736   3.054
 8266SOL    HW125697   3.835   1.730   3.146
 8266SOL    HW225698   3.803   1.711   2.987
 8267SOL     OW25699   1.810   2.932   3.176
 8267SOL    HW125700   1.762   3.004   3.125
 8267SOL    HW225701   1.896   2.969   3.212
 8268SOL     OW25702   2.455   4.982   1.316
 8268SOL    HW125703   2.542   4.933   1.325
 8268SOL    HW225704   2.420   5.006   1.406
 8269SOL     OW25705   6.471   2.243   4.391
 8269SOL    HW125706   6.479   2.340   4.369
 8269SOL    HW225707   6.507   2.226   4.483
 8270SOL     OW25708   3.435   4.672   0.065
 8270SOL    HW125709   3.369   4.698   0.135
 8270SOL    HW225710   3.451   4.573   0.069
 8271SOL     OW25711   3.140   0.134   5.745
 8271SOL    HW125712   3.041   0.118   5.750
 8271SOL    HW225713   3.188   0.060   5.791
 8272SOL     OW25714   0.936   0.559   2.199
 8272SOL    HW125715   0.935   0.522   2.107
 8272SOL    HW225716   0.925   0.485   2.265
 8273SOL     OW25717   3.962   6.936   6.379
 8273SOL    HW125718   4.011   6.853   6.407
 8273SOL    HW225719   3.869   6.911   6.350
 8274SOL     OW25720   5.559   6.629   4.210
 8274SOL    HW125721   5.465   6.647   4.182
 8274SOL    HW225722   5.586   6.538   4.179
 8275SOL     OW25723   4.893   1.256   4.988
 8275SOL    HW125724   4.837   1.243   5.069
 8275SOL    HW225725   4.849   1.212   4.910
 8276SOL     OW25726   5.538   3.138   0.834
 8276SOL    HW125727   5.490   3.062   0.789
 8276SOL    HW225728   5.580   3.105   0.918
 8277SOL     OW25729   1.279   0.096   1.346
 8277SOL    HW125730   1.261   0.192   1.367
 8277SOL    HW225731   1.376   0.076   1.362
 8278SOL     OW25732   1.661   0.521   0.941
 8278SOL    HW125733   1.683   0.429   0.909
 8278SOL    HW225734   1.561   0.533   0.941
 8279SOL     OW25735   5.473   5.420   5.633
 8279SOL    HW125736   5.567   5.396   5.612
 8279SOL    HW225737   5.469   5.515   5.665
 8280SOL     OW25738   5.639   4.149   6.530
 8280SOL    HW125739   5.706   4.129   6.458
 8280SOL    HW225740   5.687   4.175   6.614
 8281SOL     OW25741   3.534   4.541   6.380
 8281SOL    HW125742   3.435   4.549   6.374
 8281SOL    HW225743   3.563   4.556   6.475
 8282SOL     OW25744   4.205   2.543   0.881
 8282SOL    HW125745   4.141   2.570   0.953
 8282SOL    HW225746   4.256   2.624   0.852
 8283SOL     OW25747   0.593   0.198   2.945
 8283SOL    HW125748   0.636   0.135   2.880
 8283SOL    HW225749   0.515   0.244   2.902
 8284SOL     OW25750   5.196   2.176   1.865
 8284SOL    HW125751   5.141   2.252   1.900
 8284SOL    HW225752   5.136   2.101   1.837
 8285SOL     OW25753   0.816   4.094   0.705
 8285SOL    HW125754   0.856   4.009   0.739
 8285SOL    HW225755   0.736   4.118   0.759
 8286SOL     OW25756   6.134   2.346   6.845
 8286SOL    HW125757   6.222   2.323   6.802
 8286SOL    HW225758   6.101   2.268   6.898
 8287SOL     OW25759   0.544   0.694   3.247
 8287SOL    HW125760   0.524   0.596   3.254
 8287SOL    HW225761   0.463   0.742   3.215
 8288SOL     OW25762   2.866   0.378   2.248
 8288SOL    HW125763   2.770   0.362   2.226
 8288SOL    HW225764   2.923   0.357   2.168
 8289SOL     OW25765   5.711   6.949   0.239
 8289SOL    HW125766   5.649   6.874   0.260
 8289SOL    HW225767   5.760   6.930   0.154
 8290SOL     OW25768   4.956   2.603   1.728
 8290SOL    HW125769   4.946   2.652   1.814
 8290SOL    HW225770   4.867   2.567   1.699
 8291SOL     OW25771   4.854   5.681   6.305
 8291SOL    HW125772   4.789   5.680   6.229
 8291SOL    HW225773   4.879   5.775   6.326
 8292SOL     OW25774   0.410   3.878   5.600
 8292SOL    HW125775   0.387   3.941   5.674
 8292SOL    HW225776   0.353   3.897   5.521
 8293SOL     OW25777   2.787   5.110   4.113
 8293SOL    HW125778   2.855   5.045   4.148
 8293SOL    HW225779   2.735   5.067   4.039
 8294SOL     OW25780   6.738   3.407   5.925
 8294SOL    HW125781   6.818   3.467   5.918
 8294SOL    HW225782   6.671   3.433   5.855
 8295SOL     OW25783   4.502   5.151   2.441
 8295SOL    HW125784   4.520   5.246   2.415
 8295SOL    HW225785   4.589   5.103   2.449
 8296SOL     OW25786   3.557   0.475   2.189
 8296SOL    HW125787   3.585   0.386   2.226
 8296SOL    HW225788   3.630   0.541   2.204
 8297SOL     OW25789   5.833   4.205   1.802
 8297SOL    HW125790   5.923   4.224   1.762
 8297SOL    HW225791   5.843   4.191   1.901
 8298SOL     OW25792   7.000   6.622   1.247
 8298SOL    HW125793   6.938   6.645   1.172
 8298SOL    HW225794   0.020   6.534   1.229
 8299SOL     OW25795   1.000   2.954   6.267
 8299SOL    HW125796   0.944   2.908   6.198
 8299SOL    HW225797   0.994   2.905   6.354
 8300SOL     OW25798   5.413   5.301   4.160
 8300SOL    HW125799   5.455   5.210   4.156
 8300SOL    HW225800   5.485   5.371   4.155
 8301SOL     OW25801   6.349   5.507   0.398
 8301SOL    HW125802   6.305   5.531   0.485
 8301SOL    HW225803   6.280   5.474   0.333
 8302SOL     OW25804   3.519   6.800   5.982
 8302SOL    HW125805   3.574   6.732   5.933
 8302SOL    HW225806   3.485   6.761   6.067
 8303SOL     OW25807   1.570   5.258   4.125
 8303SOL    HW125808   1.571   5.159   4.135
 8303SOL    HW225809   1.646   5.287   4.066
 8304SOL     OW25810   6.045   2.348   3.655
 8304SOL    HW125811   6.010   2.310   3.570
 8304SOL    HW225812   6.089   2.436   3.637
 8305SOL     OW25813   4.518   6.965   5.426
 8305SOL    HW125814   4.609   6.932   5.450
 8305SOL    HW225815   4.452   6.935   5.495
 8306SOL     OW25816   4.987   1.149   3.847
 8306SOL    HW125817   5.005   1.247   3.847
 8306SOL    HW225818   5.008   1.111   3.757
 8307SOL     OW25819   0.306   5.046   3.828
 8307SOL    HW125820   0.376   4.982   3.796
 8307SOL    HW225821   0.332   5.082   3.917
 8308SOL     OW25822   1.371   5.677   0.752
 8308SOL    HW125823   1.309   5.668   0.831
 8308SOL    HW225824   1.436   5.601   0.753
 8309SOL     OW25825   6.479   4.609   2.580
 8309SOL    HW125826   6.470   4.686   2.642
 8309SOL    HW225827   6.400   4.549   2.589
 8310SOL     OW25828   2.308   6.175   2.666
 8310SOL    HW125829   2.221   6.207   2.629
 8310SOL    HW225830   2.291   6.113   2.743
 8311SOL     OW25831   4.322   6.227   1.889
 8311SOL    HW125832   4.382   6.299   1.925
 8311SOL    HW225833   4.335   6.143   1.942
 8312SOL     OW25834   6.861   1.834   0.736
 8312SOL    HW125835   6.901   1.924   0.716
 8312SOL    HW225836   6.934   1.766   0.740
 8313SOL     OW25837   4.952   2.868   5.981
 8313SOL    HW125838   5.024   2.937   5.974
 8313SOL    HW225839   4.968   2.797   5.913
 8314SOL     OW25840   4.441   5.536   3.991
 8314SOL    HW125841   4.532   5.546   3.951
 8314SOL    HW225842   4.449   5.525   4.090
 8315SOL     OW25843   3.028   2.653   6.914
 8315SOL    HW125844   3.027   2.588   6.838
 8315SOL    HW225845   2.948   2.637   6.973
 8316SOL     OW25846   1.169   1.517   5.112
 8316SOL    HW125847   1.126   1.533   5.201
 8316SOL    HW225848   1.268   1.529   5.121
 8317SOL     OW25849   1.347   1.898   5.660
 8317SOL    HW125850   1.401   1.951   5.726
 8317SOL    HW225851   1.408   1.845   5.602
 8318SOL     OW25852   4.589   6.562   5.891
 8318SOL    HW125853   4.679   6.537   5.929
 8318SOL    HW225854   4.594   6.654   5.853
 8319SOL     OW25855   2.215   5.829   6.924
 8319SOL    HW125856   2.147   5.878   6.979
 8319SOL    HW225857   2.270   5.770   6.984
 8320SOL     OW25858   3.883   4.692   5.657
 8320SOL    HW125859   3.953   4.621   5.664
 8320SOL    HW225860   3.926   4.777   5.624
 8321SOL     OW25861   0.382   0.853   0.965
 8321SOL    HW125862   0.347   0.772   1.011
 8321SOL    HW225863   0.318   0.929   0.979
 8322SOL     OW25864   1.849   1.012   1.093
 8322SOL    HW125865   1.801   0.942   1.040
 8322SOL    HW225866   1.791   1.093   1.101
 8323SOL     OW25867   5.972   5.040   0.239
 8323SOL    HW125868   5.982   4.954   0.190
 8323SOL    HW225869   5.883   5.043   0.285
 8324SOL     OW25870   5.213   6.715   6.504
 8324SOL    HW125871   5.257   6.637   6.548
 8324SOL    HW225872   5.126   6.734   6.549
 8325SOL     OW25873   1.081   6.497   4.780
 8325SOL    HW125874   1.132   6.577   4.746
 8325SOL    HW225875   0.985   6.522   4.793
 8326SOL     OW25876   2.266   2.276   6.773
 8326SOL    HW125877   2.169   2.296   6.760
 8326SOL    HW225878   2.291   2.196   6.720
 8327SOL     OW25879   0.996   6.235   4.922
 8327SOL    HW125880   1.032   6.327   4.907
 8327SOL    HW225881   0.940   6.234   5.004
 8328SOL     OW25882   0.735   6.429   1.214
 8328SOL    HW125883   0.794   6.356   1.178
 8328SOL    HW225884   0.785   6.480   1.284
 8329SOL     OW25885   1.444   2.377   5.318
 8329SOL    HW125886   1.420   2.388   5.414
 8329SOL    HW225887   1.533   2.419   5.300
 8330SOL     OW25888   2.887   6.728   0.156
 8330SOL    HW125889   2.854   6.646   0.109
 8330SOL    HW225890   2.810   6.789   0.176
 8331SOL     OW25891   2.192   2.514   5.869
 8331SOL    HW125892   2.104   2.541   5.829
 8331SOL    HW225893   2.206   2.416   5.854
 8332SOL     OW25894   5.934   3.823   1.198
 8332SOL    HW125895   5.955   3.892   1.267
 8332SOL    HW225896   6.000   3.827   1.124
 8333SOL     OW25897   3.022   4.358   6.474
 8333SOL    HW125898   3.058   4.270   6.443
 8333SOL    HW225899   2.923   4.352   6.483
 8334SOL     OW25900   3.300   2.274   5.410
 8334SOL    HW125901   3.233   2.275   5.485
 8334SOL    HW225902   3.264   2.327   5.333
 8335SOL     OW25903   5.341   4.123   5.869
 8335SOL    HW125904   5.362   4.071   5.787
 8335SOL    HW225905   5.422   4.173   5.900
 8336SOL     OW25906   0.906   4.472   3.588
 8336SOL    HW125907   0.922   4.409   3.513
 8336SOL    HW225908   0.974   4.546   3.584
 8337SOL     OW25909   6.718   1.095   4.274
 8337SOL    HW125910   6.755   1.062   4.188
 8337SOL    HW225911   6.793   1.124   4.333
 8338SOL     OW25912   2.759   5.753   0.872
 8338SOL    HW125913   2.858   5.737   0.870
 8338SOL    HW225914   2.729   5.763   0.967
 8339SOL     OW25915   6.333   0.586   2.090
 8339SOL    HW125916   6.243   0.622   2.114
 8339SOL    HW225917   6.324   0.493   2.054
 8340SOL     OW25918   5.334   2.708   6.708
 8340SOL    HW125919   5.280   2.626   6.724
 8340SOL    HW225920   5.424   2.697   6.751
 8341SOL     OW25921   3.894   0.188   1.190
 8341SOL    HW125922   3.800   0.213   1.211
 8341SOL    HW225923   3.950   0.271   1.181
 8342SOL     OW25924   3.808   1.098   0.558
 8342SOL    HW125925   3.779   1.087   0.653
 8342SOL    HW225926   3.908   1.100   0.554
 8343SOL     OW25927   5.172   5.560   2.910
 8343SOL    HW125928   5.183   5.481   2.850
 8343SOL    HW225929   5.173   5.643   2.855
 8344SOL     OW25930   2.608   4.715   6.132
 8344SOL    HW125931   2.639   4.752   6.044
 8344SOL    HW225932   2.581   4.791   6.191
 8345SOL     OW25933   6.184   0.285   3.726
 8345SOL    HW125934   6.219   0.202   3.682
 8345SOL    HW225935   6.249   0.360   3.712
 8346SOL     OW25936   6.304   4.160   4.137
 8346SOL    HW125937   6.260   4.229   4.194
 8346SOL    HW225938   6.283   4.178   4.041
 8347SOL     OW25939   1.691   1.985   6.101
 8347SOL    HW125940   1.764   1.943   6.046
 8347SOL    HW225941   1.609   1.929   6.096
 8348SOL     OW25942   3.461   5.788   1.757
 8348SOL    HW125943   3.414   5.704   1.731
 8348SOL    HW225944   3.450   5.857   1.685
 8349SOL     OW25945   4.478   5.543   1.389
 8349SOL    HW125946   4.563   5.552   1.336
 8349SOL    HW225947   4.440   5.634   1.406
 8350SOL     OW25948   1.472   0.385   6.830
 8350SOL    HW125949   1.414   0.465   6.817
 8350SOL    HW225950   1.490   0.343   6.741
 8351SOL     OW25951   6.949   2.911   2.974
 8351SOL    HW125952   6.992   2.992   3.013
 8351SOL    HW225953   6.905   2.858   3.046
 8352SOL     OW25954   2.692   6.652   6.402
 8352SOL    HW125955   2.659   6.649   6.308
 8352SOL    HW225956   2.675   6.563   6.445
 8353SOL     OW25957   0.612   5.890   2.569
 8353SOL    HW125958   0.684   5.856   2.630
 8353SOL    HW225959   0.538   5.823   2.565
 8354SOL     OW25960   4.762   1.982   2.987
 8354SOL    HW125961   4.829   1.996   2.914
 8354SOL    HW225962   4.669   1.993   2.949
 8355SOL     OW25963   3.040   5.248   6.077
 8355SOL    HW125964   3.091   5.334   6.073
 8355SOL    HW225965   2.947   5.263   6.043
 8356SOL     OW25966   2.941   4.478   1.354
 8356SOL    HW125967   2.871   4.513   1.293
 8356SOL    HW225968   2.910   4.486   1.449
 8357SOL     OW25969   3.079   0.043   4.691
 8357SOL    HW125970   3.143   0.015   4.763
 8357SOL    HW225971   3.129   0.090   4.618
 8358SOL     OW25972   0.249   0.437   4.774
 8358SOL    HW125973   0.187   0.361   4.756
 8358SOL    HW225974   0.208   0.498   4.841
 8359SOL     OW25975   4.496   2.200   5.484
 8359SOL    HW125976   4.484   2.270   5.554
 8359SOL    HW225977   4.591   2.170   5.482
 8360SOL     OW25978   3.564   6.887   1.806
 8360SOL    HW125979   3.509   6.808   1.780
 8360SOL    HW225980   3.602   6.873   1.898
 8361SOL     OW25981   5.048   1.093   0.414
 8361SOL    HW125982   4.986   1.021   0.444
 8361SOL    HW225983   5.049   1.167   0.481
 8362SOL     OW25984   0.083   3.734   1.237
 8362SOL    HW125985   0.055   3.710   1.330
 8362SOL    HW225986   0.151   3.807   1.240
 8363SOL     OW25987   1.087   2.343   1.484
 8363SOL    HW125988   1.068   2.438   1.510
 8363SOL    HW225989   1.185   2.326   1.492
 8364SOL     OW25990   0.121   2.042   4.166
 8364SOL    HW125991   0.171   2.071   4.247
 8364SOL    HW225992   0.168   1.966   4.122
 8365SOL     OW25993   1.428   2.660   1.932
 8365SOL    HW125994   1.494   2.623   1.997
 8365SOL    HW225995   1.476   2.696   1.852
 8366SOL     OW25996   4.851   5.890   2.169
 8366SOL    HW125997   4.814   5.827   2.101
 8366SOL    HW225998   4.782   5.908   2.239
 8367SOL     OW25999   2.039   4.293   3.464
 8367SOL    HW126000   2.092   4.376   3.451
 8367SOL    HW226001   1.942   4.316   3.469
 8368SOL     OW26002   6.894   4.353   5.672
 8368SOL    HW126003   6.977   4.332   5.724
 8368SOL    HW226004   6.901   4.314   5.580
 8369SOL     OW26005   1.413   6.981   6.847
 8369SOL    HW126006   1.376   6.895   6.881
 8369SOL    HW226007   1.512   6.984   6.863
 8370SOL     OW26008   3.156   3.239   0.144
 8370SOL    HW126009   3.188   3.180   0.070
 8370SOL    HW226010   3.186   3.202   0.232
 8371SOL     OW26011   3.047   4.125   6.161
 8371SOL    HW126012   2.968   4.067   6.139
 8371SOL    HW226013   3.064   4.123   6.259
 8372SOL     OW26014   1.579   0.095   1.805
 8372SOL    HW126015   1.592   0.140   1.893
 8372SOL    HW226016   1.654   0.121   1.743
 8373SOL     OW26017   5.674   0.887   3.690
 8373SOL    HW126018   5.721   0.811   3.734
 8373SOL    HW226019   5.598   0.852   3.635
 8374SOL     OW26020   1.126   1.556   3.294
 8374SOL    HW126021   1.121   1.457   3.280
 8374SOL    HW226022   1.172   1.574   3.381
 8375SOL     OW26023   1.600   1.835   5.543
 8375SOL    HW126024   1.593   1.935   5.542
 8375SOL    HW226025   1.643   1.805   5.628
 8376SOL     OW26026   0.764   1.633   3.602
 8376SOL    HW126027   0.775   1.613   3.504
 8376SOL    HW226028   0.818   1.569   3.655
 8377SOL     OW26029   3.317   5.121   0.642
 8377SOL    HW126030   3.402   5.143   0.691
 8377SOL    HW226031   3.264   5.205   0.629
 8378SOL     OW26032   4.102   5.300   5.074
 8378SOL    HW126033   4.069   5.393   5.062
 8378SOL    HW226034   4.026   5.235   5.060
 8379SOL     OW26035   6.446   2.374   2.026
 8379SOL    HW126036   6.455   2.473   2.038
 8379SOL    HW226037   6.516   2.328   2.081
 8380SOL     OW26038   1.173   5.930   2.338
 8380SOL    HW126039   1.228   5.850   2.313
 8380SOL    HW226040   1.182   5.947   2.437
 8381SOL     OW26041   0.995   2.089   2.426
 8381SOL    HW126042   1.047   2.010   2.394
 8381SOL    HW226043   0.932   2.119   2.354
 8382SOL     OW26044   0.447   6.674   1.747
 8382SOL    HW126045   0.407   6.619   1.821
 8382SOL    HW226046   0.501   6.616   1.687
 8383SOL     OW26047   2.773   0.160   5.252
 8383SOL    HW126048   2.740   0.217   5.327
 8383SOL    HW226049   2.793   0.068   5.286
 8384SOL     OW26050   0.520   3.349   3.070
 8384SOL    HW126051   0.525   3.309   3.162
 8384SOL    HW226052   0.436   3.318   3.025
 8385SOL     OW26053   4.363   2.409   2.251
 8385SOL    HW126054   4.429   2.479   2.224
 8385SOL    HW226055   4.404   2.318   2.238
 8386SOL     OW26056   0.696   5.250   1.301
 8386SOL    HW126057   0.652   5.236   1.389
 8386SOL    HW226058   0.660   5.332   1.257
 8387SOL     OW26059   0.598   1.550   3.092
 8387SOL    HW126060   0.501   1.533   3.108
 8387SOL    HW226061   0.608   1.620   3.021
 8388SOL     OW26062   3.897   4.980   1.773
 8388SOL    HW126063   3.995   4.968   1.755
 8388SOL    HW226064   3.877   5.077   1.786
 8389SOL     OW26065   1.257   2.861   3.460
 8389SOL    HW126066   1.278   2.933   3.394
 8389SOL    HW226067   1.342   2.818   3.492
 8390SOL     OW26068   3.011   0.777   6.454
 8390SOL    HW126069   3.104   0.777   6.419
 8390SOL    HW226070   2.957   0.707   6.408
 8391SOL     OW26071   4.538   5.960   0.952
 8391SOL    HW126072   4.635   5.943   0.965
 8391SOL    HW226073   4.506   5.911   0.871
 8392SOL     OW26074   4.197   5.709   0.425
 8392SOL    HW126075   4.121   5.759   0.468
 8392SOL    HW226076   4.160   5.637   0.367
 8393SOL     OW26077   0.917   5.557   1.545
 8393SOL    HW126078   0.884   5.471   1.585
 8393SOL    HW226079   0.985   5.536   1.475
 8394SOL     OW26080   1.448   1.358   3.879
 8394SOL    HW126081   1.440   1.425   3.806
 8394SOL    HW226082   1.445   1.266   3.840
 8395SOL     OW26083   1.455   6.193   5.947
 8395SOL    HW126084   1.450   6.222   6.042
 8395SOL    HW226085   1.379   6.233   5.896
 8396SOL     OW26086   4.335   2.226   0.855
 8396SOL    HW126087   4.369   2.307   0.902
 8396SOL    HW226088   4.235   2.222   0.863
 8397SOL     OW26089   1.902   4.903   3.358
 8397SOL    HW126090   1.896   4.893   3.457
 8397SOL    HW226091   1.954   4.985   3.336
 8398SOL     OW26092   5.555   1.714   0.186
 8398SOL    HW126093   5.466   1.748   0.216
 8398SOL    HW226094   5.620   1.790   0.182
 8399SOL     OW26095   5.392   5.825   6.536
 8399SOL    HW126096   5.470   5.873   6.577
 8399SOL    HW226097   5.320   5.891   6.514
 8400SOL     OW26098   6.805   6.703   4.094
 8400SOL    HW126099   6.728   6.642   4.114
 8400SOL    HW226100   6.770   6.794   4.073
 8401SOL     OW26101   3.011   3.500   5.500
 8401SOL    HW126102   2.995   3.594   5.531
 8401SOL    HW226103   3.025   3.441   5.580
 8402SOL     OW26104   5.020   0.265   5.394
 8402SOL    HW126105   5.018   0.258   5.295
 8402SOL    HW226106   4.986   0.355   5.422
 8403SOL     OW26107   0.676   2.714   5.431
 8403SOL    HW126108   0.580   2.694   5.451
 8403SOL    HW226109   0.716   2.637   5.381
 8404SOL     OW26110   4.775   5.091   5.465
 8404SOL    HW126111   4.690   5.139   5.486
 8404SOL    HW226112   4.754   5.004   5.420
 8405SOL     OW26113   1.874   2.513   5.461
 8405SOL    HW126114   1.792   2.486   5.411
 8405SOL    HW226115   1.849   2.554   5.548
 8406SOL     OW26116   5.126   3.770   1.980
 8406SOL    HW126117   5.196   3.837   2.003
 8406SOL    HW226118   5.037   3.814   1.975
 8407SOL     OW26119   4.882   3.527   2.919
 8407SOL    HW126120   4.917   3.599   2.859
 8407SOL    HW226121   4.851   3.567   3.005
 8408SOL     OW26122   4.951   3.500   3.928
 8408SOL    HW126123   4.901   3.422   3.893
 8408SOL    HW226124   5.025   3.524   3.864
 8409SOL     OW26125   1.172   1.378   3.981
 8409SOL    HW126126   1.129   1.308   3.925
 8409SOL    HW226127   1.265   1.395   3.947
 8410SOL     OW26128   2.290   5.214   2.453
 8410SOL    HW126129   2.323   5.161   2.531
 8410SOL    HW226130   2.367   5.233   2.391
 8411SOL     OW26131   2.121   3.461   3.123
 8411SOL    HW126132   2.107   3.494   3.216
 8411SOL    HW226133   2.149   3.537   3.064
 8412SOL     OW26134   6.679   2.219   2.422
 8412SOL    HW126135   6.607   2.287   2.414
 8412SOL    HW226136   6.767   2.264   2.436
 8413SOL     OW26137   2.045   4.957   1.358
 8413SOL    HW126138   2.039   5.046   1.311
 8413SOL    HW226139   2.029   4.884   1.292
 8414SOL     OW26140   6.374   0.388   3.440
 8414SOL    HW126141   6.415   0.345   3.521
 8414SOL    HW226142   6.338   0.316   3.380
 8415SOL     OW26143   6.910   4.489   1.609
 8415SOL    HW126144   6.819   4.458   1.634
 8415SOL    HW226145   6.933   4.454   1.518
 8416SOL     OW26146   4.515   4.802   2.521
 8416SOL    HW126147   4.444   4.871   2.536
 8416SOL    HW226148   4.556   4.815   2.432
 8417SOL     OW26149   1.225   5.859   6.590
 8417SOL    HW126150   1.168   5.816   6.660
 8417SOL    HW226151   1.253   5.950   6.621
 8418SOL     OW26152   5.817   5.920   2.789
 8418SOL    HW126153   5.829   6.015   2.819
 8418SOL    HW226154   5.762   5.919   2.705
 8419SOL     OW26155   5.118   0.431   4.065
 8419SOL    HW126156   5.173   0.378   4.129
 8419SOL    HW226157   5.111   0.381   3.978
 8420SOL     OW26158   4.023   2.096   5.613
 8420SOL    HW126159   3.973   2.130   5.534
 8420SOL    HW226160   3.972   2.021   5.655
 8421SOL     OW26161   0.293   1.310   1.362
 8421SOL    HW126162   0.300   1.283   1.458
 8421SOL    HW226163   0.337   1.399   1.349
 8422SOL     OW26164   3.137   0.049   1.842
 8422SOL    HW126165   3.096   0.004   1.922
 8422SOL    HW226166   3.215   0.103   1.871
 8423SOL     OW26167   2.065   3.655   1.160
 8423SOL    HW126168   2.011   3.710   1.224
 8423SOL    HW226169   2.004   3.608   1.097
 8424SOL     OW26170   2.791   2.473   1.398
 8424SOL    HW126171   2.830   2.444   1.486
 8424SOL    HW226172   2.866   2.497   1.336
 8425SOL     OW26173   6.375   4.696   6.114
 8425SOL    HW126174   6.437   4.635   6.065
 8425SOL    HW226175   6.369   4.668   6.210
 8426SOL     OW26176   3.684   3.249   2.148
 8426SOL    HW126177   3.740   3.166   2.152
 8426SOL    HW226178   3.609   3.235   2.083
 8427SOL     OW26179   1.810   2.235   0.119
 8427SOL    HW126180   1.806   2.325   0.075
 8427SOL    HW226181   1.896   2.190   0.096
 8428SOL     OW26182   6.075   3.714   0.616
 8428SOL    HW126183   5.998   3.650   0.616
 8428SOL    HW226184   6.152   3.674   0.667
 8429SOL     OW26185   1.805   6.531   2.781
 8429SOL    HW126186   1.785   6.608   2.842
 8429SOL    HW226187   1.832   6.566   2.691
 8430SOL     OW26188   4.842   4.595   3.124
 8430SOL    HW126189   4.779   4.522   3.150
 8430SOL    HW226190   4.855   4.595   3.025
 8431SOL     OW26191   3.026   3.526   2.237
 8431SOL    HW126192   2.962   3.491   2.168
 8431SOL    HW226193   3.120   3.513   2.205
 8432SOL     OW26194   4.506   6.178   6.661
 8432SOL    HW126195   4.443   6.225   6.724
 8432SOL    HW226196   4.580   6.240   6.636
 8433SOL     OW26197   0.478   1.178   3.792
 8433SOL    HW126198   0.439   1.112   3.857
 8433SOL    HW226199   0.482   1.268   3.835
 8434SOL     OW26200   5.882   6.578   6.301
 8434SOL    HW126201   5.846   6.643   6.368
 8434SOL    HW226202   5.870   6.485   6.336
 8435SOL     OW26203   4.882   1.994   1.182
 8435SOL    HW126204   4.844   1.936   1.110
 8435SOL    HW226205   4.853   1.960   1.271
 8436SOL     OW26206   3.004   4.100   1.846
 8436SOL    HW126207   2.928   4.078   1.784
 8436SOL    HW226208   2.975   4.173   1.908
 8437SOL     OW26209   0.390   2.055   0.895
 8437SOL    HW126210   0.364   2.148   0.870
 8437SOL    HW226211   0.316   1.992   0.872
 8438SOL     OW26212   2.238   5.606   0.656
 8438SOL    HW126213   2.143   5.618   0.627
 8438SOL    HW226214   2.263   5.677   0.720
 8439SOL     OW26215   5.685   0.957   1.599
 8439SOL    HW126216   5.614   0.963   1.529
 8439SOL    HW226217   5.729   0.868   1.595
 8440SOL     OW26218   0.804   2.904   4.034
 8440SOL    HW126219   0.814   2.819   3.982
 8440SOL    HW226220   0.894   2.938   4.060
 8441SOL     OW26221   4.677   5.921   2.350
 8441SOL    HW126222   4.685   5.822   2.364
 8441SOL    HW226223   4.605   5.957   2.408
 8442SOL     OW26224   2.678   2.744   1.026
 8442SOL    HW126225   2.660   2.842   1.018
 8442SOL    HW226226   2.775   2.727   1.008
 8443SOL     OW26227   0.081   1.818   1.237
 8443SOL    HW126228   0.108   1.772   1.321
 8443SOL    HW226229   0.051   1.750   1.170
 8444SOL     OW26230   4.080   1.348   3.433
 8444SOL    HW126231   4.065   1.341   3.334
 8444SOL    HW226232   4.026   1.425   3.468
 8445SOL     OW26233   4.652   5.431   1.888
 8445SOL    HW126234   4.657   5.415   1.987
 8445SOL    HW226235   4.743   5.455   1.854
 8446SOL     OW26236   0.126   3.379   2.972
 8446SOL    HW126237   0.218   3.358   2.938
 8446SOL    HW226238   0.083   3.295   3.005
 8447SOL     OW26239   4.365   3.869   1.178
 8447SOL    HW126240   4.303   3.920   1.238
 8447SOL    HW226241   4.389   3.926   1.099
 8448SOL     OW26242   1.931   3.832   6.093
 8448SOL    HW126243   1.982   3.914   6.120
 8448SOL    HW226244   1.858   3.815   6.159
 8449SOL     OW26245   1.222   0.902   5.121
 8449SOL    HW126246   1.234   0.819   5.067
 8449SOL    HW226247   1.129   0.936   5.111
 8450SOL     OW26248   2.014   5.435   1.026
 8450SOL    HW126249   2.000   5.534   1.036
 8450SOL    HW226250   1.925   5.391   1.013
 8451SOL     OW26251   3.075   3.491   0.693
 8451SOL    HW126252   3.095   3.543   0.775
 8451SOL    HW226253   2.991   3.438   0.706
 8452SOL     OW26254   0.065   5.398   1.268
 8452SOL    HW126255   0.056   5.299   1.275
 8452SOL    HW226256   7.001   5.438   1.242
 8453SOL     OW26257   6.634   5.296   5.093
 8453SOL    HW126258   6.701   5.359   5.055
 8453SOL    HW226259   6.659   5.202   5.070
 8454SOL     OW26260   2.229   6.800   4.683
 8454SOL    HW126261   2.183   6.773   4.767
 8454SOL    HW226262   2.295   6.873   4.702
 8455SOL     OW26263   5.672   2.733   0.709
 8455SOL    HW126264   5.623   2.718   0.795
 8455SOL    HW226265   5.769   2.749   0.728
 8456SOL     OW26266   5.455   4.907   3.844
 8456SOL    HW126267   5.457   4.993   3.895
 8456SOL    HW226268   5.375   4.905   3.784
 8457SOL     OW26269   6.588   6.190   5.686
 8457SOL    HW126270   6.507   6.240   5.655
 8457SOL    HW226271   6.612   6.121   5.618
 8458SOL     OW26272   1.407   2.132   0.986
 8458SOL    HW126273   1.431   2.082   0.903
 8458SOL    HW226274   1.480   2.121   1.054
 8459SOL     OW26275   2.563   5.166   3.640
 8459SOL    HW126276   2.623   5.138   3.715
 8459SOL    HW226277   2.610   5.155   3.553
 8460SOL     OW26278   3.882   1.156   1.233
 8460SOL    HW126279   3.887   1.060   1.209
 8460SOL    HW226280   3.867   1.211   1.150
 8461SOL     OW26281   5.369   4.072   3.448
 8461SOL    HW126282   5.290   4.122   3.484
 8461SOL    HW226283   5.381   3.986   3.498
 8462SOL     OW26284   1.445   3.883   0.835
 8462SOL    HW126285   1.498   3.803   0.806
 8462SOL    HW226286   1.507   3.959   0.855
 8463SOL     OW26287   6.857   0.058   1.222
 8463SOL    HW126288   6.850   0.046   1.122
 8463SOL    HW226289   6.950   0.086   1.245
 8464SOL     OW26290   6.157   3.297   6.692
 8464SOL    HW126291   6.117   3.276   6.603
 8464SOL    HW226292   6.172   3.396   6.699
 8465SOL     OW26293   4.897   3.407   1.140
 8465SOL    HW126294   4.803   3.374   1.148
 8465SOL    HW226295   4.959   3.329   1.128
 8466SOL     OW26296   0.544   1.458   5.427
 8466SOL    HW126297   0.610   1.447   5.352
 8466SOL    HW226298   0.581   1.416   5.510
 8467SOL     OW26299   3.034   1.522   0.907
 8467SOL    HW126300   3.030   1.425   0.884
 8467SOL    HW226301   2.970   1.573   0.848
 8468SOL     OW26302   5.459   4.293   0.585
 8468SOL    HW126303   5.475   4.367   0.519
 8468SOL    HW226304   5.462   4.205   0.537
 8469SOL     OW26305   3.842   2.952   5.693
 8469SOL    HW126306   3.893   2.902   5.762
 8469SOL    HW226307   3.788   2.888   5.638
 8470SOL     OW26308   1.415   5.888   1.466
 8470SOL    HW126309   1.461   5.977   1.457
 8470SOL    HW226310   1.461   5.821   1.407
 8471SOL     OW26311   4.256   1.828   4.379
 8471SOL    HW126312   4.186   1.840   4.309
 8471SOL    HW226313   4.217   1.847   4.469
 8472SOL     OW26314   5.514   1.699   6.531
 8472SOL    HW126315   5.515   1.774   6.464
 8472SOL    HW226316   5.474   1.617   6.489
 8473SOL     OW26317   5.429   4.925   5.872
 8473SOL    HW126318   5.375   4.973   5.804
 8473SOL    HW226319   5.403   4.956   5.964
 8474SOL     OW26320   3.092   4.117   5.074
 8474SOL    HW126321   3.022   4.077   5.014
 8474SOL    HW226322   3.073   4.215   5.086
 8475SOL     OW26323   6.871   1.670   2.945
 8475SOL    HW126324   6.962   1.639   2.918
 8475SOL    HW226325   6.877   1.765   2.976
 8476SOL     OW26326   6.231   1.173   1.807
 8476SOL    HW126327   6.191   1.125   1.728
 8476SOL    HW226328   6.264   1.106   1.873
 8477SOL     OW26329   5.766   1.045   1.004
 8477SOL    HW126330   5.717   1.116   0.952
 8477SOL    HW226331   5.831   1.088   1.066
 8478SOL     OW26332   0.752   6.387   5.765
 8478SOL    HW126333   0.769   6.397   5.667
 8478SOL    HW226334   0.838   6.363   5.811
 8479SOL     OW26335   1.368   2.310   6.857
 8479SOL    HW126336   1.318   2.257   6.926
 8479SOL    HW226337   1.319   2.395   6.839
 8480SOL     OW26338   3.252   4.173   0.990
 8480SOL    HW126339   3.191   4.161   0.911
 8480SOL    HW226340   3.318   4.099   0.993
 8481SOL     OW26341   4.451   2.347   2.687
 8481SOL    HW126342   4.522   2.418   2.676
 8481SOL    HW226343   4.411   2.355   2.779
 8482SOL     OW26344   4.302   0.588   6.694
 8482SOL    HW126345   4.338   0.627   6.609
 8482SOL    HW226346   4.202   0.593   6.693
 8483SOL     OW26347   4.223   4.920   3.503
 8483SOL    HW126348   4.148   4.855   3.493
 8483SOL    HW226349   4.185   5.011   3.524
 8484SOL     OW26350   6.103   5.853   5.574
 8484SOL    HW126351   6.104   5.948   5.541
 8484SOL    HW226352   6.181   5.804   5.538
 8485SOL     OW26353   4.262   0.788   6.009
 8485SOL    HW126354   4.290   0.768   5.915
 8485SOL    HW226355   4.293   0.715   6.070
 8486SOL     OW26356   6.111   2.429   4.914
 8486SOL    HW126357   6.040   2.438   4.845
 8486SOL    HW226358   6.121   2.515   4.963
 8487SOL     OW26359   6.757   2.882   6.170
 8487SOL    HW126360   6.853   2.867   6.192
 8487SOL    HW226361   6.700   2.824   6.228
 8488SOL     OW26362   4.399   4.541   2.629
 8488SOL    HW126363   4.437   4.540   2.537
 8488SOL    HW226364   4.301   4.561   2.624
 8489SOL     OW26365   6.316   1.815   2.148
 8489SOL    HW126366   6.253   1.870   2.204
 8489SOL    HW226367   6.410   1.846   2.164
 8490SOL     OW26368   2.962   6.680   0.556
 8490SOL    HW126369   3.055   6.652   0.530
 8490SOL    HW226370   2.953   6.779   0.549
 8491SOL     OW26371   3.376   5.424   2.093
 8491SOL    HW126372   3.412   5.515   2.111
 8491SOL    HW226373   3.413   5.360   2.160
 8492SOL     OW26374   6.366   6.074   4.155
 8492SOL    HW126375   6.444   6.132   4.180
 8492SOL    HW226376   6.376   5.984   4.198
 8493SOL     OW26377   5.207   0.707   5.864
 8493SOL    HW126378   5.121   0.750   5.836
 8493SOL    HW226379   5.193   0.656   5.949
 8494SOL     OW26380   0.206   3.468   2.110
 8494SOL    HW126381   0.168   3.489   2.020
 8494SOL    HW226382   0.271   3.539   2.136
 8495SOL     OW26383   5.646   5.628   5.904
 8495SOL    HW126384   5.563   5.597   5.948
 8495SOL    HW226385   5.698   5.686   5.967
 8496SOL     OW26386   5.106   1.559   2.539
 8496SOL    HW126387   5.020   1.537   2.493
 8496SOL    HW226388   5.140   1.646   2.505
 8497SOL     OW26389   6.537   0.447   2.583
 8497SOL    HW126390   6.534   0.486   2.491
 8497SOL    HW226391   6.445   0.440   2.620
 8498SOL     OW26392   4.675   6.052   4.387
 8498SOL    HW126393   4.742   5.978   4.377
 8498SOL    HW226394   4.614   6.031   4.464
 8499SOL     OW26395   6.020   6.740   5.648
 8499SOL    HW126396   6.067   6.826   5.669
 8499SOL    HW226397   5.945   6.727   5.713
 8500SOL     OW26398   0.959   0.749   6.763
 8500SOL    HW126399   1.025   0.819   6.787
 8500SOL    HW226400   0.868   0.790   6.756
 8501SOL     OW26401   3.449   1.103   6.017
 8501SOL    HW126402   3.399   1.032   6.067
 8501SOL    HW226403   3.532   1.128   6.067
 8502SOL     OW26404   6.309   2.921   0.149
 8502SOL    HW126405   6.301   2.992   0.219
 8502SOL    HW226406   6.239   2.851   0.165
 8503SOL     OW26407   4.722   2.590   5.509
 8503SOL    HW126408   4.683   2.613   5.598
 8503SOL    HW226409   4.761   2.672   5.467
 8504SOL     OW26410   1.548   6.720   2.480
 8504SOL    HW126411   1.644   6.742   2.496
 8504SOL    HW226412   1.510   6.786   2.415
 8505SOL     OW26413   5.693   2.023   2.863
 8505SOL    HW126414   5.746   2.016   2.778
 8505SOL    HW226415   5.623   1.951   2.864
 8506SOL     OW26416   1.502   0.214   6.154
 8506SOL    HW126417   1.504   0.273   6.234
 8506SOL    HW226418   1.470   0.266   6.075
 8507SOL     OW26419   4.194   5.085   5.670
 8507SOL    HW126420   4.201   4.987   5.652
 8507SOL    HW226421   4.141   5.128   5.597
 8508SOL     OW26422   3.398   0.701   6.526
 8508SOL    HW126423   3.340   0.625   6.496
 8508SOL    HW226424   3.482   0.665   6.566
 8509SOL     OW26425   5.133   2.281   2.237
 8509SOL    HW126426   5.084   2.343   2.176
 8509SOL    HW226427   5.190   2.334   2.300
 8510SOL     OW26428   0.679   2.225   4.824
 8510SOL    HW126429   0.754   2.229   4.757
 8510SOL    HW226430   0.595   2.258   4.782
 8511SOL     OW26431   5.842   1.872   3.796
 8511SOL    HW126432   5.891   1.954   3.768
 8511SOL    HW226433   5.744   1.885   3.784
 8512SOL     OW26434   2.216   6.681   5.615
 8512SOL    HW126435   2.295   6.620   5.626
 8512SOL    HW226436   2.133   6.627   5.608
 8513SOL     OW26437   4.542   5.963   6.824
 8513SOL    HW126438   4.611   5.901   6.786
 8513SOL    HW226439   4.536   6.045   6.766
 8514SOL     OW26440   3.377   5.367   4.356
 8514SOL    HW126441   3.433   5.382   4.438
 8514SOL    HW226442   3.324   5.283   4.367
 8515SOL     OW26443   6.130   2.365   2.182
 8515SOL    HW126444   6.031   2.383   2.183
 8515SOL    HW226445   6.168   2.394   2.094
 8516SOL     OW26446   6.533   1.490   2.198
 8516SOL    HW126447   6.613   1.444   2.239
 8516SOL    HW226448   6.564   1.547   2.122
 8517SOL     OW26449   1.462   3.833   5.340
 8517SOL    HW126450   1.417   3.744   5.348
 8517SOL    HW226451   1.466   3.877   5.430
 8518SOL     OW26452   3.052   5.843   1.126
 8518SOL    HW126453   3.045   5.776   1.051
 8518SOL    HW226454   3.133   5.899   1.113
 8519SOL     OW26455   2.611   5.842   3.510
 8519SOL    HW126456   2.601   5.748   3.542
 8519SOL    HW226457   2.704   5.873   3.526
 8520SOL     OW26458   3.399   6.128   6.636
 8520SOL    HW126459   3.386   6.044   6.689
 8520SOL    HW226460   3.474   6.181   6.676
 8521SOL     OW26461   2.178   0.757   2.474
 8521SOL    HW126462   2.137   0.680   2.522
 8521SOL    HW226463   2.180   0.837   2.534
 8522SOL     OW26464   2.217   6.439   5.032
 8522SOL    HW126465   2.305   6.430   5.079
 8522SOL    HW226466   2.158   6.362   5.057
 8523SOL     OW26467   2.008   6.627   6.536
 8523SOL    HW126468   1.931   6.624   6.473
 8523SOL    HW226469   2.062   6.543   6.528
 8524SOL     OW26470   1.819   1.337   0.116
 8524SOL    HW126471   1.913   1.304   0.117
 8524SOL    HW226472   1.807   1.403   0.041
 8525SOL     OW26473   5.600   3.432   3.976
 8525SOL    HW126474   5.597   3.411   3.878
 8525SOL    HW226475   5.629   3.528   3.988
 8526SOL     OW26476   1.518   3.458   2.202
 8526SOL    HW126477   1.477   3.366   2.195
 8526SOL    HW226478   1.463   3.522   2.149
 8527SOL     OW26479   4.792   0.257   4.791
 8527SOL    HW126480   4.741   0.226   4.871
 8527SOL    HW226481   4.853   0.184   4.760
 8528SOL     OW26482   5.811   1.200   6.800
 8528SOL    HW126483   5.722   1.155   6.808
 8528SOL    HW226484   5.818   1.244   6.711
 8529SOL     OW26485   0.103   6.964   5.279
 8529SOL    HW126486   0.178   6.913   5.320
 8529SOL    HW226487   0.102   0.033   5.314
 8530SOL     OW26488   1.841   5.057   5.830
 8530SOL    HW126489   1.763   5.073   5.891
 8530SOL    HW226490   1.840   4.961   5.800
 8531SOL     OW26491   4.145   5.109   1.416
 8531SOL    HW126492   4.127   5.119   1.318
 8531SOL    HW226493   4.138   5.013   1.441
 8532SOL     OW26494   1.459   4.220   0.660
 8532SOL    HW126495   1.518   4.206   0.740
 8532SOL    HW226496   1.364   4.218   0.689
 8533SOL     OW26497   3.773   6.511   5.495
 8533SOL    HW126498   3.766   6.603   5.533
 8533SOL    HW226499   3.739   6.511   5.400
 8534SOL     OW26500   2.310   2.389   0.973
 8534SOL    HW126501   2.260   2.329   1.035
 8534SOL    HW226502   2.268   2.385   0.882
 8535SOL     OW26503   0.510   3.526   5.868
 8535SOL    HW126504   0.541   3.439   5.828
 8535SOL    HW226505   0.459   3.578   5.800
 8536SOL     OW26506   6.147   0.910   5.698
 8536SOL    HW126507   6.060   0.910   5.649
 8536SOL    HW226508   6.152   0.992   5.756
 8537SOL     OW26509   4.279   6.222   3.660
 8537SOL    HW126510   4.375   6.203   3.680
 8537SOL    HW226511   4.260   6.203   3.563
 8538SOL     OW26512   4.957   6.992   5.358
 8538SOL    HW126513   4.997   0.058   5.344
 8538SOL    HW226514   4.916   6.960   5.272
 8539SOL     OW26515   0.829   3.031   2.452
 8539SOL    HW126516   0.912   3.045   2.506
 8539SOL    HW226517   0.807   3.115   2.403
 8540SOL     OW26518   4.221   6.935   6.778
 8540SOL    HW126519   4.133   6.894   6.754
 8540SOL    HW226520   4.290   6.863   6.789
 8541SOL     OW26521   2.842   6.426   5.239
 8541SOL    HW126522   2.828   6.356   5.308
 8541SOL    HW226523   2.867   6.382   5.152
 8542SOL     OW26524   0.874   5.353   5.744
 8542SOL    HW126525   0.924   5.439   5.751
 8542SOL    HW226526   0.937   5.277   5.762
 8543SOL     OW26527   3.110   2.262   5.621
 8543SOL    HW126528   3.050   2.336   5.651
 8543SOL    HW226529   3.065   2.209   5.550
 8544SOL     OW26530   5.603   4.108   5.481
 8544SOL    HW126531   5.529   4.125   5.416
 8544SOL    HW226532   5.607   4.010   5.501
 8545SOL     OW26533   2.661   0.333   6.188
 8545SOL    HW126534   2.665   0.430   6.164
 8545SOL    HW226535   2.644   0.324   6.286
 8546SOL     OW26536   3.358   1.004   3.631
 8546SOL    HW126537   3.314   0.960   3.553
 8546SOL    HW226538   3.389   1.096   3.604
 8547SOL     OW26539   5.192   6.157   6.043
 8547SOL    HW126540   5.290   6.179   6.048
 8547SOL    HW226541   5.152   6.201   5.962
 8548SOL     OW26542   1.452   4.141   4.278
 8548SOL    HW126543   1.400   4.154   4.194
 8548SOL    HW226544   1.543   4.181   4.269
 8549SOL     OW26545   2.828   0.297   3.834
 8549SOL    HW126546   2.802   0.273   3.740
 8549SOL    HW226547   2.746   0.307   3.890
 8550SOL     OW26548   0.338   4.443   5.281
 8550SOL    HW126549   0.367   4.515   5.344
 8550SOL    HW226550   0.358   4.353   5.321
 8551SOL     OW26551   3.555   1.152   4.543
 8551SOL    HW126552   3.495   1.130   4.619
 8551SOL    HW226553   3.597   1.241   4.557
 8552SOL     OW26554   3.425   1.855   2.253
 8552SOL    HW126555   3.431   1.931   2.189
 8552SOL    HW226556   3.334   1.853   2.293
 8553SOL     OW26557   4.847   4.027   0.529
 8553SOL    HW126558   4.827   4.028   0.627
 8553SOL    HW226559   4.875   3.935   0.502
 8554SOL     OW26560   1.453   1.225   6.563
 8554SOL    HW126561   1.514   1.164   6.614
 8554SOL    HW226562   1.360   1.188   6.563
 8555SOL     OW26563   3.111   1.881   3.837
 8555SOL    HW126564   3.032   1.860   3.780
 8555SOL    HW226565   3.151   1.968   3.808
 8556SOL     OW26566   6.955   5.191   5.152
 8556SOL    HW126567   6.914   5.126   5.216
 8556SOL    HW226568   6.920   5.283   5.171
 8557SOL     OW26569   6.686   1.159   0.155
 8557SOL    HW126570   6.761   1.118   0.207
 8557SOL    HW226571   6.714   1.171   0.060
 8558SOL     OW26572   2.670   6.593   3.650
 8558SOL    HW126573   2.578   6.553   3.648
 8558SOL    HW226574   2.669   6.673   3.710
 8559SOL     OW26575   1.566   3.485   2.812
 8559SOL    HW126576   1.662   3.502   2.793
 8559SOL    HW226577   1.541   3.393   2.780
 8560SOL     OW26578   3.575   4.159   1.382
 8560SOL    HW126579   3.569   4.222   1.304
 8560SOL    HW226580   3.483   4.133   1.411
 8561SOL     OW26581   4.032   0.692   2.784
 8561SOL    HW126582   4.080   0.662   2.702
 8561SOL    HW226583   4.081   0.660   2.866
 8562SOL     OW26584   5.209   2.557   6.319
 8562SOL    HW126585   5.116   2.587   6.301
 8562SOL    HW226586   5.207   2.477   6.379
 8563SOL     OW26587   1.743   5.054   2.851
 8563SOL    HW126588   1.714   5.051   2.755
 8563SOL    HW226589   1.706   4.975   2.899
 8564SOL     OW26590   3.502   6.286   0.066
 8564SOL    HW126591   3.583   6.270   0.009
 8564SOL    HW226592   3.480   6.203   0.118
 8565SOL     OW26593   0.765   5.134   1.043
 8565SOL    HW126594   0.732   5.157   1.134
 8565SOL    HW226595   0.687   5.120   0.982
 8566SOL     OW26596   3.780   0.741   3.455
 8566SOL    HW126597   3.807   0.815   3.394
 8566SOL    HW226598   3.804   0.764   3.549
 8567SOL     OW26599   1.877   2.385   1.324
 8567SOL    HW126600   1.931   2.319   1.376
 8567SOL    HW226601   1.782   2.382   1.355
 8568SOL     OW26602   6.225   0.354   5.801
 8568SOL    HW126603   6.143   0.386   5.847
 8568SOL    HW226604   6.296   0.424   5.805
 8569SOL     OW26605   5.401   1.609   6.925
 8569SOL    HW126606   5.399   1.709   6.937
 8569SOL    HW226607   5.434   1.587   6.833
 8570SOL     OW26608   1.806   1.829   3.557
 8570SOL    HW126609   1.837   1.913   3.601
 8570SOL    HW226610   1.797   1.844   3.458
 8571SOL     OW26611   1.440   0.393   3.379
 8571SOL    HW126612   1.477   0.482   3.353
 8571SOL    HW226613   1.419   0.340   3.297
 8572SOL     OW26614   3.236   4.183   5.871
 8572SOL    HW126615   3.249   4.174   5.772
 8572SOL    HW226616   3.149   4.230   5.889
 8573SOL     OW26617   1.689   6.115   6.250
 8573SOL    HW126618   1.677   6.053   6.173
 8573SOL    HW226619   1.608   6.172   6.260
 8574SOL     OW26620   5.521   1.238   5.522
 8574SOL    HW126621   5.618   1.213   5.529
 8574SOL    HW226622   5.468   1.158   5.494
 8575SOL     OW26623   3.313   5.767   4.597
 8575SOL    HW126624   3.273   5.718   4.520
 8575SOL    HW226625   3.397   5.722   4.626
 8576SOL     OW26626   1.241   3.891   4.957
 8576SOL    HW126627   1.321   3.853   4.912
 8576SOL    HW226628   1.165   3.827   4.951
 8577SOL     OW26629   2.231   0.641   0.439
 8577SOL    HW126630   2.278   0.558   0.412
 8577SOL    HW226631   2.238   0.709   0.366
 8578SOL     OW26632   0.993   6.998   5.890
 8578SOL    HW126633   1.055   6.997   5.969
 8578SOL    HW226634   0.906   6.956   5.916
 8579SOL     OW26635   3.766   6.921   2.035
 8579SOL    HW126636   3.783   6.999   1.975
 8579SOL    HW226637   3.853   6.879   2.061
 8580SOL     OW26638   2.652   0.523   1.793
 8580SOL    HW126639   2.738   0.551   1.751
 8580SOL    HW226640   2.656   0.425   1.814
 8581SOL     OW26641   4.004   3.850   2.222
 8581SOL    HW126642   3.989   3.932   2.167
 8581SOL    HW226643   4.046   3.779   2.166
 8582SOL     OW26644   4.502   5.518   5.693
 8582SOL    HW126645   4.580   5.549   5.746
 8582SOL    HW226646   4.418   5.537   5.743
 8583SOL     OW26647   3.633   6.572   2.768
 8583SOL    HW126648   3.618   6.626   2.685
 8583SOL    HW226649   3.731   6.559   2.783
 8584SOL     OW26650   6.240   1.591   5.117
 8584SOL    HW126651   6.266   1.591   5.214
 8584SOL    HW226652   6.252   1.499   5.080
 8585SOL     OW26653   4.808   2.233   1.978
 8585SOL    HW126654   4.888   2.287   1.950
 8585SOL    HW226655   4.791   2.247   2.075
 8586SOL     OW26656   6.322   5.705   5.497
 8586SOL    HW126657   6.359   5.704   5.404
 8586SOL    HW226658   6.397   5.718   5.562
 8587SOL     OW26659   0.103   1.337   0.204
 8587SOL    HW126660   0.062   1.273   0.138
 8587SOL    HW226661   0.062   1.427   0.192
 8588SOL     OW26662   1.645   1.062   5.368
 8588SOL    HW126663   1.730   1.114   5.372
 8588SOL    HW226664   1.637   1.018   5.278
 8589SOL     OW26665   5.339   2.970   6.723
 8589SOL    HW126666   5.336   2.870   6.720
 8589SOL    HW226667   5.276   3.004   6.793
 8590SOL     OW26668   1.451   1.200   3.504
 8590SOL    HW126669   1.451   1.174   3.600
 8590SOL    HW226670   1.484   1.294   3.494
 8591SOL     OW26671   0.739   3.902   5.128
 8591SOL    HW126672   0.695   3.937   5.211
 8591SOL    HW226673   0.835   3.930   5.128
 8592SOL     OW26674   6.874   1.764   4.206
 8592SOL    HW126675   6.837   1.729   4.292
 8592SOL    HW226676   6.842   1.858   4.192
 8593SOL     OW26677   6.457   1.414   0.534
 8593SOL    HW126678   6.553   1.391   0.522
 8593SOL    HW226679   6.400   1.356   0.476
 8594SOL     OW26680   5.809   4.143   6.268
 8594SOL    HW126681   5.786   4.065   6.209
 8594SOL    HW226682   5.904   4.170   6.251
 8595SOL     OW26683   5.439   6.187   2.813
 8595SOL    HW126684   5.536   6.191   2.834
 8595SOL    HW226685   5.425   6.130   2.732
 8596SOL     OW26686   1.230   2.407   5.527
 8596SOL    HW126687   1.162   2.339   5.556
 8596SOL    HW226688   1.191   2.499   5.538
 8597SOL     OW26689   6.109   2.245   6.118
 8597SOL    HW126690   6.065   2.289   6.196
 8597SOL    HW226691   6.206   2.234   6.137
 8598SOL     OW26692   6.996   0.791   5.821
 8598SOL    HW126693   0.068   0.817   5.812
 8598SOL    HW226694   6.941   0.844   5.756
 8599SOL     OW26695   6.009   4.274   5.079
 8599SOL    HW126696   5.970   4.208   5.013
 8599SOL    HW226697   5.967   4.259   5.168
 8600SOL     OW26698   4.284   2.531   1.357
 8600SOL    HW126699   4.316   2.501   1.447
 8600SOL    HW226700   4.187   2.555   1.363
 8601SOL     OW26701   5.161   5.564   2.583
 8601SOL    HW126702   5.146   5.623   2.662
 8601SOL    HW226703   5.191   5.618   2.505
 8602SOL     OW26704   1.756   0.377   5.576
 8602SOL    HW126705   1.792   0.308   5.513
 8602SOL    HW226706   1.680   0.338   5.627
 8603SOL     OW26707   0.608   0.986   6.576
 8603SOL    HW126708   0.643   0.937   6.496
 8603SOL    HW226709   0.509   0.995   6.569
 8604SOL     OW26710   1.757   5.386   6.080
 8604SOL    HW126711   1.731   5.289   6.078
 8604SOL    HW226712   1.794   5.408   6.170
 8605SOL     OW26713   6.900   4.156   3.693
 8605SOL    HW126714   6.892   4.253   3.714
 8605SOL    HW226715   6.837   4.104   3.751
 8606SOL     OW26716   1.272   0.627   6.748
 8606SOL    HW126717   1.259   0.675   6.835
 8606SOL    HW226718   1.209   0.549   6.743
 8607SOL     OW26719   3.144   3.034   1.110
 8607SOL    HW126720   3.089   2.995   1.035
 8607SOL    HW226721   3.129   3.132   1.115
 8608SOL     OW26722   1.657   6.442   1.732
 8608SOL    HW126723   1.601   6.360   1.718
 8608SOL    HW226724   1.661   6.464   1.829
 8609SOL     OW26725   5.381   2.310   4.930
 8609SOL    HW126726   5.362   2.219   4.966
 8609SOL    HW226727   5.447   2.356   4.989
 8610SOL     OW26728   6.740   5.342   2.418
 8610SOL    HW126729   6.664   5.289   2.454
 8610SOL    HW226730   6.705   5.422   2.368
 8611SOL     OW26731   2.189   1.478   5.119
 8611SOL    HW126732   2.220   1.555   5.063
 8611SOL    HW226733   2.208   1.497   5.215
 8612SOL     OW26734   3.510   3.182   5.084
 8612SOL    HW126735   3.577   3.108   5.089
 8612SOL    HW226736   3.455   3.171   5.001
 8613SOL     OW26737   3.700   2.859   3.524
 8613SOL    HW126738   3.717   2.763   3.546
 8613SOL    HW226739   3.621   2.866   3.462
 8614SOL     OW26740   0.930   2.230   3.423
 8614SOL    HW126741   0.972   2.320   3.413
 8614SOL    HW226742   0.831   2.240   3.433
 8615SOL     OW26743   3.818   1.350   5.452
 8615SOL    HW126744   3.793   1.312   5.541
 8615SOL    HW226745   3.846   1.445   5.463
 8616SOL     OW26746   5.413   4.501   5.189
 8616SOL    HW126747   5.314   4.507   5.202
 8616SOL    HW226748   5.442   4.567   5.120
 8617SOL     OW26749   1.371   6.525   2.813
 8617SOL    HW126750   1.382   6.551   2.717
 8617SOL    HW226751   1.321   6.596   2.861
 8618SOL     OW26752   5.456   4.199   0.883
 8618SOL    HW126753   5.479   4.229   0.791
 8618SOL    HW226754   5.516   4.124   0.911
 8619SOL     OW26755   5.046   5.706   0.400
 8619SOL    HW126756   5.111   5.729   0.328
 8619SOL    HW226757   4.965   5.664   0.359
 8620SOL     OW26758   1.820   6.364   3.820
 8620SOL    HW126759   1.817   6.321   3.910
 8620SOL    HW226760   1.767   6.309   3.755
 8621SOL     OW26761   5.891   3.650   2.059
 8621SOL    HW126762   5.858   3.710   1.986
 8621SOL    HW226763   5.979   3.611   2.033
 8622SOL     OW26764   0.741   5.704   1.344
 8622SOL    HW126765   0.666   5.738   1.400
 8622SOL    HW226766   0.783   5.625   1.390
 8623SOL     OW26767   2.033   2.040   3.494
 8623SOL    HW126768   1.969   2.103   3.449
 8623SOL    HW226769   2.078   2.087   3.570
 8624SOL     OW26770   3.222   3.927   5.589
 8624SOL    HW126771   3.290   3.873   5.639
 8624SOL    HW226772   3.202   3.882   5.502
 8625SOL     OW26773   4.530   3.773   5.994
 8625SOL    HW126774   4.621   3.733   5.987
 8625SOL    HW226775   4.539   3.869   6.022
 8626SOL     OW26776   4.808   1.887   1.406
 8626SOL    HW126777   4.807   1.787   1.405
 8626SOL    HW226778   4.715   1.921   1.419
 8627SOL     OW26779   1.618   0.038   2.693
 8627SOL    HW126780   1.600   6.990   2.628
 8627SOL    HW226781   1.578   0.124   2.660
 8628SOL     OW26782   1.590   6.958   1.030
 8628SOL    HW126783   1.543   6.871   1.044
 8628SOL    HW226784   1.551   0.003   1.091
 8629SOL     OW26785   0.370   6.780   4.448
 8629SOL    HW126786   0.279   6.783   4.490
 8629SOL    HW226787   0.362   6.740   4.356
 8630SOL     OW26788   4.694   2.538   1.643
 8630SOL    HW126789   4.688   2.603   1.568
 8630SOL    HW226790   4.638   2.458   1.623
 8631SOL     OW26791   1.924   6.282   6.316
 8631SOL    HW126792   2.015   6.313   6.288
 8631SOL    HW226793   1.863   6.281   6.236
 8632SOL     OW26794   6.188   5.476   3.922
 8632SOL    HW126795   6.163   5.518   4.009
 8632SOL    HW226796   6.127   5.399   3.904
 8633SOL     OW26797   6.270   3.817   5.438
 8633SOL    HW126798   6.339   3.746   5.421
 8633SOL    HW226799   6.312   3.891   5.490
 8634SOL     OW26800   5.184   4.853   6.528
 8634SOL    HW126801   5.157   4.795   6.452
 8634SOL    HW226802   5.239   4.929   6.493
 8635SOL     OW26803   4.734   2.542   6.838
 8635SOL    HW126804   4.784   2.552   6.923
 8635SOL    HW226805   4.637   2.526   6.857
 8636SOL     OW26806   3.931   6.194   1.802
 8636SOL    HW126807   3.986   6.249   1.865
 8636SOL    HW226808   3.969   6.102   1.796
 8637SOL     OW26809   2.383   2.548   0.218
 8637SOL    HW126810   2.333   2.544   0.132
 8637SOL    HW226811   2.327   2.593   0.287
 8638SOL     OW26812   5.038   2.926   4.429
 8638SOL    HW126813   5.019   2.900   4.523
 8638SOL    HW226814   5.114   2.990   4.427
 8639SOL     OW26815   3.041   4.531   0.204
 8639SOL    HW126816   2.972   4.598   0.176
 8639SOL    HW226817   3.122   4.580   0.238
 8640SOL     OW26818   3.950   2.434   0.622
 8640SOL    HW126819   3.909   2.347   0.648
 8640SOL    HW226820   4.049   2.424   0.612
 8641SOL     OW26821   3.097   4.847   3.186
 8641SOL    HW126822   3.161   4.911   3.143
 8641SOL    HW226823   3.003   4.871   3.161
 8642SOL     OW26824   2.094   6.046   3.276
 8642SOL    HW126825   2.033   6.002   3.211
 8642SOL    HW226826   2.155   5.978   3.316
 8643SOL     OW26827   3.817   6.395   1.436
 8643SOL    HW126828   3.913   6.421   1.447
 8643SOL    HW226829   3.805   6.345   1.350
 8644SOL     OW26830   5.882   3.002   6.089
 8644SOL    HW126831   5.785   3.025   6.101
 8644SOL    HW226832   5.916   2.957   6.171
 8645SOL     OW26833   4.992   4.963   2.700
 8645SOL    HW126834   5.046   4.923   2.774
 8645SOL    HW226835   4.913   5.010   2.738
 8646SOL     OW26836   6.948   2.595   5.085
 8646SOL    HW126837   6.906   2.514   5.124
 8646SOL    HW226838   0.023   2.592   5.099
 8647SOL     OW26839   2.108   5.149   1.725
 8647SOL    HW126840   2.012   5.122   1.714
 8647SOL    HW226841   2.116   5.214   1.802
 8648SOL     OW26842   5.125   5.334   0.362
 8648SOL    HW126843   5.170   5.245   0.367
 8648SOL    HW226844   5.034   5.324   0.322
 8649SOL     OW26845   5.692   1.806   1.328
 8649SOL    HW126846   5.640   1.751   1.392
 8649SOL    HW226847   5.759   1.749   1.281
 8650SOL     OW26848   2.220   0.746   5.607
 8650SOL    HW126849   2.162   0.746   5.689
 8650SOL    HW226850   2.316   0.748   5.635
 8651SOL     OW26851   4.194   1.979   1.973
 8651SOL    HW126852   4.218   2.061   2.026
 8651SOL    HW226853   4.205   1.998   1.876
 8652SOL     OW26854   0.026   2.285   4.110
 8652SOL    HW126855   0.030   2.351   4.185
 8652SOL    HW226856   0.044   2.194   4.146
 8653SOL     OW26857   5.895   1.305   0.037
 8653SOL    HW126858   5.850   1.279   6.976
 8653SOL    HW226859   5.844   1.267   0.114
 8654SOL     OW26860   0.339   4.788   2.924
 8654SOL    HW126861   0.301   4.737   3.001
 8654SOL    HW226862   0.402   4.858   2.958
 8655SOL     OW26863   0.912   0.021   5.033
 8655SOL    HW126864   0.892   7.006   5.123
 8655SOL    HW226865   0.921   0.120   5.041
 8656SOL     OW26866   4.135   5.938   0.830
 8656SOL    HW126867   4.202   5.869   0.805
 8656SOL    HW226868   4.180   6.028   0.835
 8657SOL     OW26869   3.042   1.541   2.923
 8657SOL    HW126870   2.984   1.562   2.844
 8657SOL    HW226871   3.083   1.626   2.957
 8658SOL     OW26872   6.604   3.640   1.126
 8658SOL    HW126873   6.629   3.703   1.053
 8658SOL    HW226874   6.541   3.685   1.189
 8659SOL     OW26875   3.958   0.760   3.208
 8659SOL    HW126876   4.028   0.721   3.267
 8659SOL    HW226877   3.923   0.689   3.146
 8660SOL     OW26878   7.017   3.772   1.724
 8660SOL    HW126879   0.004   3.867   1.695
 8660SOL    HW226880   0.005   3.712   1.645
 8661SOL     OW26881   6.131   3.584   2.436
 8661SOL    HW126882   6.191   3.504   2.443
 8661SOL    HW226883   6.186   3.666   2.429
 8662SOL     OW26884   1.482   2.153   2.588
 8662SOL    HW126885   1.389   2.187   2.598
 8662SOL    HW226886   1.547   2.225   2.616
 8663SOL     OW26887   3.675   4.945   2.683
 8663SOL    HW126888   3.647   4.938   2.779
 8663SOL    HW226889   3.596   4.972   2.627
 8664SOL     OW26890   3.065   6.346   4.298
 8664SOL    HW126891   2.973   6.325   4.264
 8664SOL    HW226892   3.061   6.367   4.395
 8665SOL     OW26893   6.104   4.143   6.773
 8665SOL    HW126894   6.023   4.085   6.768
 8665SOL    HW226895   6.088   4.227   6.721
 8666SOL     OW26896   5.092   0.694   3.118
 8666SOL    HW126897   5.102   0.610   3.064
 8666SOL    HW226898   5.059   0.670   3.210
 8667SOL     OW26899   5.431   2.449   2.066
 8667SOL    HW126900   5.442   2.354   2.036
 8667SOL    HW226901   5.501   2.505   2.022
 8668SOL     OW26902   4.443   2.042   4.380
 8668SOL    HW126903   4.410   1.950   4.402
 8668SOL    HW226904   4.380   2.109   4.419
 8669SOL     OW26905   6.786   6.043   5.991
 8669SOL    HW126906   6.747   6.121   6.041
 8669SOL    HW226907   6.720   5.969   5.988
 8670SOL     OW26908   0.213   5.203   5.335
 8670SOL    HW126909   0.148   5.274   5.310
 8670SOL    HW226910   0.223   5.139   5.259
 8671SOL     OW26911   6.839   2.864   3.313
 8671SOL    HW126912   6.937   2.862   3.290
 8671SOL    HW226913   6.790   2.798   3.257
 8672SOL     OW26914   6.669   1.184   2.445
 8672SOL    HW126915   6.766   1.182   2.470
 8672SOL    HW226916   6.621   1.252   2.501
 8673SOL     OW26917   1.064   1.134   1.527
 8673SOL    HW126918   1.161   1.147   1.508
 8673SOL    HW226919   1.013   1.139   1.441
 8674SOL     OW26920   0.143   3.540   3.492
 8674SOL    HW126921   0.094   3.626   3.505
 8674SOL    HW226922   0.227   3.557   3.440
 8675SOL     OW26923   4.704   2.741   5.027
 8675SOL    HW126924   4.720   2.779   5.118
 8675SOL    HW226925   4.625   2.679   5.030
 8676SOL     OW26926   4.552   2.067   0.800
 8676SOL    HW126927   4.476   2.126   0.828
 8676SOL    HW226928   4.528   1.971   0.818
 8677SOL     OW26929   2.822   0.484   0.044
 8677SOL    HW126930   2.862   0.496   0.135
 8677SOL    HW226931   2.896   0.470   7.002
 8678SOL     OW26932   3.100   2.191   0.240
 8678SOL    HW126933   3.126   2.188   0.337
 8678SOL    HW226934   3.001   2.206   0.232
 8679SOL     OW26935   1.645   1.779   6.726
 8679SOL    HW126936   1.564   1.738   6.685
 8679SOL    HW226937   1.618   1.853   6.788
 8680SOL     OW26938   6.939   0.573   1.003
 8680SOL    HW126939   6.932   0.663   1.047
 8680SOL    HW226940   6.963   0.504   1.072
 8681SOL     OW26941   5.662   4.940   1.086
 8681SOL    HW126942   5.585   4.875   1.086
 8681SOL    HW226943   5.690   4.958   0.992
 8682SOL     OW26944   2.606   1.032   2.754
 8682SOL    HW126945   2.549   1.063   2.679
 8682SOL    HW226946   2.598   0.933   2.764
 8683SOL     OW26947   2.576   4.538   3.739
 8683SOL    HW126948   2.649   4.600   3.769
 8683SOL    HW226949   2.563   4.466   3.807
 8684SOL     OW26950   2.169   3.849   3.516
 8684SOL    HW126951   2.173   3.807   3.607
 8684SOL    HW226952   2.184   3.948   3.524
 8685SOL     OW26953   5.086   3.548   5.079
 8685SOL    HW126954   5.004   3.570   5.026
 8685SOL    HW226955   5.138   3.477   5.032
 8686SOL     OW26956   1.160   4.915   2.756
 8686SOL    HW126957   1.239   4.900   2.817
 8686SOL    HW226958   1.185   4.981   2.685
 8687SOL     OW26959   5.341   4.571   5.572
 8687SOL    HW126960   5.355   4.555   5.474
 8687SOL    HW226961   5.387   4.499   5.624
 8688SOL     OW26962   0.758   4.191   4.440
 8688SOL    HW126963   0.806   4.156   4.359
 8688SOL    HW226964   0.810   4.166   4.522
 8689SOL     OW26965   4.606   3.381   1.177
 8689SOL    HW126966   4.590   3.310   1.246
 8689SOL    HW226967   4.573   3.469   1.211
 8690SOL     OW26968   1.240   1.795   1.988
 8690SOL    HW126969   1.333   1.765   2.009
 8690SOL    HW226970   1.176   1.753   2.053
 8691SOL     OW26971   3.556   2.184   6.825
 8691SOL    HW126972   3.482   2.242   6.859
 8691SOL    HW226973   3.597   2.227   6.744
 8692SOL     OW26974   5.207   2.620   4.648
 8692SOL    HW126975   5.168   2.536   4.608
 8692SOL    HW226976   5.162   2.699   4.608
 8693SOL     OW26977   0.467   0.305   5.487
 8693SOL    HW126978   0.409   0.248   5.546
 8693SOL    HW226979   0.428   0.397   5.482
 8694SOL     OW26980   4.426   3.924   5.766
 8694SOL    HW126981   4.484   3.844   5.776
 8694SOL    HW226982   4.361   3.910   5.691
 8695SOL     OW26983   3.558   4.822   1.037
 8695SOL    HW126984   3.483   4.823   0.970
 8695SOL    HW226985   3.575   4.728   1.065
 8696SOL     OW26986   2.783   6.045   6.457
 8696SOL    HW126987   2.768   6.125   6.514
 8696SOL    HW226988   2.843   5.981   6.504
 8697SOL     OW26989   1.197   3.507   4.756
 8697SOL    HW126990   1.135   3.461   4.693
 8697SOL    HW226991   1.290   3.504   4.719
 8698SOL     OW26992   4.935   4.175   0.116
 8698SOL    HW126993   4.836   4.184   0.106
 8698SOL    HW226994   4.956   4.097   0.175
 8699SOL     OW26995   2.407   2.094   0.962
 8699SOL    HW126996   2.371   2.015   0.912
 8699SOL    HW226997   2.430   2.167   0.897
 8700SOL     OW26998   0.184   1.690   4.762
 8700SOL    HW126999   0.177   1.610   4.702
 8700SOL    HW227000   0.239   1.760   4.718
 8701SOL     OW27001   2.014   3.739   6.458
 8701SOL    HW127002   2.000   3.773   6.551
 8701SOL    HW227003   1.961   3.656   6.445
 8702SOL     OW27004   6.095   4.232   1.627
 8702SOL    HW127005   6.102   4.331   1.637
 8702SOL    HW227006   6.186   4.191   1.629
 8703SOL     OW27007   2.065   5.822   2.267
 8703SOL    HW127008   2.157   5.802   2.235
 8703SOL    HW227009   2.034   5.750   2.328
 8704SOL     OW27010   6.784   1.515   3.763
 8704SOL    HW127011   6.771   1.614   3.761
 8704SOL    HW227012   6.849   1.491   3.836
 8705SOL     OW27013   3.799   2.237   0.750
 8705SOL    HW127014   3.753   2.278   0.828
 8705SOL    HW227015   3.764   2.144   0.736
 8706SOL     OW27016   4.878   2.885   6.274
 8706SOL    HW127017   4.890   2.893   6.175
 8706SOL    HW227018   4.816   2.957   6.305
 8707SOL     OW27019   1.096   0.657   3.701
 8707SOL    HW127020   1.026   0.703   3.646
 8707SOL    HW227021   1.061   0.569   3.732
 8708SOL     OW27022   5.740   2.554   0.494
 8708SOL    HW127023   5.671   2.506   0.440
 8708SOL    HW227024   5.697   2.623   0.552
 8709SOL     OW27025   6.870   5.916   3.672
 8709SOL    HW127026   6.777   5.942   3.696
 8709SOL    HW227027   6.927   5.998   3.666
 8710SOL     OW27028   2.418   2.588   3.806
 8710SOL    HW127029   2.506   2.542   3.822
 8710SOL    HW227030   2.420   2.634   3.717
 8711SOL     OW27031   1.980   1.401   1.981
 8711SOL    HW127032   2.077   1.376   1.980
 8711SOL    HW227033   1.966   1.477   2.044
 8712SOL     OW27034   1.638   3.910   4.092
 8712SOL    HW127035   1.730   3.916   4.130
 8712SOL    HW227036   1.599   4.002   4.085
 8713SOL     OW27037   0.234   3.623   2.444
 8713SOL    HW127038   0.259   3.644   2.538
 8713SOL    HW227039   0.173   3.544   2.442
 8714SOL     OW27040   6.421   4.142   6.464
 8714SOL    HW127041   6.387   4.144   6.369
 8714SOL    HW227042   6.451   4.050   6.486
 8715SOL     OW27043   2.500   5.059   0.786
 8715SOL    HW127044   2.500   5.070   0.885
 8715SOL    HW227045   2.585   5.017   0.756
 8716SOL     OW27046   5.978   0.196   2.370
 8716SOL    HW127047   6.037   0.270   2.401
 8716SOL    HW227048   5.972   0.126   2.442
 8717SOL     OW27049   3.284   2.090   0.728
 8717SOL    HW127050   3.306   2.177   0.773
 8717SOL    HW227051   3.290   2.016   0.794
 8718SOL     OW27052   2.744   5.564   6.349
 8718SOL    HW127053   2.758   5.468   6.329
 8718SOL    HW227054   2.774   5.584   6.442
 8719SOL     OW27055   2.820   1.333   5.228
 8719SOL    HW127056   2.897   1.396   5.222
 8719SOL    HW227057   2.742   1.380   5.271
 8720SOL     OW27058   0.659   6.016   4.772
 8720SOL    HW127059   0.669   6.031   4.870
 8720SOL    HW227060   0.735   6.059   4.724
 8721SOL     OW27061   1.411   0.544   0.996
 8721SOL    HW127062   1.409   0.457   1.045
 8721SOL    HW227063   1.319   0.564   0.961
 8722SOL     OW27064   3.678   1.276   0.311
 8722SOL    HW127065   3.715   1.183   0.311
 8722SOL    HW227066   3.590   1.277   0.358
 8723SOL     OW27067   3.933   6.582   2.792
 8723SOL    HW127068   3.928   6.543   2.884
 8723SOL    HW227069   3.925   6.681   2.797
 8724SOL     OW27070   3.142   1.058   5.341
 8724SOL    HW127071   3.231   1.054   5.387
 8724SOL    HW227072   3.156   1.081   5.245
 8725SOL     OW27073   0.355   0.779   2.453
 8725SOL    HW127074   0.300   0.815   2.377
 8725SOL    HW227075   0.294   0.734   2.519
 8726SOL     OW27076   6.803   1.454   0.650
 8726SOL    HW127077   6.863   1.386   0.610
 8726SOL    HW227078   6.785   1.526   0.584
 8727SOL     OW27079   5.163   5.369   6.656
 8727SOL    HW127080   5.176   5.342   6.561
 8727SOL    HW227081   5.196   5.462   6.670
 8728SOL     OW27082   5.951   6.088   4.369
 8728SOL    HW127083   5.918   6.055   4.458
 8728SOL    HW227084   5.992   6.012   4.319
 8729SOL     OW27085   5.450   6.171   6.062
 8729SOL    HW127086   5.525   6.229   6.030
 8729SOL    HW227087   5.486   6.082   6.089
 8730SOL     OW27088   4.012   4.692   1.759
 8730SOL    HW127089   4.013   4.595   1.734
 8730SOL    HW227090   4.103   4.720   1.786
 8731SOL     OW27091   0.187   2.218   3.814
 8731SOL    HW127092   0.163   2.270   3.732
 8731SOL    HW227093   0.119   2.235   3.886
 8732SOL     OW27094   5.403   6.592   5.376
 8732SOL    HW127095   5.378   6.680   5.418
 8732SOL    HW227096   5.402   6.602   5.277
 8733SOL     OW27097   6.918   4.409   2.114
 8733SOL    HW127098   7.002   4.394   2.062
 8733SOL    HW227099   6.927   4.493   2.168
 8734SOL     OW27100   1.189   5.178   0.637
 8734SOL    HW127101   1.099   5.188   0.679
 8734SOL    HW227102   1.259   5.178   0.708
 8735SOL     OW27103   1.270   3.103   6.005
 8735SOL    HW127104   1.310   3.087   6.095
 8735SOL    HW227105   1.200   3.174   6.012
 8736SOL     OW27106   1.839   5.991   3.061
 8736SOL    HW127107   1.800   6.065   3.116
 8736SOL    HW227108   1.782   5.976   2.980
 8737SOL     OW27109   6.882   5.483   6.497
 8737SOL    HW127110   6.947   5.458   6.569
 8737SOL    HW227111   6.794   5.508   6.539
 8738SOL     OW27112   2.062   2.725   2.165
 8738SOL    HW127113   2.093   2.678   2.082
 8738SOL    HW227114   2.140   2.771   2.208
 8739SOL     OW27115   5.034   4.276   2.575
 8739SOL    HW127116   5.043   4.232   2.485
 8739SOL    HW227117   5.105   4.243   2.636
 8740SOL     OW27118   2.843   1.211   3.253
 8740SOL    HW127119   2.909   1.279   3.220
 8740SOL    HW227120   2.795   1.170   3.176
 8741SOL     OW27121   1.341   1.763   2.350
 8741SOL    HW127122   1.430   1.758   2.305
 8741SOL    HW227123   1.348   1.823   2.431
 8742SOL     OW27124   2.150   2.729   1.779
 8742SOL    HW127125   2.118   2.716   1.685
 8742SOL    HW227126   2.165   2.640   1.822
 8743SOL     OW27127   1.043   3.646   6.816
 8743SOL    HW127128   1.110   3.583   6.854
 8743SOL    HW227129   1.033   3.629   6.718
 8744SOL     OW27130   3.244   3.966   6.207
 8744SOL    HW127131   3.170   4.032   6.193
 8744SOL    HW227132   3.309   3.974   6.132
 8745SOL     OW27133   5.539   1.852   6.313
 8745SOL    HW127134   5.473   1.916   6.273
 8745SOL    HW227135   5.631   1.888   6.299
 8746SOL     OW27136   4.241   4.845   4.859
 8746SOL    HW127137   4.189   4.923   4.824
 8746SOL    HW227138   4.204   4.760   4.821
 8747SOL     OW27139   0.715   6.823   2.124
 8747SOL    HW127140   0.683   6.801   2.216
 8747SOL    HW227141   0.792   6.887   2.131
 8748SOL     OW27142   5.879   1.862   4.124
 8748SOL    HW127143   5.893   1.799   4.047
 8748SOL    HW227144   5.882   1.956   4.091
 8749SOL     OW27145   2.739   1.741   4.389
 8749SOL    HW127146   2.807   1.721   4.319
 8749SOL    HW227147   2.648   1.715   4.356
 8750SOL     OW27148   4.482   3.609   1.268
 8750SOL    HW127149   4.453   3.580   1.359
 8750SOL    HW227150   4.428   3.689   1.240
 8751SOL     OW27151   2.120   0.353   0.462
 8751SOL    HW127152   2.203   0.377   0.413
 8751SOL    HW227153   2.076   0.275   0.416
 8752SOL     OW27154   0.107   3.352   6.170
 8752SOL    HW127155   0.078   3.448   6.171
 8752SOL    HW227156   0.199   3.345   6.132
 8753SOL     OW27157   2.214   1.848   1.348
 8753SOL    HW127158   2.289   1.911   1.327
 8753SOL    HW227159   2.166   1.825   1.264
 8754SOL     OW27160   1.116   6.159   6.178
 8754SOL    HW127161   1.160   6.084   6.228
 8754SOL    HW227162   1.148   6.158   6.083
 8755SOL     OW27163   0.472   2.591   1.910
 8755SOL    HW127164   0.389   2.631   1.872
 8755SOL    HW227165   0.525   2.549   1.837
 8756SOL     OW27166   1.793   1.734   2.262
 8756SOL    HW127167   1.772   1.753   2.166
 8756SOL    HW227168   1.764   1.811   2.318
 8757SOL     OW27169   5.823   6.073   4.852
 8757SOL    HW127170   5.826   6.151   4.914
 8757SOL    HW227171   5.799   5.991   4.903
 8758SOL     OW27172   3.637   5.414   6.063
 8758SOL    HW127173   3.543   5.446   6.067
 8758SOL    HW227174   3.699   5.492   6.058
 8759SOL     OW27175   6.303   1.194   1.528
 8759SOL    HW127176   6.298   1.185   1.429
 8759SOL    HW227177   6.310   1.291   1.552
 8760SOL     OW27178   1.953   2.619   4.613
 8760SOL    HW127179   2.046   2.589   4.593
 8760SOL    HW227180   1.917   2.567   4.690
 8761SOL     OW27181   4.603   2.724   3.234
 8761SOL    HW127182   4.572   2.645   3.181
 8761SOL    HW227183   4.601   2.701   3.332
 8762SOL     OW27184   4.573   6.220   3.087
 8762SOL    HW127185   4.491   6.229   3.030
 8762SOL    HW227186   4.588   6.305   3.137
 8763SOL     OW27187   6.839   1.435   5.507
 8763SOL    HW127188   6.824   1.488   5.424
 8763SOL    HW227189   6.776   1.467   5.578
 8764SOL     OW27190   3.587   4.852   6.168
 8764SOL    HW127191   3.597   4.759   6.204
 8764SOL    HW227192   3.639   4.859   6.082
 8765SOL     OW27193   4.716   6.812   4.240
 8765SOL    HW127194   4.646   6.849   4.302
 8765SOL    HW227195   4.676   6.800   4.149
 8766SOL     OW27196   5.919   0.176   4.900
 8766SOL    HW127197   5.974   0.258   4.918
 8766SOL    HW227198   5.860   0.191   4.821
 8767SOL     OW27199   1.617   0.917   5.095
 8767SOL    HW127200   1.676   0.920   5.014
 8767SOL    HW227201   1.557   0.837   5.089
 8768SOL     OW27202   6.468   1.915   1.011
 8768SOL    HW127203   6.492   1.899   1.107
 8768SOL    HW227204   6.531   1.865   0.952
 8769SOL     OW27205   6.271   6.894   6.284
 8769SOL    HW127206   6.337   6.821   6.262
 8769SOL    HW227207   6.179   6.864   6.259
 8770SOL     OW27208   4.600   1.676   0.077
 8770SOL    HW127209   4.675   1.741   0.065
 8770SOL    HW227210   4.576   1.671   0.174
 8771SOL     OW27211   0.383   2.196   6.333
 8771SOL    HW127212   0.320   2.235   6.266
 8771SOL    HW227213   0.460   2.153   6.286
 8772SOL     OW27214   1.006   6.793   3.605
 8772SOL    HW127215   0.979   6.889   3.603
 8772SOL    HW227216   1.097   6.785   3.647
 8773SOL     OW27217   0.252   1.543   3.799
 8773SOL    HW127218   0.303   1.591   3.870
 8773SOL    HW227219   0.215   1.458   3.837
 8774SOL     OW27220   1.368   1.998   6.704
 8774SOL    HW127221   1.364   1.991   6.605
 8774SOL    HW227222   1.463   2.016   6.733
 8775SOL     OW27223   5.355   2.139   2.721
 8775SOL    HW127224   5.369   2.125   2.623
 8775SOL    HW227225   5.263   2.107   2.746
 8776SOL     OW27226   4.997   2.882   1.296
 8776SOL    HW127227   5.031   2.908   1.387
 8776SOL    HW227228   5.059   2.817   1.255
 8777SOL     OW27229   6.571   2.209   4.018
 8777SOL    HW127230   6.645   2.190   3.954
 8777SOL    HW227231   6.493   2.248   3.968
 8778SOL     OW27232   2.404   4.106   0.249
 8778SOL    HW127233   2.430   4.201   0.268
 8778SOL    HW227234   2.481   4.059   0.207
 8779SOL     OW27235   4.138   5.923   3.605
 8779SOL    HW127236   4.048   5.965   3.617
 8779SOL    HW227237   4.141   5.877   3.517
 8780SOL     OW27238   1.028   4.087   3.962
 8780SOL    HW127239   1.117   4.100   4.008
 8780SOL    HW227240   1.043   4.050   3.871
 8781SOL     OW27241   3.515   1.792   1.763
 8781SOL    HW127242   3.596   1.737   1.743
 8781SOL    HW227243   3.489   1.843   1.681
 8782SOL     OW27244   6.664   2.507   0.537
 8782SOL    HW127245   6.696   2.414   0.554
 8782SOL    HW227246   6.666   2.525   0.438
 8783SOL     OW27247   3.806   3.957   5.253
 8783SOL    HW127248   3.781   4.032   5.192
 8783SOL    HW227249   3.788   3.869   5.208
 8784SOL     OW27250   4.444   0.910   6.672
 8784SOL    HW127251   4.449   0.848   6.593
 8784SOL    HW227252   4.356   0.898   6.718
 8785SOL     OW27253   6.768   5.669   6.093
 8785SOL    HW127254   6.786   5.682   6.190
 8785SOL    HW227255   6.722   5.581   6.079
 8786SOL     OW27256   5.762   2.187   3.200
 8786SOL    HW127257   5.714   2.103   3.223
 8786SOL    HW227258   5.698   2.264   3.202
 8787SOL     OW27259   3.558   5.198   2.188
 8787SOL    HW127260   3.600   5.134   2.123
 8787SOL    HW227261   3.618   5.209   2.267
 8788SOL     OW27262   0.184   5.918   3.895
 8788SOL    HW127263   0.125   5.841   3.873
 8788SOL    HW227264   0.266   5.914   3.839
 8789SOL     OW27265   1.365   3.215   6.825
 8789SOL    HW127266   1.441   3.241   6.765
 8789SOL    HW227267   1.383   3.249   6.917
 8790SOL     OW27268   4.883   2.944   5.010
 8790SOL    HW127269   4.829   2.867   4.975
 8790SOL    HW227270   4.905   3.006   4.934
 8791SOL     OW27271   3.985   6.413   5.203
 8791SOL    HW127272   4.050   6.406   5.279
 8791SOL    HW227273   4.028   6.461   5.127
 8792SOL     OW27274   5.684   4.944   0.828
 8792SOL    HW127275   5.734   4.891   0.760
 8792SOL    HW227276   5.642   5.024   0.785
 8793SOL     OW27277   6.329   6.726   5.292
 8793SOL    HW127278   6.229   6.726   5.287
 8793SOL    HW227279   6.360   6.805   5.345
 8794SOL     OW27280   0.443   1.962   3.033
 8794SOL    HW127281   0.417   1.889   3.096
 8794SOL    HW227282   0.464   2.045   3.085
 8795SOL     OW27283   1.605   6.852   6.450
 8795SOL    HW127284   1.619   6.926   6.515
 8795SOL    HW227285   1.551   6.780   6.493
 8796SOL     OW27286   5.495   4.401   4.647
 8796SOL    HW127287   5.432   4.429   4.720
 8796SOL    HW227288   5.534   4.312   4.670
 8797SOL     OW27289   4.830   6.436   4.375
 8797SOL    HW127290   4.855   6.532   4.369
 8797SOL    HW227291   4.880   6.393   4.451
 8798SOL     OW27292   1.638   5.928   6.037
 8798SOL    HW127293   1.574   5.951   5.964
 8798SOL    HW227294   1.674   5.836   6.024
 8799SOL     OW27295   1.510   6.133   1.497
 8799SOL    HW127296   1.493   6.184   1.412
 8799SOL    HW227297   1.475   6.185   1.575
 8800SOL     OW27298   6.549   5.763   3.939
 8800SOL    HW127299   6.469   5.734   3.991
 8800SOL    HW227300   6.588   5.685   3.891
 8801SOL     OW27301   4.847   3.635   5.707
 8801SOL    HW127302   4.753   3.668   5.697
 8801SOL    HW227303   4.848   3.553   5.764
 8802SOL     OW27304   1.318   6.403   0.127
 8802SOL    HW127305   1.349   6.498   0.140
 8802SOL    HW227306   1.332   6.352   0.211
 8803SOL     OW27307   5.332   5.277   5.095
 8803SOL    HW127308   5.324   5.227   5.181
 8803SOL    HW227309   5.390   5.226   5.032
 8804SOL     OW27310   2.040   6.560   2.061
 8804SOL    HW127311   1.960   6.528   2.113
 8804SOL    HW227312   2.054   6.501   1.982
 8805SOL     OW27313   5.135   4.759   2.271
 8805SOL    HW127314   5.051   4.804   2.303
 8805SOL    HW227315   5.177   4.815   2.199
 8806SOL     OW27316   1.215   0.794   2.344
 8806SOL    HW127317   1.302   0.840   2.325
 8806SOL    HW227318   1.221   0.746   2.432
 8807SOL     OW27319   6.053   2.351   1.492
 8807SOL    HW127320   6.032   2.290   1.415
 8807SOL    HW227321   6.146   2.388   1.480
 8808SOL     OW27322   1.491   1.510   0.062
 8808SOL    HW127323   1.506   1.435   0.127
 8808SOL    HW227324   1.500   1.598   0.110
 8809SOL     OW27325   0.776   3.675   3.205
 8809SOL    HW127326   0.724   3.671   3.290
 8809SOL    HW227327   0.848   3.605   3.206
 8810SOL     OW27328   6.609   2.248   4.659
 8810SOL    HW127329   6.706   2.264   4.678
 8810SOL    HW227330   6.559   2.334   4.670
 8811SOL     OW27331   4.203   4.973   2.048
 8811SOL    HW127332   4.147   4.945   1.970
 8811SOL    HW227333   4.190   4.908   2.123
 8812SOL     OW27334   5.593   0.597   0.334
 8812SOL    HW127335   5.608   0.623   0.238
 8812SOL    HW227336   5.664   0.533   0.363
 8813SOL     OW27337   1.550   3.118   1.927
 8813SOL    HW127338   1.534   3.137   2.023
 8813SOL    HW227339   1.483   3.052   1.894
 8814SOL     OW27340   5.438   7.012   4.800
 8814SOL    HW127341   5.418   0.085   4.816
 8814SOL    HW227342   5.469   7.000   4.706
 8815SOL     OW27343   5.141   1.002   1.191
 8815SOL    HW127344   5.131   0.903   1.188
 8815SOL    HW227345   5.191   1.034   1.110
 8816SOL     OW27346   0.136   0.470   3.709
 8816SOL    HW127347   0.157   0.455   3.612
 8816SOL    HW227348   0.221   0.489   3.758
 8817SOL     OW27349   1.046   2.727   3.338
 8817SOL    HW127350   1.124   2.787   3.358
 8817SOL    HW227351   0.964   2.782   3.327
 8818SOL     OW27352   1.034   6.309   6.401
 8818SOL    HW127353   0.987   6.248   6.465
 8818SOL    HW227354   1.065   6.257   6.322
 8819SOL     OW27355   4.756   5.954   6.107
 8819SOL    HW127356   4.849   5.935   6.075
 8819SOL    HW227357   4.697   5.976   6.029
 8820SOL     OW27358   3.712   6.605   5.817
 8820SOL    HW127359   3.742   6.682   5.761
 8820SOL    HW227360   3.788   6.542   5.830
 8821SOL     OW27361   0.589   5.174   5.543
 8821SOL    HW127362   0.614   5.153   5.448
 8821SOL    HW227363   0.660   5.137   5.604
 8822SOL     OW27364   6.305   0.002   4.947
 8822SOL    HW127365   6.251   0.043   5.020
 8822SOL    HW227366   6.253   6.952   4.905
 8823SOL     OW27367   4.484   2.054   2.934
 8823SOL    HW127368   4.388   2.039   2.957
 8823SOL    HW227369   4.502   2.016   2.843
 8824SOL     OW27370   1.724   0.271   4.150
 8824SOL    HW127371   1.721   0.350   4.089
 8824SOL    HW227372   1.790   0.287   4.224
 8825SOL     OW27373   0.574   6.914   0.394
 8825SOL    HW127374   0.638   6.883   0.464
 8825SOL    HW227375   0.519   6.989   0.429
 8826SOL     OW27376   0.557   3.782   0.215
 8826SOL    HW127377   0.555   3.769   0.115
 8826SOL    HW227378   0.645   3.823   0.241
 8827SOL     OW27379   4.829   6.340   3.773
 8827SOL    HW127380   4.809   6.416   3.835
 8827SOL    HW227381   4.820   6.370   3.678
 8828SOL     OW27382   5.300   2.675   5.615
 8828SOL    HW127383   5.225   2.643   5.557
 8828SOL    HW227384   5.265   2.739   5.683
 8829SOL     OW27385   6.180   0.721   3.062
 8829SOL    HW127386   6.182   0.633   3.015
 8829SOL    HW227387   6.211   0.708   3.157
 8830SOL     OW27388   3.408   0.730   3.119
 8830SOL    HW127389   3.474   0.797   3.087
 8830SOL    HW227390   3.421   0.716   3.217
 8831SOL     OW27391   0.694   2.764   2.570
 8831SOL    HW127392   0.697   2.852   2.522
 8831SOL    HW227393   0.676   2.691   2.505
 8832SOL     OW27394   5.612   0.481   5.391
 8832SOL    HW127395   5.542   0.429   5.440
 8832SOL    HW227396   5.701   0.439   5.405
 8833SOL     OW27397   4.660   2.638   1.032
 8833SOL    HW127398   4.629   2.587   0.952
 8833SOL    HW227399   4.650   2.736   1.016
 8834SOL     OW27400   5.360   4.501   6.382
 8834SOL    HW127401   5.361   4.401   6.384
 8834SOL    HW227402   5.376   4.532   6.288
 8835SOL     OW27403   6.325   1.141   5.192
 8835SOL    HW127404   6.251   1.101   5.245
 8835SOL    HW227405   6.298   1.145   5.095
 8836SOL     OW27406   4.223   1.023   1.051
 8836SOL    HW127407   4.170   1.103   1.023
 8836SOL    HW227408   4.238   0.963   0.973
 8837SOL     OW27409   4.410   5.397   0.390
 8837SOL    HW127410   4.314   5.407   0.419
 8837SOL    HW227411   4.421   5.310   0.341
 8838SOL     OW27412   2.124   3.587   2.782
 8838SOL    HW127413   2.144   3.624   2.872
 8838SOL    HW227414   2.079   3.657   2.726
 8839SOL     OW27415   4.436   4.800   1.043
 8839SOL    HW127416   4.354   4.755   1.008
 8839SOL    HW227417   4.469   4.865   0.974
 8840SOL     OW27418   0.280   0.499   1.332
 8840SOL    HW127419   0.352   0.552   1.377
 8840SOL    HW227420   0.214   0.467   1.400
 8841SOL     OW27421   3.454   1.084   1.225
 8841SOL    HW127422   3.478   1.173   1.265
 8841SOL    HW227423   3.461   1.090   1.125
 8842SOL     OW27424   3.231   3.317   3.608
 8842SOL    HW127425   3.229   3.283   3.514
 8842SOL    HW227426   3.325   3.322   3.641
 8843SOL     OW27427   2.248   5.966   5.383
 8843SOL    HW127428   2.324   5.938   5.442
 8843SOL    HW227429   2.176   5.897   5.387
 8844SOL     OW27430   3.073   2.746   5.985
 8844SOL    HW127431   3.081   2.750   6.085
 8844SOL    HW227432   3.021   2.665   5.959
 8845SOL     OW27433   0.832   3.627   1.763
 8845SOL    HW127434   0.749   3.573   1.781
 8845SOL    HW227435   0.835   3.704   1.827
 8846SOL     OW27436   5.211   5.184   4.320
 8846SOL    HW127437   5.286   5.249   4.308
 8846SOL    HW227438   5.207   5.123   4.241
 8847SOL     OW27439   0.550   2.189   3.696
 8847SOL    HW127440   0.645   2.219   3.694
 8847SOL    HW227441   0.511   2.206   3.787
 8848SOL     OW27442   6.405   2.352   0.681
 8848SOL    HW127443   6.315   2.356   0.639
 8848SOL    HW227444   6.467   2.301   0.621
 8849SOL     OW27445   3.024   5.345   4.663
 8849SOL    HW127446   2.940   5.345   4.717
 8849SOL    HW227447   3.016   5.278   4.589
 8850SOL     OW27448   2.899   2.223   0.860
 8850SOL    HW127449   2.864   2.223   0.954
 8850SOL    HW227450   2.900   2.129   0.826
 8851SOL     OW27451   7.023   5.147   2.675
 8851SOL    HW127452   6.956   5.218   2.698
 8851SOL    HW227453   0.091   5.184   2.685
 8852SOL     OW27454   4.914   3.476   4.414
 8852SOL    HW127455   5.000   3.501   4.458
 8852SOL    HW227456   4.927   3.474   4.315
 8853SOL     OW27457   4.812   2.027   5.564
 8853SOL    HW127458   4.793   2.122   5.591
 8853SOL    HW227459   4.854   2.027   5.473
 8854SOL     OW27460   2.468   1.056   5.560
 8854SOL    HW127461   2.458   1.053   5.461
 8854SOL    HW227462   2.496   1.148   5.588
 8855SOL     OW27463   6.067   5.153   6.075
 8855SOL    HW127464   6.062   5.122   5.980
 8855SOL    HW227465   6.020   5.088   6.134
 8856SOL     OW27466   5.780   1.164   5.490
 8856SOL    HW127467   5.789   1.065   5.486
 8856SOL    HW227468   5.867   1.204   5.519
 8857SOL     OW27469   1.905   3.200   4.432
 8857SOL    HW127470   1.823   3.168   4.383
 8857SOL    HW227471   1.950   3.272   4.379
 8858SOL     OW27472   0.141   3.637   5.402
 8858SOL    HW127473   0.079   3.617   5.327
 8858SOL    HW227474   0.145   3.736   5.417
 8859SOL     OW27475   2.830   6.221   5.405
 8859SOL    HW127476   2.786   6.234   5.494
 8859SOL    HW227477   2.811   6.129   5.372
 8860SOL     OW27478   1.847   1.703   1.306
 8860SOL    HW127479   1.903   1.766   1.253
 8860SOL    HW227480   1.890   1.686   1.394
 8861SOL     OW27481   2.601   2.453   1.046
 8861SOL    HW127482   2.608   2.551   1.061
 8861SOL    HW227483   2.505   2.427   1.036
 8862SOL     OW27484   6.578   1.974   4.961
 8862SOL    HW127485   6.640   1.962   4.884
 8862SOL    HW227486   6.496   2.022   4.931
 8863SOL     OW27487   1.719   5.857   5.263
 8863SOL    HW127488   1.808   5.868   5.218
 8863SOL    HW227489   1.703   5.760   5.282
 8864SOL     OW27490   2.090   4.040   6.176
 8864SOL    HW127491   2.128   4.016   6.265
 8864SOL    HW227492   2.145   4.112   6.134
 8865SOL     OW27493   3.115   2.119   5.866
 8865SOL    HW127494   3.023   2.084   5.885
 8865SOL    HW227495   3.134   2.112   5.768
 8866SOL     OW27496   5.141   6.762   5.009
 8866SOL    HW127497   5.043   6.780   5.003
 8866SOL    HW227498   5.156   6.676   5.058
 8867SOL     OW27499   6.336   0.786   4.078
 8867SOL    HW127500   6.367   0.757   4.168
 8867SOL    HW227501   6.411   0.780   4.012
 8868SOL     OW27502   5.108   3.562   0.835
 8868SOL    HW127503   5.115   3.469   0.797
 8868SOL    HW227504   5.128   3.559   0.933
 8869SOL     OW27505   3.233   2.017   3.197
 8869SOL    HW127506   3.143   1.987   3.226
 8869SOL    HW227507   3.300   1.993   3.267
 8870SOL     OW27508   4.687   1.325   2.304
 8870SOL    HW127509   4.640   1.337   2.391
 8870SOL    HW227510   4.658   1.396   2.240
 8871SOL     OW27511   1.639   2.372   3.805
 8871SOL    HW127512   1.699   2.301   3.769
 8871SOL    HW227513   1.563   2.330   3.854
 8872SOL     OW27514   1.189   2.352   2.119
 8872SOL    HW127515   1.258   2.376   2.187
 8872SOL    HW227516   1.196   2.254   2.098
 8873SOL     OW27517   6.992   5.780   4.757
 8873SOL    HW127518   0.057   5.816   4.784
 8873SOL    HW227519   6.964   5.708   4.821
 8874SOL     OW27520   0.717   1.570   6.248
 8874SOL    HW127521   0.731   1.622   6.332
 8874SOL    HW227522   0.623   1.581   6.217
 8875SOL     OW27523   1.268   1.059   4.622
 8875SOL    HW127524   1.257   1.151   4.659
 8875SOL    HW227525   1.244   1.058   4.525
 8876SOL     OW27526   3.024   0.851   4.648
 8876SOL    HW127527   3.025   0.751   4.645
 8876SOL    HW227528   3.045   0.882   4.741
 8877SOL     OW27529   2.863   6.878   4.335
 8877SOL    HW127530   2.895   6.867   4.429
 8877SOL    HW227531   2.890   6.797   4.282
 8878SOL     OW27532   5.802   4.764   5.212
 8878SOL    HW127533   5.850   4.824   5.276
 8878SOL    HW227534   5.795   4.808   5.123
 8879SOL     OW27535   4.543   5.520   4.271
 8879SOL    HW127536   4.594   5.592   4.224
 8879SOL    HW227537   4.577   5.430   4.242
 8880SOL     OW27538   0.111   6.676   4.738
 8880SOL    HW127539   0.036   6.628   4.693
 8880SOL    HW227540   0.197   6.633   4.714
 8881SOL     OW27541   6.953   1.454   2.070
 8881SOL    HW127542   0.000   1.466   2.002
 8881SOL    HW227543   6.884   1.525   2.060
 8882SOL     OW27544   4.987   2.485   0.554
 8882SOL    HW127545   4.898   2.527   0.571
 8882SOL    HW227546   5.029   2.460   0.641
 8883SOL     OW27547   6.214   1.234   5.496
 8883SOL    HW127548   6.187   1.138   5.485
 8883SOL    HW227549   6.310   1.239   5.523
 8884SOL     OW27550   0.056   1.619   6.634
 8884SOL    HW127551   0.100   1.594   6.548
 8884SOL    HW227552   0.125   1.627   6.706
 8885SOL     OW27553   5.412   3.399   1.674
 8885SOL    HW127554   5.401   3.371   1.770
 8885SOL    HW227555   5.391   3.496   1.665
 8886SOL     OW27556   3.064   5.765   5.958
 8886SOL    HW127557   3.026   5.782   6.049
 8886SOL    HW227558   3.003   5.703   5.908
 8887SOL     OW27559   1.896   1.434   1.180
 8887SOL    HW127560   1.916   1.523   1.140
 8887SOL    HW227561   1.980   1.380   1.185
 8888SOL     OW27562   2.643   1.961   2.962
 8888SOL    HW127563   2.720   1.978   3.024
 8888SOL    HW227564   2.599   1.874   2.986
 8889SOL     OW27565   3.431   0.458   4.806
 8889SOL    HW127566   3.511   0.485   4.753
 8889SOL    HW227567   3.457   0.445   4.901
 8890SOL     OW27568   0.588   3.875   2.972
 8890SOL    HW127569   0.540   3.801   3.018
 8890SOL    HW227570   0.684   3.875   2.999
 8891SOL     OW27571   2.806   1.710   5.997
 8891SOL    HW127572   2.885   1.712   5.936
 8891SOL    HW227573   2.733   1.766   5.958
 8892SOL     OW27574   1.258   6.915   2.553
 8892SOL    HW127575   1.330   6.939   2.489
 8892SOL    HW227576   1.178   6.881   2.503
 8893SOL     OW27577   0.339   1.068   0.506
 8893SOL    HW127578   0.258   1.029   0.550
 8893SOL    HW227579   0.347   1.165   0.530
 8894SOL     OW27580   4.642   2.689   6.316
 8894SOL    HW127581   4.557   2.742   6.309
 8894SOL    HW227582   4.720   2.751   6.317
 8895SOL     OW27583   2.065   1.506   3.297
 8895SOL    HW127584   2.084   1.464   3.209
 8895SOL    HW227585   2.027   1.598   3.283
 8896SOL     OW27586   2.175   4.138   5.221
 8896SOL    HW127587   2.207   4.232   5.233
 8896SOL    HW227588   2.239   4.088   5.164
 8897SOL     OW27589   0.932   2.514   0.971
 8897SOL    HW127590   0.944   2.446   1.043
 8897SOL    HW227591   1.021   2.534   0.929
 8898SOL     OW27592   0.215   2.960   5.258
 8898SOL    HW127593   0.190   3.054   5.237
 8898SOL    HW227594   0.265   2.921   5.180
 8899SOL     OW27595   3.173   5.170   1.517
 8899SOL    HW127596   3.128   5.085   1.490
 8899SOL    HW227597   3.187   5.170   1.616
 8900SOL     OW27598   6.880   1.813   3.542
 8900SOL    HW127599   6.859   1.756   3.462
 8900SOL    HW227600   6.971   1.789   3.577
 8901SOL     OW27601   1.959   6.698   1.658
 8901SOL    HW127602   2.000   6.730   1.744
 8901SOL    HW227603   2.012   6.733   1.581
 8902SOL     OW27604   3.321   6.322   5.784
 8902SOL    HW127605   3.397   6.287   5.839
 8902SOL    HW227606   3.321   6.422   5.790
 8903SOL     OW27607   0.128   0.092   2.482
 8903SOL    HW127608   0.144   0.031   2.404
 8903SOL    HW227609   0.070   0.168   2.453
 8904SOL     OW27610   1.650   4.855   3.247
 8904SOL    HW127611   1.583   4.848   3.320
 8904SOL    HW227612   1.739   4.877   3.285
 8905SOL     OW27613   2.230   4.118   4.775
 8905SOL    HW127614   2.263   4.073   4.858
 8905SOL    HW227615   2.148   4.171   4.796
 8906SOL     OW27616   2.039   5.130   4.241
 8906SOL    HW127617   2.136   5.152   4.241
 8906SOL    HW227618   2.017   5.074   4.321
 8907SOL     OW27619   3.758   2.570   6.856
 8907SOL    HW127620   3.679   2.573   6.794
 8907SOL    HW227621   3.761   2.655   6.909
 8908SOL     OW27622   1.007   2.489   3.117
 8908SOL    HW127623   0.916   2.524   3.142
 8908SOL    HW227624   1.066   2.566   3.093
 8909SOL     OW27625   3.728   0.108   5.694
 8909SOL    HW127626   3.726   0.114   5.794
 8909SOL    HW227627   3.647   0.060   5.662
 8910SOL     OW27628   3.927   3.307   0.089
 8910SOL    HW127629   3.987   3.238   0.128
 8910SOL    HW227630   3.857   3.263   0.033
 8911SOL     OW27631   4.880   2.288   3.513
 8911SOL    HW127632   4.893   2.328   3.603
 8911SOL    HW227633   4.782   2.279   3.495
 8912SOL     OW27634   5.350   1.330   6.436
 8912SOL    HW127635   5.326   1.284   6.350
 8912SOL    HW227636   5.327   1.427   6.429
 8913SOL     OW27637   4.202   4.003   1.379
 8913SOL    HW127638   4.206   4.083   1.319
 8913SOL    HW227639   4.238   4.028   1.469
 8914SOL     OW27640   4.903   1.853   3.511
 8914SOL    HW127641   4.977   1.913   3.482
 8914SOL    HW227642   4.822   1.871   3.455
 8915SOL     OW27643   1.165   5.479   2.161
 8915SOL    HW127644   1.205   5.397   2.120
 8915SOL    HW227645   1.068   5.462   2.179
 8916SOL     OW27646   5.959   2.950   2.500
 8916SOL    HW127647   5.937   2.935   2.404
 8916SOL    HW227648   5.875   2.964   2.552
 8917SOL     OW27649   5.502   4.947   5.146
 8917SOL    HW127650   5.409   4.959   5.180
 8917SOL    HW227651   5.527   4.851   5.153
 8918SOL     OW27652   4.904   3.886   6.303
 8918SOL    HW127653   4.838   3.961   6.306
 8918SOL    HW227654   4.993   3.921   6.274
 8919SOL     OW27655   2.452   3.323   1.468
 8919SOL    HW127656   2.405   3.259   1.406
 8919SOL    HW227657   2.536   3.280   1.502
 8920SOL     OW27658   6.892   5.476   5.688
 8920SOL    HW127659   6.929   5.551   5.743
 8920SOL    HW227660   6.953   5.397   5.695
 8921SOL     OW27661   1.154   5.531   3.807
 8921SOL    HW127662   1.232   5.567   3.756
 8921SOL    HW227663   1.070   5.547   3.755
 8922SOL     OW27664   6.567   3.878   6.456
 8922SOL    HW127665   6.587   3.787   6.420
 8922SOL    HW227666   6.623   3.946   6.409
 8923SOL     OW27667   2.214   4.291   4.158
 8923SOL    HW127668   2.210   4.208   4.214
 8923SOL    HW227669   2.236   4.369   4.216
 8924SOL     OW27670   2.436   5.976   4.821
 8924SOL    HW127671   2.369   6.014   4.885
 8924SOL    HW227672   2.495   5.911   4.868
 8925SOL     OW27673   4.404   5.358   1.204
 8925SOL    HW127674   4.323   5.310   1.236
 8925SOL    HW227675   4.432   5.426   1.272
 8926SOL     OW27676   5.847   0.285   6.554
 8926SOL    HW127677   5.781   0.349   6.516
 8926SOL    HW227678   5.904   0.332   6.621
 8927SOL     OW27679   2.403   1.555   4.724
 8927SOL    HW127680   2.339   1.478   4.729
 8927SOL    HW227681   2.492   1.522   4.692
 8928SOL     OW27682   0.606   0.121   4.621
 8928SOL    HW127683   0.576   0.090   4.712
 8928SOL    HW227684   0.566   0.062   4.551
 8929SOL     OW27685   5.191   4.228   3.597
 8929SOL    HW127686   5.127   4.296   3.634
 8929SOL    HW227687   5.166   4.137   3.631
 8930SOL     OW27688   1.028   5.583   5.342
 8930SOL    HW127689   1.026   5.617   5.248
 8930SOL    HW227690   0.945   5.531   5.361
 8931SOL     OW27691   4.892   1.134   1.704
 8931SOL    HW127692   4.940   1.221   1.713
 8931SOL    HW227693   4.885   1.109   1.607
 8932SOL     OW27694   5.590   0.858   0.386
 8932SOL    HW127695   5.507   0.912   0.375
 8932SOL    HW227696   5.576   0.766   0.349
 8933SOL     OW27697   1.123   0.224   5.206
 8933SOL    HW127698   1.188   0.295   5.235
 8933SOL    HW227699   1.074   0.254   5.124
 8934SOL     OW27700   4.189   6.871   4.330
 8934SOL    HW127701   4.206   6.798   4.265
 8934SOL    HW227702   4.264   6.938   4.326
 8935SOL     OW27703   5.954   1.761   2.538
 8935SOL    HW127704   5.990   1.759   2.445
 8935SOL    HW227705   5.902   1.846   2.551
 8936SOL     OW27706   1.411   3.723   2.349
 8936SOL    HW127707   1.387   3.804   2.403
 8936SOL    HW227708   1.451   3.654   2.410
 8937SOL     OW27709   3.915   0.034   4.936
 8937SOL    HW127710   3.999   7.012   4.909
 8937SOL    HW227711   3.931   0.087   5.019
 8938SOL     OW27712   5.653   6.441   1.281
 8938SOL    HW127713   5.624   6.365   1.222
 8938SOL    HW227714   5.707   6.404   1.357
 8939SOL     OW27715   0.448   3.177   4.547
 8939SOL    HW127716   0.447   3.105   4.617
 8939SOL    HW227717   0.377   3.158   4.479
 8940SOL     OW27718   6.707   3.358   2.444
 8940SOL    HW127719   6.734   3.262   2.444
 8940SOL    HW227720   6.777   3.412   2.491
 8941SOL     OW27721   6.042   2.031   3.180
 8941SOL    HW127722   5.993   2.025   3.093
 8941SOL    HW227723   6.040   2.125   3.213
 8942SOL     OW27724   4.970   4.614   3.626
 8942SOL    HW127725   4.931   4.676   3.694
 8942SOL    HW227726   5.032   4.550   3.671
 8943SOL     OW27727   4.564   3.307   0.549
 8943SOL    HW127728   4.560   3.213   0.583
 8943SOL    HW227729   4.659   3.337   0.542
 8944SOL     OW27730   4.330   6.246   5.159
 8944SOL    HW127731   4.344   6.320   5.094
 8944SOL    HW227732   4.311   6.161   5.109
 8945SOL     OW27733   6.573   4.813   1.905
 8945SOL    HW127734   6.665   4.830   1.869
 8945SOL    HW227735   6.523   4.754   1.841
 8946SOL     OW27736   3.605   1.478   4.893
 8946SOL    HW127737   3.690   1.427   4.883
 8946SOL    HW227738   3.616   1.570   4.855
 8947SOL     OW27739   1.784   4.543   0.891
 8947SOL    HW127740   1.867   4.543   0.836
 8947SOL    HW227741   1.800   4.596   0.975
 8948SOL     OW27742   5.294   0.234   2.732
 8948SOL    HW127743   5.313   0.154   2.675
 8948SOL    HW227744   5.375   0.255   2.786
 8949SOL     OW27745   3.567   6.369   1.048
 8949SOL    HW127746   3.515   6.357   0.963
 8949SOL    HW227747   3.576   6.467   1.068
 8950SOL     OW27748   3.406   3.788   2.831
 8950SOL    HW127749   3.327   3.849   2.838
 8950SOL    HW227750   3.379   3.702   2.788
 8951SOL     OW27751   0.511   0.747   3.949
 8951SOL    HW127752   0.546   0.720   4.039
 8951SOL    HW227753   0.483   0.843   3.951
 8952SOL     OW27754   1.612   4.042   4.874
 8952SOL    HW127755   1.700   4.038   4.828
 8952SOL    HW227756   1.541   4.005   4.814
 8953SOL     OW27757   0.389   5.534   1.032
 8953SOL    HW127758   0.485   5.560   1.037
 8953SOL    HW227759   0.381   5.434   1.030
 8954SOL     OW27760   2.182   4.131   5.606
 8954SOL    HW127761   2.225   4.118   5.516
 8954SOL    HW227762   2.241   4.093   5.677
 8955SOL     OW27763   6.185   3.306   5.852
 8955SOL    HW127764   6.169   3.402   5.876
 8955SOL    HW227765   6.128   3.248   5.910
 8956SOL     OW27766   0.664   6.135   0.559
 8956SOL    HW127767   0.579   6.096   0.524
 8956SOL    HW227768   0.676   6.228   0.524
 8957SOL     OW27769   1.543   6.943   2.939
 8957SOL    HW127770   1.580   6.989   2.859
 8957SOL    HW227771   1.461   6.990   2.971
 8958SOL     OW27772   6.786   3.801   4.793
 8958SOL    HW127773   6.769   3.703   4.783
 8958SOL    HW227774   6.832   3.835   4.712
 8959SOL     OW27775   5.021   2.094   3.886
 8959SOL    HW127776   4.974   2.008   3.862
 8959SOL    HW227777   5.033   2.098   3.985
 8960SOL     OW27778   4.943   4.863   2.424
 8960SOL    HW127779   4.872   4.793   2.423
 8960SOL    HW227780   4.960   4.892   2.518
 8961SOL     OW27781   2.617   1.510   5.341
 8961SOL    HW127782   2.694   1.558   5.382
 8961SOL    HW227783   2.558   1.576   5.295
 8962SOL     OW27784   6.929   6.116   2.122
 8962SOL    HW127785   0.002   6.127   2.105
 8962SOL    HW227786   6.912   6.109   2.220
 8963SOL     OW27787   2.805   5.969   6.188
 8963SOL    HW127788   2.762   5.881   6.167
 8963SOL    HW227789   2.795   5.988   6.286
 8964SOL     OW27790   1.514   2.765   3.530
 8964SOL    HW127791   1.565   2.680   3.546
 8964SOL    HW227792   1.556   2.839   3.581
 8965SOL     OW27793   3.512   6.038   0.445
 8965SOL    HW127794   3.445   6.112   0.453
 8965SOL    HW227795   3.563   6.030   0.530
 8966SOL     OW27796   5.548   6.721   5.646
 8966SOL    HW127797   5.526   6.624   5.636
 8966SOL    HW227798   5.464   6.775   5.649
 8967SOL     OW27799   2.790   0.212   2.967
 8967SOL    HW127800   2.865   0.147   2.975
 8967SOL    HW227801   2.703   0.164   2.979
 8968SOL     OW27802   3.292   5.239   2.720
 8968SOL    HW127803   3.320   5.219   2.626
 8968SOL    HW227804   3.195   5.264   2.722
 8969SOL     OW27805   6.903   1.459   2.615
 8969SOL    HW127806   6.810   1.446   2.651
 8969SOL    HW227807   6.941   1.370   2.588
 8970SOL     OW27808   2.365   1.307   3.756
 8970SOL    HW127809   2.420   1.380   3.798
 8970SOL    HW227810   2.320   1.342   3.674
 8971SOL     OW27811   3.389   4.299   1.168
 8971SOL    HW127812   3.338   4.245   1.102
 8971SOL    HW227813   3.327   4.360   1.217
 8972SOL     OW27814   5.841   3.835   6.451
 8972SOL    HW127815   5.755   3.826   6.502
 8972SOL    HW227816   5.821   3.863   6.357
 8973SOL     OW27817   2.682   1.809   3.734
 8973SOL    HW127818   2.660   1.778   3.826
 8973SOL    HW227819   2.662   1.736   3.669
 8974SOL     OW27820   2.056   4.301   4.859
 8974SOL    HW127821   2.007   4.238   4.920
 8974SOL    HW227822   2.142   4.329   4.902
 8975SOL     OW27823   0.384   3.473   6.322
 8975SOL    HW127824   0.363   3.552   6.380
 8975SOL    HW227825   0.364   3.389   6.371
 8976SOL     OW27826   6.181   0.530   1.745
 8976SOL    HW127827   6.106   0.579   1.789
 8976SOL    HW227828   6.266   0.581   1.758
 8977SOL     OW27829   6.751   4.736   6.374
 8977SOL    HW127830   6.842   4.751   6.334
 8977SOL    HW227831   6.682   4.782   6.317
 8978SOL     OW27832   6.520   5.725   5.679
 8978SOL    HW127833   6.590   5.788   5.645
 8978SOL    HW227834   6.564   5.640   5.709
 8979SOL     OW27835   1.865   4.920   3.637
 8979SOL    HW127836   1.791   4.858   3.661
 8979SOL    HW227837   1.856   5.005   3.690
 8980SOL     OW27838   4.130   0.938   0.546
 8980SOL    HW127839   4.127   1.007   0.474
 8980SOL    HW227840   4.077   0.858   0.518
 8981SOL     OW27841   3.703   2.128   0.225
 8981SOL    HW127842   3.801   2.111   0.210
 8981SOL    HW227843   3.692   2.203   0.290
 8982SOL     OW27844   0.419   1.284   2.033
 8982SOL    HW127845   0.324   1.253   2.039
 8982SOL    HW227846   0.466   1.231   1.962
 8983SOL     OW27847   1.101   0.123   2.589
 8983SOL    HW127848   1.110   0.089   2.495
 8983SOL    HW227849   1.143   0.058   2.652
 8984SOL     OW27850   6.396   1.612   4.670
 8984SOL    HW127851   6.355   1.695   4.633
 8984SOL    HW227852   6.327   1.540   4.676
 8985SOL     OW27853   4.852   0.507   2.193
 8985SOL    HW127854   4.952   0.512   2.198
 8985SOL    HW227855   4.822   0.540   2.103
 8986SOL     OW27856   0.026   6.033   6.999
 8986SOL    HW127857   7.012   6.079   6.918
 8986SOL    HW227858   0.035   5.935   6.980
 8987SOL     OW27859   2.661   6.182   2.457
 8987SOL    HW127860   2.621   6.094   2.432
 8987SOL    HW227861   2.587   6.248   2.476
 8988SOL     OW27862   2.456   0.383   0.956
 8988SOL    HW127863   2.453   0.287   0.983
 8988SOL    HW227864   2.363   0.419   0.949
 8989SOL     OW27865   6.084   1.226   2.136
 8989SOL    HW127866   6.181   1.245   2.138
 8989SOL    HW227867   6.065   1.144   2.190
 8990SOL     OW27868   3.564   1.047   2.786
 8990SOL    HW127869   3.646   1.028   2.731
 8990SOL    HW227870   3.561   0.983   2.863
 8991SOL     OW27871   1.173   1.996   1.006
 8991SOL    HW127872   1.190   1.921   1.070
 8991SOL    HW227873   1.253   2.056   1.002
 8992SOL     OW27874   0.003   4.735   5.948
 8992SOL    HW127875   0.043   4.665   6.006
 8992SOL    HW227876   6.953   4.695   5.893
 8993SOL     OW27877   5.125   3.989   3.711
 8993SOL    HW127878   5.094   4.007   3.804
 8993SOL    HW227879   5.223   3.970   3.711
 8994SOL     OW27880   1.047   6.126   2.203
 8994SOL    HW127881   1.088   6.214   2.229
 8994SOL    HW227882   1.089   6.053   2.255
 8995SOL     OW27883   2.177   3.790   3.774
 8995SOL    HW127884   2.255   3.848   3.798
 8995SOL    HW227885   2.106   3.799   3.844
 8996SOL     OW27886   2.237   3.871   1.058
 8996SOL    HW127887   2.173   3.813   1.108
 8996SOL    HW227888   2.219   3.865   0.960
 8997SOL     OW27889   4.500   1.282   5.038
 8997SOL    HW127890   4.524   1.326   4.952
 8997SOL    HW227891   4.414   1.232   5.027
 8998SOL     OW27892   0.952   1.990   6.494
 8998SOL    HW127893   0.995   2.023   6.579
 8998SOL    HW227894   1.023   1.967   6.428
 8999SOL     OW27895   5.503   2.864   5.527
 8999SOL    HW127896   5.472   2.874   5.432
 8999SOL    HW227897   5.458   2.784   5.568
 9000SOL     OW27898   4.264   4.527   1.142
 9000SOL    HW127899   4.240   4.617   1.104
 9000SOL    HW227900   4.318   4.476   1.076
 9001SOL     OW27901   1.392   4.078   3.392
 9001SOL    HW127902   1.458   4.042   3.457
 9001SOL    HW227903   1.416   4.048   3.299
 9002SOL     OW27904   5.444   3.460   5.216
 9002SOL    HW127905   5.458   3.400   5.295
 9002SOL    HW227906   5.473   3.553   5.239
 9003SOL     OW27907   6.337   3.199   6.865
 9003SOL    HW127908   6.266   3.224   6.799
 9003SOL    HW227909   6.426   3.225   6.829
 9004SOL     OW27910   4.623   5.075   0.812
 9004SOL    HW127911   4.596   5.163   0.851
 9004SOL    HW227912   4.718   5.081   0.779
 9005SOL     OW27913   5.241   2.808   3.297
 9005SOL    HW127914   5.325   2.844   3.340
 9005SOL    HW227915   5.200   2.878   3.239
 9006SOL     OW27916   2.448   6.545   1.637
 9006SOL    HW127917   2.364   6.599   1.639
 9006SOL    HW227918   2.444   6.481   1.560
 9007SOL     OW27919   1.980   6.187   5.022
 9007SOL    HW127920   1.928   6.158   5.103
 9007SOL    HW227921   1.969   6.119   4.950
 9008SOL     OW27922   0.161   4.182   1.801
 9008SOL    HW127923   0.137   4.130   1.719
 9008SOL    HW227924   0.217   4.261   1.775
 9009SOL     OW27925   3.983   6.177   6.907
 9009SOL    HW127926   4.004   6.080   6.898
 9009SOL    HW227927   3.887   6.189   6.932
 9010SOL     OW27928   6.734   5.884   4.458
 9010SOL    HW127929   6.825   5.843   4.444
 9010SOL    HW227930   6.680   5.873   4.375
 9011SOL     OW27931   4.584   2.590   2.213
 9011SOL    HW127932   4.534   2.669   2.248
 9011SOL    HW227933   4.665   2.621   2.162
 9012SOL     OW27934   4.968   5.229   2.267
 9012SOL    HW127935   5.028   5.170   2.213
 9012SOL    HW227936   4.969   5.199   2.362
 9013SOL     OW27937   4.919   6.448   2.732
 9013SOL    HW127938   4.962   6.364   2.765
 9013SOL    HW227939   4.835   6.464   2.785
 9014SOL     OW27940   2.787   0.287   1.828
 9014SOL    HW127941   2.840   0.340   1.763
 9014SOL    HW227942   2.763   0.198   1.788
 9015SOL     OW27943   6.044   1.945   4.817
 9015SOL    HW127944   6.034   1.994   4.904
 9015SOL    HW227945   5.964   1.963   4.760
 9016SOL     OW27946   6.883   6.176   6.835
 9016SOL    HW127947   6.940   6.256   6.815
 9016SOL    HW227948   6.808   6.203   6.895
 9017SOL     OW27949   0.111   3.772   2.761
 9017SOL    HW127950   0.126   3.734   2.852
 9017SOL    HW227951   0.194   3.818   2.730
 9018SOL     OW27952   4.879   1.818   6.515
 9018SOL    HW127953   4.833   1.878   6.449
 9018SOL    HW227954   4.812   1.754   6.553
 9019SOL     OW27955   1.629   5.666   0.344
 9019SOL    HW127956   1.561   5.642   0.275
 9019SOL    HW227957   1.685   5.585   0.365
 9020SOL     OW27958   0.634   5.119   3.640
 9020SOL    HW127959   0.613   5.044   3.703
 9020SOL    HW227960   0.732   5.118   3.620
 9021SOL     OW27961   5.746   5.038   5.628
 9021SOL    HW127962   5.833   5.025   5.582
 9021SOL    HW227963   5.736   4.970   5.701
 9022SOL     OW27964   2.744   7.012   6.492
 9022SOL    HW127965   2.715   6.976   6.581
 9022SOL    HW227966   2.819   6.957   6.457
 9023SOL     OW27967   2.963   3.649   3.703
 9023SOL    HW127968   3.061   3.645   3.679
 9023SOL    HW227969   2.950   3.611   3.794
 9024SOL     OW27970   1.031   6.975   6.259
 9024SOL    HW127971   1.109   0.013   6.259
 9024SOL    HW227972   1.030   6.923   6.344
 9025SOL     OW27973   0.368   3.342   6.980
 9025SOL    HW127974   0.434   3.384   6.918
 9025SOL    HW227975   0.411   3.265   0.004
 9026SOL     OW27976   2.737   3.474   5.684
 9026SOL    HW127977   2.713   3.484   5.588
 9026SOL    HW227978   2.831   3.443   5.692
 9027SOL     OW27979   1.620   2.686   2.424
 9027SOL    HW127980   1.556   2.745   2.472
 9027SOL    HW227981   1.611   2.702   2.325
 9028SOL     OW27982   2.432   4.496   4.630
 9028SOL    HW127983   2.439   4.582   4.581
 9028SOL    HW227984   2.440   4.513   4.728
 9029SOL     OW27985   5.757   5.395   2.364
 9029SOL    HW127986   5.726   5.456   2.437
 9029SOL    HW227987   5.830   5.336   2.399
 9030SOL     OW27988   4.396   2.010   2.407
 9030SOL    HW127989   4.461   1.988   2.479
 9030SOL    HW227990   4.348   2.095   2.430
 9031SOL     OW27991   2.577   1.382   1.449
 9031SOL    HW127992   2.520   1.304   1.475
 9031SOL    HW227993   2.520   1.452   1.406
 9032SOL     OW27994   0.422   2.763   2.106
 9032SOL    HW127995   0.466   2.713   2.031
 9032SOL    HW227996   0.442   2.861   2.097
 9033SOL     OW27997   1.342   4.365   2.626
 9033SOL    HW127998   1.349   4.266   2.616
 9033SOL    HW227999   1.245   4.391   2.624
 9034SOL     OW28000   1.870   6.671   6.794
 9034SOL    HW128001   1.898   6.767   6.800
 9034SOL    HW228002   1.951   6.614   6.776
 9035SOL     OW28003   6.451   0.992   4.257
 9035SOL    HW128004   6.536   1.044   4.251
 9035SOL    HW228005   6.373   1.054   4.245
 9036SOL     OW28006   0.786   0.914   4.609
 9036SOL    HW128007   0.841   0.837   4.576
 9036SOL    HW228008   0.816   0.998   4.564
 9037SOL     OW28009   2.460   4.200   5.708
 9037SOL    HW128010   2.406   4.137   5.764
 9037SOL    HW228011   2.400   4.267   5.665
 9038SOL     OW28012   4.853   5.240   5.689
 9038SOL    HW128013   4.830   5.166   5.626
 9038SOL    HW228014   4.770   5.272   5.734
 9039SOL     OW28015   2.440   5.076   6.704
 9039SOL    HW128016   2.411   5.004   6.641
 9039SOL    HW228017   2.384   5.157   6.689
 9040SOL     OW28018   2.625   1.660   2.488
 9040SOL    HW128019   2.529   1.684   2.475
 9040SOL    HW228020   2.677   1.685   2.407
 9041SOL     OW28021   1.550   3.075   5.843
 9041SOL    HW128022   1.458   3.036   5.849
 9041SOL    HW228023   1.617   3.005   5.867
 9042SOL     OW28024   1.321   5.642   2.743
 9042SOL    HW128025   1.413   5.658   2.707
 9042SOL    HW228026   1.312   5.546   2.769
 9043SOL     OW28027   0.303   2.237   6.884
 9043SOL    HW128028   0.396   2.272   6.881
 9043SOL    HW228029   0.238   2.311   6.869
 9044SOL     OW28030   0.156   3.961   0.706
 9044SOL    HW128031   0.208   4.001   0.630
 9044SOL    HW228032   0.148   4.028   0.780
 9045SOL     OW28033   2.290   4.467   4.352
 9045SOL    HW128034   2.325   4.389   4.404
 9045SOL    HW228035   2.229   4.520   4.410
 9046SOL     OW28036   3.552   4.182   6.339
 9046SOL    HW128037   3.631   4.127   6.366
 9046SOL    HW228038   3.584   4.266   6.295
 9047SOL     OW28039   0.438   4.708   4.595
 9047SOL    HW128040   0.410   4.789   4.647
 9047SOL    HW228041   0.357   4.661   4.560
 9048SOL     OW28042   1.550   2.089   5.495
 9048SOL    HW128043   1.581   2.126   5.408
 9048SOL    HW228044   1.531   2.164   5.559
 9049SOL     OW28045   4.697   6.298   6.096
 9049SOL    HW128046   4.689   6.237   6.017
 9049SOL    HW228047   4.791   6.330   6.102
 9050SOL     OW28048   0.038   5.268   5.711
 9050SOL    HW128049   0.027   5.170   5.691
 9050SOL    HW228050   0.127   5.298   5.677
 9051SOL     OW28051   5.645   6.933   6.322
 9051SOL    HW128052   5.715   6.885   6.375
 9051SOL    HW228053   5.608   6.871   6.252
 9052SOL     OW28054   2.870   4.865   4.893
 9052SOL    HW128055   2.796   4.931   4.907
 9052SOL    HW228056   2.872   4.800   4.968
 9053SOL     OW28057   2.753   1.230   2.984
 9053SOL    HW128058   2.723   1.137   3.006
 9053SOL    HW228059   2.792   1.231   2.891
 9054SOL     OW28060   1.928   0.075   1.313
 9054SOL    HW128061   1.979   7.014   1.311
 9054SOL    HW228062   1.989   0.150   1.340
 9055SOL     OW28063   0.827   2.264   4.609
 9055SOL    HW128064   0.782   2.319   4.539
 9055SOL    HW228065   0.877   2.189   4.565
 9056SOL     OW28066   4.392   2.329   1.916
 9056SOL    HW128067   4.348   2.311   2.004
 9056SOL    HW228068   4.436   2.419   1.919
 9057SOL     OW28069   3.322   6.520   6.742
 9057SOL    HW128070   3.278   6.457   6.806
 9057SOL    HW228071   3.333   6.609   6.786
 9058SOL     OW28072   2.436   1.987   4.611
 9058SOL    HW128073   2.504   1.914   4.622
 9058SOL    HW228074   2.410   1.996   4.515
 9059SOL     OW28075   6.860   1.242   2.197
 9059SOL    HW128076   6.898   1.314   2.139
 9059SOL    HW228077   6.765   1.225   2.171
 9060SOL     OW28078   6.876   4.882   0.954
 9060SOL    HW128079   6.863   4.814   1.026
 9060SOL    HW228080   6.788   4.911   0.918
 9061SOL     OW28081   4.715   4.348   2.209
 9061SOL    HW128082   4.755   4.264   2.247
 9061SOL    HW228083   4.646   4.324   2.141
 9062SOL     OW28084   0.608   5.416   3.149
 9062SOL    HW128085   0.531   5.476   3.127
 9062SOL    HW228086   0.577   5.340   3.206
 9063SOL     OW28087   4.692   0.754   0.859
 9063SOL    HW128088   4.684   0.767   0.957
 9063SOL    HW228089   4.602   0.741   0.819
 9064SOL     OW28090   0.996   5.679   3.095
 9064SOL    HW128091   0.928   5.750   3.115
 9064SOL    HW228092   0.959   5.590   3.119
 9065SOL     OW28093   3.590   4.022   7.017
 9065SOL    HW128094   3.671   3.969   0.020
 9065SOL    HW228095   3.537   4.045   0.074
 9066SOL     OW28096   5.182   4.912   3.739
 9066SOL    HW128097   5.131   4.896   3.654
 9066SOL    HW228098   5.140   4.987   3.790
 9067SOL     OW28099   2.215   6.555   4.368
 9067SOL    HW128100   2.294   6.494   4.359
 9067SOL    HW228101   2.138   6.503   4.404
 9068SOL     OW28102   4.634   6.788   6.229
 9068SOL    HW128103   4.709   6.786   6.163
 9068SOL    HW228104   4.603   6.882   6.241
 9069SOL     OW28105   5.027   2.384   1.945
 9069SOL    HW128106   5.047   2.475   1.909
 9069SOL    HW228107   4.980   2.392   2.033
 9070SOL     OW28108   2.221   0.921   5.900
 9070SOL    HW128109   2.170   0.835   5.895
 9070SOL    HW228110   2.175   0.991   5.846
 9071SOL     OW28111   4.526   2.526   6.519
 9071SOL    HW128112   4.581   2.579   6.455
 9071SOL    HW228113   4.468   2.588   6.573
 9072SOL     OW28114   6.244   0.347   1.948
 9072SOL    HW128115   6.183   0.269   1.944
 9072SOL    HW228116   6.232   0.402   1.865
 9073SOL     OW28117   4.729   3.076   5.794
 9073SOL    HW128118   4.815   3.102   5.749
 9073SOL    HW228119   4.687   3.001   5.744
 9074SOL     OW28120   2.005   1.157   3.657
 9074SOL    HW128121   2.073   1.112   3.715
 9074SOL    HW228122   2.036   1.156   3.562
 9075SOL     OW28123   4.900   5.036   0.444
 9075SOL    HW128124   4.974   4.969   0.437
 9075SOL    HW228125   4.908   5.102   0.370
 9076SOL     OW28126   1.285   6.202   2.597
 9076SOL    HW128127   1.240   6.237   2.679
 9076SOL    HW228128   1.276   6.103   2.594
 9077SOL     OW28129   6.595   1.653   6.245
 9077SOL    HW128130   6.619   1.673   6.150
 9077SOL    HW228131   6.678   1.657   6.302
 9078SOL     OW28132   4.900   6.822   0.427
 9078SOL    HW128133   4.995   6.793   0.437
 9078SOL    HW228134   4.862   6.844   0.517
 9079SOL     OW28135   1.366   1.185   6.246
 9079SOL    HW128136   1.439   1.238   6.290
 9079SOL    HW228137   1.390   1.088   6.246
 9080SOL     OW28138   6.898   4.483   2.487
 9080SOL    HW128139   6.964   4.544   2.443
 9080SOL    HW228140   6.809   4.491   2.442
 9081SOL     OW28141   4.900   1.533   0.381
 9081SOL    HW128142   4.979   1.513   0.439
 9081SOL    HW228143   4.827   1.573   0.437
 9082SOL     OW28144   3.477   4.408   6.677
 9082SOL    HW128145   3.494   4.394   6.774
 9082SOL    HW228146   3.383   4.441   6.663
 9083SOL     OW28147   3.372   0.553   0.723
 9083SOL    HW128148   3.441   0.603   0.776
 9083SOL    HW228149   3.402   0.545   0.629
 9084SOL     OW28150   6.555   3.963   4.827
 9084SOL    HW128151   6.495   3.928   4.899
 9084SOL    HW228152   6.640   3.911   4.827
 9085SOL     OW28153   2.649   4.770   1.015
 9085SOL    HW128154   2.623   4.733   1.104
 9085SOL    HW228155   2.748   4.788   1.014
 9086SOL     OW28156   6.688   3.080   0.425
 9086SOL    HW128157   6.591   3.055   0.422
 9086SOL    HW228158   6.698   3.172   0.463
 9087SOL     OW28159   4.942   1.661   1.710
 9087SOL    HW128160   4.887   1.726   1.763
 9087SOL    HW228161   5.018   1.709   1.667
 9088SOL     OW28162   5.633   5.961   0.164
 9088SOL    HW128163   5.656   5.960   0.262
 9088SOL    HW228164   5.534   5.952   0.153
 9089SOL     OW28165   5.535   4.991   3.152
 9089SOL    HW128166   5.572   4.925   3.217
 9089SOL    HW228167   5.516   4.945   3.066
 9090SOL     OW28168   5.494   5.862   5.841
 9090SOL    HW128169   5.471   5.899   5.931
 9090SOL    HW228170   5.562   5.789   5.851
 9091SOL     OW28171   2.809   2.062   2.029
 9091SOL    HW128172   2.843   2.156   2.031
 9091SOL    HW228173   2.829   2.023   1.939
 9092SOL     OW28174   2.331   1.683   4.959
 9092SOL    HW128175   2.341   1.777   4.927
 9092SOL    HW228176   2.357   1.620   4.886
 9093SOL     OW28177   2.031   3.617   0.711
 9093SOL    HW128178   1.965   3.624   0.637
 9093SOL    HW228179   2.107   3.558   0.682
 9094SOL     OW28180   6.717   3.326   0.532
 9094SOL    HW128181   6.777   3.343   0.610
 9094SOL    HW228182   6.712   3.408   0.475
 9095SOL     OW28183   2.231   2.882   0.198
 9095SOL    HW128184   2.166   2.806   0.200
 9095SOL    HW228185   2.288   2.876   0.116
 9096SOL     OW28186   6.513   3.935   3.183
 9096SOL    HW128187   6.567   4.015   3.208
 9096SOL    HW228188   6.485   3.943   3.087
 9097SOL     OW28189   6.337   6.265   5.837
 9097SOL    HW128190   6.352   6.352   5.885
 9097SOL    HW228191   6.345   6.189   5.902
 9098SOL     OW28192   3.702   3.675   4.670
 9098SOL    HW128193   3.748   3.756   4.635
 9098SOL    HW228194   3.748   3.593   4.636
 9099SOL     OW28195   1.669   2.066   6.807
 9099SOL    HW128196   1.746   2.012   6.842
 9099SOL    HW228197   1.660   2.149   6.863
 9100SOL     OW28198   1.534   2.946   0.362
 9100SOL    HW128199   1.475   2.938   0.282
 9100SOL    HW228200   1.613   2.886   0.351
 9101SOL     OW28201   1.958   2.151   6.772
 9101SOL    HW128202   1.942   2.248   6.785
 9101SOL    HW228203   1.921   2.123   6.683
 9102SOL     OW28204   5.142   6.324   2.610
 9102SOL    HW128205   5.104   6.415   2.622
 9102SOL    HW228206   5.136   6.297   2.514
 9103SOL     OW28207   0.576   4.673   6.183
 9103SOL    HW128208   0.666   4.630   6.193
 9103SOL    HW228209   0.553   4.721   6.268
 9104SOL     OW28210   5.396   6.839   3.063
 9104SOL    HW128211   5.428   6.933   3.079
 9104SOL    HW228212   5.346   6.807   3.143
 9105SOL     OW28213   2.395   1.800   5.640
 9105SOL    HW128214   2.387   1.700   5.633
 9105SOL    HW228215   2.428   1.837   5.553
 9106SOL     OW28216   6.612   5.108   2.262
 9106SOL    HW128217   6.645   5.016   2.240
 9106SOL    HW228218   6.517   5.103   2.291
 9107SOL     OW28219   5.052   0.158   0.102
 9107SOL    HW128220   5.143   0.148   0.061
 9107SOL    HW228221   5.053   0.232   0.169
 9108SOL     OW28222   3.538   5.950   7.001
 9108SOL    HW128223   3.548   5.875   6.936
 9108SOL    HW228224   3.443   5.956   0.007
 9109SOL     OW28225   2.905   1.228   4.616
 9109SOL    HW128226   2.911   1.147   4.557
 9109SOL    HW228227   2.839   1.210   4.689
 9110SOL     OW28228   1.541   3.256   3.313
 9110SOL    HW128229   1.536   3.293   3.221
 9110SOL    HW228230   1.558   3.331   3.378
 9111SOL     OW28231   4.261   4.088   1.653
 9111SOL    HW128232   4.170   4.055   1.680
 9111SOL    HW228233   4.302   4.137   1.730
 9112SOL     OW28234   0.966   5.698   1.792
 9112SOL    HW128235   0.918   5.660   1.713
 9112SOL    HW228236   1.063   5.708   1.770
 9113SOL     OW28237   2.882   5.907   6.911
 9113SOL    HW128238   2.826   5.969   6.966
 9113SOL    HW228239   2.826   5.867   6.838
 9114SOL     OW28240   2.820   4.011   1.633
 9114SOL    HW128241   2.759   4.077   1.590
 9114SOL    HW228242   2.896   3.990   1.570
 9115SOL     OW28243   1.934   4.413   4.189
 9115SOL    HW128244   1.991   4.495   4.188
 9115SOL    HW228245   1.931   4.373   4.098
 9116SOL     OW28246   2.053   1.911   6.224
 9116SOL    HW128247   2.058   1.904   6.124
 9116SOL    HW228248   1.992   1.986   6.249
 9117SOL     OW28249   6.977   3.380   0.036
 9117SOL    HW128250   6.891   3.383   0.088
 9117SOL    HW228251   0.007   3.460   0.057
 9118SOL     OW28252   0.311   5.533   1.299
 9118SOL    HW128253   0.350   5.549   1.209
 9118SOL    HW228254   0.216   5.501   1.289
 9119SOL     OW28255   6.444   0.565   0.656
 9119SOL    HW128256   6.360   0.587   0.608
 9119SOL    HW228257   6.434   0.587   0.753
 9120SOL     OW28258   6.229   0.908   6.653
 9120SOL    HW128259   6.249   0.996   6.609
 9120SOL    HW228260   6.137   0.909   6.690
 9121SOL     OW28261   1.822   1.045   6.455
 9121SOL    HW128262   1.901   1.083   6.406
 9121SOL    HW228263   1.826   1.074   6.551
 9122SOL     OW28264   1.177   2.361   0.707
 9122SOL    HW128265   1.185   2.331   0.612
 9122SOL    HW228266   1.159   2.282   0.765
 9123SOL     OW28267   2.847   6.469   6.995
 9123SOL    HW128268   2.904   6.436   6.919
 9123SOL    HW228269   2.817   6.392   0.026
 9124SOL     OW28270   6.075   4.735   5.848
 9124SOL    HW128271   6.028   4.747   5.761
 9124SOL    HW228272   6.035   4.658   5.897
 9125SOL     OW28273   4.867   5.796   1.390
 9125SOL    HW128274   4.841   5.700   1.405
 9125SOL    HW228275   4.896   5.836   1.476
 9126SOL     OW28276   5.575   0.007   2.260
 9126SOL    HW128277   5.657   7.008   2.208
 9126SOL    HW228278   5.496   6.981   2.224
 9127SOL     OW28279   5.031   6.256   6.477
 9127SOL    HW128280   4.981   6.273   6.392
 9127SOL    HW228281   5.024   6.159   6.501
 9128SOL     OW28282   5.043   2.920   5.259
 9128SOL    HW128283   4.973   2.920   5.188
 9128SOL    HW228284   5.121   2.974   5.229
 9129SOL     OW28285   1.874   1.743   6.584
 9129SOL    HW128286   1.886   1.816   6.516
 9129SOL    HW228287   1.787   1.755   6.630
 9130SOL     OW28288   6.265   5.702   1.235
 9130SOL    HW128289   6.179   5.683   1.187
 9130SOL    HW228290   6.252   5.782   1.294
 9131SOL     OW28291   0.581   4.294   3.867
 9131SOL    HW128292   0.649   4.226   3.837
 9131SOL    HW228293   0.555   4.275   3.962
 9132SOL     OW28294   1.427   3.272   4.389
 9132SOL    HW128295   1.371   3.212   4.446
 9132SOL    HW228296   1.503   3.219   4.351
 9133SOL     OW28297   1.649   4.798   1.442
 9133SOL    HW128298   1.652   4.747   1.356
 9133SOL    HW228299   1.584   4.756   1.505
 9134SOL     OW28300   2.825   4.935   6.042
 9134SOL    HW128301   2.907   4.981   6.007
 9134SOL    HW228302   2.788   4.987   6.119
 9135SOL     OW28303   0.564   6.231   3.942
 9135SOL    HW128304   0.576   6.177   3.859
 9135SOL    HW228305   0.489   6.296   3.928
 9136SOL     OW28306   3.618   5.495   5.424
 9136SOL    HW128307   3.696   5.553   5.402
 9136SOL    HW228308   3.651   5.407   5.459
 9137SOL     OW28309   4.372   0.679   1.768
 9137SOL    HW128310   4.343   0.758   1.823
 9137SOL    HW228311   4.302   0.608   1.774
 9138SOL     OW28312   3.563   4.397   0.964
 9138SOL    HW128313   3.517   4.333   1.025
 9138SOL    HW228314   3.593   4.477   1.015
 9139SOL     OW28315   3.391   1.140   5.426
 9139SOL    HW128316   3.385   1.197   5.508
 9139SOL    HW228317   3.482   1.150   5.386
 9140SOL     OW28318   6.763   2.144   3.821
 9140SOL    HW128319   6.742   2.107   3.730
 9140SOL    HW228320   6.834   2.089   3.864
 9141SOL     OW28321   5.671   0.696   5.732
 9141SOL    HW128322   5.728   0.628   5.685
 9141SOL    HW228323   5.713   0.719   5.820
 9142SOL     OW28324   1.595   4.222   6.200
 9142SOL    HW128325   1.669   4.228   6.267
 9142SOL    HW228326   1.512   4.262   6.239
 9143SOL     OW28327   5.423   4.121   1.422
 9143SOL    HW128328   5.508   4.076   1.396
 9143SOL    HW228329   5.348   4.085   1.367
 9144SOL     OW28330   1.179   4.644   4.770
 9144SOL    HW128331   1.155   4.547   4.772
 9144SOL    HW228332   1.233   4.666   4.852
 9145SOL     OW28333   0.235   3.936   6.736
 9145SOL    HW128334   0.174   3.940   6.657
 9145SOL    HW228335   0.319   3.988   6.716
 9146SOL     OW28336   0.345   1.591   1.601
 9146SOL    HW128337   0.444   1.581   1.597
 9146SOL    HW228338   0.318   1.624   1.692
 9147SOL     OW28339   4.552   6.287   6.323
 9147SOL    HW128340   4.457   6.312   6.306
 9147SOL    HW228341   4.604   6.293   6.238
 9148SOL     OW28342   3.336   5.450   2.927
 9148SOL    HW128343   3.371   5.375   2.870
 9148SOL    HW228344   3.241   5.430   2.952
 9149SOL     OW28345   5.888   3.392   3.968
 9149SOL    HW128346   5.795   3.425   3.980
 9149SOL    HW228347   5.931   3.439   3.892
 9150SOL     OW28348   4.475   1.382   3.065
 9150SOL    HW128349   4.440   1.295   3.098
 9150SOL    HW228350   4.518   1.432   3.140
 9151SOL     OW28351   1.114   3.408   2.336
 9151SOL    HW128352   1.144   3.314   2.319
 9151SOL    HW228353   1.075   3.446   2.252
 9152SOL     OW28354   2.345   5.493   3.235
 9152SOL    HW128355   2.276   5.424   3.260
 9152SOL    HW228356   2.300   5.582   3.222
 9153SOL     OW28357   1.559   3.000   6.488
 9153SOL    HW128358   1.642   3.055   6.495
 9153SOL    HW228359   1.491   3.049   6.435
 9154SOL     OW28360   1.913   5.681   0.066
 9154SOL    HW128361   1.928   5.767   0.018
 9154SOL    HW228362   1.816   5.656   0.060
 9155SOL     OW28363   1.292   4.285   0.380
 9155SOL    HW128364   1.284   4.359   0.313
 9155SOL    HW228365   1.202   4.264   0.417
 9156SOL     OW28366   5.167   2.444   1.649
 9156SOL    HW128367   5.246   2.505   1.655
 9156SOL    HW228368   5.084   2.494   1.677
 9157SOL     OW28369   5.093   4.065   6.025
 9157SOL    HW128370   5.090   4.147   6.082
 9157SOL    HW228371   5.175   4.067   5.967
 9158SOL     OW28372   0.520   3.625   3.095
 9158SOL    HW128373   0.613   3.645   3.127
 9158SOL    HW228374   0.517   3.533   3.057
 9159SOL     OW28375   6.733   4.767   2.896
 9159SOL    HW128376   6.782   4.836   2.843
 9159SOL    HW228377   6.755   4.676   2.862
 9160SOL     OW28378   0.021   6.982   0.479
 9160SOL    HW128379   6.948   6.968   0.459
 9160SOL    HW228380   0.031   0.022   0.555
 9161SOL     OW28381   5.496   3.859   3.605
 9161SOL    HW128382   5.544   3.784   3.559
 9161SOL    HW228383   5.544   3.882   3.690
 9162SOL     OW28384   5.172   1.564   2.199
 9162SOL    HW128385   5.186   1.624   2.120
 9162SOL    HW228386   5.077   1.532   2.200
 9163SOL     OW28387   3.307   1.317   4.445
 9163SOL    HW128388   3.353   1.310   4.533
 9163SOL    HW228389   3.209   1.331   4.460
 9164SOL     OW28390   2.645   0.253   0.119
 9164SOL    HW128391   2.697   0.330   0.083
 9164SOL    HW228392   2.620   0.271   0.214
 9165SOL     OW28393   4.785   6.179   0.472
 9165SOL    HW128394   4.816   6.106   0.533
 9165SOL    HW228395   4.710   6.229   0.515
 9166SOL     OW28396   3.099   5.426   1.402
 9166SOL    HW128397   3.111   5.329   1.426
 9166SOL    HW228398   3.069   5.477   1.482
 9167SOL     OW28399   0.438   4.083   5.119
 9167SOL    HW128400   0.530   4.120   5.106
 9167SOL    HW228401   0.372   4.142   5.073
 9168SOL     OW28402   2.402   0.241   6.425
 9168SOL    HW128403   2.489   0.283   6.451
 9168SOL    HW228404   2.389   0.157   6.477
 9169SOL     OW28405   6.752   6.872   3.055
 9169SOL    HW128406   6.809   6.855   3.135
 9169SOL    HW228407   6.677   6.806   3.053
 9170SOL     OW28408   6.320   6.039   6.751
 9170SOL    HW128409   6.250   5.988   6.700
 9170SOL    HW228410   6.306   6.137   6.738
 9171SOL     OW28411   2.892   5.583   5.826
 9171SOL    HW128412   2.863   5.577   5.730
 9171SOL    HW228413   2.928   5.495   5.855
 9172SOL     OW28414   2.580   2.481   4.179
 9172SOL    HW128415   2.495   2.524   4.149
 9172SOL    HW228416   2.583   2.476   4.279
 9173SOL     OW28417   0.464   4.836   5.310
 9173SOL    HW128418   0.533   4.903   5.338
 9173SOL    HW228419   0.390   4.882   5.262
 9174SOL     OW28420   0.300   5.477   0.270
 9174SOL    HW128421   0.207   5.511   0.284
 9174SOL    HW228422   0.344   5.461   0.358
 9175SOL     OW28423   1.826   6.783   5.157
 9175SOL    HW128424   1.851   6.779   5.254
 9175SOL    HW228425   1.769   6.703   5.135
 9176SOL     OW28426   1.454   1.402   5.600
 9176SOL    HW128427   1.431   1.312   5.562
 9176SOL    HW228428   1.551   1.420   5.585
 9177SOL     OW28429   0.872   4.434   3.875
 9177SOL    HW128430   0.783   4.390   3.863
 9177SOL    HW228431   0.907   4.463   3.786
 9178SOL     OW28432   1.905   4.521   0.408
 9178SOL    HW128433   1.881   4.503   0.312
 9178SOL    HW228434   1.951   4.610   0.414
 9179SOL     OW28435   2.499   4.530   4.914
 9179SOL    HW128436   2.522   4.588   4.993
 9179SOL    HW228437   2.563   4.453   4.910
 9180SOL     OW28438   5.209   1.843   2.515
 9180SOL    HW128439   5.149   1.922   2.526
 9180SOL    HW228440   5.243   1.841   2.421
 9181SOL     OW28441   3.939   1.702   2.275
 9181SOL    HW128442   3.959   1.760   2.197
 9181SOL    HW228443   3.938   1.606   2.247
 9182SOL     OW28444   1.715   6.829   1.721
 9182SOL    HW128445   1.785   6.764   1.690
 9182SOL    HW228446   1.758   6.902   1.773
 9183SOL     OW28447   5.213   5.645   6.636
 9183SOL    HW128448   5.271   5.708   6.584
 9183SOL    HW228449   5.129   5.692   6.664
 9184SOL     OW28450   4.802   7.019   0.155
 9184SOL    HW128451   4.805   6.919   0.150
 9184SOL    HW228452   4.893   0.032   0.134
 9185SOL     OW28453   4.390   1.079   5.207
 9185SOL    HW128454   4.397   1.148   5.279
 9185SOL    HW228455   4.299   1.082   5.166
 9186SOL     OW28456   5.553   0.267   6.534
 9186SOL    HW128457   5.564   0.170   6.555
 9186SOL    HW228458   5.471   0.279   6.477
 9187SOL     OW28459   2.980   6.243   2.346
 9187SOL    HW128460   2.998   6.219   2.441
 9187SOL    HW228461   2.900   6.193   2.313
 9188SOL     OW28462   2.425   6.269   1.210
 9188SOL    HW128463   2.477   6.243   1.128
 9188SOL    HW228464   2.329   6.247   1.197
 9189SOL     OW28465   5.606   4.737   2.172
 9189SOL    HW128466   5.650   4.657   2.212
 9189SOL    HW228467   5.584   4.720   2.076
 9190SOL     OW28468   1.505   5.252   1.481
 9190SOL    HW128469   1.537   5.271   1.388
 9190SOL    HW228470   1.455   5.332   1.515
 9191SOL     OW28471   6.981   0.541   6.273
 9191SOL    HW128472   0.032   0.579   6.220
 9191SOL    HW228473   7.013   0.462   6.325
 9192SOL     OW28474   0.627   3.838   4.215
 9192SOL    HW128475   0.666   3.862   4.304
 9192SOL    HW228476   0.700   3.821   4.149
 9193SOL     OW28477   2.435   3.358   6.881
 9193SOL    HW128478   2.429   3.262   6.853
 9193SOL    HW228479   2.345   3.390   6.910
 9194SOL     OW28480   3.177   0.226   4.406
 9194SOL    HW128481   3.263   0.274   4.424
 9194SOL    HW228482   3.196   0.144   4.353
 9195SOL     OW28483   1.689   1.005   4.028
 9195SOL    HW128484   1.704   1.014   3.929
 9195SOL    HW228485   1.725   1.086   4.074
 9196SOL     OW28486   5.090   2.128   5.605
 9196SOL    HW128487   5.024   2.063   5.569
 9196SOL    HW228488   5.059   2.162   5.694
 9197SOL     OW28489   2.707   3.671   1.259
 9197SOL    HW128490   2.657   3.585   1.250
 9197SOL    HW228491   2.653   3.735   1.313
 9198SOL     OW28492   0.086   4.821   3.656
 9198SOL    HW128493   0.158   4.882   3.691
 9198SOL    HW228494   0.018   4.875   3.607
 9199SOL     OW28495   6.011   4.582   4.984
 9199SOL    HW128496   6.079   4.518   4.948
 9199SOL    HW228497   5.922   4.537   4.990
 9200SOL     OW28498   3.100   0.575   0.123
 9200SOL    HW128499   3.150   0.488   0.129
 9200SOL    HW228500   3.165   0.650   0.128
 9201SOL     OW28501   1.767   4.422   0.214
 9201SOL    HW128502   1.760   4.346   0.151
 9201SOL    HW228503   1.696   4.414   0.285
 9202SOL     OW28504   2.544   0.831   3.907
 9202SOL    HW128505   2.550   0.921   3.863
 9202SOL    HW228506   2.571   0.761   3.842
 9203SOL     OW28507   6.472   6.725   0.926
 9203SOL    HW128508   6.385   6.724   0.976
 9203SOL    HW228509   6.504   6.631   0.915
 9204SOL     OW28510   5.051   0.305   5.712
 9204SOL    HW128511   4.999   0.378   5.758
 9204SOL    HW228512   4.988   0.239   5.671
 9205SOL     OW28513   0.220   4.930   1.503
 9205SOL    HW128514   0.282   4.861   1.467
 9205SOL    HW228515   0.153   4.955   1.433
 9206SOL     OW28516   3.426   6.351   0.805
 9206SOL    HW128517   3.329   6.347   0.784
 9206SOL    HW228518   3.478   6.300   0.736
 9207SOL     OW28519   5.512   5.542   6.946
 9207SOL    HW128520   5.484   5.536   0.017
 9207SOL    HW228521   5.611   5.549   6.940
 9208SOL     OW28522   1.264   3.819   2.903
 9208SOL    HW128523   1.262   3.724   2.873
 9208SOL    HW228524   1.358   3.844   2.928
 9209SOL     OW28525   3.160   0.123   6.338
 9209SOL    HW128526   3.250   0.151   6.305
 9209SOL    HW228527   3.093   0.195   6.318
 9210SOL     OW28528   6.898   0.452   3.706
 9210SOL    HW128529   6.998   0.457   3.706
 9210SOL    HW228530   6.864   0.460   3.799
 9211SOL     OW28531   0.641   1.556   2.487
 9211SOL    HW128532   0.636   1.553   2.587
 9211SOL    HW228533   0.680   1.644   2.459
 9212SOL     OW28534   3.337   5.016   4.831
 9212SOL    HW128535   3.326   5.077   4.909
 9212SOL    HW228536   3.248   4.999   4.789
 9213SOL     OW28537   6.101   4.296   6.549
 9213SOL    HW128538   6.097   4.296   6.449
 9213SOL    HW228539   6.188   4.336   6.579
 9214SOL     OW28540   0.293   4.811   0.824
 9214SOL    HW128541   0.281   4.714   0.802
 9214SOL    HW228542   0.294   4.864   0.740
 9215SOL     OW28543   1.365   1.024   1.116
 9215SOL    HW128544   1.380   1.037   1.214
 9215SOL    HW228545   1.320   1.104   1.078
 9216SOL     OW28546   2.111   0.033   3.010
 9216SOL    HW128547   2.091   0.079   3.096
 9216SOL    HW228548   2.034   6.998   2.985
 9217SOL     OW28549   0.658   2.866   0.230
 9217SOL    HW128550   0.725   2.827   0.292
 9217SOL    HW228551   0.677   2.963   0.216
 9218SOL     OW28552   2.427   1.177   0.344
 9218SOL    HW128553   2.476   1.162   0.258
 9218SOL    HW228554   2.492   1.205   0.415
 9219SOL     OW28555   0.545   1.420   0.542
 9219SOL    HW128556   0.455   1.426   0.498
 9219SOL    HW228557   0.553   1.491   0.612
 9220SOL     OW28558   3.265   6.248   1.621
 9220SOL    HW128559   3.320   6.259   1.704
 9220SOL    HW228560   3.198   6.175   1.634
 9221SOL     OW28561   2.520   4.861   4.651
 9221SOL    HW128562   2.533   4.900   4.560
 9221SOL    HW228563   2.587   4.788   4.666
 9222SOL     OW28564   2.849   2.058   5.828
 9222SOL    HW128565   2.803   2.144   5.808
 9222SOL    HW228566   2.793   1.982   5.796
 9223SOL     OW28567   2.771   3.108   5.347
 9223SOL    HW128568   2.754   3.195   5.394
 9223SOL    HW228569   2.695   3.088   5.285
 9224SOL     OW28570   2.124   4.981   5.116
 9224SOL    HW128571   2.060   5.013   5.046
 9224SOL    HW228572   2.074   4.959   5.200
 9225SOL     OW28573   1.940   6.956   6.825
 9225SOL    HW128574   1.992   0.012   6.854
 9225SOL    HW228575   1.955   6.939   6.728
 9226SOL     OW28576   3.842   6.383   1.083
 9226SOL    HW128577   3.746   6.407   1.066
 9226SOL    HW228578   3.878   6.333   1.004
 9227SOL     OW28579   1.897   6.387   1.323
 9227SOL    HW128580   1.886   6.371   1.422
 9227SOL    HW228581   1.990   6.416   1.304
 9228SOL     OW28582   0.557   0.461   0.038
 9228SOL    HW128583   0.603   0.417   6.986
 9228SOL    HW228584   0.621   0.522   0.085
 9229SOL     OW28585   0.547   5.823   5.749
 9229SOL    HW128586   0.470   5.763   5.770
 9229SOL    HW228587   0.622   5.768   5.712
 9230SOL     OW28588   5.459   0.910   3.978
 9230SOL    HW128589   5.403   0.831   4.001
 9230SOL    HW228590   5.549   0.879   3.946
 9231SOL     OW28591   1.845   3.375   3.120
 9231SOL    HW128592   1.936   3.410   3.097
 9231SOL    HW228593   1.843   3.347   3.216
 9232SOL     OW28594   4.528   4.757   1.542
 9232SOL    HW128595   4.503   4.690   1.471
 9232SOL    HW228596   4.501   4.849   1.512
 9233SOL     OW28597   4.644   4.744   1.234
 9233SOL    HW128598   4.623   4.753   1.136
 9233SOL    HW228599   4.591   4.668   1.272
 9234SOL     OW28600   2.176   6.093   3.568
 9234SOL    HW128601   2.139   6.109   3.476
 9234SOL    HW228602   2.142   6.163   3.630
 9235SOL     OW28603   0.667   2.204   3.443
 9235SOL    HW128604   0.634   2.184   3.535
 9235SOL    HW228605   0.624   2.142   3.377
 9236SOL     OW28606   3.725   2.776   5.521
 9236SOL    HW128607   3.812   2.733   5.495
 9236SOL    HW228608   3.651   2.711   5.506
 9237SOL     OW28609   1.705   3.334   3.949
 9237SOL    HW128610   1.745   3.342   3.857
 9237SOL    HW228611   1.606   3.328   3.942
 9238SOL     OW28612   4.352   3.452   6.388
 9238SOL    HW128613   4.276   3.501   6.346
 9238SOL    HW228614   4.371   3.369   6.336
 9239SOL     OW28615   1.908   3.892   6.683
 9239SOL    HW128616   1.930   3.981   6.645
 9239SOL    HW228617   1.808   3.883   6.692
 9240SOL     OW28618   4.873   0.936   2.340
 9240SOL    HW128619   4.939   0.889   2.281
 9240SOL    HW228620   4.781   0.920   2.305
 9241SOL     OW28621   0.472   5.643   0.135
 9241SOL    HW128622   0.424   5.556   0.139
 9241SOL    HW228623   0.410   5.718   0.157
 9242SOL     OW28624   6.462   5.809   1.839
 9242SOL    HW128625   6.493   5.890   1.887
 9242SOL    HW228626   6.384   5.833   1.780
 9243SOL     OW28627   6.108   6.281   4.896
 9243SOL    HW128628   6.108   6.189   4.855
 9243SOL    HW228629   6.027   6.331   4.866
 9244SOL     OW28630   3.186   5.651   0.537
 9244SOL    HW128631   3.168   5.598   0.454
 9244SOL    HW228632   3.281   5.684   0.534
 9245SOL     OW28633   0.406   6.132   1.247
 9245SOL    HW128634   0.439   6.226   1.244
 9245SOL    HW228635   0.385   6.107   1.342
 9246SOL     OW28636   0.108   4.751   3.942
 9246SOL    HW128637   0.026   4.807   3.933
 9246SOL    HW228638   0.148   4.735   3.852
 9247SOL     OW28639   1.959   6.884   2.568
 9247SOL    HW128640   1.938   6.931   2.654
 9247SOL    HW228641   1.881   6.894   2.506
 9248SOL     OW28642   3.675   1.884   6.215
 9248SOL    HW128643   3.723   1.904   6.129
 9248SOL    HW228644   3.739   1.842   6.280
 9249SOL     OW28645   4.399   6.615   2.818
 9249SOL    HW128646   4.486   6.581   2.783
 9249SOL    HW228647   4.345   6.653   2.742
 9250SOL     OW28648   5.714   3.702   3.493
 9250SOL    HW128649   5.770   3.732   3.570
 9250SOL    HW228650   5.740   3.753   3.411
 9251SOL     OW28651   4.134   1.880   3.221
 9251SOL    HW128652   4.152   1.886   3.319
 9251SOL    HW228653   4.036   1.892   3.204
 9252SOL     OW28654   1.497   6.685   4.576
 9252SOL    HW128655   1.549   6.600   4.581
 9252SOL    HW228656   1.475   6.704   4.480
 9253SOL     OW28657   1.364   6.884   5.596
 9253SOL    HW128658   1.414   6.967   5.573
 9253SOL    HW228659   1.335   6.888   5.692
 9254SOL     OW28660   5.593   3.327   1.465
 9254SOL    HW128661   5.544   3.353   1.548
 9254SOL    HW228662   5.549   3.368   1.385
 9255SOL     OW28663   0.049   4.743   0.309
 9255SOL    HW128664   0.144   4.775   0.319
 9255SOL    HW228665   7.011   4.821   0.313
 9256SOL     OW28666   4.162   5.004   1.734
 9256SOL    HW128667   4.207   4.922   1.698
 9256SOL    HW228668   4.218   5.084   1.715
 9257SOL     OW28669   0.516   3.482   1.075
 9257SOL    HW128670   0.495   3.422   0.998
 9257SOL    HW228671   0.536   3.428   1.156
 9258SOL     OW28672   4.104   3.525   3.901
 9258SOL    HW128673   4.057   3.459   3.959
 9258SOL    HW228674   4.112   3.612   3.949
 9259SOL     OW28675   1.059   2.619   0.343
 9259SOL    HW128676   1.050   2.533   0.294
 9259SOL    HW228677   1.015   2.611   0.432
 9260SOL     OW28678   6.108   3.872   0.072
 9260SOL    HW128679   6.203   3.901   0.061
 9260SOL    HW228680   6.106   3.778   0.107
 9261SOL     OW28681   4.307   0.103   6.995
 9261SOL    HW128682   4.251   0.020   6.997
 9261SOL    HW228683   4.279   0.163   0.046
 9262SOL     OW28684   5.020   0.650   5.560
 9262SOL    HW128685   5.111   0.610   5.557
 9262SOL    HW228686   4.998   0.676   5.654
 9263SOL     OW28687   5.494   3.793   2.342
 9263SOL    HW128688   5.436   3.786   2.423
 9263SOL    HW228689   5.570   3.728   2.349
 9264SOL     OW28690   6.098   2.713   0.123
 9264SOL    HW128691   6.014   2.747   0.167
 9264SOL    HW228692   6.155   2.668   0.191
 9265SOL     OW28693   1.938   1.472   5.222
 9265SOL    HW128694   1.861   1.491   5.161
 9265SOL    HW228695   2.023   1.469   5.169
 9266SOL     OW28696   2.232   6.060   2.380
 9266SOL    HW128697   2.256   6.086   2.474
 9266SOL    HW228698   2.141   6.019   2.379
 9267SOL     OW28699   2.573   5.214   5.493
 9267SOL    HW128700   2.600   5.282   5.425
 9267SOL    HW228701   2.517   5.144   5.449
 9268SOL     OW28702   0.757   1.110   2.808
 9268SOL    HW128703   0.817   1.060   2.870
 9268SOL    HW228704   0.663   1.105   2.841
 9269SOL     OW28705   4.196   1.795   5.864
 9269SOL    HW128706   4.220   1.827   5.772
 9269SOL    HW228707   4.210   1.696   5.869
 9270SOL     OW28708   1.214   6.839   5.824
 9270SOL    HW128709   1.196   6.818   5.920
 9270SOL    HW228710   1.167   6.923   5.799
 9271SOL     OW28711   1.064   4.952   0.058
 9271SOL    HW128712   1.036   5.016   7.011
 9271SOL    HW228713   1.061   4.859   0.022
 9272SOL     OW28714   2.944   5.244   6.754
 9272SOL    HW128715   2.849   5.213   6.749
 9272SOL    HW228716   2.998   5.199   6.682
 9273SOL     OW28717   3.840   6.199   5.295
 9273SOL    HW128718   3.902   6.274   5.274
 9273SOL    HW228719   3.826   6.194   5.394
 9274SOL     OW28720   6.064   2.362   1.024
 9274SOL    HW128721   6.038   2.441   1.080
 9274SOL    HW228722   6.159   2.373   0.995
 9275SOL     OW28723   0.624   0.669   6.503
 9275SOL    HW128724   0.673   0.585   6.480
 9275SOL    HW228725   0.635   0.735   6.429
 9276SOL     OW28726   4.965   6.284   4.574
 9276SOL    HW128727   5.025   6.209   4.544
 9276SOL    HW228728   4.912   6.253   4.654
 9277SOL     OW28729   3.614   2.707   0.599
 9277SOL    HW128730   3.540   2.680   0.660
 9277SOL    HW228731   3.702   2.682   0.640
 9278SOL     OW28732   1.369   2.322   1.534
 9278SOL    HW128733   1.434   2.393   1.504
 9278SOL    HW228734   1.372   2.314   1.633
 9279SOL     OW28735   3.376   0.195   1.261
 9279SOL    HW128736   3.326   0.165   1.342
 9279SOL    HW228737   3.321   0.177   1.179
 9280SOL     OW28738   2.180   0.765   2.862
 9280SOL    HW128739   2.171   0.729   2.954
 9280SOL    HW228740   2.104   0.733   2.805
 9281SOL     OW28741   1.955   2.760   0.667
 9281SOL    HW128742   1.859   2.745   0.688
 9281SOL    HW228743   1.969   2.856   0.643
 9282SOL     OW28744   4.444   2.115   6.026
 9282SOL    HW128745   4.505   2.145   5.952
 9282SOL    HW228746   4.482   2.144   6.114
 9283SOL     OW28747   5.815   2.061   2.618
 9283SOL    HW128748   5.851   2.155   2.620
 9283SOL    HW228749   5.736   2.058   2.558
 9284SOL     OW28750   3.288   3.501   2.159
 9284SOL    HW128751   3.388   3.507   2.153
 9284SOL    HW228752   3.248   3.520   2.069
 9285SOL     OW28753   5.771   2.537   6.488
 9285SOL    HW128754   5.829   2.617   6.496
 9285SOL    HW228755   5.678   2.565   6.464
 9286SOL     OW28756   5.489   5.864   5.057
 9286SOL    HW128757   5.480   5.857   5.157
 9286SOL    HW228758   5.480   5.960   5.030
 9287SOL     OW28759   3.177   6.660   1.867
 9287SOL    HW128760   3.204   6.731   1.932
 9287SOL    HW228761   3.114   6.596   1.912
 9288SOL     OW28762   4.598   2.571   5.741
 9288SOL    HW128763   4.559   2.489   5.783
 9288SOL    HW228764   4.525   2.631   5.710
 9289SOL     OW28765   5.156   3.441   2.642
 9289SOL    HW128766   5.197   3.405   2.726
 9289SOL    HW228767   5.221   3.434   2.567
 9290SOL     OW28768   4.332   2.032   4.839
 9290SOL    HW128769   4.429   2.007   4.832
 9290SOL    HW228770   4.277   1.949   4.840
 9291SOL     OW28771   0.703   1.944   4.643
 9291SOL    HW128772   0.719   1.975   4.736
 9291SOL    HW228773   0.653   2.013   4.592
 9292SOL     OW28774   6.626   3.488   6.973
 9292SOL    HW128775   6.633   3.541   6.888
 9292SOL    HW228776   6.674   3.536   0.022
 9293SOL     OW28777   6.030   3.734   6.613
 9293SOL    HW128778   5.967   3.781   6.550
 9293SOL    HW228779   6.092   3.676   6.560
 9294SOL     OW28780   5.159   6.009   6.801
 9294SOL    HW128781   5.235   6.067   6.773
 9294SOL    HW228782   5.165   5.991   6.900
 9295SOL     OW28783   4.585   1.812   3.617
 9295SOL    HW128784   4.488   1.790   3.607
 9295SOL    HW228785   4.622   1.842   3.529
 9296SOL     OW28786   6.593   6.622   5.638
 9296SOL    HW128787   6.676   6.660   5.679
 9296SOL    HW228788   6.617   6.545   5.579
 9297SOL     OW28789   0.577   0.720   1.136
 9297SOL    HW128790   0.512   0.768   1.195
 9297SOL    HW228791   0.605   0.781   1.062
 9298SOL     OW28792   0.506   6.608   4.949
 9298SOL    HW128793   0.523   6.614   4.850
 9298SOL    HW228794   0.431   6.669   4.974
 9299SOL     OW28795   1.990   2.908   4.275
 9299SOL    HW128796   1.922   2.968   4.233
 9299SOL    HW228797   1.977   2.907   4.375
 9300SOL     OW28798   5.721   4.263   4.017
 9300SOL    HW128799   5.691   4.350   4.054
 9300SOL    HW228800   5.691   4.254   3.922
 9301SOL     OW28801   6.051   3.964   2.634
 9301SOL    HW128802   6.075   4.054   2.597
 9301SOL    HW228803   6.133   3.921   2.671
 9302SOL     OW28804   2.409   2.023   2.800
 9302SOL    HW128805   2.503   2.005   2.831
 9302SOL    HW228806   2.413   2.070   2.712
 9303SOL     OW28807   3.670   4.577   1.138
 9303SOL    HW128808   3.765   4.545   1.137
 9303SOL    HW228809   3.619   4.528   1.208
 9304SOL     OW28810   4.065   3.337   0.430
 9304SOL    HW128811   4.099   3.250   0.395
 9304SOL    HW228812   4.137   3.406   0.423
 9305SOL     OW28813   5.077   3.115   2.439
 9305SOL    HW128814   5.174   3.121   2.416
 9305SOL    HW228815   5.037   3.206   2.440
 9306SOL     OW28816   6.478   4.415   3.827
 9306SOL    HW128817   6.444   4.332   3.783
 9306SOL    HW228818   6.466   4.492   3.765
 9307SOL     OW28819   2.365   1.164   6.324
 9307SOL    HW128820   2.450   1.214   6.340
 9307SOL    HW228821   2.339   1.172   6.228
 9308SOL     OW28822   6.520   2.667   0.706
 9308SOL    HW128823   6.554   2.587   0.657
 9308SOL    HW228824   6.422   2.656   0.722
 9309SOL     OW28825   4.766   3.582   6.906
 9309SOL    HW128826   4.678   3.628   6.895
 9309SOL    HW228827   4.754   3.484   6.892
 9310SOL     OW28828   3.713   6.116   1.102
 9310SOL    HW128829   3.686   6.198   1.051
 9310SOL    HW228830   3.812   6.107   1.100
 9311SOL     OW28831   6.479   3.190   1.635
 9311SOL    HW128832   6.574   3.176   1.607
 9311SOL    HW228833   6.431   3.102   1.633
 9312SOL     OW28834   1.105   4.764   5.148
 9312SOL    HW128835   1.185   4.731   5.098
 9312SOL    HW228836   1.052   4.686   5.183
 9313SOL     OW28837   6.274   6.566   2.239
 9313SOL    HW128838   6.295   6.641   2.176
 9313SOL    HW228839   6.344   6.562   2.311
 9314SOL     OW28840   5.457   5.003   0.254
 9314SOL    HW128841   5.452   4.912   0.296
 9314SOL    HW228842   5.436   4.996   0.157
 9315SOL     OW28843   6.806   6.526   6.313
 9315SOL    HW128844   6.899   6.491   6.322
 9315SOL    HW228845   6.806   6.606   6.253
 9316SOL     OW28846   3.826   5.937   4.457
 9316SOL    HW128847   3.882   6.020   4.464
 9316SOL    HW228848   3.880   5.863   4.419
 9317SOL     OW28849   5.363   4.428   4.882
 9317SOL    HW128850   5.361   4.527   4.873
 9317SOL    HW228851   5.280   4.397   4.929
 9318SOL     OW28852   6.097   6.679   6.519
 9318SOL    HW128853   6.067   6.650   6.428
 9318SOL    HW228854   6.173   6.621   6.548
 9319SOL     OW28855   6.797   3.117   5.045
 9319SOL    HW128856   6.853   3.034   5.047
 9319SOL    HW228857   6.702   3.092   5.024
 9320SOL     OW28858   4.162   2.752   6.514
 9320SOL    HW128859   4.126   2.661   6.532
 9320SOL    HW228860   4.136   2.781   6.422
 9321SOL     OW28861   6.347   6.259   3.379
 9321SOL    HW128862   6.395   6.215   3.303
 9321SOL    HW228863   6.373   6.215   3.465
 9322SOL     OW28864   0.911   6.352   0.063
 9322SOL    HW128865   0.832   6.296   0.088
 9322SOL    HW228866   0.921   6.352   6.988
 9323SOL     OW28867   0.278   1.701   6.187
 9323SOL    HW128868   0.207   1.683   6.118
 9323SOL    HW228869   0.333   1.780   6.157
 9324SOL     OW28870   1.523   5.530   6.740
 9324SOL    HW128871   1.596   5.470   6.707
 9324SOL    HW228872   1.487   5.584   6.664
 9325SOL     OW28873   0.426   3.172   0.157
 9325SOL    HW128874   0.360   3.230   0.204
 9325SOL    HW228875   0.407   3.076   0.178
 9326SOL     OW28876   2.095   5.633   1.296
 9326SOL    HW128877   2.040   5.690   1.357
 9326SOL    HW228878   2.102   5.541   1.333
 9327SOL     OW28879   3.920   1.075   3.468
 9327SOL    HW128880   3.924   1.097   3.566
 9327SOL    HW228881   4.008   1.037   3.439
 9328SOL     OW28882   4.049   0.765   2.288
 9328SOL    HW128883   4.064   0.837   2.220
 9328SOL    HW228884   4.054   0.804   2.380
 9329SOL     OW28885   1.390   4.000   1.865
 9329SOL    HW128886   1.299   3.957   1.861
 9329SOL    HW228887   1.410   4.044   1.777
 9330SOL     OW28888   5.346   0.039   6.800
 9330SOL    HW128889   5.435   0.055   6.756
 9330SOL    HW228890   5.313   6.972   6.778
 9331SOL     OW28891   0.568   1.593   6.984
 9331SOL    HW128892   0.601   1.678   0.001
 9331SOL    HW228893   0.606   1.584   6.892
 9332SOL     OW28894   3.289   4.095   4.467
 9332SOL    HW128895   3.286   4.153   4.548
 9332SOL    HW228896   3.243   4.009   4.486
 9333SOL     OW28897   5.866   5.340   1.116
 9333SOL    HW128898   5.909   5.355   1.205
 9333SOL    HW228899   5.766   5.337   1.128
 9334SOL     OW28900   2.825   0.093   4.759
 9334SOL    HW128901   2.797   0.189   4.773
 9334SOL    HW228902   2.922   0.090   4.734
 9335SOL     OW28903   0.443   1.058   1.317
 9335SOL    HW128904   0.503   1.003   1.375
 9335SOL    HW228905   0.429   1.148   1.360
 9336SOL     OW28906   3.130   0.032   5.428
 9336SOL    HW128907   3.089   0.064   5.513
 9336SOL    HW228908   3.133   6.957   5.428
 9337SOL     OW28909   4.910   6.962   3.069
 9337SOL    HW128910   4.821   7.005   3.083
 9337SOL    HW228911   4.948   6.993   2.981
 9338SOL     OW28912   4.010   0.118   1.772
 9338SOL    HW128913   3.927   0.123   1.826
 9338SOL    HW228914   3.986   0.118   1.675
 9339SOL     OW28915   3.857   5.879   0.786
 9339SOL    HW128916   3.956   5.874   0.798
 9339SOL    HW228917   3.812   5.826   0.858
 9340SOL     OW28918   5.455   3.411   0.742
 9340SOL    HW128919   5.487   3.318   0.761
 9340SOL    HW228920   5.448   3.462   0.828
 9341SOL     OW28921   6.841   4.995   5.708
 9341SOL    HW128922   6.805   4.982   5.800
 9341SOL    HW228923   6.766   5.003   5.643
 9342SOL     OW28924   0.769   6.748   6.444
 9342SOL    HW128925   0.849   6.807   6.437
 9342SOL    HW228926   0.792   6.657   6.407
 9343SOL     OW28927   6.372   5.776   4.202
 9343SOL    HW128928   6.342   5.826   4.284
 9343SOL    HW228929   6.440   5.707   4.229
 9344SOL     OW28930   4.214   6.201   0.921
 9344SOL    HW128931   4.245   6.200   1.016
 9344SOL    HW228932   4.236   6.289   0.880
 9345SOL     OW28933   6.849   2.759   0.598
 9345SOL    HW128934   6.794   2.676   0.609
 9345SOL    HW228935   6.838   2.794   0.505
 9346SOL     OW28936   5.907   6.708   0.749
 9346SOL    HW128937   5.830   6.766   0.775
 9346SOL    HW228938   5.989   6.764   0.735
 9347SOL     OW28939   1.304   6.628   1.759
 9347SOL    HW128940   1.280   6.531   1.768
 9347SOL    HW228941   1.328   6.664   1.849
 9348SOL     OW28942   2.661   4.886   0.313
 9348SOL    HW128943   2.664   4.875   0.412
 9348SOL    HW228944   2.662   4.983   0.290
 9349SOL     OW28945   1.812   6.008   2.558
 9349SOL    HW128946   1.875   5.931   2.552
 9349SOL    HW228947   1.784   6.035   2.466
 9350SOL     OW28948   0.189   2.857   5.696
 9350SOL    HW128949   0.115   2.924   5.701
 9350SOL    HW228950   0.247   2.876   5.616
 9351SOL     OW28951   2.649   1.349   6.750
 9351SOL    HW128952   2.662   1.343   6.849
 9351SOL    HW228953   2.640   1.445   6.723
 9352SOL     OW28954   2.295   4.710   5.642
 9352SOL    HW128955   2.241   4.701   5.559
 9352SOL    HW228956   2.272   4.796   5.688
 9353SOL     OW28957   6.173   0.999   0.749
 9353SOL    HW128958   6.233   0.929   0.787
 9353SOL    HW228959   6.144   1.062   0.821
 9354SOL     OW28960   0.858   1.974   6.176
 9354SOL    HW128961   0.925   1.984   6.249
 9354SOL    HW228962   0.904   1.941   6.093
 9355SOL     OW28963   0.656   1.618   4.923
 9355SOL    HW128964   0.731   1.560   4.956
 9355SOL    HW228965   0.569   1.569   4.933
 9356SOL     OW28966   5.265   6.817   3.627
 9356SOL    HW128967   5.306   6.813   3.535
 9356SOL    HW228968   5.337   6.815   3.696
 9357SOL     OW28969   1.150   1.418   0.166
 9357SOL    HW128970   1.103   1.429   0.078
 9357SOL    HW228971   1.180   1.323   0.175
 9358SOL     OW28972   1.087   2.599   1.621
 9358SOL    HW128973   1.159   2.626   1.556
 9358SOL    HW228974   1.113   2.627   1.713
 9359SOL     OW28975   0.946   6.718   5.429
 9359SOL    HW128976   1.045   6.725   5.420
 9359SOL    HW228977   0.915   6.778   5.503
 9360SOL     OW28978   0.671   0.252   5.892
 9360SOL    HW128979   0.663   0.240   5.991
 9360SOL    HW228980   0.762   0.222   5.862
 9361SOL     OW28981   2.217   5.559   4.259
 9361SOL    HW128982   2.186   5.599   4.173
 9361SOL    HW228983   2.317   5.550   4.258
 9362SOL     OW28984   2.462   0.762   2.245
 9362SOL    HW128985   2.520   0.836   2.212
 9362SOL    HW228986   2.370   0.797   2.265
 9363SOL     OW28987   1.999   4.671   2.880
 9363SOL    HW128988   2.083   4.629   2.846
 9363SOL    HW228989   1.921   4.613   2.858
 9364SOL     OW28990   0.537   2.643   0.531
 9364SOL    HW128991   0.446   2.621   0.498
 9364SOL    HW228992   0.561   2.579   0.605
 9365SOL     OW28993   3.093   0.910   4.934
 9365SOL    HW128994   3.111   0.841   5.004
 9365SOL    HW228995   3.156   0.986   4.945
 9366SOL     OW28996   4.163   6.168   2.713
 9366SOL    HW128997   4.201   6.185   2.804
 9366SOL    HW228998   4.140   6.254   2.669
 9367SOL     OW28999   6.548   1.323   1.133
 9367SOL    HW129000   6.538   1.230   1.097
 9367SOL    HW229001   6.531   1.389   1.060
 9368SOL     OW29002   2.842   0.473   2.918
 9368SOL    HW129003   2.828   0.380   2.951
 9368SOL    HW229004   2.792   0.537   2.976
 9369SOL     OW29005   3.727   5.247   0.328
 9369SOL    HW129006   3.748   5.281   0.236
 9369SOL    HW229007   3.748   5.149   0.333
 9370SOL     OW29008   4.362   1.934   5.149
 9370SOL    HW129009   4.420   1.866   5.104
 9370SOL    HW229010   4.276   1.944   5.098
 9371SOL     OW29011   4.263   4.985   0.816
 9371SOL    HW129012   4.282   4.917   0.745
 9371SOL    HW229013   4.285   5.076   0.781
 9372SOL     OW29014   4.203   5.572   1.363
 9372SOL    HW129015   4.109   5.577   1.329
 9372SOL    HW229016   4.251   5.657   1.339
 9373SOL     OW29017   6.626   3.211   0.903
 9373SOL    HW129018   6.724   3.188   0.901
 9373SOL    HW229019   6.579   3.150   0.966
 9374SOL     OW29020   0.178   5.309   6.227
 9374SOL    HW129021   0.140   5.308   6.134
 9374SOL    HW229022   0.228   5.224   6.243
 9375SOL     OW29023   1.135   1.131   0.042
 9375SOL    HW129024   1.044   1.108   0.074
 9375SOL    HW229025   1.202   1.111   0.114
 9376SOL     OW29026   2.501   3.896   1.149
 9376SOL    HW129027   2.574   3.939   1.095
 9376SOL    HW229028   2.414   3.908   1.103
 9377SOL     OW29029   2.149   0.711   3.415
 9377SOL    HW129030   2.165   0.686   3.319
 9377SOL    HW229031   2.214   0.782   3.442
 9378SOL     OW29032   3.813   0.941   4.925
 9378SOL    HW129033   3.862   0.857   4.900
 9378SOL    HW229034   3.841   1.015   4.864
 9379SOL     OW29035   4.382   7.023   4.640
 9379SOL    HW129036   4.299   0.049   4.617
 9379SOL    HW229037   4.374   6.928   4.609
 9380SOL     OW29038   5.141   5.399   0.617
 9380SOL    HW129039   5.225   5.452   0.630
 9380SOL    HW229040   5.118   5.397   0.519
 9381SOL     OW29041   5.547   0.744   5.404
 9381SOL    HW129042   5.548   0.644   5.407
 9381SOL    HW229043   5.479   0.779   5.468
 9382SOL     OW29044   3.166   5.499   6.021
 9382SOL    HW129045   3.170   5.539   5.929
 9382SOL    HW229046   3.239   5.538   6.077
 9383SOL     OW29047   5.519   4.048   2.563
 9383SOL    HW129048   5.447   4.102   2.520
 9383SOL    HW229049   5.510   3.953   2.536
 9384SOL     OW29050   3.684   0.096   1.468
 9384SOL    HW129051   3.628   0.099   1.551
 9384SOL    HW229052   3.665   0.177   1.412
 9385SOL     OW29053   4.036   1.782   4.610
 9385SOL    HW129054   4.018   1.725   4.690
 9385SOL    HW229055   4.019   1.878   4.634
 9386SOL     OW29056   5.004   6.374   1.284
 9386SOL    HW129057   5.068   6.442   1.319
 9386SOL    HW229058   5.013   6.368   1.185
 9387SOL     OW29059   2.337   1.762   6.668
 9387SOL    HW129060   2.266   1.723   6.609
 9387SOL    HW229061   2.328   1.725   6.760
 9388SOL     OW29062   2.377   0.188   5.088
 9388SOL    HW129063   2.362   0.187   4.990
 9388SOL    HW229064   2.432   0.268   5.113
 9389SOL     OW29065   1.966   3.912   1.697
 9389SOL    HW129066   2.049   3.917   1.754
 9389SOL    HW229067   1.975   3.836   1.633
 9390SOL     OW29068   5.032   4.393   4.250
 9390SOL    HW129069   4.949   4.448   4.245
 9390SOL    HW229070   5.050   4.369   4.346
 9391SOL     OW29071   1.460   3.939   4.671
 9391SOL    HW129072   1.543   3.887   4.690
 9391SOL    HW229073   1.393   3.878   4.628
 9392SOL     OW29074   5.039   4.545   2.627
 9392SOL    HW129075   5.014   4.455   2.592
 9392SOL    HW229076   5.137   4.559   2.614
 9393SOL     OW29077   1.270   5.893   6.130
 9393SOL    HW129078   1.349   5.922   6.184
 9393SOL    HW229079   1.285   5.801   6.095
 9394SOL     OW29080   4.215   0.502   0.365
 9394SOL    HW129081   4.219   0.598   0.394
 9394SOL    HW229082   4.273   0.446   0.424
 9395SOL     OW29083   1.698   1.214   1.132
 9395SOL    HW129084   1.641   1.260   1.063
 9395SOL    HW229085   1.757   1.282   1.176
 9396SOL     OW29086   0.808   1.080   6.160
 9396SOL    HW129087   0.841   1.170   6.190
 9396SOL    HW229088   0.887   1.019   6.149
 9397SOL     OW29089   3.839   1.350   4.840
 9397SOL    HW129090   3.921   1.395   4.803
 9397SOL    HW229091   3.809   1.279   4.778
 9398SOL     OW29092   0.525   2.270   0.509
 9398SOL    HW129093   0.514   2.298   0.604
 9398SOL    HW229094   0.537   2.171   0.504
 9399SOL     OW29095   0.834   2.343   4.100
 9399SOL    HW129096   0.794   2.257   4.132
 9399SOL    HW229097   0.769   2.417   4.114
 9400SOL     OW29098   5.459   1.794   1.137
 9400SOL    HW129099   5.535   1.812   1.200
 9400SOL    HW229100   5.373   1.803   1.186
 9401SOL     OW29101   0.118   2.458   3.584
 9401SOL    HW129102   0.034   2.420   3.545
 9401SOL    HW229103   0.196   2.401   3.556
 9402SOL     OW29104   2.646   6.471   4.406
 9402SOL    HW129105   2.616   6.565   4.388
 9402SOL    HW229106   2.667   6.460   4.503
 9403SOL     OW29107   5.503   2.086   1.051
 9403SOL    HW129108   5.502   1.990   1.023
 9403SOL    HW229109   5.597   2.115   1.067
 9404SOL     OW29110   2.263   2.984   1.092
 9404SOL    HW129111   2.168   3.015   1.101
 9404SOL    HW229112   2.278   2.947   1.001
 9405SOL     OW29113   6.322   6.161   5.332
 9405SOL    HW129114   6.310   6.147   5.430
 9405SOL    HW229115   6.349   6.256   5.315
 9406SOL     OW29116   1.318   2.063   0.221
 9406SOL    HW129117   1.363   2.130   0.280
 9406SOL    HW229118   1.313   1.975   0.268
 9407SOL     OW29119   1.444   4.470   4.718
 9407SOL    HW129120   1.406   4.511   4.800
 9407SOL    HW229121   1.371   4.421   4.669
 9408SOL     OW29122   5.924   4.591   4.156
 9408SOL    HW129123   5.852   4.562   4.219
 9408SOL    HW229124   5.996   4.638   4.207
 9409SOL     OW29125   6.059   5.232   1.924
 9409SOL    HW129126   5.975   5.236   1.978
 9409SOL    HW229127   6.065   5.313   1.865
 9410SOL     OW29128   4.034   0.587   0.690
 9410SOL    HW129129   4.036   0.662   0.756
 9410SOL    HW229130   4.085   0.509   0.726
 9411SOL     OW29131   3.213   4.072   3.416
 9411SOL    HW129132   3.151   4.035   3.485
 9411SOL    HW229133   3.300   4.095   3.458
 9412SOL     OW29134   4.847   6.679   1.546
 9412SOL    HW129135   4.816   6.624   1.468
 9412SOL    HW229136   4.795   6.764   1.549
 9413SOL     OW29137   4.688   4.257   2.919
 9413SOL    HW129138   4.649   4.310   2.844
 9413SOL    HW229139   4.671   4.305   3.005
 9414SOL     OW29140   2.368   2.191   2.562
 9414SOL    HW129141   2.273   2.216   2.582
 9414SOL    HW229142   2.413   2.266   2.515
 9415SOL     OW29143   5.711   0.252   1.581
 9415SOL    HW129144   5.612   0.260   1.568
 9415SOL    HW229145   5.742   0.163   1.550
 9416SOL     OW29146   6.028   5.370   5.376
 9416SOL    HW129147   6.105   5.307   5.381
 9416SOL    HW229148   6.059   5.462   5.402
 9417SOL     OW29149   3.460   5.685   2.443
 9417SOL    HW129150   3.556   5.660   2.428
 9417SOL    HW229151   3.415   5.616   2.499
 9418SOL     OW29152   2.932   1.975   4.932
 9418SOL    HW129153   2.850   1.983   4.875
 9418SOL    HW229154   2.945   1.879   4.958
 9419SOL     OW29155   2.273   2.688   6.895
 9419SOL    HW129156   2.295   2.687   6.798
 9419SOL    HW229157   2.303   2.602   6.937
 9420SOL     OW29158   5.646   3.853   5.516
 9420SOL    HW129159   5.741   3.850   5.546
 9420SOL    HW229160   5.595   3.777   5.556
 9421SOL     OW29161   3.871   6.156   6.630
 9421SOL    HW129162   3.904   6.069   6.666
 9421SOL    HW229163   3.839   6.144   6.536
 9422SOL     OW29164   2.406   6.449   5.494
 9422SOL    HW129165   2.428   6.524   5.433
 9422SOL    HW229166   2.437   6.470   5.586
 9423SOL     OW29167   4.313   5.226   1.587
 9423SOL    HW129168   4.261   5.183   1.512
 9423SOL    HW229169   4.285   5.321   1.596
 9424SOL     OW29170   0.132   0.344   4.388
 9424SOL    HW129171   0.189   0.262   4.379
 9424SOL    HW229172   0.087   0.344   4.478
 9425SOL     OW29173   6.573   4.087   0.761
 9425SOL    HW129174   6.658   4.118   0.804
 9425SOL    HW229175   6.593   4.053   0.669
 9426SOL     OW29176   4.588   2.954   6.574
 9426SOL    HW129177   4.668   2.955   6.634
 9426SOL    HW229178   4.539   2.867   6.585
 9427SOL     OW29179   4.559   4.825   2.228
 9427SOL    HW129180   4.652   4.851   2.204
 9427SOL    HW229181   4.528   4.752   2.167
 9428SOL     OW29182   1.156   6.090   5.918
 9428SOL    HW129183   1.083   6.033   5.879
 9428SOL    HW229184   1.238   6.035   5.932
 9429SOL     OW29185   3.146   2.154   4.396
 9429SOL    HW129186   3.104   2.083   4.454
 9429SOL    HW229187   3.242   2.164   4.423
 9430SOL     OW29188   1.966   0.646   4.279
 9430SOL    HW129189   1.927   0.691   4.198
 9430SOL    HW229190   2.066   0.645   4.271
 9431SOL     OW29191   0.970   4.040   5.378
 9431SOL    HW129192   1.027   3.995   5.447
 9431SOL    HW229193   1.011   4.026   5.287
 9432SOL     OW29194   6.969   1.430   4.053
 9432SOL    HW129195   0.018   1.377   4.010
 9432SOL    HW229196   6.880   1.393   4.024
 9433SOL     OW29197   4.440   5.687   2.075
 9433SOL    HW129198   4.425   5.589   2.077
 9433SOL    HW229199   4.441   5.719   1.980
 9434SOL     OW29200   4.097   5.529   4.640
 9434SOL    HW129201   4.159   5.548   4.717
 9434SOL    HW229202   4.139   5.462   4.580
 9435SOL     OW29203   6.087   3.962   0.806
 9435SOL    HW129204   6.004   4.009   0.778
 9435SOL    HW229205   6.167   4.007   0.767
 9436SOL     OW29206   3.169   0.763   3.225
 9436SOL    HW129207   3.104   0.689   3.209
 9436SOL    HW229208   3.247   0.754   3.163
 9437SOL     OW29209   5.419   0.671   4.517
 9437SOL    HW129210   5.456   0.667   4.424
 9437SOL    HW229211   5.486   0.632   4.581
 9438SOL     OW29212   4.798   0.435   2.584
 9438SOL    HW129213   4.873   0.463   2.645
 9438SOL    HW229214   4.772   0.513   2.527
 9439SOL     OW29215   1.891   4.271   1.127
 9439SOL    HW129216   1.981   4.275   1.169
 9439SOL    HW229217   1.900   4.240   1.032
 9440SOL     OW29218   1.590   5.535   4.216
 9440SOL    HW129219   1.556   5.441   4.209
 9440SOL    HW229220   1.595   5.562   4.312
 9441SOL     OW29221   0.479   6.366   4.438
 9441SOL    HW129222   0.482   6.466   4.443
 9441SOL    HW229223   0.410   6.339   4.370
 9442SOL     OW29224   5.714   3.050   1.072
 9442SOL    HW129225   5.789   3.102   1.032
 9442SOL    HW229226   5.725   3.047   1.172
 9443SOL     OW29227   2.633   4.241   1.631
 9443SOL    HW129228   2.589   4.240   1.721
 9443SOL    HW229229   2.564   4.260   1.561
 9444SOL     OW29230   1.805   5.484   6.376
 9444SOL    HW129231   1.786   5.579   6.353
 9444SOL    HW229232   1.904   5.471   6.383
 9445SOL     OW29233   0.416   1.005   4.010
 9445SOL    HW129234   0.316   1.000   4.006
 9445SOL    HW229235   0.444   1.044   4.098
 9446SOL     OW29236   6.376   4.405   4.291
 9446SOL    HW129237   6.420   4.405   4.202
 9446SOL    HW229238   6.443   4.379   4.361
 9447SOL     OW29239   5.169   5.133   2.118
 9447SOL    HW129240   5.209   5.219   2.148
 9447SOL    HW229241   5.242   5.066   2.100
 9448SOL     OW29242   5.306   1.989   6.523
 9448SOL    HW129243   5.391   2.016   6.570
 9448SOL    HW229244   5.299   1.889   6.524
 9449SOL     OW29245   4.875   0.243   1.833
 9449SOL    HW129246   4.829   0.173   1.779
 9449SOL    HW229247   4.896   0.206   1.924
 9450SOL     OW29248   1.268   0.009   3.036
 9450SOL    HW129249   1.174   0.044   3.040
 9450SOL    HW229250   1.272   6.945   3.082
 9451SOL     OW29251   3.885   4.722   0.306
 9451SOL    HW129252   3.785   4.713   0.300
 9451SOL    HW229253   3.917   4.673   0.387
 9452SOL     OW29254   5.929   4.104   5.989
 9452SOL    HW129255   6.002   4.173   5.982
 9452SOL    HW229256   5.867   4.113   5.911
 9453SOL     OW29257   6.005   4.391   2.186
 9453SOL    HW129258   6.052   4.478   2.166
 9453SOL    HW229259   5.980   4.347   2.099
 9454SOL     OW29260   5.967   5.060   1.093
 9454SOL    HW129261   5.903   4.990   1.060
 9454SOL    HW229262   5.915   5.134   1.136
 9455SOL     OW29263   4.223   0.621   1.382
 9455SOL    HW129264   4.238   0.529   1.345
 9455SOL    HW229265   4.263   0.689   1.320
 9456SOL     OW29266   6.605   2.266   3.078
 9456SOL    HW129267   6.539   2.191   3.086
 9456SOL    HW229268   6.693   2.238   3.117
 9457SOL     OW29269   6.648   6.011   3.815
 9457SOL    HW129270   6.599   5.932   3.851
 9457SOL    HW229271   6.582   6.083   3.790
 9458SOL     OW29272   5.921   4.151   0.413
 9458SOL    HW129273   5.943   4.055   0.429
 9458SOL    HW229274   5.921   4.169   0.314
 9459SOL     OW29275   4.684   4.303   4.771
 9459SOL    HW129276   4.630   4.220   4.756
 9459SOL    HW229277   4.624   4.383   4.764
 9460SOL     OW29278   1.628   2.698   2.147
 9460SOL    HW129279   1.672   2.781   2.113
 9460SOL    HW229280   1.688   2.620   2.131
 9461SOL     OW29281   2.162   1.667   1.829
 9461SOL    HW129282   2.256   1.690   1.805
 9461SOL    HW229283   2.106   1.750   1.830
 9462SOL     OW29284   6.733   1.576   5.718
 9462SOL    HW129285   6.699   1.529   5.799
 9462SOL    HW229286   6.787   1.655   5.746
 9463SOL     OW29287   6.414   4.553   0.728
 9463SOL    HW129288   6.358   4.635   0.737
 9463SOL    HW229289   6.355   4.473   0.718
 9464SOL     OW29290   0.950   0.661   1.503
 9464SOL    HW129291   1.039   0.703   1.487
 9464SOL    HW229292   0.961   0.563   1.517
 9465SOL     OW29293   6.547   5.882   0.394
 9465SOL    HW129294   6.543   5.872   0.295
 9465SOL    HW229295   6.626   5.938   0.418
 9466SOL     OW29296   4.510   3.808   5.412
 9466SOL    HW129297   4.473   3.719   5.384
 9466SOL    HW229298   4.460   3.881   5.366
 9467SOL     OW29299   1.179   3.939   0.585
 9467SOL    HW129300   1.238   4.013   0.618
 9467SOL    HW229301   1.146   3.886   0.662
 9468SOL     OW29302   6.289   1.669   1.262
 9468SOL    HW129303   6.318   1.574   1.254
 9468SOL    HW229304   6.202   1.674   1.312
 9469SOL     OW29305   6.948   6.854   1.396
 9469SOL    HW129306   7.002   6.793   1.339
 9469SOL    HW229307   6.908   6.926   1.339
 9470SOL     OW29308   3.794   2.873   0.467
 9470SOL    HW129309   3.816   2.943   0.534
 9470SOL    HW229310   3.717   2.818   0.500
 9471SOL     OW29311   6.551   3.034   4.946
 9471SOL    HW129312   6.528   2.992   5.034
 9471SOL    HW229313   6.481   3.009   4.878
 9472SOL     OW29314   1.702   3.275   5.741
 9472SOL    HW129315   1.647   3.197   5.771
 9472SOL    HW229316   1.692   3.350   5.807
 9473SOL     OW29317   3.362   3.708   1.336
 9473SOL    HW129318   3.350   3.662   1.248
 9473SOL    HW229319   3.367   3.640   1.409
 9474SOL     OW29320   5.407   4.402   1.066
 9474SOL    HW129321   5.406   4.329   0.998
 9474SOL    HW229322   5.395   4.490   1.021
 9475SOL     OW29323   5.348   3.703   6.371
 9475SOL    HW129324   5.322   3.634   6.438
 9475SOL    HW229325   5.382   3.658   6.288
 9476SOL     OW29326   4.246   4.215   1.220
 9476SOL    HW129327   4.254   4.301   1.269
 9476SOL    HW229328   4.195   4.229   1.136
 9477SOL     OW29329   1.485   4.738   0.988
 9477SOL    HW129330   1.507   4.654   0.938
 9477SOL    HW229331   1.449   4.715   1.079
 9478SOL     OW29332   6.302   3.884   6.252
 9478SOL    HW129333   6.234   3.919   6.318
 9478SOL    HW229334   6.327   3.790   6.276
 9479SOL     OW29335   4.143   1.016   2.349
 9479SOL    HW129336   4.227   1.018   2.404
 9479SOL    HW229337   4.155   1.073   2.268
 9480SOL     OW29338   5.556   0.368   0.746
 9480SOL    HW129339   5.507   0.447   0.709
 9480SOL    HW229340   5.646   0.397   0.778
 9481SOL     OW29341   4.994   0.527   3.363
 9481SOL    HW129342   5.072   0.465   3.364
 9481SOL    HW229343   4.939   0.513   3.445
 9482SOL     OW29344   6.206   4.908   5.271
 9482SOL    HW129345   6.180   4.812   5.272
 9482SOL    HW229346   6.125   4.964   5.253
 9483SOL     OW29347   6.222   5.526   6.427
 9483SOL    HW129348   6.150   5.564   6.486
 9483SOL    HW229349   6.183   5.452   6.372
 9484SOL     OW29350   2.043   6.062   4.647
 9484SOL    HW129351   2.053   6.006   4.729
 9484SOL    HW229352   2.103   6.142   4.654
 9485SOL     OW29353   0.779   1.361   4.969
 9485SOL    HW129354   0.874   1.331   4.969
 9485SOL    HW229355   0.719   1.285   4.943
 9486SOL     OW29356   6.514   5.580   6.360
 9486SOL    HW129357   6.518   5.659   6.299
 9486SOL    HW229358   6.587   5.586   6.428
 9487SOL     OW29359   3.401   3.888   3.232
 9487SOL    HW129360   3.431   3.980   3.255
 9487SOL    HW229361   3.449   3.857   3.150
 9488SOL     OW29362   2.191   1.089   1.709
 9488SOL    HW129363   2.215   1.186   1.698
 9488SOL    HW229364   2.261   1.044   1.765
 9489SOL     OW29365   6.368   3.974   0.051
 9489SOL    HW129366   6.378   4.037   6.998
 9489SOL    HW229367   6.414   4.013   0.131
 9490SOL     OW29368   5.477   3.234   4.455
 9490SOL    HW129369   5.553   3.177   4.422
 9490SOL    HW229370   5.495   3.329   4.431
 9491SOL     OW29371   5.698   0.267   2.827
 9491SOL    HW129372   5.719   0.350   2.776
 9491SOL    HW229373   5.695   0.189   2.765
 9492SOL     OW29374   4.518   2.534   3.886
 9492SOL    HW129375   4.430   2.536   3.932
 9492SOL    HW229376   4.540   2.441   3.859
 9493SOL     OW29377   3.548   6.039   2.112
 9493SOL    HW129378   3.457   6.022   2.075
 9493SOL    HW229379   3.567   5.975   2.186
 9494SOL     OW29380   5.199   2.605   2.094
 9494SOL    HW129381   5.198   2.600   2.194
 9494SOL    HW229382   5.284   2.564   2.060
 9495SOL     OW29383   5.668   2.785   1.204
 9495SOL    HW129384   5.688   2.870   1.155
 9495SOL    HW229385   5.715   2.709   1.160
 9496SOL     OW29386   6.013   2.966   0.980
 9496SOL    HW129387   6.013   2.964   1.080
 9496SOL    HW229388   5.963   3.048   0.949
 9497SOL     OW29389   4.912   5.241   5.257
 9497SOL    HW129390   4.893   5.185   5.337
 9497SOL    HW229391   4.994   5.295   5.272
 9498SOL     OW29392   0.950   5.969   5.351
 9498SOL    HW129393   1.023   5.961   5.282
 9498SOL    HW229394   0.879   5.901   5.331
 9499SOL     OW29395   6.038   6.484   4.389
 9499SOL    HW129396   6.061   6.543   4.311
 9499SOL    HW229397   6.096   6.403   4.388
 9500SOL     OW29398   3.039   1.696   0.578
 9500SOL    HW129399   2.946   1.682   0.611
 9500SOL    HW229400   3.093   1.613   0.594
 9501SOL     OW29401   2.059   3.939   5.326
 9501SOL    HW129402   2.098   4.027   5.297
 9501SOL    HW229403   2.113   3.865   5.287
 9502SOL     OW29404   5.863   4.433   3.719
 9502SOL    HW129405   5.876   4.508   3.783
 9502SOL    HW229406   5.766   4.409   3.714
 9503SOL     OW29407   5.795   1.176   0.258
 9503SOL    HW129408   5.700   1.147   0.257
 9503SOL    HW229409   5.813   1.231   0.339
 9504SOL     OW29410   6.133   5.588   2.269
 9504SOL    HW129411   6.181   5.673   2.248
 9504SOL    HW229412   6.165   5.553   2.358
 9505SOL     OW29413   4.593   3.753   6.530
 9505SOL    HW129414   4.551   3.730   6.443
 9505SOL    HW229415   4.603   3.852   6.538
 9506SOL     OW29416   3.232   1.119   1.605
 9506SOL    HW129417   3.317   1.154   1.643
 9506SOL    HW229418   3.162   1.191   1.610
 9507SOL     OW29419   6.195   6.640   1.775
 9507SOL    HW129420   6.139   6.606   1.850
 9507SOL    HW229421   6.180   6.584   1.694
 9508SOL     OW29422   4.712   0.632   2.394
 9508SOL    HW129423   4.770   0.589   2.325
 9508SOL    HW229424   4.656   0.703   2.351
 9509SOL     OW29425   5.437   1.142   3.311
 9509SOL    HW129426   5.452   1.214   3.379
 9509SOL    HW229427   5.419   1.184   3.222
 9510SOL     OW29428   1.745   2.636   2.732
 9510SOL    HW129429   1.817   2.685   2.780
 9510SOL    HW229430   1.767   2.629   2.635
 9511SOL     OW29431   0.920   1.573   1.222
 9511SOL    HW129432   0.930   1.671   1.204
 9511SOL    HW229433   0.827   1.554   1.252
 9512SOL     OW29434   6.561   1.951   2.182
 9512SOL    HW129435   6.605   2.036   2.154
 9512SOL    HW229436   6.573   1.937   2.281
 9513SOL     OW29437   4.871   3.962   5.102
 9513SOL    HW129438   4.821   4.028   5.157
 9513SOL    HW229439   4.869   3.989   5.006
 9514SOL     OW29440   3.487   2.936   0.869
 9514SOL    HW129441   3.461   2.872   0.941
 9514SOL    HW229442   3.410   2.951   0.808
 9515SOL     OW29443   0.397   5.569   3.095
 9515SOL    HW129444   0.314   5.557   3.151
 9515SOL    HW229445   0.407   5.665   3.070
 9516SOL     OW29446   0.869   4.010   6.119
 9516SOL    HW129447   0.951   3.960   6.090
 9516SOL    HW229448   0.827   3.964   6.197
 9517SOL     OW29449   0.060   6.917   1.605
 9517SOL    HW129450   0.038   6.999   1.658
 9517SOL    HW229451   0.001   6.912   1.525
 9518SOL     OW29452   0.642   1.202   1.467
 9518SOL    HW129453   0.673   1.218   1.561
 9518SOL    HW229454   0.618   1.106   1.456
 9519SOL     OW29455   1.220   2.283   5.197
 9519SOL    HW129456   1.308   2.312   5.236
 9519SOL    HW229457   1.153   2.356   5.210
 9520SOL     OW29458   4.352   6.504   1.646
 9520SOL    HW129459   4.330   6.478   1.740
 9520SOL    HW229460   4.311   6.438   1.583
 9521SOL     OW29461   5.574   4.834   3.379
 9521SOL    HW129462   5.604   4.819   3.473
 9521SOL    HW229463   5.474   4.829   3.375
 9522SOL     OW29464   3.101   4.923   6.337
 9522SOL    HW129465   3.201   4.928   6.328
 9522SOL    HW229466   3.059   4.951   6.250
 9523SOL     OW29467   2.067   6.578   5.230
 9523SOL    HW129468   2.133   6.646   5.260
 9523SOL    HW229469   2.108   6.521   5.158
 9524SOL     OW29470   5.082   3.230   0.391
 9524SOL    HW129471   5.095   3.279   0.304
 9524SOL    HW229472   5.151   3.158   0.399
 9525SOL     OW29473   4.158   0.109   4.606
 9525SOL    HW129474   4.183   0.203   4.629
 9525SOL    HW229475   4.059   0.103   4.593
 9526SOL     OW29476   4.848   5.873   1.128
 9526SOL    HW129477   4.815   5.819   1.050
 9526SOL    HW229478   4.831   5.823   1.213
 9527SOL     OW29479   0.375   2.374   0.319
 9527SOL    HW129480   0.433   2.336   0.390
 9527SOL    HW229481   0.334   2.460   0.351
 9528SOL     OW29482   6.974   1.256   1.640
 9528SOL    HW129483   6.981   1.305   1.728
 9528SOL    HW229484   6.892   1.199   1.640
 9529SOL     OW29485   1.756   3.014   5.073
 9529SOL    HW129486   1.798   2.968   5.151
 9529SOL    HW229487   1.799   2.983   4.989
 9530SOL     OW29488   2.463   1.582   3.964
 9530SOL    HW129489   2.522   1.658   3.992
 9530SOL    HW229490   2.506   1.496   3.989
 9531SOL     OW29491   2.915   6.586   3.899
 9531SOL    HW129492   2.953   6.496   3.919
 9531SOL    HW229493   2.815   6.581   3.899
 9532SOL     OW29494   3.284   1.488   2.090
 9532SOL    HW129495   3.251   1.573   2.050
 9532SOL    HW229496   3.210   1.420   2.091
 9533SOL     OW29497   1.020   1.654   4.589
 9533SOL    HW129498   1.067   1.702   4.662
 9533SOL    HW229499   0.930   1.624   4.621
 9534SOL     OW29500   5.747   1.900   5.049
 9534SOL    HW129501   5.796   1.827   5.002
 9534SOL    HW229502   5.810   1.974   5.072
 9535SOL     OW29503   3.482   1.631   4.648
 9535SOL    HW129504   3.536   1.712   4.625
 9535SOL    HW229505   3.391   1.639   4.608
 9536SOL     OW29506   2.473   0.207   6.021
 9536SOL    HW129507   2.528   0.255   6.088
 9536SOL    HW229508   2.532   0.169   5.950
 9537SOL     OW29509   2.421   0.459   0.320
 9537SOL    HW129510   2.455   0.378   0.368
 9537SOL    HW229511   2.392   0.433   0.228
 9538SOL     OW29512   5.868   3.798   2.862
 9538SOL    HW129513   5.810   3.857   2.806
 9538SOL    HW229514   5.912   3.729   2.804
 9539SOL     OW29515   6.997   3.734   6.696
 9539SOL    HW129516   6.972   3.737   6.792
 9539SOL    HW229517   7.022   3.826   6.664
 9540SOL     OW29518   5.482   3.716   5.711
 9540SOL    HW129519   5.428   3.766   5.778
 9540SOL    HW229520   5.533   3.643   5.757
 9541SOL     OW29521   6.772   2.058   3.543
 9541SOL    HW129522   6.718   2.090   3.465
 9541SOL    HW229523   6.817   1.972   3.520
 9542SOL     OW29524   4.544   4.470   4.388
 9542SOL    HW129525   4.515   4.389   4.438
 9542SOL    HW229526   4.473   4.540   4.392
 9543SOL     OW29527   4.005   2.893   0.804
 9543SOL    HW129528   4.014   2.989   0.779
 9543SOL    HW229529   3.983   2.886   0.901
 9544SOL     OW29530   4.452   0.711   0.720
 9544SOL    HW129531   4.425   0.800   0.754
 9544SOL    HW229532   4.399   0.688   0.638
 9545SOL     OW29533   1.232   6.711   4.658
 9545SOL    HW129534   1.205   6.796   4.702
 9545SOL    HW229535   1.331   6.710   4.645
 9546SOL     OW29536   2.577   4.573   1.905
 9546SOL    HW129537   2.673   4.601   1.905
 9546SOL    HW229538   2.525   4.636   1.963
 9547SOL     OW29539   5.670   5.791   3.584
 9547SOL    HW129540   5.660   5.844   3.500
 9547SOL    HW229541   5.759   5.810   3.626
 9548SOL     OW29542   5.570   0.057   2.544
 9548SOL    HW129543   5.556   0.052   2.445
 9548SOL    HW229544   5.492   0.017   2.591
 9549SOL     OW29545   2.383   6.085   0.038
 9549SOL    HW129546   2.287   6.065   0.058
 9549SOL    HW229547   2.425   6.006   7.018
 9550SOL     OW29548   1.379   1.090   0.217
 9550SOL    HW129549   1.414   0.999   0.238
 9550SOL    HW229550   1.455   1.155   0.213
 9551SOL     OW29551   1.455   5.816   5.182
 9551SOL    HW129552   1.459   5.779   5.089
 9551SOL    HW229553   1.540   5.866   5.202
 9552SOL     OW29554   0.438   5.362   2.886
 9552SOL    HW129555   0.411   5.454   2.916
 9552SOL    HW229556   0.534   5.346   2.909
 9553SOL     OW29557   5.715   4.802   6.666
 9553SOL    HW129558   5.668   4.793   6.755
 9553SOL    HW229559   5.682   4.730   6.605
 9554SOL     OW29560   2.255   1.738   2.124
 9554SOL    HW129561   2.207   1.807   2.178
 9554SOL    HW229562   2.264   1.770   2.030
 9555SOL     OW29563   6.577   2.716   6.265
 9555SOL    HW129564   6.538   2.674   6.348
 9555SOL    HW229565   6.510   2.711   6.191
 9556SOL     OW29566   6.854   1.087   1.110
 9556SOL    HW129567   6.884   1.144   1.187
 9556SOL    HW229568   6.831   1.146   1.032
 9557SOL     OW29569   4.728   1.098   2.099
 9557SOL    HW129570   4.659   1.119   2.030
 9557SOL    HW229571   4.753   1.181   2.149
 9558SOL     OW29572   6.774   3.531   1.503
 9558SOL    HW129573   6.770   3.629   1.524
 9558SOL    HW229574   6.682   3.498   1.482
 9559SOL     OW29575   0.841   4.236   2.653
 9559SOL    HW129576   0.811   4.275   2.740
 9559SOL    HW229577   0.765   4.241   2.587
 9560SOL     OW29578   3.733   2.365   5.677
 9560SOL    HW129579   3.747   2.326   5.768
 9560SOL    HW229580   3.819   2.359   5.625
 9561SOL     OW29581   3.157   5.508   6.400
 9561SOL    HW129582   3.220   5.441   6.359
 9561SOL    HW229583   3.208   5.590   6.425
 9562SOL     OW29584   5.785   5.154   4.135
 9562SOL    HW129585   5.701   5.179   4.087
 9562SOL    HW229586   5.864   5.174   4.077
 9563SOL     OW29587   0.465   6.670   6.806
 9563SOL    HW129588   0.432   6.756   6.846
 9563SOL    HW229589   0.386   6.612   6.783
 9564SOL     OW29590   1.361   1.098   5.972
 9564SOL    HW129591   1.291   1.139   5.914
 9564SOL    HW229592   1.348   1.128   6.067
 9565SOL     OW29593   2.948   5.681   5.336
 9565SOL    HW129594   2.879   5.672   5.408
 9565SOL    HW229595   3.004   5.762   5.354
 9566SOL     OW29596   2.945   4.572   5.581
 9566SOL    HW129597   2.915   4.598   5.672
 9566SOL    HW229598   3.011   4.497   5.588
 9567SOL     OW29599   5.825   4.997   4.594
 9567SOL    HW129600   5.915   4.996   4.638
 9567SOL    HW229601   5.836   4.995   4.495
 9568SOL     OW29602   5.750   3.717   5.930
 9568SOL    HW129603   5.832   3.764   5.900
 9568SOL    HW229604   5.766   3.618   5.931
 9569SOL     OW29605   6.011   0.050   1.321
 9569SOL    HW129606   5.995   0.147   1.340
 9569SOL    HW229607   5.968   7.019   1.391
 9570SOL     OW29608   1.100   2.034   6.758
 9570SOL    HW129609   1.197   2.007   6.756
 9570SOL    HW229610   1.092   2.128   6.789
 9571SOL     OW29611   3.173   1.807   0.797
 9571SOL    HW129612   3.106   1.777   0.729
 9571SOL    HW229613   3.131   1.808   0.888
 9572SOL     OW29614   0.262   3.709   0.796
 9572SOL    HW129615   0.215   3.770   0.733
 9572SOL    HW229616   0.195   3.653   0.844
 9573SOL     OW29617   4.913   1.272   2.738
 9573SOL    HW129618   4.901   1.198   2.672
 9573SOL    HW229619   4.828   1.287   2.789
 9574SOL     OW29620   2.909   2.207   3.786
 9574SOL    HW129621   2.862   2.207   3.874
 9574SOL    HW229622   2.843   2.225   3.713
 9575SOL     OW29623   3.778   1.436   3.113
 9575SOL    HW129624   3.721   1.491   3.173
 9575SOL    HW229625   3.783   1.478   3.022
 9576SOL     OW29626   3.482   3.581   5.503
 9576SOL    HW129627   3.457   3.485   5.494
 9576SOL    HW229628   3.413   3.629   5.558
 9577SOL     OW29629   0.654   5.392   3.798
 9577SOL    HW129630   0.635   5.417   3.703
 9577SOL    HW229631   0.637   5.294   3.811
 9578SOL     OW29632   6.957   3.951   0.994
 9578SOL    HW129633   6.994   4.020   0.932
 9578SOL    HW229634   7.008   3.866   0.983
 9579SOL     OW29635   1.652   4.819   2.963
 9579SOL    HW129636   1.676   4.844   3.057
 9579SOL    HW229637   1.701   4.736   2.937
 9580SOL     OW29638   4.317   3.599   5.670
 9580SOL    HW129639   4.258   3.678   5.655
 9580SOL    HW229640   4.263   3.521   5.700
 9581SOL     OW29641   1.044   5.558   5.778
 9581SOL    HW129642   1.120   5.511   5.733
 9581SOL    HW229643   1.072   5.587   5.869
 9582SOL     OW29644   4.257   5.633   2.806
 9582SOL    HW129645   4.161   5.645   2.779
 9582SOL    HW229646   4.285   5.710   2.863
 9583SOL     OW29647   1.566   4.896   1.867
 9583SOL    HW129648   1.534   4.912   1.774
 9583SOL    HW229649   1.642   4.958   1.887
 9584SOL     OW29650   5.403   4.230   0.212
 9584SOL    HW129651   5.332   4.296   0.191
 9584SOL    HW229652   5.493   4.272   0.202
 9585SOL     OW29653   6.398   1.175   3.041
 9585SOL    HW129654   6.492   1.168   3.008
 9585SOL    HW229655   6.389   1.130   3.129
 9586SOL     OW29656   5.119   3.946   2.599
 9586SOL    HW129657   5.140   3.976   2.506
 9586SOL    HW229658   5.021   3.953   2.615
 9587SOL     OW29659   4.356   6.259   1.497
 9587SOL    HW129660   4.275   6.206   1.471
 9587SOL    HW229661   4.434   6.197   1.507
 9588SOL     OW29662   6.166   1.169   3.474
 9588SOL    HW129663   6.145   1.251   3.420
 9588SOL    HW229664   6.195   1.197   3.566
 9589SOL     OW29665   3.620   1.760   5.373
 9589SOL    HW129666   3.623   1.682   5.311
 9589SOL    HW229667   3.583   1.731   5.461
 9590SOL     OW29668   0.363   4.961   4.335
 9590SOL    HW129669   0.430   5.005   4.394
 9590SOL    HW229670   0.372   4.862   4.342
 9591SOL     OW29671   0.433   4.670   2.060
 9591SOL    HW129672   0.473   4.646   2.149
 9591SOL    HW229673   0.492   4.637   1.987
 9592SOL     OW29674   3.840   5.884   0.149
 9592SOL    HW129675   3.862   5.954   0.217
 9592SOL    HW229676   3.749   5.900   0.113
 9593SOL     OW29677   2.158   1.707   3.654
 9593SOL    HW129678   2.073   1.664   3.623
 9593SOL    HW229679   2.223   1.712   3.578
 9594SOL     OW29680   5.806   0.183   1.121
 9594SOL    HW129681   5.839   0.247   1.052
 9594SOL    HW229682   5.832   0.215   1.212
 9595SOL     OW29683   1.379   5.707   5.411
 9595SOL    HW129684   1.400   5.754   5.325
 9595SOL    HW229685   1.284   5.725   5.436
 9596SOL     OW29686   5.221   5.955   1.949
 9596SOL    HW129687   5.318   5.933   1.962
 9596SOL    HW229688   5.172   5.941   2.035
 9597SOL     OW29689   2.865   5.171   1.646
 9597SOL    HW129690   2.866   5.080   1.604
 9597SOL    HW229691   2.906   5.167   1.737
 9598SOL     OW29692   7.017   5.958   6.153
 9598SOL    HW129693   6.936   5.978   6.098
 9598SOL    HW229694   6.993   5.962   6.250
 9599SOL     OW29695   3.551   1.998   5.233
 9599SOL    HW129696   3.606   1.937   5.291
 9599SOL    HW229697   3.555   2.091   5.269
 9600SOL     OW29698   1.637   6.506   6.749
 9600SOL    HW129699   1.731   6.526   6.778
 9600SOL    HW229700   1.610   6.416   6.785
 9601SOL     OW29701   0.833   6.834   4.870
 9601SOL    HW129702   0.903   6.865   4.934
 9601SOL    HW229703   0.839   6.735   4.860
 9602SOL     OW29704   1.141   5.364   6.208
 9602SOL    HW129705   1.108   5.274   6.236
 9602SOL    HW229706   1.106   5.385   6.117
 9603SOL     OW29707   0.990   5.361   1.739
 9603SOL    HW129708   1.045   5.444   1.746
 9603SOL    HW229709   1.051   5.283   1.726
 9604SOL     OW29710   0.395   0.583   6.359
 9604SOL    HW129711   0.309   0.628   6.380
 9604SOL    HW229712   0.467   0.620   6.418
 9605SOL     OW29713   3.513   4.729   1.352
 9605SOL    HW129714   3.493   4.679   1.437
 9605SOL    HW229715   3.592   4.788   1.366
 9606SOL     OW29716   6.716   0.573   5.169
 9606SOL    HW129717   6.727   0.533   5.260
 9606SOL    HW229718   6.627   0.547   5.132
 9607SOL     OW29719   0.339   2.183   3.149
 9607SOL    HW129720   0.312   2.278   3.165
 9607SOL    HW229721   0.270   2.122   3.188
 9608SOL     OW29722   6.062   1.018   1.537
 9608SOL    HW129723   6.026   0.947   1.599
 9608SOL    HW229724   6.160   1.005   1.525
 9609SOL     OW29725   1.409   2.187   3.876
 9609SOL    HW129726   1.457   2.104   3.849
 9609SOL    HW229727   1.319   2.163   3.912
 9610SOL     OW29728   4.683   0.919   5.488
 9610SOL    HW129729   4.700   0.905   5.391
 9610SOL    HW229730   4.622   0.997   5.501
 9611SOL     OW29731   4.891   5.090   0.730
 9611SOL    HW129732   4.888   5.188   0.749
 9611SOL    HW229733   4.919   5.075   0.636
 9612SOL     OW29734   5.776   3.042   3.676
 9612SOL    HW129735   5.869   3.021   3.647
 9612SOL    HW229736   5.778   3.093   3.762
 9613SOL     OW29737   5.677   0.538   4.893
 9613SOL    HW129738   5.699   0.481   4.972
 9613SOL    HW229739   5.676   0.481   4.810
 9614SOL     OW29740   2.575   2.857   0.701
 9614SOL    HW129741   2.559   2.848   0.603
 9614SOL    HW229742   2.648   2.794   0.729
 9615SOL     OW29743   0.048   5.092   3.802
 9615SOL    HW129744   0.136   5.047   3.817
 9615SOL    HW229745   0.043   5.175   3.858
 9616SOL     OW29746   1.080   2.138   0.813
 9616SOL    HW129747   1.094   2.081   0.894
 9616SOL    HW229748   1.044   2.081   0.739
 9617SOL     OW29749   0.513   2.613   3.464
 9617SOL    HW129750   0.599   2.572   3.496
 9617SOL    HW229751   0.529   2.663   3.379
 9618SOL     OW29752   4.810   3.901   1.969
 9618SOL    HW129753   4.755   3.877   1.889
 9618SOL    HW229754   4.824   4.000   1.971
 9619SOL     OW29755   0.462   0.140   0.908
 9619SOL    HW129756   0.490   0.228   0.870
 9619SOL    HW229757   0.387   0.103   0.853
 9620SOL     OW29758   4.201   0.903   6.827
 9620SOL    HW129759   4.148   0.980   6.791
 9620SOL    HW229760   4.144   0.848   6.888
 9621SOL     OW29761   0.057   1.028   1.374
 9621SOL    HW129762   0.091   1.006   1.465
 9621SOL    HW229763   6.982   1.025   1.373
 9622SOL     OW29764   6.341   6.420   5.239
 9622SOL    HW129765   6.356   6.412   5.140
 9622SOL    HW229766   6.371   6.510   5.270
 9623SOL     OW29767   2.799   6.342   6.065
 9623SOL    HW129768   2.857   6.275   6.112
 9623SOL    HW229769   2.703   6.323   6.084
 9624SOL     OW29770   4.675   5.676   5.823
 9624SOL    HW129771   4.770   5.673   5.792
 9624SOL    HW229772   4.673   5.682   5.923
 9625SOL     OW29773   4.833   4.561   5.948
 9625SOL    HW129774   4.831   4.656   5.977
 9625SOL    HW229775   4.899   4.550   5.874
 9626SOL     OW29776   2.366   2.858   6.438
 9626SOL    HW129777   2.398   2.949   6.464
 9626SOL    HW229778   2.382   2.844   6.340
 9627SOL     OW29779   0.039   5.803   0.766
 9627SOL    HW129780   0.024   5.883   0.707
 9627SOL    HW229781   0.026   5.720   0.713
 9628SOL     OW29782   5.860   0.946   5.719
 9628SOL    HW129783   5.829   0.918   5.628
 9628SOL    HW229784   5.807   1.025   5.749
 9629SOL     OW29785   0.811   5.763   3.979
 9629SOL    HW129786   0.773   5.671   3.969
 9629SOL    HW229787   0.812   5.788   4.076
 9630SOL     OW29788   5.464   0.541   6.388
 9630SOL    HW129789   5.442   0.462   6.331
 9630SOL    HW229790   5.563   0.545   6.402
 9631SOL     OW29791   4.407   5.933   0.642
 9631SOL    HW129792   4.457   5.896   0.563
 9631SOL    HW229793   4.400   6.032   0.633
 9632SOL     OW29794   2.727   5.231   3.277
 9632SOL    HW129795   2.689   5.310   3.325
 9632SOL    HW229796   2.752   5.160   3.343
 9633SOL     OW29797   3.274   2.881   5.057
 9633SOL    HW129798   3.309   2.926   5.139
 9633SOL    HW229799   3.233   2.793   5.081
 9634SOL     OW29800   5.747   4.410   2.568
 9634SOL    HW129801   5.818   4.369   2.512
 9634SOL    HW229802   5.722   4.500   2.531
 9635SOL     OW29803   0.596   5.064   4.457
 9635SOL    HW129804   0.653   5.062   4.375
 9635SOL    HW229805   0.578   5.159   4.482
 9636SOL     OW29806   5.295   3.299   3.787
 9636SOL    HW129807   5.268   3.209   3.754
 9636SOL    HW229808   5.288   3.301   3.887
 9637SOL     OW29809   1.684   3.345   0.075
 9637SOL    HW129810   1.736   3.360   0.159
 9637SOL    HW229811   1.724   3.398   0.001
 9638SOL     OW29812   6.564   4.339   5.420
 9638SOL    HW129813   6.628   4.263   5.433
 9638SOL    HW229814   6.578   4.407   5.493
 9639SOL     OW29815   4.920   2.548   1.098
 9639SOL    HW129816   4.837   2.595   1.068
 9639SOL    HW229817   4.894   2.469   1.154
 9640SOL     OW29818   3.486   0.046   3.466
 9640SOL    HW129819   3.406   7.013   3.445
 9640SOL    HW229820   3.470   0.139   3.432
 9641SOL     OW29821   0.718   3.506   4.476
 9641SOL    HW129822   0.641   3.494   4.539
 9641SOL    HW229823   0.717   3.599   4.439
 9642SOL     OW29824   0.832   3.018   4.950
 9642SOL    HW129825   0.888   2.962   5.012
 9642SOL    HW229826   0.867   3.009   4.856
 9643SOL     OW29827   5.528   5.065   4.219
 9643SOL    HW129828   5.444   5.010   4.215
 9643SOL    HW229829   5.602   5.015   4.174
 9644SOL     OW29830   0.924   4.671   4.007
 9644SOL    HW129831   0.876   4.588   3.978
 9644SOL    HW229832   0.924   4.737   3.931
 9645SOL     OW29833   1.377   4.955   6.833
 9645SOL    HW129834   1.344   4.964   6.927
 9645SOL    HW229835   1.379   5.046   6.790
 9646SOL     OW29836   2.886   4.976   0.861
 9646SOL    HW129837   2.859   5.005   0.953
 9646SOL    HW229838   2.937   5.050   0.817
 9647SOL     OW29839   6.153   6.862   3.026
 9647SOL    HW129840   6.194   6.936   3.078
 9647SOL    HW229841   6.056   6.882   3.009
 9648SOL     OW29842   3.309   1.934   1.504
 9648SOL    HW129843   3.352   1.975   1.424
 9648SOL    HW229844   3.251   2.002   1.549
 9649SOL     OW29845   6.593   6.239   1.274
 9649SOL    HW129846   6.680   6.287   1.284
 9649SOL    HW229847   6.525   6.302   1.236
 9650SOL     OW29848   0.736   5.000   4.673
 9650SOL    HW129849   0.701   5.028   4.584
 9650SOL    HW229850   0.670   4.938   4.716
 9651SOL     OW29851   3.879   1.812   0.046
 9651SOL    HW129852   3.948   1.872   0.089
 9651SOL    HW229853   3.810   1.868   0.002
 9652SOL     OW29854   6.984   3.491   0.373
 9652SOL    HW129855   0.041   3.520   0.324
 9652SOL    HW229856   6.927   3.435   0.313
 9653SOL     OW29857   5.131   4.542   5.194
 9653SOL    HW129858   5.120   4.603   5.272
 9653SOL    HW229859   5.045   4.535   5.144
 9654SOL     OW29860   4.026   3.933   3.839
 9654SOL    HW129861   4.008   3.956   3.743
 9654SOL    HW229862   3.944   3.952   3.893
 9655SOL     OW29863   5.116   0.726   1.247
 9655SOL    HW129864   5.141   0.634   1.217
 9655SOL    HW229865   5.019   0.729   1.270
 9656SOL     OW29866   4.669   4.615   6.628
 9656SOL    HW129867   4.607   4.557   6.681
 9656SOL    HW229868   4.616   4.676   6.570
 9657SOL     OW29869   5.130   4.931   3.177
 9657SOL    HW129870   5.133   4.831   3.172
 9657SOL    HW229871   5.049   4.965   3.129
 9658SOL     OW29872   5.764   0.997   2.359
 9658SOL    HW129873   5.781   1.089   2.396
 9658SOL    HW229874   5.844   0.967   2.306
 9659SOL     OW29875   3.298   3.037   6.983
 9659SOL    HW129876   3.252   2.951   7.006
 9659SOL    HW229877   3.390   3.036   7.020
 9660SOL     OW29878   1.961   6.768   1.260
 9660SOL    HW129879   2.027   6.762   1.336
 9660SOL    HW229880   1.870   6.746   1.293
 9661SOL     OW29881   4.089   3.647   2.060
 9661SOL    HW129882   4.170   3.600   2.095
 9661SOL    HW229883   4.116   3.706   1.983
 9662SOL     OW29884   4.426   0.094   5.671
 9662SOL    HW129885   4.477   0.064   5.751
 9662SOL    HW229886   4.489   0.124   5.600
 9663SOL     OW29887   0.862   5.808   2.696
 9663SOL    HW129888   0.900   5.853   2.614
 9663SOL    HW229889   0.935   5.758   2.743
 9664SOL     OW29890   2.322   4.779   2.744
 9664SOL    HW129891   2.325   4.802   2.841
 9664SOL    HW229892   2.415   4.769   2.709
 9665SOL     OW29893   6.408   4.610   6.357
 9665SOL    HW129894   6.380   4.569   6.443
 9665SOL    HW229895   6.507   4.600   6.346
 9666SOL     OW29896   5.061   3.629   1.109
 9666SOL    HW129897   5.030   3.709   1.056
 9666SOL    HW229898   4.983   3.568   1.125
 9667SOL     OW29899   5.356   6.223   6.793
 9667SOL    HW129900   5.440   6.182   6.830
 9667SOL    HW229901   5.376   6.267   6.706
 9668SOL     OW29902   1.884   1.054   0.065
 9668SOL    HW129903   1.962   1.022   0.120
 9668SOL    HW229904   1.857   1.145   0.096
 9669SOL     OW29905   3.472   0.449   6.992
 9669SOL    HW129906   3.556   0.504   6.995
 9669SOL    HW229907   3.417   0.470   0.048
 9670SOL     OW29908   0.688   1.456   1.362
 9670SOL    HW129909   0.662   1.502   1.447
 9670SOL    HW229910   0.679   1.357   1.374
 9671SOL     OW29911   0.967   5.635   6.526
 9671SOL    HW129912   0.927   5.554   6.482
 9671SOL    HW229913   1.045   5.607   6.582
 9672SOL     OW29914   0.663   3.373   4.250
 9672SOL    HW129915   0.686   3.433   4.327
 9672SOL    HW229916   0.681   3.278   4.276
 9673SOL     OW29917   2.445   3.203   6.600
 9673SOL    HW129918   2.474   3.167   6.511
 9673SOL    HW229919   2.351   3.238   6.593
 9674SOL     OW29920   2.176   0.001   4.397
 9674SOL    HW129921   2.172   7.017   4.298
 9674SOL    HW229922   2.141   6.942   4.439
 9675SOL     OW29923   6.152   4.336   5.951
 9675SOL    HW129924   6.080   4.389   5.997
 9675SOL    HW229925   6.218   4.398   5.910
 9676SOL     OW29926   1.035   3.294   5.404
 9676SOL    HW129927   0.963   3.356   5.373
 9676SOL    HW229928   1.086   3.337   5.479
 9677SOL     OW29929   0.247   5.076   2.406
 9677SOL    HW129930   0.154   5.042   2.420
 9677SOL    HW229931   0.250   5.130   2.322
 9678SOL     OW29932   3.766   3.149   5.369
 9678SOL    HW129933   3.824   3.072   5.343
 9678SOL    HW229934   3.687   3.117   5.420
 9679SOL     OW29935   1.590   0.669   3.725
 9679SOL    HW129936   1.594   0.766   3.700
 9679SOL    HW229937   1.527   0.622   3.663
 9680SOL     OW29938   4.764   0.241   2.229
 9680SOL    HW129939   4.822   0.323   2.233
 9680SOL    HW229940   4.806   0.174   2.167
 9681SOL     OW29941   0.864   3.599   1.149
 9681SOL    HW129942   0.852   3.519   1.090
 9681SOL    HW229943   0.958   3.602   1.182
 9682SOL     OW29944   4.277   6.867   5.587
 9682SOL    HW129945   4.263   6.773   5.617
 9682SOL    HW229946   4.300   6.924   5.666
 9683SOL     OW29947   3.489   6.297   4.560
 9683SOL    HW129948   3.518   6.337   4.473
 9683SOL    HW229949   3.564   6.246   4.600
 9684SOL     OW29950   6.994   3.183   5.980
 9684SOL    HW129951   6.899   3.178   6.012
 9684SOL    HW229952   0.021   3.245   6.039
 9685SOL     OW29953   3.701   4.279   1.756
 9685SOL    HW129954   3.604   4.298   1.743
 9685SOL    HW229955   3.714   4.234   1.845
 9686SOL     OW29956   0.104   1.630   5.725
 9686SOL    HW129957   0.150   1.664   5.643
 9686SOL    HW229958   0.079   1.534   5.712
 9687SOL     OW29959   5.533   1.738   3.419
 9687SOL    HW129960   5.558   1.656   3.367
 9687SOL    HW229961   5.478   1.798   3.361
 9688SOL     OW29962   6.989   5.222   1.544
 9688SOL    HW129963   6.983   5.181   1.453
 9688SOL    HW229964   7.023   5.316   1.536
 9689SOL     OW29965   1.847   5.343   1.506
 9689SOL    HW129966   1.794   5.424   1.530
 9689SOL    HW229967   1.827   5.269   1.570
 9690SOL     OW29968   6.521   4.645   5.030
 9690SOL    HW129969   6.447   4.592   5.070
 9690SOL    HW229970   6.564   4.592   4.957
 9691SOL     OW29971   3.981   3.224   2.294
 9691SOL    HW129972   3.927   3.163   2.236
 9691SOL    HW229973   4.037   3.284   2.237
 9692SOL     OW29974   5.191   4.288   0.685
 9692SOL    HW129975   5.291   4.277   0.682
 9692SOL    HW229976   5.158   4.313   0.594
 9693SOL     OW29977   4.695   3.294   6.839
 9693SOL    HW129978   4.659   3.286   6.932
 9693SOL    HW229979   4.618   3.300   6.774
 9694SOL     OW29980   2.601   6.504   1.319
 9694SOL    HW129981   2.548   6.419   1.317
 9694SOL    HW229982   2.644   6.514   1.409
 9695SOL     OW29983   1.763   2.734   4.058
 9695SOL    HW129984   1.821   2.815   4.057
 9695SOL    HW229985   1.717   2.726   4.146
 9696SOL     OW29986   4.757   2.981   3.267
 9696SOL    HW129987   4.753   2.991   3.367
 9696SOL    HW229988   4.711   2.896   3.240
 9697SOL     OW29989   0.322   0.190   1.544
 9697SOL    HW129990   0.303   0.268   1.485
 9697SOL    HW229991   0.397   0.136   1.505
 9698SOL     OW29992   6.996   3.237   1.983
 9698SOL    HW129993   0.037   3.170   2.018
 9698SOL    HW229994   6.906   3.218   2.021
 9699SOL     OW29995   1.022   6.854   1.788
 9699SOL    HW129996   1.058   6.934   1.742
 9699SOL    HW229997   1.093   6.783   1.792
 9700SOL     OW29998   6.145   0.511   6.416
 9700SOL    HW129999   6.204   0.589   6.394
 9700SOL    HW230000   6.107   0.474   6.331
 9701SOL     OW30001   5.541   4.107   6.979
 9701SOL    HW130002   5.605   4.182   7.000
 9701SOL    HW230003   5.468   4.107   0.023
 9702SOL     OW30004   3.443   3.695   1.969
 9702SOL    HW130005   3.482   3.626   2.030
 9702SOL    HW230006   3.372   3.746   2.018
 9703SOL     OW30007   6.470   5.025   3.014
 9703SOL    HW130008   6.411   5.045   3.091
 9703SOL    HW230009   6.422   4.965   2.949
 9704SOL     OW30010   0.816   4.708   2.077
 9704SOL    HW130011   0.780   4.799   2.061
 9704SOL    HW230012   0.756   4.640   2.035
 9705SOL     OW30013   0.236   4.099   6.261
 9705SOL    HW130014   0.297   4.041   6.316
 9705SOL    HW230015   0.190   4.164   6.320
 9706SOL     OW30016   0.713   0.162   1.953
 9706SOL    HW130017   0.781   0.089   1.952
 9706SOL    HW230018   0.753   0.245   1.916
 9707SOL     OW30019   1.528   5.058   2.337
 9707SOL    HW130020   1.587   5.118   2.282
 9707SOL    HW230021   1.465   5.010   2.276
 9708SOL     OW30022   3.121   1.285   1.966
 9708SOL    HW130023   3.022   1.280   1.954
 9708SOL    HW230024   3.153   1.203   2.013
 9709SOL     OW30025   4.726   1.811   2.121
 9709SOL    HW130026   4.683   1.895   2.156
 9709SOL    HW230027   4.693   1.732   2.173
 9710SOL     OW30028   4.791   5.167   4.466
 9710SOL    HW130029   4.694   5.181   4.451
 9710SOL    HW230030   4.808   5.153   4.564
 9711SOL     OW30031   2.645   0.831   6.643
 9711SOL    HW130032   2.685   0.846   6.552
 9711SOL    HW230033   2.643   0.917   6.693
 9712SOL     OW30034   5.450   6.895   5.360
 9712SOL    HW130035   5.462   6.974   5.300
 9712SOL    HW230036   5.354   6.886   5.385
 9713SOL     OW30037   1.982   0.719   2.694
 9713SOL    HW130038   1.943   0.805   2.661
 9713SOL    HW230039   1.981   0.651   2.621
 9714SOL     OW30040   2.244   3.082   4.197
 9714SOL    HW130041   2.295   3.080   4.111
 9714SOL    HW230042   2.220   2.989   4.224
 9715SOL     OW30043   6.831   2.300   6.514
 9715SOL    HW130044   6.849   2.398   6.510
 9715SOL    HW230045   6.856   2.266   6.605
 9716SOL     OW30046   2.251   6.888   0.757
 9716SOL    HW130047   2.168   6.937   0.732
 9716SOL    HW230048   2.228   6.794   0.784
 9717SOL     OW30049   3.403   2.656   5.985
 9717SOL    HW130050   3.331   2.592   6.011
 9717SOL    HW230051   3.365   2.748   5.979
 9718SOL     OW30052   3.424   2.923   0.293
 9718SOL    HW130053   3.448   2.828   0.275
 9718SOL    HW230054   3.448   2.979   0.214
 9719SOL     OW30055   4.469   0.321   5.950
 9719SOL    HW130056   4.510   0.230   5.940
 9719SOL    HW230057   4.438   0.353   5.861
 9720SOL     OW30058   2.148   2.563   2.746
 9720SOL    HW130059   2.156   2.599   2.653
 9720SOL    HW230060   2.238   2.538   2.781
 9721SOL     OW30061   0.784   1.876   1.307
 9721SOL    HW130062   0.815   1.866   1.212
 9721SOL    HW230063   0.733   1.961   1.316
 9722SOL     OW30064   4.125   2.786   5.351
 9722SOL    HW130065   4.172   2.714   5.301
 9722SOL    HW230066   4.055   2.828   5.292
 9723SOL     OW30067   6.134   0.651   4.590
 9723SOL    HW130068   6.191   0.573   4.615
 9723SOL    HW230069   6.187   0.735   4.601
 9724SOL     OW30070   1.866   4.939   1.552
 9724SOL    HW130071   1.783   4.892   1.521
 9724SOL    HW230072   1.929   4.950   1.476
 9725SOL     OW30073   5.209   5.482   4.004
 9725SOL    HW130074   5.275   5.424   4.051
 9725SOL    HW230075   5.121   5.434   3.997
 9726SOL     OW30076   6.564   0.159   3.526
 9726SOL    HW130077   6.615   0.105   3.592
 9726SOL    HW230078   6.610   0.157   3.437
 9727SOL     OW30079   6.354   2.670   1.520
 9727SOL    HW130080   6.387   2.591   1.467
 9727SOL    HW230081   6.378   2.657   1.616
 9728SOL     OW30082   5.098   2.001   4.881
 9728SOL    HW130083   5.111   2.046   4.970
 9728SOL    HW230084   5.123   1.904   4.889
 9729SOL     OW30085   0.808   3.886   2.641
 9729SOL    HW130086   0.863   3.962   2.608
 9729SOL    HW230087   0.756   3.914   2.721
 9730SOL     OW30088   1.198   5.518   3.414
 9730SOL    HW130089   1.209   5.422   3.443
 9730SOL    HW230090   1.271   5.573   3.454
 9731SOL     OW30091   6.889   2.279   1.613
 9731SOL    HW130092   6.903   2.180   1.614
 9731SOL    HW230093   6.824   2.303   1.542
 9732SOL     OW30094   1.487   3.227   2.784
 9732SOL    HW130095   1.572   3.193   2.826
 9732SOL    HW230096   1.410   3.173   2.817
 9733SOL     OW30097   6.160   5.101   1.619
 9733SOL    HW130098   6.194   5.010   1.597
 9733SOL    HW230099   6.228   5.149   1.675
 9734SOL     OW30100   3.929   4.687   6.751
 9734SOL    HW130101   3.935   4.770   6.808
 9734SOL    HW230102   3.981   4.614   6.794
 9735SOL     OW30103   0.976   1.474   6.989
 9735SOL    HW130104   0.889   1.439   6.954
 9735SOL    HW230105   0.996   1.562   6.946
 9736SOL     OW30106   4.927   2.214   5.135
 9736SOL    HW130107   5.018   2.254   5.120
 9736SOL    HW230108   4.858   2.277   5.101
 9737SOL     OW30109   5.680   3.080   4.955
 9737SOL    HW130110   5.602   3.085   4.893
 9737SOL    HW230111   5.713   3.173   4.974
 9738SOL     OW30112   2.532   6.358   1.850
 9738SOL    HW130113   2.495   6.273   1.811
 9738SOL    HW230114   2.494   6.437   1.802
 9739SOL     OW30115   5.441   6.764   0.603
 9739SOL    HW130116   5.504   6.738   0.676
 9739SOL    HW230117   5.421   6.684   0.546
 9740SOL     OW30118   6.169   0.692   1.333
 9740SOL    HW130119   6.099   0.745   1.285
 9740SOL    HW230120   6.232   0.652   1.266
 9741SOL     OW30121   2.378   2.408   3.392
 9741SOL    HW130122   2.283   2.437   3.390
 9741SOL    HW230123   2.413   2.402   3.299
 9742SOL     OW30124   4.001   1.651   6.644
 9742SOL    HW130125   3.997   1.742   6.603
 9742SOL    HW230126   3.979   1.658   6.742
 9743SOL     OW30127   6.701   3.455   4.485
 9743SOL    HW130128   6.712   3.462   4.584
 9743SOL    HW230129   6.781   3.411   4.446
 9744SOL     OW30130   1.821   1.896   2.605
 9744SOL    HW130131   1.771   1.930   2.525
 9744SOL    HW230132   1.815   1.963   2.679
 9745SOL     OW30133   0.860   6.521   6.321
 9745SOL    HW130134   0.941   6.467   6.343
 9745SOL    HW230135   0.836   6.508   6.225
 9746SOL     OW30136   3.270   6.313   6.105
 9746SOL    HW130137   3.366   6.338   6.089
 9746SOL    HW230138   3.216   6.395   6.120
 9747SOL     OW30139   3.544   1.488   3.771
 9747SOL    HW130140   3.588   1.452   3.689
 9747SOL    HW230141   3.564   1.586   3.778
 9748SOL     OW30142   0.524   2.042   2.547
 9748SOL    HW130143   0.509   2.087   2.635
 9748SOL    HW230144   0.453   1.974   2.532
 9749SOL     OW30145   6.190   0.172   1.105
 9749SOL    HW130146   6.119   0.144   1.169
 9749SOL    HW230147   6.279   0.168   1.150
 9750SOL     OW30148   5.222   2.397   5.206
 9750SOL    HW130149   5.246   2.334   5.279
 9750SOL    HW230150   5.148   2.458   5.237
 9751SOL     OW30151   2.877   6.296   1.209
 9751SOL    HW130152   2.930   6.235   1.268
 9751SOL    HW230153   2.836   6.369   1.264
 9752SOL     OW30154   3.268   3.270   0.673
 9752SOL    HW130155   3.201   3.342   0.690
 9752SOL    HW230156   3.360   3.308   0.673
 9753SOL     OW30157   6.501   6.047   3.245
 9753SOL    HW130158   6.525   5.981   3.173
 9753SOL    HW230159   6.461   5.998   3.322
 9754SOL     OW30160   3.478   0.980   2.289
 9754SOL    HW130161   3.420   1.052   2.328
 9754SOL    HW230162   3.484   0.904   2.354
 9755SOL     OW30163   3.408   3.763   0.176
 9755SOL    HW130164   3.416   3.722   0.085
 9755SOL    HW230165   3.345   3.708   0.232
 9756SOL     OW30166   5.539   0.000   6.586
 9756SOL    HW130167   5.488   6.985   6.510
 9756SOL    HW230168   5.632   6.987   6.587
 9757SOL     OW30169   5.476   3.749   4.631
 9757SOL    HW130170   5.391   3.800   4.617
 9757SOL    HW230171   5.479   3.670   4.570
 9758SOL     OW30172   2.780   0.719   2.387
 9758SOL    HW130173   2.762   0.677   2.298
 9758SOL    HW230174   2.879   0.726   2.401
 9759SOL     OW30175   6.946   2.340   1.051
 9759SOL    HW130176   7.002   2.257   1.056
 9759SOL    HW230177   6.967   2.389   0.967
 9760SOL     OW30178   4.649   0.355   6.208
 9760SOL    HW130179   4.602   0.350   6.296
 9760SOL    HW230180   4.582   0.341   6.134
 9761SOL     OW30181   1.037   1.910   1.447
 9761SOL    HW130182   1.028   1.983   1.514
 9761SOL    HW230183   0.949   1.891   1.404
 9762SOL     OW30184   3.876   1.087   6.386
 9762SOL    HW130185   3.968   1.128   6.378
 9762SOL    HW230186   3.881   1.006   6.443
 9763SOL     OW30187   6.310   2.552   0.977
 9763SOL    HW130188   6.313   2.604   0.891
 9763SOL    HW230189   6.357   2.464   0.964
 9764SOL     OW30190   0.733   2.693   2.909
 9764SOL    HW130191   0.749   2.721   2.814
 9764SOL    HW230192   0.638   2.661   2.918
 9765SOL     OW30193   6.952   2.408   1.310
 9765SOL    HW130194   6.863   2.415   1.355
 9765SOL    HW230195   6.940   2.373   1.218
 9766SOL     OW30196   0.522   2.890   2.777
 9766SOL    HW130197   0.547   2.813   2.719
 9766SOL    HW230198   0.437   2.869   2.826
 9767SOL     OW30199   3.141   1.354   5.409
 9767SOL    HW130200   3.233   1.388   5.393
 9767SOL    HW230201   3.134   1.258   5.381
 9768SOL     OW30202   4.838   1.861   0.063
 9768SOL    HW130203   4.917   1.801   0.079
 9768SOL    HW230204   4.866   1.940   0.010
 9769SOL     OW30205   3.693   1.124   5.343
 9769SOL    HW130206   3.757   1.050   5.365
 9769SOL    HW230207   3.729   1.210   5.378
 9770SOL     OW30208   1.734   3.603   5.210
 9770SOL    HW130209   1.766   3.638   5.298
 9770SOL    HW230210   1.786   3.646   5.136
 9771SOL     OW30211   3.395   0.843   2.047
 9771SOL    HW130212   3.473   0.800   2.002
 9771SOL    HW230213   3.419   0.869   2.140
 9772SOL     OW30214   0.637   0.920   1.485
 9772SOL    HW130215   0.717   0.929   1.544
 9772SOL    HW230216   0.622   0.823   1.464
 9773SOL     OW30217   5.526   6.442   2.112
 9773SOL    HW130218   5.591   6.370   2.092
 9773SOL    HW230219   5.572   6.517   2.160
 9774SOL     OW30220   1.754   5.213   4.492
 9774SOL    HW130221   1.820   5.144   4.462
 9774SOL    HW230222   1.769   5.234   4.589
 9775SOL     OW30223   1.515   1.246   2.804
 9775SOL    HW130224   1.446   1.302   2.758
 9775SOL    HW230225   1.602   1.253   2.755
 9776SOL     OW30226   2.095   5.481   1.581
 9776SOL    HW130227   2.014   5.424   1.594
 9776SOL    HW230228   2.138   5.500   1.669
 9777SOL     OW30229   4.124   2.287   5.336
 9777SOL    HW130230   4.145   2.312   5.242
 9777SOL    HW230231   4.185   2.213   5.365
 9778SOL     OW30232   1.538   3.826   2.992
 9778SOL    HW130233   1.631   3.794   2.976
 9778SOL    HW230234   1.537   3.888   3.070
 9779SOL     OW30235   2.880   0.094   3.399
 9779SOL    HW130236   2.944   0.039   3.453
 9779SOL    HW230237   2.786   0.072   3.425
 9780SOL     OW30238   0.773   1.113   0.729
 9780SOL    HW130239   0.773   1.025   0.682
 9780SOL    HW230240   0.679   1.146   0.737
 9781SOL     OW30241   1.469   1.248   2.013
 9781SOL    HW130242   1.523   1.269   1.932
 9781SOL    HW230243   1.373   1.239   1.988
 9782SOL     OW30244   0.283   2.617   0.408
 9782SOL    HW130245   0.246   2.610   0.500
 9782SOL    HW230246   0.211   2.649   0.346
 9783SOL     OW30247   4.384   1.167   2.631
 9783SOL    HW130248   4.448   1.195   2.703
 9783SOL    HW230249   4.435   1.134   2.552
 9784SOL     OW30250   1.451   1.463   6.815
 9784SOL    HW130251   1.469   1.495   6.908
 9784SOL    HW230252   1.373   1.400   6.815
 9785SOL     OW30253   1.055   3.703   4.945
 9785SOL    HW130254   0.967   3.655   4.938
 9785SOL    HW230255   1.124   3.654   4.891
 9786SOL     OW30256   2.500   4.787   6.579
 9786SOL    HW130257   2.405   4.777   6.552
 9786SOL    HW230258   2.530   4.706   6.628
 9787SOL     OW30259   3.068   3.402   1.610
 9787SOL    HW130260   3.126   3.409   1.528
 9787SOL    HW230261   2.984   3.454   1.596
 9788SOL     OW30262   3.209   6.917   2.628
 9788SOL    HW130263   3.171   6.891   2.539
 9788SOL    HW230264   3.172   6.857   2.699
 9789SOL     OW30265   4.157   1.648   0.309
 9789SOL    HW130266   4.068   1.662   0.351
 9789SOL    HW230267   4.229   1.667   0.376
 9790SOL     OW30268   4.292   5.437   5.211
 9790SOL    HW130269   4.226   5.378   5.163
 9790SOL    HW230270   4.330   5.387   5.289
 9791SOL     OW30271   6.988   0.385   1.204
 9791SOL    HW130272   0.054   0.343   1.197
 9791SOL    HW230273   6.954   0.376   1.297
 9792SOL     OW30274   3.589   4.500   0.685
 9792SOL    HW130275   3.581   4.599   0.692
 9792SOL    HW230276   3.591   4.460   0.777
 9793SOL     OW30277   6.061   0.706   2.576
 9793SOL    HW130278   5.983   0.749   2.620
 9793SOL    HW230279   6.143   0.719   2.632
 9794SOL     OW30280   3.669   5.192   4.490
 9794SOL    HW130281   3.589   5.133   4.487
 9794SOL    HW230282   3.677   5.242   4.403
 9795SOL     OW30283   1.342   3.460   3.592
 9795SOL    HW130284   1.349   3.556   3.622
 9795SOL    HW230285   1.420   3.408   3.628
 9796SOL     OW30286   3.241   3.525   3.944
 9796SOL    HW130287   3.312   3.550   4.011
 9796SOL    HW230288   3.229   3.600   3.879
 9797SOL     OW30289   3.130   5.773   6.857
 9797SOL    HW130290   3.061   5.833   6.898
 9797SOL    HW230291   3.128   5.684   6.902
 9798SOL     OW30292   6.962   4.060   0.038
 9798SOL    HW130293   7.002   4.149   0.057
 9798SOL    HW230294   0.008   3.998   0.004
 9799SOL     OW30295   3.945   6.421   6.687
 9799SOL    HW130296   3.876   6.442   6.756
 9799SOL    HW230297   3.944   6.323   6.668
 9800SOL     OW30298   6.299   4.773   4.835
 9800SOL    HW130299   6.382   4.798   4.885
 9800SOL    HW230300   6.317   4.694   4.776
 9801SOL     OW30301   4.484   6.654   1.188
 9801SOL    HW130302   4.418   6.727   1.173
 9801SOL    HW230303   4.542   6.677   1.267
 9802SOL     OW30304   3.686   3.572   0.086
 9802SOL    HW130305   3.672   3.671   0.096
 9802SOL    HW230306   3.708   3.533   0.176
 9803SOL     OW30307   1.522   3.902   6.391
 9803SOL    HW130308   1.482   3.993   6.390
 9803SOL    HW230309   1.451   3.835   6.416
 9804SOL     OW30310   0.980   4.503   3.217
 9804SOL    HW130311   0.939   4.421   3.257
 9804SOL    HW230312   0.908   4.559   3.176
 9805SOL     OW30313   0.243   5.548   4.253
 9805SOL    HW130314   0.221   5.535   4.156
 9805SOL    HW230315   0.257   5.460   4.297
 9806SOL     OW30316   3.593   1.690   0.116
 9806SOL    HW130317   3.693   1.684   0.107
 9806SOL    HW230318   3.555   1.597   0.120
 9807SOL     OW30319   3.963   3.055   3.482
 9807SOL    HW130320   3.974   3.068   3.580
 9807SOL    HW230321   3.867   3.037   3.462
 9808SOL     OW30322   2.970   5.756   2.139
 9808SOL    HW130323   2.974   5.729   2.043
 9808SOL    HW230324   2.878   5.739   2.175
 9809SOL     OW30325   6.038   2.491   0.735
 9809SOL    HW130326   6.006   2.578   0.773
 9809SOL    HW230327   6.026   2.418   0.803
 9810SOL     OW30328   2.369   3.041   1.359
 9810SOL    HW130329   2.456   3.010   1.398
 9810SOL    HW230330   2.353   2.995   1.272
 9811SOL     OW30331   5.330   3.346   4.057
 9811SOL    HW130332   5.299   3.440   4.067
 9811SOL    HW230333   5.430   3.344   4.057
 9812SOL     OW30334   3.402   5.564   6.127
 9812SOL    HW130335   3.399   5.591   6.223
 9812SOL    HW230336   3.386   5.645   6.069
 9813SOL     OW30337   4.167   0.510   2.205
 9813SOL    HW130338   4.226   0.487   2.127
 9813SOL    HW230339   4.149   0.608   2.205
 9814SOL     OW30340   0.105   1.692   5.997
 9814SOL    HW130341   0.073   1.786   6.011
 9814SOL    HW230342   0.115   1.674   5.899
 9815SOL     OW30343   4.285   2.241   4.436
 9815SOL    HW130344   4.316   2.312   4.373
 9815SOL    HW230345   4.315   2.263   4.529
 9816SOL     OW30346   2.854   1.196   0.252
 9816SOL    HW130347   2.919   1.219   0.180
 9816SOL    HW230348   2.762   1.188   0.213
 9817SOL     OW30349   6.482   0.689   1.538
 9817SOL    HW130350   6.550   0.727   1.475
 9817SOL    HW230351   6.438   0.610   1.495
 9818SOL     OW30352   3.916   2.932   5.238
 9818SOL    HW130353   3.920   2.975   5.147
 9818SOL    HW230354   3.842   2.865   5.240
 9819SOL     OW30355   3.146   0.450   1.873
 9819SOL    HW130356   3.174   0.546   1.877
 9819SOL    HW230357   3.060   0.443   1.823
 9820SOL     OW30358   3.581   2.607   0.334
 9820SOL    HW130359   3.670   2.618   0.290
 9820SOL    HW230360   3.587   2.638   0.429
 9821SOL     OW30361   0.021   5.322   0.136
 9821SOL    HW130362   0.028   5.397   0.202
 9821SOL    HW230363   0.097   5.259   0.149
 9822SOL     OW30364   0.493   0.162   2.558
 9822SOL    HW130365   0.558   0.238   2.547
 9822SOL    HW230366   0.441   0.151   2.474
 9823SOL     OW30367   3.472   6.249   1.813
 9823SOL    HW130368   3.465   6.287   1.905
 9823SOL    HW230369   3.564   6.264   1.776
 9824SOL     OW30370   1.908   4.339   6.394
 9824SOL    HW130371   1.921   4.308   6.300
 9824SOL    HW230372   1.817   4.378   6.404
 9825SOL     OW30373   4.241   4.989   5.313
 9825SOL    HW130374   4.160   4.956   5.265
 9825SOL    HW230375   4.271   4.921   5.380
 9826SOL     OW30376   5.618   6.741   5.200
 9826SOL    HW130377   5.696   6.752   5.262
 9826SOL    HW230378   5.536   6.778   5.243
 9827SOL     OW30379   0.658   4.528   4.565
 9827SOL    HW130380   0.647   4.454   4.498
 9827SOL    HW230381   0.587   4.597   4.551
 9828SOL     OW30382   2.692   2.506   6.698
 9828SOL    HW130383   2.618   2.470   6.641
 9828SOL    HW230384   2.682   2.472   6.792
 9829SOL     OW30385   2.541   4.564   1.213
 9829SOL    HW130386   2.580   4.590   1.301
 9829SOL    HW230387   2.446   4.594   1.209
 9830SOL     OW30388   0.143   1.677   0.446
 9830SOL    HW130389   0.220   1.614   0.460
 9830SOL    HW230390   0.150   1.752   0.512
 9831SOL     OW30391   5.608   6.693   1.390
 9831SOL    HW130392   5.642   6.781   1.355
 9831SOL    HW230393   5.625   6.622   1.322
 9832SOL     OW30394   3.857   4.726   1.423
 9832SOL    HW130395   3.798   4.669   1.480
 9832SOL    HW230396   3.801   4.776   1.357
 9833SOL     OW30397   4.864   4.078   5.701
 9833SOL    HW130398   4.856   4.032   5.789
 9833SOL    HW230399   4.864   4.010   5.627
 9834SOL     OW30400   2.044   2.631   4.104
 9834SOL    HW130401   2.036   2.699   4.177
 9834SOL    HW230402   1.985   2.553   4.125
 9835SOL     OW30403   5.194   1.641   4.700
 9835SOL    HW130404   5.188   1.734   4.663
 9835SOL    HW230405   5.196   1.575   4.624
 9836SOL     OW30406   5.201   5.408   1.920
 9836SOL    HW130407   5.160   5.325   1.882
 9836SOL    HW230408   5.198   5.405   2.020
 9837SOL     OW30409   1.530   6.241   5.593
 9837SOL    HW130410   1.579   6.192   5.521
 9837SOL    HW230411   1.437   6.205   5.601
 9838SOL     OW30412   6.424   5.423   4.686
 9838SOL    HW130413   6.491   5.497   4.679
 9838SOL    HW230414   6.400   5.409   4.782
 9839SOL     OW30415   6.355   2.730   2.662
 9839SOL    HW130416   6.320   2.683   2.743
 9839SOL    HW230417   6.385   2.663   2.595
 9840SOL     OW30418   5.951   0.324   0.650
 9840SOL    HW130419   6.043   0.290   0.632
 9840SOL    HW230420   5.908   0.351   0.564
 9841SOL     OW30421   2.081   3.463   3.921
 9841SOL    HW130422   2.141   3.525   3.973
 9841SOL    HW230423   2.068   3.378   3.973
 9842SOL     OW30424   2.979   3.371   3.360
 9842SOL    HW130425   2.926   3.352   3.277
 9842SOL    HW230426   3.048   3.441   3.340
 9843SOL     OW30427   6.053   3.700   3.030
 9843SOL    HW130428   5.979   3.725   2.969
 9843SOL    HW230429   6.031   3.614   3.076
 9844SOL     OW30430   5.292   0.423   2.437
 9844SOL    HW130431   5.249   0.374   2.513
 9844SOL    HW230432   5.229   0.492   2.403
 9845SOL     OW30433   1.340   1.655   3.448
 9845SOL    HW130434   1.350   1.754   3.458
 9845SOL    HW230435   1.262   1.623   3.501
 9846SOL     OW30436   2.906   3.384   3.085
 9846SOL    HW130437   2.869   3.460   3.032
 9846SOL    HW230438   2.994   3.357   3.048
 9847SOL     OW30439   1.985   4.496   4.681
 9847SOL    HW130440   1.893   4.524   4.708
 9847SOL    HW230441   2.019   4.428   4.746
 9848SOL     OW30442   5.454   3.729   0.580
 9848SOL    HW130443   5.398   3.714   0.499
 9848SOL    HW230444   5.458   3.645   0.634
 9849SOL     OW30445   0.060   6.899   5.754
 9849SOL    HW130446   0.043   6.955   5.835
 9849SOL    HW230447   0.157   6.905   5.729
 9850SOL     OW30448   4.440   0.327   2.822
 9850SOL    HW130449   4.343   0.311   2.802
 9850SOL    HW230450   4.460   0.296   2.915
 9851SOL     OW30451   5.592   3.087   5.208
 9851SOL    HW130452   5.638   3.024   5.269
 9851SOL    HW230453   5.624   3.074   5.114
 9852SOL     OW30454   5.109   1.823   4.206
 9852SOL    HW130455   5.100   1.921   4.185
 9852SOL    HW230456   5.066   1.804   4.294
 9853SOL     OW30457   0.279   3.926   1.226
 9853SOL    HW130458   0.328   3.968   1.302
 9853SOL    HW230459   0.329   3.846   1.192
 9854SOL     OW30460   4.548   5.850   3.689
 9854SOL    HW130461   4.588   5.803   3.611
 9854SOL    HW230462   4.534   5.947   3.666
 9855SOL     OW30463   1.568   3.627   0.806
 9855SOL    HW130464   1.649   3.604   0.753
 9855SOL    HW230465   1.491   3.570   0.777
 9856SOL     OW30466   3.852   2.656   0.749
 9856SOL    HW130467   3.885   2.563   0.730
 9856SOL    HW230468   3.928   2.711   0.785
 9857SOL     OW30469   6.210   4.300   2.903
 9857SOL    HW130470   6.189   4.246   2.984
 9857SOL    HW230471   6.126   4.323   2.855
 9858SOL     OW30472   4.340   1.380   1.306
 9858SOL    HW130473   4.254   1.368   1.356
 9858SOL    HW230474   4.394   1.451   1.351
 9859SOL     OW30475   6.252   0.358   1.498
 9859SOL    HW130476   6.165   0.400   1.471
 9859SOL    HW230477   6.243   0.319   1.590
 9860SOL     OW30478   0.460   1.081   2.422
 9860SOL    HW130479   0.539   1.049   2.370
 9860SOL    HW230480   0.429   1.009   2.484
 9861SOL     OW30481   2.989   6.670   4.970
 9861SOL    HW130482   3.021   6.597   5.031
 9861SOL    HW230483   3.059   6.690   4.901
 9862SOL     OW30484   0.833   2.155   0.917
 9862SOL    HW130485   0.854   2.181   1.011
 9862SOL    HW230486   0.918   2.153   0.863
 9863SOL     OW30487   2.967   0.019   0.850
 9863SOL    HW130488   3.066   0.019   0.836
 9863SOL    HW230489   2.939   6.960   0.897
 9864SOL     OW30490   4.330   6.220   2.912
 9864SOL    HW130491   4.381   6.300   2.879
 9864SOL    HW230492   4.375   6.136   2.882
 9865SOL     OW30493   1.361   2.483   4.448
 9865SOL    HW130494   1.355   2.385   4.434
 9865SOL    HW230495   1.423   2.502   4.524
 9866SOL     OW30496   3.854   4.855   3.095
 9866SOL    HW130497   3.944   4.813   3.097
 9866SOL    HW230498   3.861   4.950   3.124
 9867SOL     OW30499   4.036   0.436   6.376
 9867SOL    HW130500   4.092   0.519   6.376
 9867SOL    HW230501   4.045   0.390   6.465
 9868SOL     OW30502   0.187   5.037   6.548
 9868SOL    HW130503   0.094   5.006   6.562
 9868SOL    HW230504   0.201   5.059   6.451
 9869SOL     OW30505   1.855   3.823   3.131
 9869SOL    HW130506   1.873   3.921   3.126
 9869SOL    HW230507   1.857   3.784   3.039
 9870SOL     OW30508   4.763   4.649   2.474
 9870SOL    HW130509   4.804   4.635   2.564
 9870SOL    HW230510   4.682   4.590   2.464
 9871SOL     OW30511   1.323   1.603   5.416
 9871SOL    HW130512   1.283   1.662   5.486
 9871SOL    HW230513   1.359   1.520   5.459
 9872SOL     OW30514   1.377   4.549   3.655
 9872SOL    HW130515   1.381   4.501   3.743
 9872SOL    HW230516   1.398   4.486   3.581
 9873SOL     OW30517   1.418   2.271   0.359
 9873SOL    HW130518   1.510   2.306   0.374
 9873SOL    HW230519   1.352   2.331   0.404
 9874SOL     OW30520   0.853   3.119   3.866
 9874SOL    HW130521   0.815   3.061   3.938
 9874SOL    HW230522   0.877   3.063   3.787
 9875SOL     OW30523   1.458   0.810   3.056
 9875SOL    HW130524   1.516   0.734   3.025
 9875SOL    HW230525   1.502   0.897   3.031
 9876SOL     OW30526   0.108   5.708   2.474
 9876SOL    HW130527   0.081   5.709   2.570
 9876SOL    HW230528   0.075   5.624   2.431
 9877SOL     OW30529   3.899   6.689   1.808
 9877SOL    HW130530   3.819   6.633   1.831
 9877SOL    HW230531   3.932   6.734   1.891
 9878SOL     OW30532   0.732   0.333   5.431
 9878SOL    HW130533   0.724   0.380   5.343
 9878SOL    HW230534   0.642   0.302   5.460
 9879SOL     OW30535   5.378   6.251   5.791
 9879SOL    HW130536   5.435   6.205   5.859
 9879SOL    HW230537   5.326   6.184   5.739
 9880SOL     OW30538   1.814   1.864   4.372
 9880SOL    HW130539   1.875   1.939   4.397
 9880SOL    HW230540   1.827   1.788   4.436
 9881SOL     OW30541   7.007   1.880   6.516
 9881SOL    HW130542   0.065   1.928   6.543
 9881SOL    HW230543   7.007   1.788   6.556
 9882SOL     OW30544   1.766   1.624   2.758
 9882SOL    HW130545   1.720   1.711   2.775
 9882SOL    HW230546   1.787   1.615   2.661
 9883SOL     OW30547   2.887   1.369   2.124
 9883SOL    HW130548   2.904   1.313   2.205
 9883SOL    HW230549   2.917   1.463   2.141
 9884SOL     OW30550   3.813   0.698   4.210
 9884SOL    HW130551   3.843   0.650   4.127
 9884SOL    HW230552   3.831   0.796   4.200
 9885SOL     OW30553   6.698   4.483   3.421
 9885SOL    HW130554   6.681   4.483   3.519
 9885SOL    HW230555   6.613   4.467   3.372
 9886SOL     OW30556   1.334   3.460   1.859
 9886SOL    HW130557   1.348   3.524   1.784
 9886SOL    HW230558   1.354   3.506   1.946
 9887SOL     OW30559   4.395   6.940   6.040
 9887SOL    HW130560   4.301   6.964   6.064
 9887SOL    HW230561   4.453   6.947   6.121
 9888SOL     OW30562   6.502   4.858   0.579
 9888SOL    HW130563   6.408   4.844   0.608
 9888SOL    HW230564   6.561   4.865   0.659
 9889SOL     OW30565   0.393   5.146   0.418
 9889SOL    HW130566   0.395   5.246   0.413
 9889SOL    HW230567   0.319   5.111   0.361
 9890SOL     OW30568   0.917   3.464   0.734
 9890SOL    HW130569   0.959   3.389   0.683
 9890SOL    HW230570   0.821   3.474   0.705
 9891SOL     OW30571   4.994   1.371   1.732
 9891SOL    HW130572   4.953   1.458   1.761
 9891SOL    HW230573   5.089   1.386   1.705
 9892SOL     OW30574   0.212   6.106   0.158
 9892SOL    HW130575   0.150   6.095   0.080
 9892SOL    HW230576   0.276   6.181   0.138
 9893SOL     OW30577   2.675   1.764   1.385
 9893SOL    HW130578   2.660   1.858   1.416
 9893SOL    HW230579   2.588   1.723   1.358
 9894SOL     OW30580   1.890   1.186   1.466
 9894SOL    HW130581   1.850   1.272   1.436
 9894SOL    HW230582   1.867   1.170   1.562
 9895SOL     OW30583   4.671   3.464   6.173
 9895SOL    HW130584   4.599   3.490   6.108
 9895SOL    HW230585   4.722   3.387   6.137
 9896SOL     OW30586   6.579   6.567   6.563
 9896SOL    HW130587   6.596   6.470   6.577
 9896SOL    HW230588   6.663   6.619   6.580
 9897SOL     OW30589   6.119   5.229   4.130
 9897SOL    HW130590   6.171   5.303   4.172
 9897SOL    HW230591   6.040   5.268   4.081
 9898SOL     OW30592   2.827   6.645   5.604
 9898SOL    HW130593   2.818   6.583   5.683
 9898SOL    HW230594   2.754   6.626   5.539
 9899SOL     OW30595   0.027   5.461   6.729
 9899SOL    HW130596   0.086   5.382   6.712
 9899SOL    HW230597   7.000   5.447   6.814
 9900SOL     OW30598   2.093   3.479   3.393
 9900SOL    HW130599   2.189   3.470   3.421
 9900SOL    HW230600   2.035   3.483   3.474
 9901SOL     OW30601   2.181   2.733   5.641
 9901SOL    HW130602   2.147   2.801   5.576
 9901SOL    HW230603   2.104   2.698   5.695
 9902SOL     OW30604   2.736   4.328   6.787
 9902SOL    HW130605   2.673   4.252   6.804
 9902SOL    HW230606   2.829   4.301   6.811
 9903SOL     OW30607   5.547   0.673   4.272
 9903SOL    HW130608   5.574   0.767   4.256
 9903SOL    HW230609   5.475   0.647   4.208
 9904SOL     OW30610   6.402   1.994   0.238
 9904SOL    HW130611   6.317   2.019   0.285
 9904SOL    HW230612   6.386   1.912   0.182
 9905SOL     OW30613   5.244   0.742   0.149
 9905SOL    HW130614   5.280   0.761   0.058
 9905SOL    HW230615   5.262   0.820   0.209
 9906SOL     OW30616   3.871   2.987   4.928
 9906SOL    HW130617   3.810   3.056   4.888
 9906SOL    HW230618   3.828   2.897   4.920
 9907SOL     OW30619   0.931   0.368   1.531
 9907SOL    HW130620   1.028   0.351   1.550
 9907SOL    HW230621   0.912   0.346   1.435
 9908SOL     OW30622   5.300   3.432   2.894
 9908SOL    HW130623   5.251   3.491   2.959
 9908SOL    HW230624   5.326   3.347   2.939
 9909SOL     OW30625   2.120   0.292   5.097
 9909SOL    HW130626   2.117   0.242   5.183
 9909SOL    HW230627   2.209   0.279   5.053
 9910SOL     OW30628   0.225   4.292   3.442
 9910SOL    HW130629   0.267   4.208   3.475
 9910SOL    HW230630   0.125   4.281   3.439
 9911SOL     OW30631   2.575   6.013   2.676
 9911SOL    HW130632   2.603   6.095   2.626
 9911SOL    HW230633   2.476   6.015   2.689
 9912SOL     OW30634   5.426   0.860   6.463
 9912SOL    HW130635   5.354   0.791   6.463
 9912SOL    HW230636   5.462   0.871   6.371
 9913SOL     OW30637   4.450   3.189   6.659
 9913SOL    HW130638   4.375   3.166   6.720
 9913SOL    HW230639   4.506   3.107   6.642
 9914SOL     OW30640   0.153   4.021   4.544
 9914SOL    HW130641   0.064   3.983   4.519
 9914SOL    HW230642   0.155   4.041   4.642
 9915SOL     OW30643   5.401   1.054   3.679
 9915SOL    HW130644   5.493   1.091   3.671
 9915SOL    HW230645   5.404   0.967   3.728
 9916SOL     OW30646   2.374   2.571   1.573
 9916SOL    HW130647   2.315   2.639   1.531
 9916SOL    HW230648   2.421   2.519   1.501
 9917SOL     OW30649   6.082   4.805   4.671
 9917SOL    HW130650   6.170   4.769   4.702
 9917SOL    HW230651   6.008   4.751   4.712
 9918SOL     OW30652   4.651   2.562   2.693
 9918SOL    HW130653   4.655   2.609   2.782
 9918SOL    HW230654   4.694   2.619   2.624
 9919SOL     OW30655   6.266   6.572   0.384
 9919SOL    HW130656   6.264   6.641   0.457
 9919SOL    HW230657   6.342   6.593   0.322
 9920SOL     OW30658   4.581   1.408   2.541
 9920SOL    HW130659   4.511   1.479   2.536
 9920SOL    HW230660   4.596   1.382   2.637
 9921SOL     OW30661   3.358   4.867   6.441
 9921SOL    HW130662   3.401   4.925   6.371
 9921SOL    HW230663   3.362   4.772   6.411
 9922SOL     OW30664   0.177   5.247   0.645
 9922SOL    HW130665   0.144   5.277   0.734
 9922SOL    HW230666   0.277   5.236   0.649
 9923SOL     OW30667   5.490   4.715   1.138
 9923SOL    HW130668   5.517   4.685   1.229
 9923SOL    HW230669   5.391   4.731   1.136
 9924SOL     OW30670   0.834   3.868   4.826
 9924SOL    HW130671   0.740   3.835   4.824
 9924SOL    HW230672   0.873   3.855   4.917
 9925SOL     OW30673   5.002   2.306   3.184
 9925SOL    HW130674   5.088   2.278   3.227
 9925SOL    HW230675   5.012   2.398   3.147
 9926SOL     OW30676   2.524   5.588   6.860
 9926SOL    HW130677   2.597   5.560   6.923
 9926SOL    HW230678   2.451   5.519   6.861
 9927SOL     OW30679   5.705   0.231   3.378
 9927SOL    HW130680   5.714   0.158   3.446
 9927SOL    HW230681   5.765   0.213   3.301
 9928SOL     OW30682   4.695   4.754   1.916
 9928SOL    HW130683   4.792   4.754   1.942
 9928SOL    HW230684   4.671   4.666   1.875
 9929SOL     OW30685   1.163   4.683   2.604
 9929SOL    HW130686   1.163   4.774   2.646
 9929SOL    HW230687   1.115   4.619   2.663
 9930SOL     OW30688   6.669   0.436   3.509
 9930SOL    HW130689   6.628   0.345   3.509
 9930SOL    HW230690   6.756   0.433   3.559
 9931SOL     OW30691   0.664   4.730   5.879
 9931SOL    HW130692   0.583   4.728   5.821
 9931SOL    HW230693   0.653   4.665   5.955
 9932SOL     OW30694   0.470   6.252   5.002
 9932SOL    HW130695   0.501   6.159   5.021
 9932SOL    HW230696   0.452   6.299   5.089
 9933SOL     OW30697   0.760   6.091   2.225
 9933SOL    HW130698   0.735   6.139   2.309
 9933SOL    HW230699   0.849   6.123   2.193
 9934SOL     OW30700   6.776   2.047   6.164
 9934SOL    HW130701   6.778   2.032   6.263
 9934SOL    HW230702   6.868   2.064   6.131
 9935SOL     OW30703   3.239   0.491   6.411
 9935SOL    HW130704   3.217   0.429   6.486
 9935SOL    HW230705   3.166   0.488   6.342
 9936SOL     OW30706   0.716   3.741   3.757
 9936SOL    HW130707   0.788   3.713   3.820
 9936SOL    HW230708   0.756   3.765   3.669
 9937SOL     OW30709   6.555   2.299   6.400
 9937SOL    HW130710   6.612   2.308   6.482
 9937SOL    HW230711   6.540   2.203   6.380
 9938SOL     OW30712   7.020   6.446   2.825
 9938SOL    HW130713   0.050   6.362   2.823
 9938SOL    HW230714   0.042   6.516   2.770
 9939SOL     OW30715   3.463   3.214   3.005
 9939SOL    HW130716   3.557   3.203   3.037
 9939SOL    HW230717   3.403   3.156   3.059
 9940SOL     OW30718   6.988   1.261   0.519
 9940SOL    HW130719   0.013   1.236   0.436
 9940SOL    HW230720   6.966   1.179   0.571
 9941SOL     OW30721   2.827   5.559   5.550
 9941SOL    HW130722   2.825   5.463   5.524
 9941SOL    HW230723   2.736   5.599   5.538
 9942SOL     OW30724   3.088   5.586   4.135
 9942SOL    HW130725   3.100   5.681   4.108
 9942SOL    HW230726   3.015   5.578   4.202
 9943SOL     OW30727   1.387   6.698   4.953
 9943SOL    HW130728   1.292   6.729   4.953
 9943SOL    HW230729   1.443   6.766   4.906
 9944SOL     OW30730   1.427   3.961   6.843
 9944SOL    HW130731   1.429   4.029   6.916
 9944SOL    HW230732   1.345   3.974   6.787
 9945SOL     OW30733   6.551   5.959   6.623
 9945SOL    HW130734   6.518   5.951   6.529
 9945SOL    HW230735   6.473   5.968   6.685
 9946SOL     OW30736   5.505   1.397   4.510
 9946SOL    HW130737   5.549   1.323   4.560
 9946SOL    HW230738   5.462   1.461   4.574
 9947SOL     OW30739   6.262   4.903   3.386
 9947SOL    HW130740   6.348   4.927   3.432
 9947SOL    HW230741   6.270   4.811   3.349
 9948SOL     OW30742   5.322   3.742   4.075
 9948SOL    HW130743   5.342   3.723   3.980
 9948SOL    HW230744   5.232   3.703   4.099
 9949SOL     OW30745   5.563   5.229   2.272
 9949SOL    HW130746   5.628   5.293   2.313
 9949SOL    HW230747   5.604   5.138   2.268
 9950SOL     OW30748   3.410   5.887   6.069
 9950SOL    HW130749   3.384   5.970   6.118
 9950SOL    HW230750   3.502   5.860   6.095
 9951SOL     OW30751   6.235   2.462   3.275
 9951SOL    HW130752   6.220   2.525   3.351
 9951SOL    HW230753   6.226   2.368   3.307
 9952SOL     OW30754   0.137   5.135   6.833
 9952SOL    HW130755   0.055   5.132   6.775
 9952SOL    HW230756   0.185   5.221   6.819
 9953SOL     OW30757   6.362   2.762   3.577
 9953SOL    HW130758   6.442   2.722   3.622
 9953SOL    HW230759   6.389   2.849   3.533
 9954SOL     OW30760   3.851   0.348   5.627
 9954SOL    HW130761   3.817   0.259   5.656
 9954SOL    HW230762   3.937   0.337   5.577
 9955SOL     OW30763   0.156   4.723   4.492
 9955SOL    HW130764   0.193   4.706   4.401
 9955SOL    HW230765   0.130   4.636   4.534
 9956SOL     OW30766   1.346   6.250   0.375
 9956SOL    HW130767   1.371   6.167   0.325
 9956SOL    HW230768   1.260   6.234   0.425
 9957SOL     OW30769   5.998   5.264   2.415
 9957SOL    HW130770   6.048   5.333   2.466
 9957SOL    HW230771   6.050   5.240   2.333
 9958SOL     OW30772   2.178   4.468   1.012
 9958SOL    HW130773   2.086   4.485   0.978
 9958SOL    HW230774   2.211   4.380   0.978
 9959SOL     OW30775   3.421   3.536   1.142
 9959SOL    HW130776   3.349   3.466   1.135
 9959SOL    HW230777   3.510   3.491   1.142
 9960SOL     OW30778   0.658   1.651   1.955
 9960SOL    HW130779   0.615   1.630   2.044
 9960SOL    HW230780   0.741   1.598   1.945
 9961SOL     OW30781   2.123   3.952   4.592
 9961SOL    HW130782   2.160   4.021   4.654
 9961SOL    HW230783   2.161   3.863   4.614
 9962SOL     OW30784   5.216   6.526   4.572
 9962SOL    HW130785   5.199   6.563   4.480
 9962SOL    HW230786   5.131   6.487   4.607
 9963SOL     OW30787   3.078   0.952   0.746
 9963SOL    HW130788   3.032   0.876   0.791
 9963SOL    HW230789   3.094   0.929   0.650
 9964SOL     OW30790   5.128   6.011   4.576
 9964SOL    HW130791   5.168   5.920   4.565
 9964SOL    HW230792   5.057   6.008   4.647
 9965SOL     OW30793   3.994   6.883   0.314
 9965SOL    HW130794   3.989   6.979   0.286
 9965SOL    HW230795   4.082   6.844   0.287
 9966SOL     OW30796   6.964   0.272   3.211
 9966SOL    HW130797   6.977   0.254   3.114
 9966SOL    HW230798   6.872   0.245   3.238
 9967SOL     OW30799   0.945   5.524   0.738
 9967SOL    HW130800   0.969   5.507   0.642
 9967SOL    HW230801   0.997   5.461   0.797
 9968SOL     OW30802   2.871   3.620   2.964
 9968SOL    HW130803   2.919   3.656   3.044
 9968SOL    HW230804   2.795   3.681   2.942
 9969SOL     OW30805   1.481   3.097   1.442
 9969SOL    HW130806   1.386   3.072   1.461
 9969SOL    HW230807   1.484   3.188   1.400
 9970SOL     OW30808   5.931   4.662   1.844
 9970SOL    HW130809   6.020   4.707   1.856
 9970SOL    HW230810   5.860   4.730   1.830
 9971SOL     OW30811   2.445   6.220   0.268
 9971SOL    HW130812   2.429   6.192   0.173
 9971SOL    HW230813   2.365   6.268   0.303
 9972SOL     OW30814   6.789   4.929   1.308
 9972SOL    HW130815   6.705   4.914   1.360
 9972SOL    HW230816   6.824   4.842   1.274
 9973SOL     OW30817   6.035   6.896   3.647
 9973SOL    HW130818   6.065   6.851   3.563
 9973SOL    HW230819   6.109   6.952   3.684
 9974SOL     OW30820   2.651   0.365   4.404
 9974SOL    HW130821   2.736   0.407   4.371
 9974SOL    HW230822   2.585   0.362   4.329
 9975SOL     OW30823   6.257   3.990   0.388
 9975SOL    HW130824   6.328   3.922   0.405
 9975SOL    HW230825   6.183   3.949   0.336
 9976SOL     OW30826   2.134   6.707   4.933
 9976SOL    HW130827   2.106   6.781   4.995
 9976SOL    HW230828   2.192   6.642   4.982
 9977SOL     OW30829   6.599   4.437   4.057
 9977SOL    HW130830   6.550   4.436   3.969
 9977SOL    HW230831   6.629   4.530   4.077
 9978SOL     OW30832   0.405   2.778   5.085
 9978SOL    HW130833   0.468   2.706   5.116
 9978SOL    HW230834   0.413   2.789   4.986
 9979SOL     OW30835   0.698   4.213   5.071
 9979SOL    HW130836   0.723   4.301   5.031
 9979SOL    HW230837   0.752   4.140   5.029
 9980SOL     OW30838   2.878   6.578   4.726
 9980SOL    HW130839   2.900   6.604   4.820
 9980SOL    HW230840   2.779   6.571   4.716
 9981SOL     OW30841   4.087   2.270   3.981
 9981SOL    HW130842   4.144   2.351   3.993
 9981SOL    HW230843   4.096   2.210   4.061
 9982SOL     OW30844   6.754   6.093   2.778
 9982SOL    HW130845   6.722   5.999   2.791
 9982SOL    HW230846   6.803   6.123   2.859
 9983SOL     OW30847   6.698   1.154   0.865
 9983SOL    HW130848   6.757   1.232   0.886
 9983SOL    HW230849   6.604   1.186   0.854
 9984SOL     OW30850   2.601   1.059   6.774
 9984SOL    HW130851   2.671   1.130   6.757
 9984SOL    HW230852   2.513   1.103   6.789
 9985SOL     OW30853   2.015   1.863   1.708
 9985SOL    HW130854   2.026   1.792   1.639
 9985SOL    HW230855   1.920   1.892   1.712
 9986SOL     OW30856   4.817   4.022   4.586
 9986SOL    HW130857   4.816   3.926   4.558
 9986SOL    HW230858   4.849   4.028   4.681
 9987SOL     OW30859   0.390   4.580   6.007
 9987SOL    HW130860   0.307   4.534   6.038
 9987SOL    HW230861   0.450   4.600   6.085
 9988SOL     OW30862   6.817   0.055   4.453
 9988SOL    HW130863   6.743   7.023   4.492
 9988SOL    HW230864   6.800   0.067   4.355
 9989SOL     OW30865   1.451   2.834   4.175
 9989SOL    HW130866   1.444   2.735   4.164
 9989SOL    HW230867   1.501   2.855   4.259
 9990SOL     OW30868   1.471   5.433   1.911
 9990SOL    HW130869   1.468   5.529   1.939
 9990SOL    HW230870   1.547   5.419   1.847
 9991SOL     OW30871   4.070   2.261   3.054
 9991SOL    HW130872   3.978   2.297   3.066
 9991SOL    HW230873   4.123   2.279   3.137
 9992SOL     OW30874   6.828   5.210   6.070
 9992SOL    HW130875   6.822   5.234   6.167
 9992SOL    HW230876   6.908   5.255   6.030
 9993SOL     OW30877   1.250   0.642   2.080
 9993SOL    HW130878   1.182   0.668   2.149
 9993SOL    HW230879   1.293   0.725   2.043
 9994SOL     OW30880   6.238   4.768   3.040
 9994SOL    HW130881   6.322   4.715   3.049
 9994SOL    HW230882   6.161   4.706   3.027
 9995SOL     OW30883   4.977   1.292   4.491
 9995SOL    HW130884   5.024   1.225   4.548
 9995SOL    HW230885   4.928   1.245   4.417
 9996SOL     OW30886   2.479   3.092   6.851
 9996SOL    HW130887   2.471   3.081   6.752
 9996SOL    HW230888   2.575   3.085   6.878
 9997SOL     OW30889   2.503   0.475   4.637
 9997SOL    HW130890   2.520   0.415   4.559
 9997SOL    HW230891   2.409   0.460   4.669
 9998SOL     OW30892   5.719   6.394   5.418
 9998SOL    HW130893   5.788   6.340   5.466
 9998SOL    HW230894   5.743   6.491   5.424
 9999SOL     OW30895   6.887   1.516   4.637
 9999SOL    HW130896   6.796   1.502   4.677
 9999SOL    HW230897   6.957   1.480   4.700
10000SOL     OW30898   6.867   4.801   0.043
10000SOL    HW130899   6.894   4.897   0.040
10000SOL    HW230900   6.777   4.793   0.086
10001SOL     OW30901   3.995   0.084   3.527
10001SOL    HW130902   4.072   0.037   3.485
10001SOL    HW230903   4.023   0.176   3.553
10002SOL     OW30904   1.813   1.839   1.978
10002SOL    HW130905   1.813   1.745   1.944
10002SOL    HW230906   1.723   1.879   1.965
10003SOL     OW30907   5.213   3.053   3.147
10003SOL    HW130908   5.231   3.148   3.175
10003SOL    HW230909   5.244   3.040   3.053
10004SOL     OW30910   0.491   2.709   3.211
10004SOL    HW130911   0.472   2.736   3.117
10004SOL    HW230912   0.427   2.755   3.273
10005SOL     OW30913   5.401   0.186   4.449
10005SOL    HW130914   5.381   0.092   4.475
10005SOL    HW230915   5.334   0.247   4.492
10006SOL     OW30916   4.559   1.806   4.644
10006SOL    HW130917   4.652   1.775   4.624
10006SOL    HW230918   4.562   1.900   4.679
10007SOL     OW30919   6.328   3.882   4.039
10007SOL    HW130920   6.328   3.881   3.939
10007SOL    HW230921   6.304   3.973   4.072
10008SOL     OW30922   3.601   0.082   3.909
10008SOL    HW130923   3.573   0.011   3.844
10008SOL    HW230924   3.692   0.061   3.945
10009SOL     OW30925   2.240   4.524   1.714
10009SOL    HW130926   2.193   4.462   1.777
10009SOL    HW230927   2.320   4.478   1.676
10010SOL     OW30928   5.831   1.164   6.085
10010SOL    HW130929   5.753   1.225   6.102
10010SOL    HW230930   5.819   1.119   5.997
10011SOL     OW30931   0.084   6.745   4.108
10011SOL    HW130932   7.023   6.696   4.090
10011SOL    HW230933   0.150   6.724   4.036
10012SOL     OW30934   5.939   0.432   4.361
10012SOL    HW130935   6.001   0.508   4.343
10012SOL    HW230936   5.860   0.437   4.299
10013SOL     OW30937   1.497   0.918   2.019
10013SOL    HW130938   1.568   0.959   1.963
10013SOL    HW230939   1.537   0.883   2.104
10014SOL     OW30940   1.162   4.854   5.686
10014SOL    HW130941   1.197   4.821   5.773
10014SOL    HW230942   1.179   4.953   5.678
10015SOL     OW30943   2.003   5.662   6.659
10015SOL    HW130944   1.985   5.621   6.749
10015SOL    HW230945   1.956   5.750   6.652
10016SOL     OW30946   2.593   0.606   5.405
10016SOL    HW130947   2.496   0.600   5.382
10016SOL    HW230948   2.609   0.686   5.463
10017SOL     OW30949   0.264   2.271   4.307
10017SOL    HW130950   0.351   2.239   4.269
10017SOL    HW230951   0.251   2.367   4.283
10018SOL     OW30952   5.179   6.830   5.764
10018SOL    HW130953   5.188   6.736   5.796
10018SOL    HW230954   5.099   6.837   5.703
10019SOL     OW30955   1.672   1.137   2.520
10019SOL    HW130956   1.720   1.199   2.582
10019SOL    HW230957   1.629   1.189   2.446
10020SOL     OW30958   6.983   2.946   6.992
10020SOL    HW130959   6.903   3.002   7.013
10020SOL    HW230960   0.042   3.000   7.010
10021SOL     OW30961   5.327   2.861   1.489
10021SOL    HW130962   5.230   2.846   1.504
10021SOL    HW230963   5.365   2.785   1.437
10022SOL     OW30964   1.941   0.476   6.252
10022SOL    HW130965   1.897   0.525   6.327
10022SOL    HW230966   2.040   0.478   6.264
10023SOL     OW30967   0.227   3.122   0.654
10023SOL    HW130968   0.270   3.192   0.710
10023SOL    HW230969   0.130   3.115   0.676
10024SOL     OW30970   1.210   4.409   3.112
10024SOL    HW130971   1.137   4.464   3.152
10024SOL    HW230972   1.282   4.468   3.077
10025SOL     OW30973   0.699   0.875   0.945
10025SOL    HW130974   0.713   0.958   0.998
10025SOL    HW230975   0.631   0.892   0.873
10026SOL     OW30976   6.640   0.340   4.072
10026SOL    HW130977   6.628   0.341   4.171
10026SOL    HW230978   6.552   0.354   4.027
10027SOL     OW30979   5.925   2.490   5.844
10027SOL    HW130980   5.847   2.428   5.847
10027SOL    HW230981   5.922   2.544   5.760
10028SOL     OW30982   2.400   0.597   1.714
10028SOL    HW130983   2.489   0.587   1.757
10028SOL    HW230984   2.391   0.689   1.677
10029SOL     OW30985   4.428   1.089   4.098
10029SOL    HW130986   4.381   1.033   4.029
10029SOL    HW230987   4.408   1.186   4.080
10030SOL     OW30988   1.625   1.036   2.986
10030SOL    HW130989   1.601   1.111   2.924
10030SOL    HW230990   1.689   1.070   3.055
10031SOL     OW30991   6.759   4.626   3.734
10031SOL    HW130992   6.749   4.539   3.781
10031SOL    HW230993   6.670   4.656   3.699
10032SOL     OW30994   3.386   1.487   5.432
10032SOL    HW130995   3.437   1.476   5.347
10032SOL    HW230996   3.374   1.584   5.451
10033SOL     OW30997   5.139   3.051   4.107
10033SOL    HW130998   5.160   2.962   4.147
10033SOL    HW230999   5.214   3.115   4.124
10034SOL     OW31000   3.973   0.092   5.940
10034SOL    HW131001   4.049   0.115   5.879
10034SOL    HW231002   3.987   7.024   5.976
10035SOL     OW31003   0.530   7.019   3.593
10035SOL    HW131004   0.452   7.012   3.656
10035SOL    HW231005   0.587   6.937   3.602
10036SOL     OW31006   6.572   0.418   0.267
10036SOL    HW131007   6.637   0.362   0.214
10036SOL    HW231008   6.576   0.390   0.363
10037SOL     OW31009   6.573   6.870   1.255
10037SOL    HW131010   6.492   6.832   1.300
10037SOL    HW231011   6.616   6.938   1.315
10038SOL     OW31012   6.057   0.452   1.147
10038SOL    HW131013   6.056   0.374   1.085
10038SOL    HW231014   6.143   0.501   1.138
10039SOL     OW31015   4.045   0.346   3.389
10039SOL    HW131016   4.108   0.424   3.391
10039SOL    HW231017   3.951   0.379   3.402
10040SOL     OW31018   0.443   2.328   0.815
10040SOL    HW131019   0.439   2.370   0.906
10040SOL    HW231020   0.358   2.345   0.766
10041SOL     OW31021   1.224   6.721   0.720
10041SOL    HW131022   1.190   6.627   0.714
10041SOL    HW231023   1.300   6.733   0.656
10042SOL     OW31024   5.888   2.066   3.556
10042SOL    HW131025   5.905   2.141   3.493
10042SOL    HW231026   5.896   1.979   3.508
10043SOL     OW31027   1.490   2.928   5.147
10043SOL    HW131028   1.439   2.892   5.068
10043SOL    HW231029   1.587   2.935   5.124
10044SOL     OW31030   4.457   1.353   6.541
10044SOL    HW131031   4.461   1.449   6.516
10044SOL    HW231032   4.455   1.345   6.641
10045SOL     OW31033   2.785   1.193   1.085
10045SOL    HW131034   2.865   1.141   1.115
10045SOL    HW231035   2.810   1.290   1.075
10046SOL     OW31036   0.606   5.342   0.821
10046SOL    HW131037   0.638   5.433   0.846
10046SOL    HW231038   0.507   5.343   0.810
10047SOL     OW31039   1.706   3.412   0.526
10047SOL    HW131040   1.666   3.342   0.466
10047SOL    HW231041   1.769   3.368   0.590
10048SOL     OW31042   6.359   4.541   2.068
10048SOL    HW131043   6.369   4.447   2.099
10048SOL    HW231044   6.275   4.580   2.105
10049SOL     OW31045   6.172   1.331   4.972
10049SOL    HW131046   6.155   1.341   4.874
10049SOL    HW231047   6.095   1.283   5.015
10050SOL     OW31048   6.542   3.110   5.803
10050SOL    HW131049   6.482   3.078   5.730
10050SOL    HW231050   6.528   3.054   5.885
10051SOL     OW31051   2.337   1.351   4.214
10051SOL    HW131052   2.283   1.332   4.296
10051SOL    HW231053   2.275   1.364   4.136
10052SOL     OW31054   1.058   0.390   3.771
10052SOL    HW131055   0.999   0.344   3.837
10052SOL    HW231056   1.151   0.398   3.809
10053SOL     OW31057   5.825   4.926   2.879
10053SOL    HW131058   5.780   5.014   2.861
10053SOL    HW231059   5.760   4.863   2.922
10054SOL     OW31060   6.464   3.872   4.536
10054SOL    HW131061   6.494   3.910   4.624
10054SOL    HW231062   6.471   3.943   4.466
10055SOL     OW31063   1.782   1.539   6.974
10055SOL    HW131064   1.696   1.552   7.023
10055SOL    HW231065   1.763   1.513   6.879
10056SOL     OW31066   5.803   2.258   4.409
10056SOL    HW131067   5.855   2.189   4.460
10056SOL    HW231068   5.786   2.337   4.468
10057SOL     OW31069   5.684   4.665   5.632
10057SOL    HW131070   5.772   4.712   5.621
10057SOL    HW231071   5.644   4.649   5.542
10058SOL     OW31072   6.754   4.201   4.116
10058SOL    HW131073   6.831   4.261   4.095
10058SOL    HW231074   6.672   4.257   4.133
10059SOL     OW31075   4.899   6.288   6.922
10059SOL    HW131076   4.997   6.306   6.911
10059SOL    HW231077   4.849   6.326   6.844
10060SOL     OW31078   2.945   1.868   2.221
10060SOL    HW131079   3.033   1.915   2.224
10060SOL    HW231080   2.881   1.921   2.165
10061SOL     OW31081   3.639   6.652   2.480
10061SOL    HW131082   3.556   6.637   2.427
10061SOL    HW231083   3.708   6.696   2.422
10062SOL     OW31084   6.691   6.978   4.917
10062SOL    HW131085   6.786   7.008   4.911
10062SOL    HW231086   6.685   6.894   4.971
10063SOL     OW31087   3.212   2.052   4.995
10063SOL    HW131088   3.212   2.145   5.032
10063SOL    HW231089   3.124   2.033   4.952
10064SOL     OW31090   3.219   0.201   2.255
10064SOL    HW131091   3.222   0.300   2.267
10064SOL    HW231092   3.165   0.160   2.329
10065SOL     OW31093   0.219   2.113   1.571
10065SOL    HW131094   0.167   2.049   1.628
10065SOL    HW231095   0.185   2.206   1.584
10066SOL     OW31096   6.523   3.984   3.669
10066SOL    HW131097   6.579   4.001   3.750
10066SOL    HW231098   6.518   3.885   3.652
10067SOL     OW31099   6.047   3.963   5.373
10067SOL    HW131100   6.119   3.894   5.368
10067SOL    HW231101   6.084   4.052   5.348
10068SOL     OW31102   1.966   2.994   2.224
10068SOL    HW131103   2.008   2.913   2.265
10068SOL    HW231104   2.027   3.072   2.234
10069SOL     OW31105   3.180   4.752   1.567
10069SOL    HW131106   3.231   4.779   1.649
10069SOL    HW231107   3.125   4.671   1.588
10070SOL     OW31108   5.054   0.303   0.330
10070SOL    HW131109   5.152   0.318   0.343
10070SOL    HW231110   5.004   0.382   0.364
10071SOL     OW31111   5.415   0.599   5.714
10071SOL    HW131112   5.371   0.624   5.800
10071SOL    HW231113   5.511   0.630   5.716
10072SOL     OW31114   5.818   2.677   2.263
10072SOL    HW131115   5.811   2.597   2.204
10072SOL    HW231116   5.912   2.684   2.298
10073SOL     OW31117   5.623   5.937   5.624
10073SOL    HW131118   5.566   5.919   5.704
10073SOL    HW231119   5.686   5.862   5.610
10074SOL     OW31120   1.887   4.840   0.696
10074SOL    HW131121   1.872   4.915   0.632
10074SOL    HW231122   1.827   4.764   0.671
10075SOL     OW31123   1.545   2.787   1.715
10075SOL    HW131124   1.624   2.832   1.755
10075SOL    HW231125   1.555   2.783   1.615
10076SOL     OW31126   5.866   3.893   4.003
10076SOL    HW131127   5.920   3.971   4.035
10076SOL    HW231128   5.772   3.922   3.989
10077SOL     OW31129   4.170   3.632   6.316
10077SOL    HW131130   4.174   3.692   6.236
10077SOL    HW231131   4.148   3.686   6.397
10078SOL     OW31132   5.877   5.286   4.728
10078SOL    HW131133   5.823   5.322   4.651
10078SOL    HW231134   5.909   5.194   4.706
10079SOL     OW31135   5.202   4.876   2.900
10079SOL    HW131136   5.178   4.904   2.993
10079SOL    HW231137   5.246   4.786   2.902
10080SOL     OW31138   5.290   2.267   5.447
10080SOL    HW131139   5.359   2.313   5.502
10080SOL    HW231140   5.220   2.228   5.508
10081SOL     OW31141   1.820   4.853   6.752
10081SOL    HW131142   1.888   4.897   6.693
10081SOL    HW231143   1.729   4.866   6.713
10082SOL     OW31144   1.278   4.798   1.296
10082SOL    HW131145   1.274   4.897   1.284
10082SOL    HW231146   1.225   4.754   1.223
10083SOL     OW31147   2.877   6.216   2.965
10083SOL    HW131148   2.948   6.287   2.962
10083SOL    HW231149   2.787   6.258   2.966
10084SOL     OW31150   1.535   3.062   4.665
10084SOL    HW131151   1.474   2.986   4.688
10084SOL    HW231152   1.521   3.137   4.729
10085SOL     OW31153   4.509   6.862   1.780
10085SOL    HW131154   4.415   6.891   1.761
10085SOL    HW231155   4.572   6.936   1.757
10086SOL     OW31156   3.511   0.101   3.125
10086SOL    HW131157   3.605   0.128   3.101
10086SOL    HW231158   3.513   0.020   3.183
10087SOL     OW31159   1.636   5.577   5.316
10087SOL    HW131160   1.557   5.616   5.364
10087SOL    HW231161   1.604   5.511   5.248
10088SOL     OW31162   6.632   2.295   1.094
10088SOL    HW131163   6.715   2.271   1.045
10088SOL    HW231164   6.649   2.375   1.152
10089SOL     OW31165   4.321   6.913   2.006
10089SOL    HW131166   4.313   6.947   1.912
10089SOL    HW231167   4.411   6.939   2.043
10090SOL     OW31168   2.009   5.826   2.558
10090SOL    HW131169   1.979   5.740   2.519
10090SOL    HW231170   2.107   5.838   2.544
10091SOL     OW31171   5.539   4.661   3.928
10091SOL    HW131172   5.637   4.670   3.946
10091SOL    HW231173   5.498   4.751   3.917
10092SOL     OW31174   0.273   1.375   2.776
10092SOL    HW131175   0.192   1.332   2.736
10092SOL    HW231176   0.340   1.305   2.799
10093SOL     OW31177   4.474   3.691   6.261
10093SOL    HW131178   4.523   3.702   6.175
10093SOL    HW231179   4.477   3.595   6.289
10094SOL     OW31180   3.935   2.181   0.464
10094SOL    HW131181   3.861   2.245   0.487
10094SOL    HW231182   3.957   2.189   0.367
10095SOL     OW31183   4.387   3.137   5.579
10095SOL    HW131184   4.425   3.146   5.671
10095SOL    HW231185   4.435   3.199   5.517
10096SOL     OW31186   6.868   4.207   2.500
10096SOL    HW131187   6.917   4.294   2.499
10096SOL    HW231188   6.932   4.133   2.523
10097SOL     OW31189   0.939   1.625   0.907
10097SOL    HW131190   0.934   1.528   0.881
10097SOL    HW231191   0.907   1.681   0.831
10098SOL     OW31192   3.759   5.655   6.130
10098SOL    HW131193   3.848   5.678   6.092
10098SOL    HW231194   3.734   5.721   6.200
10099SOL     OW31195   0.361   5.581   3.466
10099SOL    HW131196   0.301   5.565   3.388
10099SOL    HW231197   0.401   5.673   3.460
10100SOL     OW31198   5.255   4.670   3.824
10100SOL    HW131199   5.352   4.674   3.850
10100SOL    HW231200   5.225   4.762   3.797
10101SOL     OW31201   6.892   2.446   6.811
10101SOL    HW131202   6.816   2.494   6.853
10101SOL    HW231203   6.904   2.478   6.717
10102SOL     OW31204   6.837   4.941   2.705
10102SOL    HW131205   6.919   4.996   2.687
10102SOL    HW231206   6.816   4.886   2.624
10103SOL     OW31207   6.834   6.675   6.668
10103SOL    HW131208   6.883   6.728   6.599
10103SOL    HW231209   6.820   6.731   6.750
10104SOL     OW31210   2.747   0.941   5.075
10104SOL    HW131211   2.686   0.973   5.148
10104SOL    HW231212   2.838   0.979   5.089
10105SOL     OW31213   3.471   1.489   4.273
10105SOL    HW131214   3.416   1.434   4.335
10105SOL    HW231215   3.485   1.439   4.187
10106SOL     OW31216   5.995   4.017   1.424
10106SOL    HW131217   5.989   3.990   1.520
10106SOL    HW231218   5.962   4.111   1.414
10107SOL     OW31219   5.659   5.940   6.531
10107SOL    HW131220   5.666   6.006   6.606
10107SOL    HW231221   5.731   5.957   6.464
10108SOL     OW31222   2.565   2.536   4.883
10108SOL    HW131223   2.558   2.611   4.817
10108SOL    HW231224   2.478   2.487   4.886
10109SOL     OW31225   1.179   3.184   1.199
10109SOL    HW131226   1.217   3.243   1.128
10109SOL    HW231227   1.179   3.089   1.168
10110SOL     OW31228   6.384   6.115   2.654
10110SOL    HW131229   6.344   6.168   2.579
10110SOL    HW231230   6.317   6.049   2.687
10111SOL     OW31231   6.764   2.704   1.716
10111SOL    HW131232   6.842   2.672   1.662
10111SOL    HW231233   6.732   2.792   1.681
10112SOL     OW31234   6.925   2.762   4.259
10112SOL    HW131235   6.850   2.782   4.322
10112SOL    HW231236   6.913   2.816   4.175
10113SOL     OW31237   6.911   5.782   5.800
10113SOL    HW131238   6.907   5.878   5.773
10113SOL    HW231239   6.866   5.770   5.889
10114SOL     OW31240   5.153   3.968   1.637
10114SOL    HW131241   5.085   3.988   1.566
10114SOL    HW231242   5.125   3.887   1.687
10115SOL     OW31243   3.492   2.694   6.470
10115SOL    HW131244   3.431   2.750   6.525
10115SOL    HW231245   3.582   2.737   6.466
10116SOL     OW31246   0.468   6.968   6.543
10116SOL    HW131247   0.457   6.870   6.526
10116SOL    HW231248   0.547   6.982   6.604
10117SOL     OW31249   0.372   4.466   1.204
10117SOL    HW131250   0.467   4.452   1.230
10117SOL    HW231251   0.362   4.451   1.105
10118SOL     OW31252   4.453   4.799   3.624
10118SOL    HW131253   4.364   4.832   3.589
10118SOL    HW231254   4.527   4.846   3.575
10119SOL     OW31255   5.894   5.958   6.817
10119SOL    HW131256   5.913   5.970   6.914
10119SOL    HW231257   5.837   6.033   6.784
10120SOL     OW31258   2.663   2.292   2.986
10120SOL    HW131259   2.694   2.333   2.900
10120SOL    HW231260   2.722   2.214   3.009
10121SOL     OW31261   6.263   5.449   1.820
10121SOL    HW131262   6.204   5.529   1.803
10121SOL    HW231263   6.260   5.426   1.917
10122SOL     OW31264   2.007   0.538   3.085
10122SOL    HW131265   2.102   0.522   3.112
10122SOL    HW231266   1.990   0.498   2.995
10123SOL     OW31267   6.149   5.866   6.595
10123SOL    HW131268   6.054   5.840   6.613
10123SOL    HW231269   6.185   5.810   6.520
10124SOL     OW31270   2.562   5.413   2.223
10124SOL    HW131271   2.639   5.350   2.221
10124SOL    HW231272   2.528   5.422   2.317
10125SOL     OW31273   1.716   1.688   4.826
10125SOL    HW131274   1.652   1.764   4.811
10125SOL    HW231275   1.736   1.644   4.739
10126SOL     OW31276   6.538   6.144   4.508
10126SOL    HW131277   6.511   6.212   4.575
10126SOL    HW231278   6.530   6.182   4.416
10127SOL     OW31279   2.354   0.611   5.246
10127SOL    HW131280   2.388   0.558   5.168
10127SOL    HW231281   2.261   0.642   5.226
10128SOL     OW31282   2.314   1.880   0.417
10128SOL    HW131283   2.405   1.845   0.440
10128SOL    HW231284   2.311   1.978   0.434
10129SOL     OW31285   6.811   2.358   4.779
10129SOL    HW131286   6.870   2.285   4.812
10129SOL    HW231287   6.846   2.394   4.692
10130SOL     OW31288   1.373   1.930   3.400
10130SOL    HW131289   1.320   1.944   3.485
10130SOL    HW231290   1.317   1.959   3.322
10131SOL     OW31291   2.030   0.246   5.394
10131SOL    HW131292   2.000   0.157   5.429
10131SOL    HW231293   2.124   0.264   5.423
10132SOL     OW31294   6.237   0.476   2.637
10132SOL    HW131295   6.137   0.480   2.640
10132SOL    HW231296   6.274   0.567   2.617
10133SOL     OW31297   4.407   5.439   0.906
10133SOL    HW131298   4.317   5.421   0.867
10133SOL    HW231299   4.403   5.432   1.005
10134SOL     OW31300   0.187   6.646   3.329
10134SOL    HW131301   0.124   6.636   3.406
10134SOL    HW231302   0.156   6.589   3.253
10135SOL     OW31303   6.598   6.510   3.824
10135SOL    HW131304   6.530   6.578   3.853
10135SOL    HW231305   6.600   6.507   3.724
10136SOL     OW31306   4.855   0.841   3.370
10136SOL    HW131307   4.927   0.891   3.323
10136SOL    HW231308   4.883   0.821   3.464
10137SOL     OW31309   6.884   5.757   3.282
10137SOL    HW131310   6.858   5.829   3.346
10137SOL    HW231311   6.887   5.669   3.331
10138SOL     OW31312   0.126   1.758   2.180
10138SOL    HW131313   0.218   1.798   2.180
10138SOL    HW231314   0.122   1.684   2.247
10139SOL     OW31315   3.801   2.945   0.196
10139SOL    HW131316   3.782   2.915   0.290
10139SOL    HW231317   3.889   2.993   0.194
10140SOL     OW31318   6.329   6.369   4.618
10140SOL    HW131319   6.247   6.314   4.606
10140SOL    HW231320   6.305   6.466   4.618
10141SOL     OW31321   1.430   1.897   4.595
10141SOL    HW131322   1.461   1.966   4.529
10141SOL    HW231323   1.489   1.901   4.676
10142SOL     OW31324   4.389   5.970   1.975
10142SOL    HW131325   4.423   5.933   2.061
10142SOL    HW231326   4.438   5.929   1.899
10143SOL     OW31327   5.913   3.477   6.661
10143SOL    HW131328   5.962   3.423   6.593
10143SOL    HW231329   5.946   3.571   6.659
10144SOL     OW31330   3.712   0.466   1.042
10144SOL    HW131331   3.672   0.396   0.983
10144SOL    HW231332   3.811   0.450   1.049
10145SOL     OW31333   6.764   0.352   5.036
10145SOL    HW131334   6.803   0.277   5.089
10145SOL    HW231335   6.772   0.437   5.088
10146SOL     OW31336   1.694   2.601   5.661
10146SOL    HW131337   1.636   2.681   5.644
10146SOL    HW231338   1.638   2.518   5.659
10147SOL     OW31339   3.551   5.439   0.213
10147SOL    HW131340   3.576   5.347   0.183
10147SOL    HW231341   3.549   5.442   0.313
10148SOL     OW31342   0.453   5.288   6.478
10148SOL    HW131343   0.482   5.262   6.385
10148SOL    HW231344   0.448   5.207   6.535
10149SOL     OW31345   3.433   3.297   3.319
10149SOL    HW131346   3.358   3.352   3.283
10149SOL    HW231347   3.456   3.328   3.411
10150SOL     OW31348   4.956   4.073   1.464
10150SOL    HW131349   5.012   4.148   1.428
10150SOL    HW231350   4.859   4.097   1.457
10151SOL     OW31351   0.167   0.865   0.090
10151SOL    HW131352   0.244   0.929   0.090
10151SOL    HW231353   0.181   0.796   0.019
10152SOL     OW31354   3.592   6.354   3.864
10152SOL    HW131355   3.561   6.379   3.773
10152SOL    HW231356   3.533   6.283   3.902
10153SOL     OW31357   5.100   3.613   1.626
10153SOL    HW131358   5.085   3.543   1.556
10153SOL    HW231359   5.198   3.628   1.638
10154SOL     OW31360   4.366   5.268   5.414
10154SOL    HW131361   4.387   5.252   5.511
10154SOL    HW231362   4.328   5.185   5.374
10155SOL     OW31363   4.096   2.113   4.209
10155SOL    HW131364   4.078   2.016   4.195
10155SOL    HW231365   4.193   2.127   4.228
10156SOL     OW31366   3.571   1.977   6.462
10156SOL    HW131367   3.581   1.975   6.362
10156SOL    HW231368   3.501   1.911   6.489
10157SOL     OW31369   1.077   4.459   0.867
10157SOL    HW131370   0.982   4.458   0.896
10157SOL    HW231371   1.088   4.406   0.783
10158SOL     OW31372   5.664   4.789   6.923
10158SOL    HW131373   5.667   4.889   6.927
10158SOL    HW231374   5.726   4.751   6.992
10159SOL     OW31375   3.641   2.875   1.523
10159SOL    HW131376   3.545   2.904   1.532
10159SOL    HW231377   3.694   2.913   1.598
10160SOL     OW31378   0.135   3.852   2.341
10160SOL    HW131379   0.093   3.836   2.251
10160SOL    HW231380   0.176   3.767   2.374
10161SOL     OW31381   6.005   2.929   6.960
10161SOL    HW131382   6.064   3.005   6.986
10161SOL    HW231383   6.056   2.844   6.966
10162SOL     OW31384   1.997   2.263   2.300
10162SOL    HW131385   1.975   2.323   2.377
10162SOL    HW231386   2.095   2.271   2.279
10163SOL     OW31387   3.403   5.148   5.096
10163SOL    HW131388   3.353   5.221   5.049
10163SOL    HW231389   3.370   5.140   5.190
10164SOL     OW31390   7.015   0.861   4.224
10164SOL    HW131391   6.920   0.834   4.211
10164SOL    HW231392   0.046   0.780   4.245
10165SOL     OW31393   1.763   3.393   3.675
10165SOL    HW131394   1.714   3.419   3.592
10165SOL    HW231395   1.857   3.427   3.671
10166SOL     OW31396   3.421   6.281   3.359
10166SOL    HW131397   3.358   6.235   3.297
10166SOL    HW231398   3.375   6.360   3.400
10167SOL     OW31399   3.664   1.559   6.639
10167SOL    HW131400   3.709   1.635   6.687
10167SOL    HW231401   3.674   1.571   6.541
10168SOL     OW31402   0.857   1.319   6.312
10168SOL    HW131403   0.836   1.417   6.307
10168SOL    HW231404   0.946   1.302   6.272
10169SOL     OW31405   4.459   5.519   2.656
10169SOL    HW131406   4.386   5.575   2.696
10169SOL    HW231407   4.444   5.423   2.680
10170SOL     OW31408   4.454   6.563   0.210
10170SOL    HW131409   4.386   6.611   0.154
10170SOL    HW231410   4.545   6.596   0.187
10171SOL     OW31411   1.418   4.354   3.467
10171SOL    HW131412   1.421   4.263   3.426
10171SOL    HW231413   1.474   4.417   3.413
10172SOL     OW31414   1.189   0.942   2.853
10172SOL    HW131415   1.133   0.995   2.791
10172SOL    HW231416   1.193   0.847   2.822
10173SOL     OW31417   4.730   3.157   5.441
10173SOL    HW131418   4.738   3.238   5.383
10173SOL    HW231419   4.776   3.174   5.528
10174SOL     OW31420   5.098   4.671   1.864
10174SOL    HW131421   5.192   4.687   1.895
10174SOL    HW231422   5.062   4.588   1.907
10175SOL     OW31423   6.721   6.999   3.674
10175SOL    HW131424   6.719   6.910   3.719
10175SOL    HW231425   6.730   0.046   3.743
10176SOL     OW31426   0.562   1.133   4.422
10176SOL    HW131427   0.654   1.139   4.461
10176SOL    HW231428   0.511   1.062   4.471
10177SOL     OW31429   3.239   0.909   4.415
10177SOL    HW131430   3.327   0.916   4.462
10177SOL    HW231431   3.171   0.868   4.477
10178SOL     OW31432   6.673   1.163   1.917
10178SOL    HW131433   6.652   1.245   1.862
10178SOL    HW231434   6.623   1.168   2.004
10179SOL     OW31435   0.323   6.223   0.642
10179SOL    HW131436   0.349   6.258   0.552
10179SOL    HW231437   0.344   6.125   0.647
10180SOL     OW31438   2.910   0.221   6.189
10180SOL    HW131439   2.821   0.265   6.188
10180SOL    HW231440   2.898   0.122   6.184
10181SOL     OW31441   0.038   4.000   2.555
10181SOL    HW131442   0.061   3.934   2.626
10181SOL    HW231443   0.083   3.975   2.470
10182SOL     OW31444   4.405   6.861   0.001
10182SOL    HW131445   4.413   6.960   7.009
10182SOL    HW231446   4.472   6.813   6.969
10183SOL     OW31447   3.726   6.167   6.073
10183SOL    HW131448   3.803   6.103   6.083
10183SOL    HW231449   3.701   6.205   6.162
10184SOL     OW31450   5.445   2.807   4.700
10184SOL    HW131451   5.369   2.777   4.757
10184SOL    HW231452   5.521   2.742   4.709
10185SOL     OW31453   2.975   4.833   2.040
10185SOL    HW131454   2.910   4.770   1.998
10185SOL    HW231455   3.068   4.800   2.026
10186SOL     OW31456   3.401   2.778   1.084
10186SOL    HW131457   3.402   2.851   1.152
10186SOL    HW231458   3.405   2.689   1.132
10187SOL     OW31459   1.895   3.727   5.845
10187SOL    HW131460   1.898   3.787   5.924
10187SOL    HW231461   1.942   3.770   5.768
10188SOL     OW31462   2.058   0.268   6.497
10188SOL    HW131463   2.046   0.182   6.447
10188SOL    HW231464   2.110   0.332   6.441
10189SOL     OW31465   1.908   1.863   5.442
10189SOL    HW131466   1.851   1.817   5.373
10189SOL    HW231467   2.002   1.869   5.408
10190SOL     OW31468   4.036   3.546   0.706
10190SOL    HW131469   4.114   3.609   0.702
10190SOL    HW231470   4.048   3.475   0.637
10191SOL     OW31471   5.599   0.762   0.643
10191SOL    HW131472   5.615   0.808   0.555
10191SOL    HW231473   5.533   0.689   0.631
10192SOL     OW31474   2.363   0.289   3.989
10192SOL    HW131475   2.360   0.189   3.999
10192SOL    HW231476   2.269   0.325   3.989
10193SOL     OW31477   3.787   3.695   3.754
10193SOL    HW131478   3.703   3.641   3.755
10193SOL    HW231479   3.846   3.664   3.680
10194SOL     OW31480   3.234   5.988   3.815
10194SOL    HW131481   3.207   5.955   3.905
10194SOL    HW231482   3.169   5.955   3.746
10195SOL     OW31483   5.217   0.479   2.926
10195SOL    HW131484   5.269   0.423   2.991
10195SOL    HW231485   5.278   0.545   2.882
10196SOL     OW31486   5.054   3.991   3.981
10196SOL    HW131487   4.982   3.926   3.958
10196SOL    HW231488   5.081   3.977   4.077
10197SOL     OW31489   4.822   2.207   2.699
10197SOL    HW131490   4.793   2.238   2.790
10197SOL    HW231491   4.905   2.256   2.671
10198SOL     OW31492   2.994   1.606   2.154
10198SOL    HW131493   2.992   1.693   2.204
10198SOL    HW231494   3.023   1.622   2.060
10199SOL     OW31495   0.887   1.949   6.898
10199SOL    HW131496   0.820   2.023   6.905
10199SOL    HW231497   0.970   1.983   6.853
10200SOL     OW31498   5.873   6.785   3.850
10200SOL    HW131499   5.784   6.771   3.807
10200SOL    HW231500   5.946   6.765   3.784
10201SOL     OW31501   1.583   4.514   2.186
10201SOL    HW131502   1.617   4.600   2.223
10201SOL    HW231503   1.534   4.464   2.257
10202SOL     OW31504   1.133   2.009   3.270
10202SOL    HW131505   1.072   1.969   3.338
10202SOL    HW231506   1.082   2.077   3.217
10203SOL     OW31507   0.614   2.244   1.089
10203SOL    HW131508   0.565   2.330   1.075
10203SOL    HW231509   0.628   2.199   1.001
10204SOL     OW31510   2.357   5.927   3.880
10204SOL    HW131511   2.388   6.013   3.839
10204SOL    HW231512   2.333   5.942   3.975
10205SOL     OW31513   3.594   0.078   1.153
10205SOL    HW131514   3.667   0.083   1.221
10205SOL    HW231515   3.524   0.146   1.174
10206SOL     OW31516   5.778   6.215   0.302
10206SOL    HW131517   5.863   6.187   0.347
10206SOL    HW231518   5.703   6.211   0.368
10207SOL     OW31519   3.676   1.552   2.607
10207SOL    HW131520   3.620   1.477   2.573
10207SOL    HW231521   3.623   1.637   2.602
10208SOL     OW31522   6.771   3.201   6.450
10208SOL    HW131523   6.854   3.154   6.420
10208SOL    HW231524   6.727   3.149   6.523
10209SOL     OW31525   3.252   6.389   6.979
10209SOL    HW131526   3.340   6.359   7.016
10209SOL    HW231527   3.194   6.421   0.029
10210SOL     OW31528   4.854   5.590   6.866
10210SOL    HW131529   4.938   5.545   6.893
10210SOL    HW231530   4.818   5.643   6.943
10211SOL     OW31531   3.721   5.873   5.575
10211SOL    HW131532   3.782   5.877   5.654
10211SOL    HW231533   3.664   5.956   5.573
10212SOL     OW31534   6.336   6.453   6.253
10212SOL    HW131535   6.403   6.491   6.190
10212SOL    HW231536   6.339   6.353   6.249
10213SOL     OW31537   3.892   0.122   4.601
10213SOL    HW131538   3.873   0.025   4.585
10213SOL    HW231539   3.836   0.177   4.539
10214SOL     OW31540   0.104   0.468   0.303
10214SOL    HW131541   0.146   0.501   0.219
10214SOL    HW231542   0.035   0.398   0.281
10215SOL     OW31543   4.390   2.342   0.361
10215SOL    HW131544   4.424   2.276   0.428
10215SOL    HW231545   4.406   2.435   0.395
10216SOL     OW31546   4.998   0.316   2.410
10216SOL    HW131547   4.966   0.371   2.487
10216SOL    HW231548   4.936   0.238   2.397
10217SOL     OW31549   3.573   2.249   5.334
10217SOL    HW131550   3.596   2.320   5.267
10217SOL    HW231551   3.482   2.267   5.372
10218SOL     OW31552   3.737   0.976   6.645
10218SOL    HW131553   3.770   1.070   6.655
10218SOL    HW231554   3.640   0.972   6.669
10219SOL     OW31555   1.275   5.420   0.524
10219SOL    HW131556   1.257   5.331   0.565
10219SOL    HW231557   1.188   5.461   0.494
10220SOL     OW31558   3.963   2.212   0.209
10220SOL    HW131559   4.056   2.248   0.194
10220SOL    HW231560   3.897   2.279   0.175
10221SOL     OW31561   2.637   0.622   4.074
10221SOL    HW131562   2.569   0.562   4.113
10221SOL    HW231563   2.594   0.708   4.045
10222SOL     OW31564   1.900   4.514   5.235
10222SOL    HW131565   1.966   4.550   5.169
10222SOL    HW231566   1.808   4.542   5.210
10223SOL     OW31567   0.880   5.034   6.059
10223SOL    HW131568   0.832   5.121   6.047
10223SOL    HW231569   0.833   4.979   6.128
10224SOL     OW31570   2.549   6.375   5.184
10224SOL    HW131571   2.618   6.438   5.220
10224SOL    HW231572   2.574   6.348   5.091
10225SOL     OW31573   5.345   6.309   4.460
10225SOL    HW131574   5.374   6.238   4.525
10225SOL    HW231575   5.300   6.383   4.510
10226SOL     OW31576   6.482   2.941   5.998
10226SOL    HW131577   6.386   2.960   6.018
10226SOL    HW231578   6.537   2.957   6.080
10227SOL     OW31579   4.927   4.608   5.381
10227SOL    HW131580   4.867   4.592   5.459
10227SOL    HW231581   5.016   4.642   5.413
10228SOL     OW31582   0.694   3.298   1.748
10228SOL    HW131583   0.629   3.371   1.769
10228SOL    HW231584   0.663   3.212   1.789
10229SOL     OW31585   2.910   0.435   1.639
10229SOL    HW131586   2.915   0.534   1.625
10229SOL    HW231587   2.940   0.388   1.556
10230SOL     OW31588   5.877   6.207   3.439
10230SOL    HW131589   5.932   6.281   3.401
10230SOL    HW231590   5.816   6.172   3.369
10231SOL     OW31591   4.522   6.238   4.226
10231SOL    HW131592   4.531   6.211   4.130
10231SOL    HW231593   4.564   6.169   4.285
10232SOL     OW31594   3.771   2.051   3.417
10232SOL    HW131595   3.752   2.066   3.514
10232SOL    HW231596   3.862   2.088   3.394
10233SOL     OW31597   4.964   6.684   5.509
10233SOL    HW131598   4.883   6.726   5.548
10233SOL    HW231599   4.938   6.621   5.436
10234SOL     OW31600   4.172   5.184   1.149
10234SOL    HW131601   4.119   5.101   1.131
10234SOL    HW231602   4.113   5.264   1.140
10235SOL     OW31603   5.333   0.504   0.241
10235SOL    HW131604   5.294   0.595   0.233
10235SOL    HW231605   5.397   0.487   0.166
10236SOL     OW31606   1.820   5.924   1.474
10236SOL    HW131607   1.807   6.002   1.413
10236SOL    HW231608   1.916   5.919   1.502
10237SOL     OW31609   5.842   2.306   2.755
10237SOL    HW131610   5.749   2.338   2.739
10237SOL    HW231611   5.905   2.353   2.693
10238SOL     OW31612   4.852   5.539   5.445
10238SOL    HW131613   4.874   5.452   5.488
10238SOL    HW231614   4.763   5.532   5.399
10239SOL     OW31615   6.031   3.235   4.598
10239SOL    HW131616   6.074   3.311   4.647
10239SOL    HW231617   5.932   3.239   4.612
10240SOL     OW31618   5.157   3.942   3.304
10240SOL    HW131619   5.139   3.930   3.206
10240SOL    HW231620   5.227   4.012   3.316
10241SOL     OW31621   1.083   2.643   2.834
10241SOL    HW131622   1.138   2.658   2.916
10241SOL    HW231623   1.048   2.549   2.834
10242SOL     OW31624   1.068   5.206   5.873
10242SOL    HW131625   1.148   5.193   5.815
10242SOL    HW231626   1.048   5.121   5.922
10243SOL     OW31627   0.520   5.802   3.035
10243SOL    HW131628   0.580   5.816   3.113
10243SOL    HW231629   0.571   5.761   2.960
10244SOL     OW31630   2.114   6.059   0.120
10244SOL    HW131631   2.062   6.101   0.194
10244SOL    HW231632   2.054   6.042   0.042
10245SOL     OW31633   2.683   3.025   1.007
10245SOL    HW131634   2.734   3.051   0.925
10245SOL    HW231635   2.590   3.063   1.002
10246SOL     OW31636   3.081   3.701   4.676
10246SOL    HW131637   3.088   3.603   4.654
10246SOL    HW231638   3.006   3.715   4.741
10247SOL     OW31639   0.729   6.189   6.085
10247SOL    HW131640   0.792   6.244   6.029
10247SOL    HW231641   0.762   6.094   6.088
10248SOL     OW31642   6.054   0.911   3.535
10248SOL    HW131643   6.080   0.881   3.443
10248SOL    HW231644   6.078   1.008   3.546
10249SOL     OW31645   5.187   0.514   6.065
10249SOL    HW131646   5.148   0.501   6.156
10249SOL    HW231647   5.182   0.429   6.013
10250SOL     OW31648   4.614   5.709   0.709
10250SOL    HW131649   4.571   5.776   0.649
10250SOL    HW231650   4.580   5.618   0.687
10251SOL     OW31651   4.056   4.435   1.656
10251SOL    HW131652   4.071   4.479   1.567
10251SOL    HW231653   3.997   4.355   1.645
10252SOL     OW31654   0.022   3.700   0.969
10252SOL    HW131655   0.056   3.725   1.059
10252SOL    HW231656   6.992   3.616   0.976
10253SOL     OW31657   3.851   4.588   0.539
10253SOL    HW131658   3.781   4.638   0.591
10253SOL    HW231659   3.841   4.490   0.556
10254SOL     OW31660   2.643   1.621   4.992
10254SOL    HW131661   2.596   1.708   4.980
10254SOL    HW231662   2.734   1.637   5.031
10255SOL     OW31663   3.247   5.633   3.790
10255SOL    HW131664   3.307   5.557   3.769
10255SOL    HW231665   3.281   5.681   3.871
10256SOL     OW31666   5.214   6.282   0.821
10256SOL    HW131667   5.228   6.185   0.799
10256SOL    HW231668   5.197   6.333   0.737
10257SOL     OW31669   1.514   5.547   5.739
10257SOL    HW131670   1.581   5.474   5.748
10257SOL    HW231671   1.559   5.631   5.708
10258SOL     OW31672   4.323   0.838   3.227
10258SOL    HW131673   4.298   0.751   3.186
10258SOL    HW231674   4.420   0.836   3.253
10259SOL     OW31675   0.173   3.125   3.836
10259SOL    HW131676   0.195   3.201   3.775
10259SOL    HW231677   0.085   3.086   3.810
10260SOL     OW31678   0.180   5.860   2.255
10260SOL    HW131679   0.166   5.957   2.270
10260SOL    HW231680   0.165   5.810   2.341
10261SOL     OW31681   2.186   0.454   2.023
10261SOL    HW131682   2.262   0.389   2.020
10261SOL    HW231683   2.210   0.530   2.084
10262SOL     OW31684   1.253   6.665   3.874
10262SOL    HW131685   1.273   6.709   3.786
10262SOL    HW231686   1.336   6.621   3.908
10263SOL     OW31687   6.731   3.529   4.752
10263SOL    HW131688   6.693   3.451   4.801
10263SOL    HW231689   6.831   3.521   4.750
10264SOL     OW31690   0.231   6.561   0.213
10264SOL    HW131691   0.196   6.503   0.140
10264SOL    HW231692   0.168   6.638   0.228
10265SOL     OW31693   4.355   2.085   3.455
10265SOL    HW131694   4.294   2.164   3.466
10265SOL    HW231695   4.305   2.001   3.475
10266SOL     OW31696   3.629   3.592   6.838
10266SOL    HW131697   3.570   3.671   6.827
10266SOL    HW231698   3.664   3.589   6.931
10267SOL     OW31699   6.497   1.215   6.407
10267SOL    HW131700   6.578   1.178   6.452
10267SOL    HW231701   6.446   1.273   6.471
10268SOL     OW31702   6.700   3.628   0.749
10268SOL    HW131703   6.779   3.569   0.762
10268SOL    HW231704   6.695   3.694   0.825
10269SOL     OW31705   4.221   1.532   6.283
10269SOL    HW131706   4.264   1.531   6.373
10269SOL    HW231707   4.137   1.477   6.286
10270SOL     OW31708   3.286   5.870   2.511
10270SOL    HW131709   3.247   5.855   2.420
10270SOL    HW231710   3.379   5.833   2.513
10271SOL     OW31711   2.088   4.714   1.589
10271SOL    HW131712   2.142   4.635   1.616
10271SOL    HW231713   2.055   4.762   1.671
10272SOL     OW31714   1.590   1.889   4.060
10272SOL    HW131715   1.627   1.931   3.977
10272SOL    HW231716   1.579   1.958   4.131
10273SOL     OW31717   4.203   6.395   4.001
10273SOL    HW131718   4.206   6.303   3.963
10273SOL    HW231719   4.121   6.442   3.968
10274SOL     OW31720   2.761   4.896   6.484
10274SOL    HW131721   2.805   4.820   6.436
10274SOL    HW231722   2.667   4.871   6.505
10275SOL     OW31723   0.721   6.356   1.647
10275SOL    HW131724   0.812   6.376   1.610
10275SOL    HW231725   0.729   6.296   1.727
10276SOL     OW31726   0.773   6.819   0.555
10276SOL    HW131727   0.872   6.809   0.544
10276SOL    HW231728   0.736   6.739   0.602
10277SOL     OW31729   0.165   6.208   2.071
10277SOL    HW131730   0.256   6.200   2.031
10277SOL    HW231731   0.123   6.294   2.042
10278SOL     OW31732   6.488   1.020   5.831
10278SOL    HW131733   6.529   1.077   5.902
10278SOL    HW231734   6.525   0.927   5.837
10279SOL     OW31735   3.266   6.464   4.645
10279SOL    HW131736   3.184   6.427   4.603
10279SOL    HW231737   3.340   6.397   4.638
10280SOL     OW31738   2.806   2.839   0.286
10280SOL    HW131739   2.750   2.897   0.226
10280SOL    HW231740   2.888   2.888   0.315
10281SOL     OW31741   4.985   0.867   4.309
10281SOL    HW131742   4.989   0.956   4.265
10281SOL    HW231743   4.968   0.796   4.240
10282SOL     OW31744   1.138   2.773   3.907
10282SOL    HW131745   1.141   2.871   3.927
10282SOL    HW231746   1.210   2.749   3.843
10283SOL     OW31747   1.621   4.511   6.104
10283SOL    HW131748   1.617   4.491   6.006
10283SOL    HW231749   1.666   4.436   6.152
10284SOL     OW31750   5.074   3.358   0.146
10284SOL    HW131751   5.129   3.386   0.067
10284SOL    HW231752   5.012   3.432   0.172
10285SOL     OW31753   5.222   1.785   1.271
10285SOL    HW131754   5.231   1.710   1.337
10285SOL    HW231755   5.192   1.867   1.319
10286SOL     OW31756   4.077   0.542   4.474
10286SOL    HW131757   4.134   0.485   4.416
10286SOL    HW231758   4.071   0.501   4.565
10287SOL     OW31759   1.852   4.362   1.742
10287SOL    HW131760   1.874   4.410   1.657
10287SOL    HW231761   1.935   4.353   1.797
10288SOL     OW31762   4.140   6.523   4.476
10288SOL    HW131763   4.216   6.587   4.466
10288SOL    HW231764   4.152   6.469   4.559
10289SOL     OW31765   3.059   1.626   1.901
10289SOL    HW131766   3.125   1.699   1.888
10289SOL    HW231767   3.027   1.593   1.812
10290SOL     OW31768   3.282   3.054   3.138
10290SOL    HW131769   3.321   2.963   3.122
10290SOL    HW231770   3.282   3.073   3.236
10291SOL     OW31771   3.788   0.409   4.758
10291SOL    HW131772   3.804   0.450   4.848
10291SOL    HW231773   3.771   0.311   4.768
10292SOL     OW31774   6.892   2.202   4.375
10292SOL    HW131775   6.853   2.121   4.331
10292SOL    HW231776   6.874   2.282   4.318
10293SOL     OW31777   2.998   4.979   2.793
10293SOL    HW131778   3.025   5.024   2.879
10293SOL    HW231779   3.010   5.042   2.717
10294SOL     OW31780   6.359   1.042   3.268
10294SOL    HW131781   6.334   1.063   3.363
10294SOL    HW231782   6.386   0.946   3.261
10295SOL     OW31783   1.841   4.079   4.145
10295SOL    HW131784   1.940   4.070   4.140
10295SOL    HW231785   1.810   4.067   4.240
10296SOL     OW31786   6.490   3.059   1.955
10296SOL    HW131787   6.502   3.000   2.035
10296SOL    HW231788   6.393   3.064   1.932
10297SOL     OW31789   3.066   5.041   5.402
10297SOL    HW131790   2.994   5.088   5.350
10297SOL    HW231791   3.079   4.949   5.365
10298SOL     OW31792   6.366   3.025   2.857
10298SOL    HW131793   6.287   2.968   2.879
10298SOL    HW231794   6.446   2.966   2.845
10299SOL     OW31795   4.535   4.502   2.359
10299SOL    HW131796   4.605   4.441   2.320
10299SOL    HW231797   4.483   4.544   2.284
10300SOL     OW31798   0.762   6.235   1.928
10300SOL    HW131799   0.782   6.154   1.873
10300SOL    HW231800   0.671   6.226   1.969
10301SOL     OW31801   4.750   0.472   1.731
10301SOL    HW131802   4.749   0.547   1.797
10301SOL    HW231803   4.792   0.392   1.773
10302SOL     OW31804   1.624   3.833   3.439
10302SOL    HW131805   1.666   3.910   3.390
10302SOL    HW231806   1.612   3.756   3.377
10303SOL     OW31807   4.478   2.757   1.305
10303SOL    HW131808   4.407   2.693   1.336
10303SOL    HW231809   4.454   2.790   1.214
10304SOL     OW31810   5.723   6.059   3.206
10304SOL    HW131811   5.630   6.096   3.205
10304SOL    HW231812   5.784   6.123   3.160
10305SOL     OW31813   1.902   5.211   1.264
10305SOL    HW131814   1.998   5.225   1.240
10305SOL    HW231815   1.881   5.265   1.346
10306SOL     OW31816   4.205   4.237   0.332
10306SOL    HW131817   4.202   4.213   0.235
10306SOL    HW231818   4.157   4.167   0.385
10307SOL     OW31819   2.246   2.046   5.670
10307SOL    HW131820   2.242   1.947   5.654
10307SOL    HW231821   2.341   2.075   5.670
10308SOL     OW31822   2.732   5.070   3.843
10308SOL    HW131823   2.723   4.970   3.837
10308SOL    HW231824   2.812   5.099   3.790
10309SOL     OW31825   0.254   6.469   3.570
10309SOL    HW131826   0.295   6.503   3.486
10309SOL    HW231827   0.155   6.477   3.565
10310SOL     OW31828   2.967   3.828   4.241
10310SOL    HW131829   2.891   3.852   4.180
10310SOL    HW231830   2.944   3.746   4.292
10311SOL     OW31831   0.873   1.078   1.291
10311SOL    HW131832   0.904   0.983   1.296
10311SOL    HW231833   0.773   1.080   1.284
10312SOL     OW31834   2.368   4.820   0.892
10312SOL    HW131835   2.464   4.800   0.908
10312SOL    HW231836   2.357   4.865   0.803
10313SOL     OW31837   6.951   5.651   4.109
10313SOL    HW131838   6.947   5.676   4.012
10313SOL    HW231839   7.000   5.722   4.160
10314SOL     OW31840   6.827   6.143   5.341
10314SOL    HW131841   6.856   6.224   5.392
10314SOL    HW231842   6.906   6.084   5.325
10315SOL     OW31843   4.335   6.524   5.951
10315SOL    HW131844   4.429   6.557   5.954
10315SOL    HW231845   4.330   6.432   5.990
10316SOL     OW31846   0.442   4.298   3.211
10316SOL    HW131847   0.425   4.217   3.155
10316SOL    HW231848   0.388   4.293   3.295
10317SOL     OW31849   4.886   3.985   6.629
10317SOL    HW131850   4.887   3.956   6.725
10317SOL    HW231851   4.948   3.927   6.576
10318SOL     OW31852   5.496   4.991   2.884
10318SOL    HW131853   5.482   5.077   2.834
10318SOL    HW231854   5.416   4.932   2.872
10319SOL     OW31855   5.019   6.617   3.915
10319SOL    HW131856   5.085   6.606   3.989
10319SOL    HW231857   4.932   6.576   3.943
10320SOL     OW31858   4.473   6.654   2.142
10320SOL    HW131859   4.438   6.691   2.056
10320SOL    HW231860   4.542   6.717   2.180
10321SOL     OW31861   4.580   6.506   4.282
10321SOL    HW131862   4.673   6.497   4.319
10321SOL    HW231863   4.541   6.415   4.268
10322SOL     OW31864   0.448   1.935   0.144
10322SOL    HW131865   0.464   1.922   0.046
10322SOL    HW231866   0.355   1.905   0.166
10323SOL     OW31867   0.770   2.183   5.162
10323SOL    HW131868   0.834   2.144   5.096
10323SOL    HW231869   0.687   2.214   5.115
10324SOL     OW31870   3.556   2.952   3.940
10324SOL    HW131871   3.495   2.932   4.016
10324SOL    HW231872   3.503   2.991   3.864
10325SOL     OW31873   6.993   3.752   3.548
10325SOL    HW131874   6.925   3.719   3.482
10325SOL    HW231875   0.006   3.840   3.517
10326SOL     OW31876   5.966   2.189   1.300
10326SOL    HW131877   5.879   2.150   1.271
10326SOL    HW231878   6.039   2.158   1.239
10327SOL     OW31879   6.144   1.551   3.480
10327SOL    HW131880   6.061   1.594   3.514
10327SOL    HW231881   6.123   1.492   3.402
10328SOL     OW31882   6.432   3.748   2.581
10328SOL    HW131883   6.494   3.721   2.507
10328SOL    HW231884   6.418   3.847   2.579
10329SOL     OW31885   3.685   5.606   3.299
10329SOL    HW131886   3.776   5.593   3.260
10329SOL    HW231887   3.617   5.564   3.239
10330SOL     OW31888   3.372   3.959   1.078
10330SOL    HW131889   3.357   3.957   1.177
10330SOL    HW231890   3.364   3.866   1.042
10331SOL     OW31891   5.625   1.428   4.166
10331SOL    HW131892   5.582   1.518   4.180
10331SOL    HW231893   5.569   1.358   4.210
10332SOL     OW31894   1.325   2.125   6.055
10332SOL    HW131895   1.226   2.113   6.051
10332SOL    HW231896   1.348   2.195   6.122
10333SOL     OW31897   6.661   4.571   5.266
10333SOL    HW131898   6.629   4.485   5.306
10333SOL    HW231899   6.641   4.573   5.169
10334SOL     OW31900   0.552   5.198   5.254
10334SOL    HW131901   0.561   5.184   5.155
10334SOL    HW231902   0.460   5.172   5.283
10335SOL     OW31903   3.463   5.052   3.105
10335SOL    HW131904   3.516   5.129   3.068
10335SOL    HW231905   3.386   5.033   3.043
10336SOL     OW31906   5.012   6.721   3.148
10336SOL    HW131907   4.986   6.808   3.108
10336SOL    HW231908   4.977   6.715   3.242
10337SOL     OW31909   0.878   4.223   6.305
10337SOL    HW131910   0.871   4.129   6.272
10337SOL    HW231911   0.833   4.285   6.241
10338SOL     OW31912   2.915   5.016   2.240
10338SOL    HW131913   2.920   4.959   2.158
10338SOL    HW231914   2.968   4.973   2.313
10339SOL     OW31915   2.719   5.698   0.270
10339SOL    HW131916   2.775   5.640   0.209
10339SOL    HW231917   2.727   5.664   0.364
10340SOL     OW31918   1.463   6.787   0.608
10340SOL    HW131919   1.479   6.862   0.672
10340SOL    HW231920   1.487   6.816   0.516
10341SOL     OW31921   0.904   2.476   1.797
10341SOL    HW131922   0.916   2.491   1.896
10341SOL    HW231923   0.978   2.521   1.747
10342SOL     OW31924   3.221   5.586   4.416
10342SOL    HW131925   3.277   5.504   4.410
10342SOL    HW231926   3.165   5.594   4.334
10343SOL     OW31927   2.316   2.680   4.714
10343SOL    HW131928   2.312   2.775   4.685
10343SOL    HW231929   2.357   2.625   4.641
10344SOL     OW31930   4.438   3.578   1.645
10344SOL    HW131931   4.404   3.670   1.663
10344SOL    HW231932   4.534   3.571   1.675
10345SOL     OW31933   3.392   1.797   6.549
10345SOL    HW131934   3.420   1.803   6.645
10345SOL    HW231935   3.387   1.701   6.522
10346SOL     OW31936   6.464   5.281   0.630
10346SOL    HW131937   6.439   5.303   0.535
10346SOL    HW231938   6.553   5.320   0.651
10347SOL     OW31939   4.217   0.159   1.493
10347SOL    HW131940   4.297   0.101   1.509
10347SOL    HW231941   4.135   0.109   1.521
10348SOL     OW31942   6.541   4.579   5.598
10348SOL    HW131943   6.542   4.623   5.688
10348SOL    HW231944   6.449   4.583   5.560
10349SOL     OW31945   6.393   1.723   0.149
10349SOL    HW131946   6.435   1.680   0.070
10349SOL    HW231947   6.293   1.718   0.142
10350SOL     OW31948   1.509   4.901   4.381
10350SOL    HW131949   1.593   4.862   4.419
10350SOL    HW231950   1.528   4.941   4.291
10351SOL     OW31951   3.770   5.012   5.199
10351SOL    HW131952   3.855   4.965   5.224
10351SOL    HW231953   3.706   4.947   5.158
10352SOL     OW31954   0.214   1.024   1.151
10352SOL    HW131955   0.140   1.035   1.218
10352SOL    HW231956   0.301   1.020   1.199
10353SOL     OW31957   5.909   2.673   3.642
10353SOL    HW131958   5.869   2.670   3.734
10353SOL    HW231959   5.905   2.581   3.602
10354SOL     OW31960   6.664   3.161   1.211
10354SOL    HW131961   6.609   3.145   1.294
10354SOL    HW231962   6.653   3.083   1.149
10355SOL     OW31963   0.650   1.924   0.865
10355SOL    HW131964   0.564   1.967   0.838
10355SOL    HW231965   0.716   1.994   0.892
10356SOL     OW31966   5.600   2.608   6.850
10356SOL    HW131967   5.640   2.527   6.808
10356SOL    HW231968   5.666   2.683   6.850
10357SOL     OW31969   0.910   0.510   6.019
10357SOL    HW131970   0.814   0.515   6.045
10357SOL    HW231971   0.917   0.489   5.922
10358SOL     OW31972   0.756   2.507   3.510
10358SOL    HW131973   0.829   2.528   3.445
10358SOL    HW231974   0.797   2.479   3.597
10359SOL     OW31975   0.800   2.369   2.338
10359SOL    HW131976   0.773   2.324   2.424
10359SOL    HW231977   0.837   2.301   2.275
10360SOL     OW31978   6.033   4.218   1.164
10360SOL    HW131979   6.090   4.185   1.239
10360SOL    HW231980   5.937   4.218   1.192
10361SOL     OW31981   6.310   1.361   2.207
10361SOL    HW131982   6.241   1.412   2.260
10361SOL    HW231983   6.395   1.413   2.206
10362SOL     OW31984   0.723   6.025   1.407
10362SOL    HW131985   0.806   5.976   1.434
10362SOL    HW231986   0.680   5.977   1.331
10363SOL     OW31987   5.114   4.605   6.426
10363SOL    HW131988   5.055   4.551   6.485
10363SOL    HW231989   5.201   4.558   6.414
10364SOL     OW31990   5.732   5.199   1.844
10364SOL    HW131991   5.777   5.285   1.819
10364SOL    HW231992   5.776   5.124   1.795
10365SOL     OW31993   6.096   5.678   6.953
10365SOL    HW131994   6.007   5.703   6.992
10365SOL    HW231995   6.145   5.761   6.927
10366SOL     OW31996   2.971   6.968   3.652
10366SOL    HW131997   2.980   6.994   3.748
10366SOL    HW231998   2.941   6.873   3.646
10367SOL     OW31999   5.502   6.645   1.864
10367SOL    HW132000   5.572   6.589   1.821
10367SOL    HW232001   5.453   6.591   1.933
10368SOL     OW32002   0.975   6.431   1.917
10368SOL    HW132003   0.930   6.519   1.897
10368SOL    HW232004   0.906   6.362   1.935
10369SOL     OW32005   2.550   0.567   5.785
10369SOL    HW132006   2.489   0.600   5.857
10369SOL    HW232007   2.572   0.643   5.723
10370SOL     OW32008   2.168   2.202   5.894
10370SOL    HW132009   2.236   2.190   5.966
10370SOL    HW232010   2.190   2.142   5.817
10371SOL     OW32011   4.357   5.582   3.404
10371SOL    HW132012   4.401   5.646   3.342
10371SOL    HW232013   4.417   5.563   3.482
10372SOL     OW32014   1.933   6.300   0.740
10372SOL    HW132015   1.988   6.277   0.660
10372SOL    HW232016   1.981   6.272   0.823
10373SOL     OW32017   6.605   0.406   6.864
10373SOL    HW132018   6.651   0.481   6.815
10373SOL    HW232019   6.630   0.409   6.960
10374SOL     OW32020   2.722   4.810   3.185
10374SOL    HW132021   2.746   4.754   3.106
10374SOL    HW232022   2.765   4.773   3.267
10375SOL     OW32023   2.369   5.356   6.928
10375SOL    HW132024   2.436   5.314   6.989
10375SOL    HW232025   2.277   5.338   6.963
10376SOL     OW32026   2.337   5.033   3.562
10376SOL    HW132027   2.426   5.043   3.607
10376SOL    HW232028   2.341   5.077   3.472
10377SOL     OW32029   2.518   0.716   3.459
10377SOL    HW132030   2.522   0.625   3.417
10377SOL    HW232031   2.607   0.761   3.450
10378SOL     OW32032   0.436   6.477   5.195
10378SOL    HW132033   0.445   6.544   5.269
10378SOL    HW232034   0.430   6.525   5.107
10379SOL     OW32035   1.828   6.636   3.687
10379SOL    HW132036   1.753   6.641   3.620
10379SOL    HW232037   1.832   6.544   3.725
10380SOL     OW32038   3.338   1.095   3.990
10380SOL    HW132039   3.383   1.171   3.943
10380SOL    HW232040   3.290   1.038   3.923
10381SOL     OW32041   3.768   0.004   3.084
10381SOL    HW132042   3.786   0.030   3.179
10381SOL    HW232043   3.844   0.033   3.027
10382SOL     OW32044   4.045   5.662   1.739
10382SOL    HW132045   3.972   5.639   1.674
10382SOL    HW232046   4.130   5.618   1.710
10383SOL     OW32047   0.382   6.307   0.067
10383SOL    HW132048   0.294   6.352   0.052
10383SOL    HW232049   0.456   6.369   0.045
10384SOL     OW32050   4.858   5.284   1.278
10384SOL    HW132051   4.933   5.324   1.225
10384SOL    HW232052   4.823   5.203   1.231
10385SOL     OW32053   4.068   4.493   6.911
10385SOL    HW132054   4.094   4.512   7.006
10385SOL    HW232055   3.975   4.456   6.909
10386SOL     OW32056   0.298   0.562   1.902
10386SOL    HW132057   0.291   0.539   1.999
10386SOL    HW232058   0.215   0.532   1.855
10387SOL     OW32059   5.194   2.837   1.884
10387SOL    HW132060   5.105   2.792   1.883
10387SOL    HW232061   5.265   2.771   1.858
10388SOL     OW32062   1.514   0.381   4.493
10388SOL    HW132063   1.539   0.298   4.542
10388SOL    HW232064   1.544   0.461   4.545
10389SOL     OW32065   0.724   3.530   0.093
10389SOL    HW132066   0.771   3.608   0.050
10389SOL    HW232067   0.643   3.563   0.142
10390SOL     OW32068   2.209   2.151   1.904
10390SOL    HW132069   2.245   2.067   1.864
10390SOL    HW232070   2.267   2.178   1.981
10391SOL     OW32071   6.408   6.825   3.282
10391SOL    HW132072   6.429   6.799   3.376
10391SOL    HW232073   6.465   6.772   3.219
10392SOL     OW32074   6.728   4.041   3.853
10392SOL    HW132075   6.770   3.950   3.859
10392SOL    HW232076   6.715   4.077   3.946
10393SOL     OW32077   1.894   2.677   2.444
10393SOL    HW132078   1.798   2.689   2.421
10393SOL    HW232079   1.947   2.661   2.361
10394SOL     OW32080   3.309   6.242   4.196
10394SOL    HW132081   3.220   6.285   4.210
10394SOL    HW232082   3.326   6.177   4.270
10395SOL     OW32083   1.370   0.693   1.230
10395SOL    HW132084   1.272   0.716   1.232
10395SOL    HW232085   1.399   0.680   1.136
10396SOL     OW32086   3.210   2.000   5.275
10396SOL    HW132087   3.234   2.025   5.181
10396SOL    HW232088   3.259   2.060   5.339
10397SOL     OW32089   5.311   1.501   3.991
10397SOL    HW132090   5.223   1.543   3.968
10397SOL    HW232091   5.308   1.465   4.084
10398SOL     OW32092   5.753   2.006   2.086
10398SOL    HW132093   5.655   2.004   2.103
10398SOL    HW232094   5.781   2.099   2.061
10399SOL     OW32095   0.721   3.926   2.242
10399SOL    HW132096   0.757   4.018   2.222
10399SOL    HW232097   0.621   3.928   2.236
10400SOL     OW32098   1.991   6.406   0.998
10400SOL    HW132099   1.901   6.394   1.040
10400SOL    HW232100   2.020   6.501   1.007
10401SOL     OW32101   0.286   0.499   5.720
10401SOL    HW132102   0.306   0.562   5.796
10401SOL    HW232103   0.310   0.543   5.633
10402SOL     OW32104   6.752   4.099   5.046
10402SOL    HW132105   6.723   4.111   4.951
10402SOL    HW232106   6.830   4.159   5.064
10403SOL     OW32107   3.264   0.182   1.022
10403SOL    HW132108   3.281   0.117   0.948
10403SOL    HW232109   3.237   0.271   0.983
10404SOL     OW32110   6.936   6.521   5.917
10404SOL    HW132111   6.863   6.469   5.873
10404SOL    HW232112   7.012   6.460   5.941
10405SOL     OW32113   0.235   2.498   6.625
10405SOL    HW132114   0.200   2.502   6.718
10405SOL    HW232115   0.239   2.402   6.595
10406SOL     OW32116   1.572   5.722   1.072
10406SOL    HW132117   1.560   5.626   1.049
10406SOL    HW232118   1.629   5.766   1.002
10407SOL     OW32119   2.061   6.023   5.789
10407SOL    HW132120   1.992   6.011   5.860
10407SOL    HW232121   2.146   6.055   5.831
10408SOL     OW32122   4.824   0.842   0.262
10408SOL    HW132123   4.862   0.796   0.182
10408SOL    HW232124   4.806   0.938   0.239
10409SOL     OW32125   6.109   3.698   0.914
10409SOL    HW132126   6.022   3.648   0.920
10409SOL    HW232127   6.098   3.776   0.853
10410SOL     OW32128   4.415   0.191   0.325
10410SOL    HW132129   4.438   0.250   0.402
10410SOL    HW232130   4.344   0.235   0.270
10411SOL     OW32131   1.742   4.756   4.419
10411SOL    HW132132   1.820   4.715   4.372
10411SOL    HW232133   1.688   4.684   4.464
10412SOL     OW32134   4.976   6.930   0.819
10412SOL    HW132135   4.887   6.975   0.810
10412SOL    HW232136   5.039   6.967   0.750
10413SOL     OW32137   6.343   3.089   2.312
10413SOL    HW132138   6.253   3.128   2.291
10413SOL    HW232139   6.364   3.103   2.408
10414SOL     OW32140   4.826   2.783   4.312
10414SOL    HW132141   4.776   2.857   4.267
10414SOL    HW232142   4.906   2.820   4.358
10415SOL     OW32143   0.616   0.877   6.304
10415SOL    HW132144   0.680   0.953   6.300
10415SOL    HW232145   0.552   0.882   6.227
10416SOL     OW32146   5.609   2.799   3.836
10416SOL    HW132147   5.545   2.729   3.804
10416SOL    HW232148   5.571   2.889   3.820
10417SOL     OW32149   1.921   4.075   2.957
10417SOL    HW132150   1.867   4.096   2.876
10417SOL    HW232151   1.995   4.012   2.933
10418SOL     OW32152   1.621   5.788   5.623
10418SOL    HW132153   1.616   5.858   5.694
10418SOL    HW232154   1.553   5.807   5.552
10419SOL     OW32155   0.944   1.209   0.404
10419SOL    HW132156   0.852   1.229   0.371
10419SOL    HW232157   0.981   1.290   0.451
10420SOL     OW32158   0.459   2.623   2.930
10420SOL    HW132159   0.364   2.643   2.958
10420SOL    HW232160   0.490   2.540   2.976
10421SOL     OW32161   0.334   1.479   3.077
10421SOL    HW132162   0.336   1.421   3.159
10421SOL    HW232163   0.307   1.424   2.998
10422SOL     OW32164   5.402   3.837   5.968
10422SOL    HW132165   5.448   3.911   6.017
10422SOL    HW232166   5.305   3.835   5.994
10423SOL     OW32167   4.906   4.127   2.858
10423SOL    HW132168   4.875   4.057   2.793
10423SOL    HW232169   4.832   4.193   2.873
10424SOL     OW32170   5.079   1.393   6.295
10424SOL    HW132171   5.032   1.475   6.265
10424SOL    HW232172   5.053   1.370   6.388
10425SOL     OW32173   1.895   6.421   1.580
10425SOL    HW132174   1.853   6.387   1.664
10425SOL    HW232175   1.909   6.520   1.587
10426SOL     OW32176   6.243   4.251   0.417
10426SOL    HW132177   6.199   4.251   0.506
10426SOL    HW232178   6.261   4.157   0.388
10427SOL     OW32179   4.772   0.592   1.171
10427SOL    HW132180   4.742   0.687   1.164
10427SOL    HW232181   4.813   0.576   1.260
10428SOL     OW32182   4.372   0.976   3.643
10428SOL    HW132183   4.372   0.941   3.736
10428SOL    HW232184   4.466   0.979   3.608
10429SOL     OW32185   5.716   6.013   1.859
10429SOL    HW132186   5.799   5.956   1.860
10429SOL    HW232187   5.636   5.955   1.847
10430SOL     OW32188   4.212   6.374   3.255
10430SOL    HW132189   4.300   6.422   3.252
10430SOL    HW232190   4.183   6.351   3.162
10431SOL     OW32191   2.010   1.018   5.006
10431SOL    HW132192   2.071   0.951   4.964
10431SOL    HW232193   1.966   1.072   4.935
10432SOL     OW32194   5.012   1.493   4.888
10432SOL    HW132195   4.976   1.402   4.908
10432SOL    HW232196   5.047   1.495   4.794
10433SOL     OW32197   3.224   6.760   1.097
10433SOL    HW132198   3.124   6.752   1.099
10433SOL    HW232199   3.262   6.720   1.181
10434SOL     OW32200   2.486   2.282   4.705
10434SOL    HW132201   2.557   2.300   4.772
10434SOL    HW232202   2.493   2.188   4.672
10435SOL     OW32203   5.526   5.478   6.677
10435SOL    HW132204   5.493   5.503   6.768
10435SOL    HW232205   5.492   5.387   6.653
10436SOL     OW32206   0.941   7.010   2.065
10436SOL    HW132207   0.999   6.941   2.021
10436SOL    HW232208   0.989   0.025   2.144
10437SOL     OW32209   6.882   4.611   5.746
10437SOL    HW132210   6.878   4.681   5.675
10437SOL    HW232211   6.862   4.521   5.705
10438SOL     OW32212   3.613   0.241   5.963
10438SOL    HW132213   3.551   0.317   5.946
10438SOL    HW232214   3.707   0.275   5.970
10439SOL     OW32215   3.981   0.914   5.347
10439SOL    HW132216   3.973   0.966   5.433
10439SOL    HW232217   3.971   0.816   5.366
10440SOL     OW32218   1.679   5.896   0.826
10440SOL    HW132219   1.710   5.953   0.750
10440SOL    HW232220   1.713   5.934   0.912
10441SOL     OW32221   3.964   0.364   0.294
10441SOL    HW132222   3.882   0.402   0.250
10441SOL    HW232223   4.037   0.433   0.293
10442SOL     OW32224   4.547   6.178   5.398
10442SOL    HW132225   4.467   6.232   5.425
10442SOL    HW232226   4.518   6.098   5.346
10443SOL     OW32227   6.304   3.032   4.804
10443SOL    HW132228   6.211   3.046   4.837
10443SOL    HW232229   6.323   3.097   4.731
10444SOL     OW32230   3.517   4.948   4.632
10444SOL    HW132231   3.608   4.945   4.673
10444SOL    HW232232   3.448   4.939   4.704
10445SOL     OW32233   6.144   6.151   2.965
10445SOL    HW132234   6.205   6.228   2.986
10445SOL    HW232235   6.172   6.109   2.879
10446SOL     OW32236   0.831   6.084   6.533
10446SOL    HW132237   0.802   6.172   6.494
10446SOL    HW232238   0.760   6.050   6.594
10447SOL     OW32239   6.188   2.146   0.551
10447SOL    HW132240   6.109   2.206   0.544
10447SOL    HW232241   6.210   2.130   0.647
10448SOL     OW32242   3.419   3.965   2.220
10448SOL    HW132243   3.497   3.904   2.204
10448SOL    HW232244   3.452   4.053   2.254
10449SOL     OW32245   1.649   5.625   4.484
10449SOL    HW132246   1.739   5.583   4.482
10449SOL    HW232247   1.599   5.593   4.564
10450SOL     OW32248   6.883   3.130   0.860
10450SOL    HW132249   6.947   3.117   0.936
10450SOL    HW232250   6.913   3.077   0.781
10451SOL     OW32251   2.458   4.382   2.686
10451SOL    HW132252   2.523   4.457   2.701
10451SOL    HW232253   2.434   4.341   2.774
10452SOL     OW32254   1.359   3.543   5.088
10452SOL    HW132255   1.287   3.475   5.103
10452SOL    HW232256   1.404   3.564   5.175
10453SOL     OW32257   5.410   0.753   1.538
10453SOL    HW132258   5.384   0.847   1.519
10453SOL    HW232259   5.356   0.691   1.481
10454SOL     OW32260   4.930   3.850   2.203
10454SOL    HW132261   4.859   3.860   2.133
10454SOL    HW232262   4.986   3.770   2.182
10455SOL     OW32263   0.301   4.659   2.687
10455SOL    HW132264   0.211   4.617   2.699
10455SOL    HW232265   0.320   4.718   2.765
10456SOL     OW32266   3.763   6.058   1.577
10456SOL    HW132267   3.754   5.978   1.636
10456SOL    HW232268   3.722   6.137   1.621
10457SOL     OW32269   3.482   3.259   3.804
10457SOL    HW132270   3.565   3.280   3.856
10457SOL    HW232271   3.497   3.178   3.748
10458SOL     OW32272   6.733   6.319   2.032
10458SOL    HW132273   6.683   6.299   1.947
10458SOL    HW232274   6.789   6.240   2.057
10459SOL     OW32275   6.959   5.210   2.060
10459SOL    HW132276   6.876   5.160   2.084
10459SOL    HW232277   6.942   5.308   2.068
10460SOL     OW32278   1.619   4.360   1.945
10460SOL    HW132279   1.586   4.453   1.962
10460SOL    HW232280   1.708   4.364   1.900
10461SOL     OW32281   2.969   1.357   6.610
10461SOL    HW132282   2.993   1.406   6.694
10461SOL    HW232283   2.916   1.417   6.550
10462SOL     OW32284   4.995   6.651   0.867
10462SOL    HW132285   4.991   6.749   0.852
10462SOL    HW232286   4.974   6.602   0.782
10463SOL     OW32287   3.347   3.375   1.390
10463SOL    HW132288   3.390   3.412   1.473
10463SOL    HW232289   3.381   3.282   1.374
10464SOL     OW32290   5.367   6.401   1.385
10464SOL    HW132291   5.297   6.465   1.355
10464SOL    HW232292   5.457   6.436   1.362
10465SOL     OW32293   6.831   5.243   4.733
10465SOL    HW132294   6.794   5.316   4.676
10465SOL    HW232295   6.906   5.279   4.788
10466SOL     OW32296   5.198   5.969   6.401
10466SOL    HW132297   5.193   6.044   6.335
10466SOL    HW232298   5.106   5.945   6.432
10467SOL     OW32299   4.353   1.445   3.730
10467SOL    HW132300   4.311   1.359   3.701
10467SOL    HW232301   4.452   1.440   3.716
10468SOL     OW32302   3.279   5.295   3.398
10468SOL    HW132303   3.352   5.250   3.348
10468SOL    HW232304   3.279   5.393   3.377
10469SOL     OW32305   1.152   5.367   6.725
10469SOL    HW132306   1.173   5.418   6.642
10469SOL    HW232307   1.186   5.418   6.804
10470SOL     OW32308   2.741   1.782   4.639
10470SOL    HW132309   2.743   1.771   4.539
10470SOL    HW232310   2.833   1.772   4.675
10471SOL     OW32311   4.094   4.028   0.470
10471SOL    HW132312   4.078   3.977   0.554
10471SOL    HW232313   4.156   3.975   0.411
10472SOL     OW32314   4.262   1.592   3.514
10472SOL    HW132315   4.223   1.526   3.450
10472SOL    HW232316   4.295   1.542   3.595
10473SOL     OW32317   4.467   5.089   6.977
10473SOL    HW132318   4.545   5.046   7.022
10473SOL    HW232319   4.482   5.089   6.878
10474SOL     OW32320   5.082   1.361   2.985
10474SOL    HW132321   5.079   1.293   2.913
10474SOL    HW232322   5.145   1.331   3.057
10475SOL     OW32323   4.852   6.312   1.805
10475SOL    HW132324   4.849   6.299   1.706
10475SOL    HW232325   4.767   6.357   1.834
10476SOL     OW32326   0.479   4.816   6.810
10476SOL    HW132327   0.410   4.763   6.760
10476SOL    HW232328   0.434   4.873   6.879
10477SOL     OW32329   4.697   4.278   5.058
10477SOL    HW132330   4.756   4.348   5.098
10477SOL    HW232331   4.709   4.277   4.959
10478SOL     OW32332   0.393   6.430   3.073
10478SOL    HW132333   0.461   6.357   3.058
10478SOL    HW232334   0.335   6.439   2.992
10479SOL     OW32335   1.070   4.663   2.146
10479SOL    HW132336   1.086   4.574   2.189
10479SOL    HW232337   0.979   4.663   2.104
10480SOL     OW32338   5.777   0.702   1.541
10480SOL    HW132339   5.825   0.639   1.482
10480SOL    HW232340   5.741   0.653   1.621
10481SOL     OW32341   2.578   1.197   4.309
10481SOL    HW132342   2.581   1.118   4.371
10481SOL    HW232343   2.485   1.233   4.305
10482SOL     OW32344   0.542   5.739   6.512
10482SOL    HW132345   0.606   5.684   6.566
10482SOL    HW232346   0.466   5.682   6.482
10483SOL     OW32347   6.549   5.547   1.072
10483SOL    HW132348   6.522   5.533   0.976
10483SOL    HW232349   6.605   5.471   1.102
10484SOL     OW32350   6.446   2.304   1.728
10484SOL    HW132351   6.406   2.214   1.744
10484SOL    HW232352   6.539   2.307   1.766
10485SOL     OW32353   3.511   4.119   3.952
10485SOL    HW132354   3.601   4.089   3.981
10485SOL    HW232355   3.446   4.108   4.027
10486SOL     OW32356   6.124   5.529   5.631
10486SOL    HW132357   6.163   5.453   5.683
10486SOL    HW232358   6.198   5.589   5.600
10487SOL     OW32359   5.214   3.125   2.822
10487SOL    HW132360   5.292   3.143   2.762
10487SOL    HW232361   5.156   3.055   2.780
10488SOL     OW32362   0.206   2.629   4.841
10488SOL    HW132363   0.147   2.647   4.762
10488SOL    HW232364   0.218   2.531   4.852
10489SOL     OW32365   5.831   4.666   3.911
10489SOL    HW132366   5.866   4.625   3.995
10489SOL    HW232367   5.885   4.746   3.888
10490SOL     OW32368   5.649   6.436   6.719
10490SOL    HW132369   5.737   6.454   6.675
10490SOL    HW232370   5.644   6.489   6.805
10491SOL     OW32371   1.907   3.215   5.914
10491SOL    HW132372   2.004   3.209   5.889
10491SOL    HW232373   1.851   3.187   5.837
10492SOL     OW32374   2.870   6.229   0.492
10492SOL    HW132375   2.770   6.232   0.499
10492SOL    HW232376   2.904   6.145   0.534
10493SOL     OW32377   3.961   5.377   1.172
10493SOL    HW132378   3.964   5.457   1.113
10493SOL    HW232379   3.874   5.375   1.222
10494SOL     OW32380   0.502   4.734   4.015
10494SOL    HW132381   0.510   4.710   4.112
10494SOL    HW232382   0.462   4.658   3.965
10495SOL     OW32383   7.018   0.163   0.679
10495SOL    HW132384   0.005   0.258   0.709
10495SOL    HW232385   6.923   0.149   0.651
10496SOL     OW32386   0.465   4.843   6.386
10496SOL    HW132387   0.388   4.844   6.449
10496SOL    HW232388   0.546   4.882   6.431
10497SOL     OW32389   3.272   0.011   1.462
10497SOL    HW132390   3.211   6.963   1.494
10497SOL    HW232391   3.353   0.014   1.521
10498SOL     OW32392   3.878   3.404   6.768
10498SOL    HW132393   3.812   3.449   6.708
10498SOL    HW232394   3.967   3.449   6.761
10499SOL     OW32395   4.568   4.331   2.688
10499SOL    HW132396   4.496   4.394   2.659
10499SOL    HW232397   4.638   4.326   2.616
10500SOL     OW32398   1.686   3.279   5.043
10500SOL    HW132399   1.611   3.279   5.109
10500SOL    HW232400   1.746   3.201   5.061
10501SOL     OW32401   3.961   4.819   3.448
10501SOL    HW132402   3.885   4.850   3.504
10501SOL    HW232403   3.927   4.766   3.370
10502SOL     OW32404   2.985   3.581   2.504
10502SOL    HW132405   2.926   3.514   2.549
10502SOL    HW232406   3.031   3.538   2.426
10503SOL     OW32407   6.757   1.234   6.917
10503SOL    HW132408   6.836   1.175   6.902
10503SOL    HW232409   6.780   1.328   6.891
10504SOL     OW32410   1.500   3.924   5.603
10504SOL    HW132411   1.432   3.986   5.643
10504SOL    HW232412   1.546   3.873   5.675
10505SOL     OW32413   6.103   6.547   0.957
10505SOL    HW132414   6.020   6.594   0.926
10505SOL    HW232415   6.098   6.451   0.931
10506SOL     OW32416   1.602   4.501   5.849
10506SOL    HW132417   1.527   4.471   5.791
10506SOL    HW232418   1.619   4.599   5.834
10507SOL     OW32419   0.940   6.305   5.953
10507SOL    HW132420   1.015   6.239   5.946
10507SOL    HW232421   0.978   6.395   5.977
10508SOL     OW32422   1.665   6.235   0.706
10508SOL    HW132423   1.759   6.258   0.681
10508SOL    HW232424   1.613   6.318   0.724
10509SOL     OW32425   4.781   2.838   2.666
10509SOL    HW132426   4.807   2.920   2.717
10509SOL    HW232427   4.727   2.778   2.726
10510SOL     OW32428   5.522   5.712   3.023
10510SOL    HW132429   5.432   5.735   3.058
10510SOL    HW232430   5.592   5.742   3.088
10511SOL     OW32431   4.124   1.298   1.080
10511SOL    HW132432   4.171   1.255   1.157
10511SOL    HW232433   4.048   1.354   1.113
10512SOL     OW32434   4.266   1.508   5.803
10512SOL    HW132435   4.324   1.485   5.882
10512SOL    HW232436   4.318   1.564   5.739
10513SOL     OW32437   3.342   3.663   0.863
10513SOL    HW132438   3.387   3.579   0.894
10513SOL    HW232439   3.244   3.656   0.881
10514SOL     OW32440   1.343   5.481   1.495
10514SOL    HW132441   1.274   5.457   1.427
10514SOL    HW232442   1.307   5.465   1.587
10515SOL     OW32443   2.103   3.606   4.819
10515SOL    HW132444   2.121   3.638   4.726
10515SOL    HW232445   2.144   3.516   4.832
10516SOL     OW32446   5.518   1.617   1.932
10516SOL    HW132447   5.507   1.522   1.904
10516SOL    HW232448   5.555   1.670   1.856
10517SOL     OW32449   0.647   2.218   1.972
10517SOL    HW132450   0.715   2.230   1.900
10517SOL    HW232451   0.557   2.201   1.932
10518SOL     OW32452   0.495   6.243   2.033
10518SOL    HW132453   0.508   6.145   2.017
10518SOL    HW232454   0.498   6.261   2.131
10519SOL     OW32455   3.307   6.560   1.264
10519SOL    HW132456   3.406   6.553   1.253
10519SOL    HW232457   3.284   6.560   1.362
10520SOL     OW32458   1.809   2.492   6.310
10520SOL    HW132459   1.862   2.577   6.318
10520SOL    HW232460   1.823   2.453   6.219
10521SOL     OW32461   6.201   2.365   3.024
10521SOL    HW132462   6.113   2.318   3.022
10521SOL    HW232463   6.216   2.404   3.115
10522SOL     OW32464   5.503   1.393   3.791
10522SOL    HW132465   5.433   1.439   3.846
10522SOL    HW232466   5.526   1.305   3.833
10523SOL     OW32467   0.548   4.147   1.612
10523SOL    HW132468   0.635   4.097   1.613
10523SOL    HW232469   0.565   4.245   1.604
10524SOL     OW32470   6.743   5.913   4.828
10524SOL    HW132471   6.700   5.932   4.916
10524SOL    HW232472   6.823   5.854   4.842
10525SOL     OW32473   4.618   1.369   3.683
10525SOL    HW132474   4.653   1.292   3.736
10525SOL    HW232475   4.691   1.408   3.628
10526SOL     OW32476   1.137   5.621   6.015
10526SOL    HW132477   1.132   5.623   6.115
10526SOL    HW232478   1.231   5.639   5.987
10527SOL     OW32479   6.923   6.301   5.596
10527SOL    HW132480   6.981   6.379   5.571
10527SOL    HW232481   6.851   6.333   5.659
10528SOL     OW32482   1.503   4.861   5.123
10528SOL    HW132483   1.517   4.907   5.036
10528SOL    HW232484   1.437   4.912   5.178
10529SOL     OW32485   0.123   4.979   0.966
10529SOL    HW132486   0.025   4.962   0.968
10529SOL    HW232487   0.163   4.932   0.887
10530SOL     OW32488   6.688   0.454   0.911
10530SOL    HW132489   6.787   0.457   0.926
10530SOL    HW232490   6.660   0.360   0.890
10531SOL     OW32491   3.434   2.278   6.173
10531SOL    HW132492   3.444   2.314   6.080
10531SOL    HW232493   3.505   2.316   6.232
10532SOL     OW32494   4.757   6.133   5.753
10532SOL    HW132495   4.788   6.178   5.669
10532SOL    HW232496   4.723   6.041   5.731
10533SOL     OW32497   4.188   6.995   3.319
10533SOL    HW132498   4.212   0.043   3.255
10533SOL    HW232499   4.169   6.911   3.269
10534SOL     OW32500   1.422   6.449   3.927
10534SOL    HW132501   1.357   6.432   4.002
10534SOL    HW232502   1.445   6.363   3.882
10535SOL     OW32503   3.916   1.885   2.691
10535SOL    HW132504   3.984   1.933   2.636
10535SOL    HW232505   3.891   1.799   2.647
10536SOL     OW32506   5.779   4.121   4.878
10536SOL    HW132507   5.799   4.062   4.800
10536SOL    HW232508   5.685   4.105   4.909
10537SOL     OW32509   3.429   1.223   3.519
10537SOL    HW132510   3.378   1.295   3.471
10537SOL    HW232511   3.503   1.190   3.460
10538SOL     OW32512   6.657   2.533   3.328
10538SOL    HW132513   6.634   2.624   3.295
10538SOL    HW232514   6.756   2.527   3.344
10539SOL     OW32515   6.870   6.401   3.139
10539SOL    HW132516   6.802   6.457   3.187
10539SOL    HW232517   6.956   6.452   3.132
10540SOL     OW32518   1.891   3.957   6.949
10540SOL    HW132519   1.966   4.012   6.984
10540SOL    HW232520   1.927   3.884   6.890
10541SOL     OW32521   3.319   2.455   5.713
10541SOL    HW132522   3.227   2.415   5.708
10541SOL    HW232523   3.311   2.554   5.721
10542SOL     OW32524   4.293   6.343   2.376
10542SOL    HW132525   4.230   6.286   2.323
10542SOL    HW232526   4.250   6.369   2.462
10543SOL     OW32527   2.354   2.624   4.236
10543SOL    HW132528   2.354   2.610   4.335
10543SOL    HW232529   2.260   2.639   4.205
10544SOL     OW32530   3.035   1.722   2.514
10544SOL    HW132531   2.975   1.712   2.593
10544SOL    HW232532   3.047   1.634   2.468
10545SOL     OW32533   2.008   3.126   1.867
10545SOL    HW132534   2.008   3.049   1.930
10545SOL    HW232535   1.949   3.105   1.789
10546SOL     OW32536   2.647   0.132   5.774
10546SOL    HW132537   2.722   0.127   5.708
10546SOL    HW232538   2.604   0.042   5.784
10547SOL     OW32539   3.523   6.482   6.010
10547SOL    HW132540   3.587   6.523   5.945
10547SOL    HW232541   3.527   6.531   6.097
10548SOL     OW32542   0.829   5.892   3.136
10548SOL    HW132543   0.833   5.958   3.060
10548SOL    HW232544   0.753   5.916   3.196
10549SOL     OW32545   0.159   0.928   2.810
10549SOL    HW132546   0.252   0.914   2.775
10549SOL    HW232547   0.094   0.882   2.750
10550SOL     OW32548   5.421   5.923   3.291
10550SOL    HW132549   5.388   6.006   3.336
10550SOL    HW232550   5.389   5.843   3.342
10551SOL     OW32551   4.063   0.983   4.780
10551SOL    HW132552   4.082   0.885   4.773
10551SOL    HW232553   4.037   1.006   4.873
10552SOL     OW32554   3.010   6.802   3.401
10552SOL    HW132555   3.106   6.827   3.408
10552SOL    HW232556   2.981   6.755   3.485
10553SOL     OW32557   5.742   5.576   1.285
10553SOL    HW132558   5.687   5.647   1.241
10553SOL    HW232559   5.695   5.488   1.276
10554SOL     OW32560   5.947   6.312   1.994
10554SOL    HW132561   5.955   6.259   1.910
10554SOL    HW232562   5.950   6.409   1.973
10555SOL     OW32563   3.647   3.242   1.567
10555SOL    HW132564   3.577   3.209   1.503
10555SOL    HW232565   3.608   3.313   1.625
10556SOL     OW32566   2.687   1.730   1.947
10556SOL    HW132567   2.625   1.659   1.913
10556SOL    HW232568   2.781   1.705   1.925
10557SOL     OW32569   1.038   4.307   2.929
10557SOL    HW132570   1.110   4.341   2.989
10557SOL    HW232571   1.031   4.207   2.938
10558SOL     OW32572   4.190   4.874   4.522
10558SOL    HW132573   4.143   4.930   4.591
10558SOL    HW232574   4.138   4.877   4.437
10559SOL     OW32575   3.757   5.822   1.745
10559SOL    HW132576   3.810   5.761   1.803
10559SOL    HW232577   3.664   5.830   1.782
10560SOL     OW32578   5.783   0.067   3.590
10560SOL    HW132579   5.849   7.017   3.579
10560SOL    HW232580   5.827   0.144   3.636
10561SOL     OW32581   0.822   5.471   6.223
10561SOL    HW132582   0.854   5.437   6.312
10561SOL    HW232583   0.822   5.396   6.157
10562SOL     OW32584   3.879   6.039   2.288
10562SOL    HW132585   3.964   6.089   2.271
10562SOL    HW232586   3.815   6.055   2.212
10563SOL     OW32587   1.607   6.501   1.983
10563SOL    HW132588   1.560   6.450   2.055
10563SOL    HW232589   1.565   6.591   1.973
10564SOL     OW32590   5.516   4.482   3.347
10564SOL    HW132591   5.425   4.464   3.385
10564SOL    HW232592   5.539   4.579   3.361
10565SOL     OW32593   0.803   0.984   4.880
10565SOL    HW132594   0.704   1.000   4.888
10565SOL    HW232595   0.825   0.959   4.785
10566SOL     OW32596   3.714   1.849   1.309
10566SOL    HW132597   3.695   1.903   1.391
10566SOL    HW232598   3.628   1.819   1.268
10567SOL     OW32599   2.485   2.662   6.160
10567SOL    HW132600   2.526   2.634   6.073
10567SOL    HW232601   2.493   2.588   6.226
10568SOL     OW32602   5.057   2.418   6.024
10568SOL    HW132603   5.038   2.339   6.082
10568SOL    HW232604   5.155   2.432   6.016
10569SOL     OW32605   5.356   0.224   0.814
10569SOL    HW132606   5.425   0.296   0.812
10569SOL    HW232607   5.395   0.140   0.852
10570SOL     OW32608   1.496   3.614   3.266
10570SOL    HW132609   1.404   3.618   3.306
10570SOL    HW232610   1.492   3.569   3.177
10571SOL     OW32611   0.078   4.276   5.828
10571SOL    HW132612   0.153   4.319   5.778
10571SOL    HW232613   0.115   4.217   5.900
10572SOL     OW32614   6.233   4.345   0.717
10572SOL    HW132615   6.176   4.346   0.799
10572SOL    HW232616   6.261   4.250   0.697
10573SOL     OW32617   7.020   2.140   3.439
10573SOL    HW132618   6.951   2.080   3.480
10573SOL    HW232619   6.978   2.229   3.418
10574SOL     OW32620   5.749   2.292   2.454
10574SOL    HW132621   5.708   2.203   2.432
10574SOL    HW232622   5.686   2.345   2.511
10575SOL     OW32623   5.622   6.706   2.975
10575SOL    HW132624   5.626   6.705   2.875
10575SOL    HW232625   5.544   6.761   3.005
10576SOL     OW32626   1.225   3.172   4.773
10576SOL    HW132627   1.262   3.134   4.858
10576SOL    HW232628   1.140   3.221   4.793
10577SOL     OW32629   4.015   4.448   0.310
10577SOL    HW132630   4.077   4.370   0.306
10577SOL    HW232631   3.922   4.417   0.327
10578SOL     OW32632   1.048   3.316   2.703
10578SOL    HW132633   1.135   3.339   2.659
10578SOL    HW232634   0.973   3.366   2.659
10579SOL     OW32635   0.126   3.189   6.998
10579SOL    HW132636   0.040   3.234   7.019
10579SOL    HW232637   0.199   3.257   6.991
10580SOL     OW32638   5.480   6.472   0.186
10580SOL    HW132639   5.550   6.482   0.115
10580SOL    HW232640   5.468   6.375   0.207
10581SOL     OW32641   4.530   0.740   3.369
10581SOL    HW132642   4.605   0.673   3.368
10581SOL    HW232643   4.542   0.803   3.446
10582SOL     OW32644   6.338   3.442   0.040
10582SOL    HW132645   6.277   3.488   7.001
10582SOL    HW232646   6.428   3.429   7.021
10583SOL     OW32647   4.397   2.015   5.728
10583SOL    HW132648   4.305   1.996   5.694
10583SOL    HW232649   4.465   1.984   5.661
10584SOL     OW32650   0.361   0.641   3.587
10584SOL    HW132651   0.345   0.638   3.686
10584SOL    HW232652   0.459   0.655   3.570
10585SOL     OW32653   1.293   1.171   5.647
10585SOL    HW132654   1.372   1.117   5.674
10585SOL    HW232655   1.261   1.140   5.557
10586SOL     OW32656   4.571   4.121   5.654
10586SOL    HW132657   4.530   4.046   5.705
10586SOL    HW232658   4.667   4.132   5.681
10587SOL     OW32659   1.885   4.976   4.931
10587SOL    HW132660   1.800   5.027   4.919
10587SOL    HW232661   1.865   4.884   4.965
10588SOL     OW32662   1.584   4.204   3.627
10588SOL    HW132663   1.514   4.264   3.587
10588SOL    HW232664   1.672   4.251   3.628
10589SOL     OW32665   6.548   6.812   3.524
10589SOL    HW132666   6.541   6.757   3.607
10589SOL    HW232667   6.605   6.893   3.542
10590SOL     OW32668   1.113   5.665   2.512
10590SOL    HW132669   1.114   5.566   2.526
10590SOL    HW232670   1.021   5.695   2.485
10591SOL     OW32671   6.625   4.177   2.587
10591SOL    HW132672   6.631   4.144   2.681
10591SOL    HW232673   6.718   4.196   2.553
10592SOL     OW32674   6.924   2.458   4.543
10592SOL    HW132675   6.975   2.539   4.570
10592SOL    HW232676   6.942   2.438   4.446
10593SOL     OW32677   3.413   5.908   3.620
10593SOL    HW132678   3.473   5.983   3.593
10593SOL    HW232679   3.354   5.938   3.695
10594SOL     OW32680   3.575   5.637   4.063
10594SOL    HW132681   3.489   5.588   4.081
10594SOL    HW232682   3.650   5.571   4.059
10595SOL     OW32683   4.578   6.588   0.905
10595SOL    HW132684   4.527   6.632   0.979
10595SOL    HW232685   4.554   6.491   0.900
10596SOL     OW32686   5.169   3.815   0.731
10596SOL    HW132687   5.134   3.738   0.784
10596SOL    HW232688   5.268   3.811   0.726
10597SOL     OW32689   2.035   0.020   4.870
10597SOL    HW132690   2.043   6.998   4.958
10597SOL    HW232691   2.022   6.977   4.797
10598SOL     OW32692   3.142   0.934   0.489
10598SOL    HW132693   3.108   0.884   0.409
10598SOL    HW232694   3.209   1.003   0.459
10599SOL     OW32695   0.722   2.498   0.360
10599SOL    HW132696   0.647   2.563   0.359
10599SOL    HW232697   0.751   2.482   0.455
10600SOL     OW32698   4.326   1.018   1.839
10600SOL    HW132699   4.261   1.081   1.881
10600SOL    HW232700   4.351   1.050   1.748
10601SOL     OW32701   1.704   1.253   4.939
10601SOL    HW132702   1.776   1.222   4.877
10601SOL    HW232703   1.628   1.188   4.936
10602SOL     OW32704   6.495   6.470   1.521
10602SOL    HW132705   6.552   6.436   1.446
10602SOL    HW232706   6.552   6.493   1.599
10603SOL     OW32707   5.910   0.463   2.944
10603SOL    HW132708   5.829   0.519   2.924
10603SOL    HW232709   5.906   0.432   3.039
10604SOL     OW32710   5.222   1.836   5.292
10604SOL    HW132711   5.277   1.793   5.364
10604SOL    HW232712   5.162   1.767   5.251
10605SOL     OW32713   3.733   1.686   1.663
10605SOL    HW132714   3.789   1.621   1.715
10605SOL    HW232715   3.793   1.754   1.619
10606SOL     OW32716   6.487   1.622   6.937
10606SOL    HW132717   6.500   1.697   6.872
10606SOL    HW232718   6.492   1.535   6.888
10607SOL     OW32719   3.263   4.444   0.849
10607SOL    HW132720   3.334   4.508   0.879
10607SOL    HW232721   3.267   4.361   0.905
10608SOL     OW32722   5.723   3.892   3.309
10608SOL    HW132723   5.646   3.948   3.339
10608SOL    HW232724   5.690   3.820   3.248
10609SOL     OW32725   6.307   6.985   6.552
10609SOL    HW132726   6.312   6.957   6.456
10609SOL    HW232727   6.280   0.056   6.558
10610SOL     OW32728   0.659   1.272   3.093
10610SOL    HW132729   0.642   1.369   3.109
10610SOL    HW232730   0.617   1.218   3.166
10611SOL     OW32731   4.336   5.024   5.037
10611SOL    HW132732   4.269   4.969   4.987
10611SOL    HW232733   4.301   5.044   5.129
10612SOL     OW32734   6.702   2.721   3.091
10612SOL    HW132735   6.613   2.765   3.086
10612SOL    HW232736   6.693   2.623   3.070
10613SOL     OW32737   4.797   5.477   4.605
10613SOL    HW132738   4.806   5.576   4.612
10613SOL    HW232739   4.836   5.434   4.687
10614SOL     OW32740   3.947   2.388   6.747
10614SOL    HW132741   3.870   2.424   6.799
10614SOL    HW232742   3.940   2.288   6.741
10615SOL     OW32743   2.563   2.633   5.222
10615SOL    HW132744   2.533   2.709   5.281
10615SOL    HW232745   2.516   2.639   5.134
10616SOL     OW32746   1.316   5.876   0.029
10616SOL    HW132747   1.282   5.941   0.097
10616SOL    HW232748   1.378   5.922   6.990
10617SOL     OW32749   1.534   2.586   0.889
10617SOL    HW132750   1.439   2.609   0.911
10617SOL    HW232751   1.593   2.662   0.914
10618SOL     OW32752   0.799   5.271   4.166
10618SOL    HW132753   0.823   5.174   4.159
10618SOL    HW232754   0.882   5.326   4.153
10619SOL     OW32755   1.123   2.951   0.968
10619SOL    HW132756   1.150   2.855   0.983
10619SOL    HW232757   1.188   2.994   0.906
10620SOL     OW32758   3.389   0.995   5.745
10620SOL    HW132759   3.303   0.953   5.771
10620SOL    HW232760   3.390   1.091   5.775
10621SOL     OW32761   0.950   3.897   3.465
10621SOL    HW132762   0.923   3.801   3.478
10621SOL    HW232763   1.030   3.901   3.405
10622SOL     OW32764   3.983   2.334   6.030
10622SOL    HW132765   3.979   2.432   6.014
10622SOL    HW232766   4.068   2.297   5.992
10623SOL     OW32767   5.402   5.203   5.783
10623SOL    HW132768   5.348   5.248   5.854
10623SOL    HW232769   5.440   5.272   5.721
10624SOL     OW32770   0.454   1.945   6.486
10624SOL    HW132771   0.495   1.966   6.397
10624SOL    HW232772   0.367   1.993   6.495
10625SOL     OW32773   6.436   5.792   0.669
10625SOL    HW132774   6.480   5.854   0.733
10625SOL    HW232775   6.468   5.810   0.576
10626SOL     OW32776   5.875   2.816   1.966
10626SOL    HW132777   5.782   2.837   1.994
10626SOL    HW232778   5.875   2.734   1.909
10627SOL     OW32779   5.612   4.638   5.368
10627SOL    HW132780   5.686   4.665   5.307
10627SOL    HW232781   5.558   4.565   5.325
10628SOL     OW32782   2.898   6.262   0.914
10628SOL    HW132783   2.921   6.275   1.011
10628SOL    HW232784   2.871   6.350   0.875
10629SOL     OW32785   4.495   5.007   4.045
10629SOL    HW132786   4.515   4.986   4.141
10629SOL    HW232787   4.520   4.929   3.988
10630SOL     OW32788   4.117   0.799   1.596
10630SOL    HW132789   4.158   0.725   1.542
10630SOL    HW232790   4.178   0.879   1.594
10631SOL     OW32791   3.606   5.389   1.888
10631SOL    HW132792   3.597   5.481   1.925
10631SOL    HW232793   3.582   5.322   1.959
10632SOL     OW32794   6.031   7.009   3.968
10632SOL    HW132795   5.978   6.927   3.946
10632SOL    HW232796   5.977   0.066   3.948
10633SOL     OW32797   2.420   3.289   0.206
10633SOL    HW132798   2.482   3.261   0.132
10633SOL    HW232799   2.432   3.227   0.284
10634SOL     OW32800   0.789   4.564   6.501
10634SOL    HW132801   0.876   4.589   6.543
10634SOL    HW232802   0.728   4.529   6.572
10635SOL     OW32803   3.040   5.158   6.510
10635SOL    HW132804   3.098   5.216   6.455
10635SOL    HW232805   3.046   5.063   6.478
10636SOL     OW32806   5.878   2.897   0.558
10636SOL    HW132807   5.921   2.987   0.563
10636SOL    HW232808   5.924   2.841   0.490
10637SOL     OW32809   2.761   0.946   6.437
10637SOL    HW132810   2.729   0.959   6.343
10637SOL    HW232811   2.830   0.874   6.438
10638SOL     OW32812   5.130   4.852   0.460
10638SOL    HW132813   5.127   4.817   0.553
10638SOL    HW232814   5.130   4.776   0.395
10639SOL     OW32815   6.297   4.795   0.764
10639SOL    HW132816   6.294   4.895   0.762
10639SOL    HW232817   6.225   4.761   0.824
10640SOL     OW32818   3.960   6.572   4.277
10640SOL    HW132819   3.918   6.653   4.317
10640SOL    HW232820   4.016   6.525   4.345
10641SOL     OW32821   1.124   1.289   3.238
10641SOL    HW132822   1.062   1.217   3.210
10641SOL    HW232823   1.216   1.270   3.202
10642SOL     OW32824   6.962   2.428   6.133
10642SOL    HW132825   7.019   2.412   6.213
10642SOL    HW232826   6.868   2.446   6.162
10643SOL     OW32827   2.809   5.283   5.952
10643SOL    HW132828   2.730   5.344   5.957
10643SOL    HW232829   2.795   5.216   5.879
10644SOL     OW32830   0.191   3.640   3.036
10644SOL    HW132831   0.172   3.556   2.986
10644SOL    HW232832   0.290   3.650   3.049
10645SOL     OW32833   2.426   2.548   2.959
10645SOL    HW132834   2.458   2.479   3.023
10645SOL    HW232835   2.356   2.605   3.003
10646SOL     OW32836   4.747   0.716   3.732
10646SOL    HW132837   4.817   0.764   3.680
10646SOL    HW232838   4.718   0.773   3.809
10647SOL     OW32839   3.824   5.253   5.150
10647SOL    HW132840   3.742   5.295   5.111
10647SOL    HW232841   3.805   5.158   5.172
10648SOL     OW32842   5.009   4.157   5.355
10648SOL    HW132843   4.912   4.166   5.333
10648SOL    HW232844   5.058   4.120   5.276
10649SOL     OW32845   6.015   3.131   3.382
10649SOL    HW132846   6.019   3.039   3.422
10649SOL    HW232847   6.100   3.180   3.403
10650SOL     OW32848   0.400   6.896   2.630
10650SOL    HW132849   0.403   6.859   2.537
10650SOL    HW232850   0.434   6.990   2.630
10651SOL     OW32851   2.478   5.822   5.865
10651SOL    HW132852   2.457   5.857   5.774
10651SOL    HW232853   2.527   5.736   5.858
10652SOL     OW32854   2.034   0.648   6.886
10652SOL    HW132855   2.049   0.725   6.824
10652SOL    HW232856   2.058   0.563   6.840
10653SOL     OW32857   5.419   6.416   4.779
10653SOL    HW132858   5.515   6.444   4.779
10653SOL    HW232859   5.367   6.473   4.715
10654SOL     OW32860   6.776   1.781   3.795
10654SOL    HW132861   6.707   1.824   3.853
10654SOL    HW232862   6.785   1.833   3.710
10655SOL     OW32863   6.961   4.743   0.725
10655SOL    HW132864   6.925   4.801   0.798
10655SOL    HW232865   6.908   4.757   0.642
10656SOL     OW32866   5.847   1.580   5.623
10656SOL    HW132867   5.866   1.669   5.581
10656SOL    HW232868   5.909   1.512   5.583
10657SOL     OW32869   4.764   6.891   5.531
10657SOL    HW132870   4.790   6.958   5.600
10657SOL    HW232871   4.822   6.901   5.450
10658SOL     OW32872   0.480   1.838   5.516
10658SOL    HW132873   0.517   1.755   5.557
10658SOL    HW232874   0.554   1.889   5.472
10659SOL     OW32875   6.856   5.518   0.568
10659SOL    HW132876   6.819   5.499   0.659
10659SOL    HW232877   6.785   5.501   0.499
10660SOL     OW32878   5.647   2.903   6.672
10660SOL    HW132879   5.554   2.936   6.690
10660SOL    HW232880   5.690   2.875   6.758
10661SOL     OW32881   3.293   5.163   5.349
10661SOL    HW132882   3.292   5.256   5.387
10661SOL    HW232883   3.211   5.114   5.380
10662SOL     OW32884   3.130   1.550   1.226
10662SOL    HW132885   3.127   1.456   1.193
10662SOL    HW232886   3.044   1.572   1.273
10663SOL     OW32887   0.227   2.647   3.379
10663SOL    HW132888   0.253   2.728   3.431
10663SOL    HW232889   0.203   2.573   3.443
10664SOL     OW32890   1.403   6.343   4.506
10664SOL    HW132891   1.486   6.375   4.552
10664SOL    HW232892   1.385   6.248   4.531
10665SOL     OW32893   3.138   3.644   0.470
10665SOL    HW132894   3.113   3.592   0.552
10665SOL    HW232895   3.199   3.589   0.413
10666SOL     OW32896   4.103   3.681   1.082
10666SOL    HW132897   4.081   3.708   1.175
10666SOL    HW232898   4.030   3.625   1.044
10667SOL     OW32899   5.688   2.514   4.497
10667SOL    HW132900   5.591   2.504   4.517
10667SOL    HW232901   5.700   2.575   4.418
10668SOL     OW32902   3.306   2.939   5.966
10668SOL    HW132903   3.207   2.923   5.964
10668SOL    HW232904   3.333   2.972   6.056
10669SOL     OW32905   6.237   2.078   1.167
10669SOL    HW132906   6.260   2.140   1.092
10669SOL    HW232907   6.302   2.090   1.242
10670SOL     OW32908   4.705   4.267   3.897
10670SOL    HW132909   4.665   4.279   3.989
10670SOL    HW232910   4.796   4.307   3.895
10671SOL     OW32911   1.514   3.325   4.858
10671SOL    HW132912   1.450   3.387   4.903
10671SOL    HW232913   1.592   3.309   4.918
10672SOL     OW32914   6.312   4.016   1.752
10672SOL    HW132915   6.263   4.062   1.826
10672SOL    HW232916   6.347   3.928   1.785
10673SOL     OW32917   2.811   1.471   1.113
10673SOL    HW132918   2.888   1.489   1.051
10673SOL    HW232919   2.825   1.522   1.198
10674SOL     OW32920   3.760   3.492   4.215
10674SOL    HW132921   3.748   3.550   4.133
10674SOL    HW232922   3.843   3.437   4.204
10675SOL     OW32923   3.298   6.729   5.571
10675SOL    HW132924   3.317   6.691   5.661
10675SOL    HW232925   3.208   6.773   5.571
10676SOL     OW32926   1.478   0.274   5.320
10676SOL    HW132927   1.559   0.296   5.265
10676SOL    HW232928   1.414   0.350   5.317
10677SOL     OW32929   0.662   2.594   6.762
10677SOL    HW132930   0.603   2.533   6.815
10677SOL    HW232931   0.748   2.548   6.743
10678SOL     OW32932   4.028   5.459   2.735
10678SOL    HW132933   4.039   5.392   2.661
10678SOL    HW232934   4.071   5.425   2.818
10679SOL     OW32935   4.574   4.264   0.361
10679SOL    HW132936   4.567   4.212   0.446
10679SOL    HW232937   4.555   4.204   0.284
10680SOL     OW32938   4.230   1.043   6.107
10680SOL    HW132939   4.322   1.081   6.099
10680SOL    HW232940   4.229   0.948   6.074
10681SOL     OW32941   2.426   3.225   5.387
10681SOL    HW132942   2.501   3.288   5.405
10681SOL    HW232943   2.456   3.154   5.324
10682SOL     OW32944   4.976   3.589   6.724
10682SOL    HW132945   4.948   3.639   6.642
10682SOL    HW232946   4.897   3.578   6.785
10683SOL     OW32947   2.934   0.375   3.565
10683SOL    HW132948   2.907   0.279   3.565
10683SOL    HW232949   3.034   0.382   3.566
10684SOL     OW32950   4.752   4.572   1.595
10684SOL    HW132951   4.803   4.651   1.631
10684SOL    HW232952   4.674   4.605   1.542
10685SOL     OW32953   0.810   6.461   2.203
10685SOL    HW132954   0.748   6.470   2.126
10685SOL    HW232955   0.899   6.429   2.169
10686SOL     OW32956   2.694   0.874   6.998
10686SOL    HW132957   2.637   0.917   6.928
10686SOL    HW232958   2.682   0.774   6.993
10687SOL     OW32959   0.938   3.625   3.545
10687SOL    HW132960   1.017   3.564   3.557
10687SOL    HW232961   0.878   3.589   3.473
10688SOL     OW32962   5.284   1.024   2.989
10688SOL    HW132963   5.190   0.998   2.967
10688SOL    HW232964   5.347   0.960   2.944
10689SOL     OW32965   0.936   0.904   2.658
10689SOL    HW132966   0.913   0.853   2.575
10689SOL    HW232967   0.994   0.982   2.634
10690SOL     OW32968   0.941   6.515   4.327
10690SOL    HW132969   1.029   6.518   4.376
10690SOL    HW232970   0.938   6.435   4.268
10691SOL     OW32971   3.488   6.851   2.210
10691SOL    HW132972   3.544   6.925   2.173
10691SOL    HW232973   3.524   6.763   2.178
10692SOL     OW32974   2.583   1.439   4.443
10692SOL    HW132975   2.651   1.466   4.511
10692SOL    HW232976   2.609   1.352   4.401
10693SOL     OW32977   1.315   5.341   0.224
10693SOL    HW132978   1.384   5.330   0.295
10693SOL    HW232979   1.348   5.302   0.138
10694SOL     OW32980   4.859   0.123   5.609
10694SOL    HW132981   4.781   0.181   5.586
10694SOL    HW232982   4.903   0.091   5.525
10695SOL     OW32983   5.450   4.507   2.003
10695SOL    HW132984   5.518   4.456   1.950
10695SOL    HW232985   5.440   4.464   2.093
10696SOL     OW32986   6.224   4.794   3.953
10696SOL    HW132987   6.233   4.763   4.048
10696SOL    HW232988   6.194   4.718   3.896
10697SOL     OW32989   2.419   5.340   5.061
10697SOL    HW132990   2.366   5.256   5.076
10697SOL    HW232991   2.356   5.417   5.050
10698SOL     OW32992   3.261   3.519   0.250
10698SOL    HW132993   3.204   3.472   0.183
10698SOL    HW232994   3.343   3.464   0.269
10699SOL     OW32995   3.862   3.106   0.618
10699SOL    HW132996   3.950   3.150   0.631
10699SOL    HW232997   3.822   3.083   0.707
10700SOL     OW32998   4.840   0.564   1.447
10700SOL    HW132999   4.816   0.486   1.505
10700SOL    HW233000   4.839   0.647   1.502
10701SOL     OW33001   3.140   6.478   6.514
10701SOL    HW133002   3.136   6.562   6.461
10701SOL    HW233003   3.175   6.498   6.606
10702SOL     OW33004   5.473   2.145   1.971
10702SOL    HW133005   5.468   2.080   2.047
10702SOL    HW233006   5.388   2.142   1.919
10703SOL     OW33007   0.199   2.579   5.131
10703SOL    HW133008   0.256   2.660   5.120
10703SOL    HW233009   0.203   2.524   5.048
10704SOL     OW33010   5.206   6.698   2.530
10704SOL    HW133011   5.227   6.658   2.619
10704SOL    HW233012   5.167   6.789   2.543
10705SOL     OW33013   5.064   3.202   1.097
10705SOL    HW133014   5.035   3.157   1.013
10705SOL    HW233015   5.162   3.186   1.111
10706SOL     OW33016   3.356   0.537   1.389
10706SOL    HW133017   3.443   0.581   1.366
10706SOL    HW233018   3.320   0.576   1.474
10707SOL     OW33019   5.062   6.902   3.852
10707SOL    HW133020   5.130   6.888   3.780
10707SOL    HW233021   5.043   6.815   3.897
10708SOL     OW33022   4.300   0.864   2.050
10708SOL    HW133023   4.299   0.940   1.985
10708SOL    HW233024   4.208   0.824   2.057
10709SOL     OW33025   5.983   4.657   3.005
10709SOL    HW133026   5.922   4.670   2.926
10709SOL    HW233027   5.928   4.654   3.088
10710SOL     OW33028   4.625   1.960   3.928
10710SOL    HW133029   4.652   1.941   3.833
10710SOL    HW233030   4.636   1.877   3.983
10711SOL     OW33031   3.483   6.939   2.552
10711SOL    HW133032   3.416   6.923   2.625
10711SOL    HW233033   3.459   6.882   2.473
10712SOL     OW33034   5.070   0.119   3.633
10712SOL    HW133035   5.038   0.118   3.538
10712SOL    HW233036   5.144   0.053   3.644
10713SOL     OW33037   2.149   3.940   1.927
10713SOL    HW133038   2.185   3.850   1.951
10713SOL    HW233039   2.120   3.988   2.010
10714SOL     OW33040   2.979   3.712   4.970
10714SOL    HW133041   2.964   3.740   5.065
10714SOL    HW233042   2.996   3.614   4.967
10715SOL     OW33043   5.864   0.624   1.853
10715SOL    HW133044   5.821   0.571   1.780
10715SOL    HW233045   5.810   0.616   1.937
10716SOL     OW33046   5.291   0.938   3.363
10716SOL    HW133047   5.288   0.941   3.463
10716SOL    HW233048   5.356   1.007   3.330
10717SOL     OW33049   2.080   2.919   6.501
10717SOL    HW133050   2.177   2.929   6.523
10717SOL    HW233051   2.052   2.991   6.438
10718SOL     OW33052   1.707   5.313   5.377
10718SOL    HW133053   1.726   5.380   5.448
10718SOL    HW233054   1.781   5.246   5.373
10719SOL     OW33055   0.434   5.449   4.507
10719SOL    HW133056   0.405   5.539   4.475
10719SOL    HW233057   0.525   5.428   4.473
10720SOL     OW33058   0.237   4.701   3.406
10720SOL    HW133059   0.282   4.639   3.470
10720SOL    HW233060   0.147   4.665   3.382
10721SOL     OW33061   5.248   3.550   5.611
10721SOL    HW133062   5.339   3.588   5.626
10721SOL    HW233063   5.183   3.625   5.597
10722SOL     OW33064   6.765   4.032   6.078
10722SOL    HW133065   6.858   3.995   6.077
10722SOL    HW233066   6.700   3.960   6.052
10723SOL     OW33067   5.699   6.542   0.994
10723SOL    HW133068   5.741   6.567   1.081
10723SOL    HW233069   5.649   6.456   1.005
10724SOL     OW33070   6.527   6.404   6.843
10724SOL    HW133071   6.546   6.403   6.745
10724SOL    HW233072   6.553   6.494   6.881
10725SOL     OW33073   1.963   5.888   5.533
10725SOL    HW133074   1.993   5.954   5.602
10725SOL    HW233075   1.900   5.933   5.469
10726SOL     OW33076   5.205   1.343   4.216
10726SOL    HW133077   5.120   1.341   4.162
10726SOL    HW233078   5.194   1.405   4.293
10727SOL     OW33079   2.531   6.557   5.740
10727SOL    HW133080   2.455   6.534   5.801
10727SOL    HW233081   2.607   6.495   5.757
10728SOL     OW33082   4.801   6.283   0.744
10728SOL    HW133083   4.818   6.378   0.719
10728SOL    HW233084   4.883   6.243   0.784
10729SOL     OW33085   6.540   2.933   1.360
10729SOL    HW133086   6.464   2.933   1.295
10729SOL    HW233087   6.507   2.908   1.451
10730SOL     OW33088   4.872   0.109   2.604
10730SOL    HW133089   4.818   0.169   2.664
10730SOL    HW233090   4.948   0.071   2.656
10731SOL     OW33091   4.400   0.439   0.909
10731SOL    HW133092   4.431   0.350   0.942
10731SOL    HW233093   4.469   0.478   0.847
10732SOL     OW33094   0.652   3.957   5.964
10732SOL    HW133095   0.714   3.982   6.039
10732SOL    HW233096   0.705   3.949   5.880
10733SOL     OW33097   6.433   2.191   0.064
10733SOL    HW133098   6.494   2.162   7.015
10733SOL    HW233099   6.429   2.120   0.134
10734SOL     OW33100   6.612   2.854   2.131
10734SOL    HW133101   6.590   2.841   2.228
10734SOL    HW233102   6.710   2.841   2.118
10735SOL     OW33103   0.348   5.154   3.115
10735SOL    HW133104   0.283   5.198   3.052
10735SOL    HW233105   0.298   5.092   3.176
10736SOL     OW33106   2.606   0.609   3.729
10736SOL    HW133107   2.575   0.637   3.638
10736SOL    HW233108   2.569   0.518   3.750
10737SOL     OW33109   7.012   2.636   1.470
10737SOL    HW133110   0.055   2.630   1.396
10737SOL    HW233111   6.933   2.688   1.438
10738SOL     OW33112   4.331   0.210   3.754
10738SOL    HW133113   4.251   0.190   3.811
10738SOL    HW233114   4.385   0.127   3.741
10739SOL     OW33115   2.414   1.496   2.146
10739SOL    HW133116   2.353   1.575   2.141
10739SOL    HW233117   2.408   1.455   2.237
10740SOL     OW33118   4.879   4.990   3.066
10740SOL    HW133119   4.845   5.083   3.074
10740SOL    HW233120   4.814   4.934   3.016
10741SOL     OW33121   3.613   0.872   3.005
10741SOL    HW133122   3.688   0.906   3.061
10741SOL    HW233123   3.644   0.793   2.951
10742SOL     OW33124   6.702   5.393   0.769
10742SOL    HW133125   6.611   5.434   0.767
10742SOL    HW233126   6.709   5.334   0.850
10743SOL     OW33127   2.403   2.236   5.078
10743SOL    HW133128   2.322   2.262   5.130
10743SOL    HW233129   2.392   2.268   4.983
10744SOL     OW33130   4.836   1.621   0.647
10744SOL    HW133131   4.865   1.704   0.599
10744SOL    HW233132   4.914   1.582   0.696
10745SOL     OW33133   6.602   5.432   6.024
10745SOL    HW133134   6.539   5.441   6.101
10745SOL    HW233135   6.645   5.342   6.027
10746SOL     OW33136   0.576   4.191   6.118
10746SOL    HW133137   0.577   4.094   6.093
10746SOL    HW233138   0.613   4.245   6.043
10747SOL     OW33139   3.034   2.006   4.603
10747SOL    HW133140   2.985   1.920   4.617
10747SOL    HW233141   2.979   2.082   4.637
10748SOL     OW33142   5.002   1.172   2.297
10748SOL    HW133143   4.961   1.212   2.379
10748SOL    HW233144   4.986   1.073   2.296
10749SOL     OW33145   2.280   6.742   6.189
10749SOL    HW133146   2.206   6.729   6.123
10749SOL    HW233147   2.311   6.837   6.186
10750SOL     OW33148   4.081   0.308   6.617
10750SOL    HW133149   4.021   0.244   6.665
10750SOL    HW233150   4.092   0.392   6.671
10751SOL     OW33151   2.358   4.708   3.735
10751SOL    HW133152   2.432   4.643   3.753
10751SOL    HW233153   2.339   4.759   3.819
10752SOL     OW33154   4.886   5.006   3.859
10752SOL    HW133155   4.820   5.056   3.802
10752SOL    HW233156   4.878   4.908   3.840
10753SOL     OW33157   6.857   3.229   4.371
10753SOL    HW133158   6.942   3.278   4.351
10753SOL    HW233159   6.806   3.216   4.286
10754SOL     OW33160   1.714   0.645   2.328
10754SOL    HW133161   1.657   0.716   2.286
10754SOL    HW233162   1.776   0.607   2.259
10755SOL     OW33163   6.284   5.401   2.095
10755SOL    HW133164   6.366   5.381   2.149
10755SOL    HW233165   6.232   5.474   2.139
10756SOL     OW33166   0.138   0.225   5.052
10756SOL    HW133167   0.227   0.199   5.016
10756SOL    HW233168   0.150   0.278   5.136
10757SOL     OW33169   2.790   3.317   1.327
10757SOL    HW133170   2.722   3.364   1.270
10757SOL    HW233171   2.868   3.378   1.342
10758SOL     OW33172   0.712   5.511   4.074
10758SOL    HW133173   0.679   5.474   3.986
10758SOL    HW233174   0.756   5.438   4.126
10759SOL     OW33175   6.898   2.576   6.547
10759SOL    HW133176   6.806   2.608   6.570
10759SOL    HW233177   6.950   2.650   6.506
10760SOL     OW33178   5.847   1.317   4.216
10760SOL    HW133179   5.929   1.360   4.179
10760SOL    HW233180   5.766   1.367   4.184
10761SOL     OW33181   2.598   4.758   5.398
10761SOL    HW133182   2.649   4.672   5.403
10761SOL    HW233183   2.607   4.808   5.484
10762SOL     OW33184   3.381   0.875   4.751
10762SOL    HW133185   3.317   0.798   4.748
10762SOL    HW233186   3.459   0.850   4.808
10763SOL     OW33187   4.250   6.749   3.702
10763SOL    HW133188   4.278   6.653   3.695
10763SOL    HW233189   4.159   6.760   3.661
10764SOL     OW33190   5.452   0.355   5.074
10764SOL    HW133191   5.394   0.399   5.143
10764SOL    HW233192   5.548   0.359   5.103
10765SOL     OW33193   5.439   3.557   0.956
10765SOL    HW133194   5.514   3.567   1.021
10765SOL    HW233195   5.393   3.645   0.944
10766SOL     OW33196   4.300   3.100   1.248
10766SOL    HW133197   4.250   3.014   1.239
10766SOL    HW233198   4.241   3.175   1.217
10767SOL     OW33199   3.881   1.321   2.236
10767SOL    HW133200   3.808   1.359   2.292
10767SOL    HW233201   3.842   1.279   2.154
10768SOL     OW33202   6.108   4.556   0.590
10768SOL    HW133203   6.157   4.492   0.649
10768SOL    HW233204   6.040   4.506   0.536
10769SOL     OW33205   1.815   4.076   5.265
10769SOL    HW133206   1.731   4.022   5.264
10769SOL    HW233207   1.891   4.019   5.294
10770SOL     OW33208   4.169   6.134   3.890
10770SOL    HW133209   4.196   6.178   3.804
10770SOL    HW233210   4.176   6.035   3.880
10771SOL     OW33211   2.629   1.634   3.529
10771SOL    HW133212   2.537   1.628   3.491
10771SOL    HW233213   2.676   1.547   3.516
10772SOL     OW33214   5.553   5.218   3.881
10772SOL    HW133215   5.563   5.294   3.946
10772SOL    HW233216   5.476   5.236   3.820
10773SOL     OW33217   5.611   4.771   3.657
10773SOL    HW133218   5.677   4.707   3.697
10773SOL    HW233219   5.565   4.821   3.731
10774SOL     OW33220   0.879   0.749   3.576
10774SOL    HW133221   0.807   0.792   3.523
10774SOL    HW233222   0.851   0.741   3.672
10775SOL     OW33223   0.560   3.568   1.772
10775SOL    HW133224   0.517   3.584   1.861
10775SOL    HW233225   0.515   3.626   1.703
10776SOL     OW33226   1.481   0.274   6.584
10776SOL    HW133227   1.492   0.335   6.506
10776SOL    HW233228   1.530   0.188   6.566
10777SOL     OW33229   2.593   5.776   1.115
10777SOL    HW133230   2.539   5.853   1.080
10777SOL    HW233231   2.533   5.710   1.160
10778SOL     OW33232   5.731   5.707   2.545
10778SOL    HW133233   5.697   5.658   2.625
10778SOL    HW233234   5.693   5.799   2.543
10779SOL     OW33235   5.362   2.419   3.413
10779SOL    HW133236   5.284   2.479   3.430
10779SOL    HW233237   5.423   2.420   3.492
10780SOL     OW33238   6.917   0.316   2.381
10780SOL    HW133239   6.890   0.371   2.460
10780SOL    HW233240   6.853   0.239   2.371
10781SOL     OW33241   3.457   0.285   4.484
10781SOL    HW133242   3.470   0.383   4.495
10781SOL    HW233243   3.543   0.243   4.452
10782SOL     OW33244   6.139   5.487   4.195
10782SOL    HW133245   6.128   5.496   4.294
10782SOL    HW233246   6.236   5.489   4.172
10783SOL     OW33247   0.109   1.808   3.241
10783SOL    HW133248   0.028   1.844   3.194
10783SOL    HW233249   0.162   1.884   3.278
10784SOL     OW33250   2.986   1.697   4.688
10784SOL    HW133251   3.041   1.687   4.605
10784SOL    HW233252   3.010   1.624   4.753
10785SOL     OW33253   1.180   4.074   6.142
10785SOL    HW133254   1.153   4.163   6.179
10785SOL    HW233255   1.273   4.079   6.106
10786SOL     OW33256   0.809   5.197   3.411
10786SOL    HW133257   0.731   5.258   3.420
10786SOL    HW233258   0.848   5.205   3.319
10787SOL     OW33259   1.365   2.027   6.412
10787SOL    HW133260   1.459   1.993   6.420
10787SOL    HW233261   1.366   2.119   6.374
10788SOL     OW33262   5.935   3.889   6.151
10788SOL    HW133263   5.986   3.813   6.111
10788SOL    HW233264   5.953   3.972   6.099
10789SOL     OW33265   6.079   1.956   0.385
10789SOL    HW133266   6.106   1.862   0.407
10789SOL    HW233267   6.116   2.018   0.454
10790SOL     OW33268   0.148   5.975   2.957
10790SOL    HW133269   0.084   6.021   3.019
10790SOL    HW233270   0.097   5.913   2.897
10791SOL     OW33271   0.701   6.922   3.234
10791SOL    HW133272   0.735   7.016   3.231
10791SOL    HW233273   0.715   6.879   3.145
10792SOL     OW33274   3.869   4.163   5.052
10792SOL    HW133275   3.923   4.215   4.986
10792SOL    HW233276   3.772   4.184   5.039
10793SOL     OW33277   5.776   3.472   4.476
10793SOL    HW133278   5.828   3.495   4.558
10793SOL    HW233279   5.838   3.455   4.400
10794SOL     OW33280   3.088   3.896   3.565
10794SOL    HW133281   3.132   3.942   3.642
10794SOL    HW233282   3.017   3.835   3.599
10795SOL     OW33283   0.311   4.007   3.441
10795SOL    HW133284   0.372   4.016   3.362
10795SOL    HW233285   0.363   3.973   3.519
10796SOL     OW33286   1.325   6.208   5.046
10796SOL    HW133287   1.419   6.177   5.028
10796SOL    HW233288   1.299   6.277   4.978
10797SOL     OW33289   3.856   2.629   0.227
10797SOL    HW133290   3.896   2.672   0.146
10797SOL    HW233291   3.893   2.674   0.309
10798SOL     OW33292   6.737   1.673   1.101
10798SOL    HW133293   6.734   1.583   1.058
10798SOL    HW233294   6.653   1.690   1.152
10799SOL     OW33295   3.855   1.973   1.717
10799SOL    HW133296   3.876   2.071   1.719
10799SOL    HW233297   3.816   1.945   1.805
10800SOL     OW33298   1.481   0.307   1.456
10800SOL    HW133299   1.534   0.238   1.506
10800SOL    HW233300   1.542   0.379   1.423
10801SOL     OW33301   1.967   0.502   1.226
10801SOL    HW133302   1.957   0.556   1.310
10801SOL    HW233303   1.964   0.563   1.147
10802SOL     OW33304   6.426   0.749   3.236
10802SOL    HW133305   6.503   0.738   3.299
10802SOL    HW233306   6.418   0.667   3.179
10803SOL     OW33307   1.859   5.896   6.694
10803SOL    HW133308   1.935   5.960   6.681
10803SOL    HW233309   1.786   5.916   6.629
10804SOL     OW33310   0.079   3.331   4.425
10804SOL    HW133311   0.093   3.337   4.524
10804SOL    HW233312   0.128   3.251   4.390
10805SOL     OW33313   6.466   1.399   6.212
10805SOL    HW133314   6.498   1.345   6.291
10805SOL    HW233315   6.512   1.488   6.212
10806SOL     OW33316   1.746   5.131   6.999
10806SOL    HW133317   1.800   5.182   6.932
10806SOL    HW233318   1.789   5.042   7.016
10807SOL     OW33319   2.958   6.295   5.020
10807SOL    HW133320   3.041   6.327   4.974
10807SOL    HW233321   2.883   6.289   4.954
10808SOL     OW33322   0.803   3.256   6.183
10808SOL    HW133323   0.853   3.241   6.097
10808SOL    HW233324   0.743   3.178   6.201
10809SOL     OW33325   2.097   0.266   4.536
10809SOL    HW133326   2.009   0.291   4.496
10809SOL    HW233327   2.130   0.181   4.494
10810SOL     OW33328   6.771   0.086   4.134
10810SOL    HW133329   6.862   0.116   4.103
10810SOL    HW233330   6.701   0.140   4.087
10811SOL     OW33331   5.231   4.967   4.793
10811SOL    HW133332   5.190   5.014   4.715
10811SOL    HW233333   5.286   5.032   4.845
10812SOL     OW33334   5.960   2.718   0.363
10812SOL    HW133335   6.052   2.701   0.398
10812SOL    HW233336   5.913   2.632   0.348
10813SOL     OW33337   0.159   3.980   6.033
10813SOL    HW133338   0.083   3.916   6.038
10813SOL    HW233339   0.191   4.002   6.125
10814SOL     OW33340   3.189   1.024   1.347
10814SOL    HW133341   3.266   1.086   1.334
10814SOL    HW233342   3.174   1.009   1.445
10815SOL     OW33343   5.352   0.947   4.520
10815SOL    HW133344   5.320   0.853   4.531
10815SOL    HW233345   5.452   0.948   4.518
10816SOL     OW33346   3.937   3.227   4.486
10816SOL    HW133347   3.978   3.315   4.464
10816SOL    HW233348   3.981   3.188   4.566
10817SOL     OW33349   1.826   6.198   3.257
10817SOL    HW133350   1.885   6.279   3.250
10817SOL    HW233351   1.802   6.183   3.353
10818SOL     OW33352   3.784   4.408   6.891
10818SOL    HW133353   3.689   4.396   6.921
10818SOL    HW233354   3.825   4.318   6.877
10819SOL     OW33355   6.591   6.420   5.406
10819SOL    HW133356   6.585   6.420   5.306
10819SOL    HW233357   6.504   6.391   5.445
10820SOL     OW33358   2.289   4.700   6.429
10820SOL    HW133359   2.328   4.663   6.345
10820SOL    HW233360   2.215   4.642   6.461
10821SOL     OW33361   4.758   5.672   2.905
10821SOL    HW133362   4.789   5.603   2.840
10821SOL    HW233363   4.837   5.726   2.936
10822SOL     OW33364   5.615   0.938   2.114
10822SOL    HW133365   5.631   1.007   2.043
10822SOL    HW233366   5.658   0.967   2.199
10823SOL     OW33367   5.209   6.591   1.276
10823SOL    HW133368   5.243   6.619   1.187
10823SOL    HW233369   5.214   6.668   1.340
10824SOL     OW33370   0.808   2.892   3.686
10824SOL    HW133371   0.813   2.810   3.743
10824SOL    HW233372   0.900   2.921   3.661
10825SOL     OW33373   0.772   2.556   0.093
10825SOL    HW133374   0.686   2.588   0.054
10825SOL    HW233375   0.756   2.519   0.184
10826SOL     OW33376   0.401   3.576   2.817
10826SOL    HW133377   0.386   3.500   2.753
10826SOL    HW233378   0.484   3.624   2.791
10827SOL     OW33379   6.570   4.355   4.487
10827SOL    HW133380   6.549   4.320   4.578
10827SOL    HW233381   6.664   4.389   4.485
10828SOL     OW33382   6.215   4.339   5.516
10828SOL    HW133383   6.189   4.278   5.591
10828SOL    HW233384   6.282   4.293   5.457
10829SOL     OW33385   3.554   2.881   4.676
10829SOL    HW133386   3.638   2.855   4.627
10829SOL    HW233387   3.479   2.892   4.611
10830SOL     OW33388   3.998   2.171   3.431
10830SOL    HW133389   4.043   2.256   3.402
10830SOL    HW233390   4.014   2.157   3.529
10831SOL     OW33391   4.072   0.097   3.846
10831SOL    HW133392   4.029   0.033   3.782
10831SOL    HW233393   4.023   0.184   3.843
10832SOL     OW33394   6.669   2.878   0.097
10832SOL    HW133395   6.632   2.803   0.152
10832SOL    HW233396   6.596   2.916   0.040
10833SOL     OW33397   0.796   1.348   6.843
10833SOL    HW133398   0.809   1.274   6.777
10833SOL    HW233399   0.758   1.428   6.797
10834SOL     OW33400   6.207   6.409   1.614
10834SOL    HW133401   6.296   6.369   1.597
10834SOL    HW233402   6.156   6.416   1.527
10835SOL     OW33403   0.450   2.265   5.380
10835SOL    HW133404   0.396   2.349   5.382
10835SOL    HW233405   0.509   2.262   5.460
10836SOL     OW33406   0.002   1.115   3.507
10836SOL    HW133407   0.096   1.105   3.540
10836SOL    HW233408   6.988   1.200   3.543
10837SOL     OW33409   0.381   3.377   2.636
10837SOL    HW133410   0.282   3.372   2.650
10837SOL    HW233411   0.422   3.288   2.657
10838SOL     OW33412   0.480   6.000   1.877
10838SOL    HW133413   0.384   5.994   1.849
10838SOL    HW233414   0.539   5.976   1.799
10839SOL     OW33415   4.814   2.627   0.711
10839SOL    HW133416   4.780   2.538   0.742
10839SOL    HW233417   4.898   2.649   0.761
10840SOL     OW33418   2.387   0.302   1.726
10840SOL    HW133419   2.464   0.302   1.662
10840SOL    HW233420   2.358   0.397   1.743
10841SOL     OW33421   2.123   5.175   4.607
10841SOL    HW133422   2.089   5.081   4.617
10841SOL    HW233423   2.049   5.239   4.630
10842SOL     OW33424   5.314   4.335   1.740
10842SOL    HW133425   5.405   4.367   1.766
10842SOL    HW233426   5.321   4.249   1.691
10843SOL     OW33427   2.806   2.104   1.304
10843SOL    HW133428   2.771   2.128   1.213
10843SOL    HW233429   2.730   2.076   1.363
10844SOL     OW33430   1.339   5.192   5.201
10844SOL    HW133431   1.300   5.244   5.277
10844SOL    HW233432   1.325   5.094   5.218
10845SOL     OW33433   3.576   0.537   4.574
10845SOL    HW133434   3.542   0.608   4.512
10845SOL    HW233435   3.670   0.513   4.550
10846SOL     OW33436   5.419   0.325   6.243
10846SOL    HW133437   5.485   0.250   6.229
10846SOL    HW233438   5.326   0.290   6.233
10847SOL     OW33439   3.228   0.844   6.278
10847SOL    HW133440   3.325   0.863   6.265
10847SOL    HW233441   3.174   0.913   6.231
10848SOL     OW33442   1.734   5.083   1.957
10848SOL    HW133443   1.770   4.997   1.995
10848SOL    HW233444   1.687   5.134   2.028
10849SOL     OW33445   2.352   6.721   3.308
10849SOL    HW133446   2.255   6.716   3.285
10849SOL    HW233447   2.396   6.634   3.289
10850SOL     OW33448   3.932   4.507   1.108
10850SOL    HW133449   3.925   4.598   1.066
10850SOL    HW233450   3.932   4.437   1.037
10851SOL     OW33451   1.569   4.639   0.186
10851SOL    HW133452   1.522   4.614   0.102
10851SOL    HW233453   1.663   4.605   0.184
10852SOL     OW33454   2.290   1.773   2.727
10852SOL    HW133455   2.201   1.788   2.686
10852SOL    HW233456   2.317   1.853   2.781
10853SOL     OW33457   3.068   1.536   6.314
10853SOL    HW133458   3.091   1.446   6.350
10853SOL    HW233459   2.979   1.532   6.269
10854SOL     OW33460   3.084   6.517   5.163
10854SOL    HW133461   3.158   6.516   5.231
10854SOL    HW233462   3.002   6.475   5.202
10855SOL     OW33463   3.743   1.299   6.902
10855SOL    HW133464   3.730   1.302   6.803
10855SOL    HW233465   3.734   1.391   6.940
10856SOL     OW33466   0.512   1.259   0.745
10856SOL    HW133467   0.535   1.310   0.662
10856SOL    HW233468   0.530   1.316   0.825
10857SOL     OW33469   6.491   2.407   2.473
10857SOL    HW133470   6.401   2.375   2.505
10857SOL    HW233471   6.480   2.488   2.416
10858SOL     OW33472   3.011   6.496   2.280
10858SOL    HW133473   3.007   6.397   2.292
10858SOL    HW233474   2.981   6.519   2.187
10859SOL     OW33475   1.420   5.630   3.582
10859SOL    HW133476   1.424   5.701   3.512
10859SOL    HW233477   1.487   5.559   3.560
10860SOL     OW33478   6.828   3.614   3.385
10860SOL    HW133479   6.857   3.527   3.426
10860SOL    HW233480   6.844   3.611   3.287
10861SOL     OW33481   3.523   2.916   4.929
10861SOL    HW133482   3.424   2.928   4.930
10861SOL    HW233483   3.554   2.895   4.836
10862SOL     OW33484   1.028   0.355   4.744
10862SOL    HW133485   1.123   0.382   4.761
10862SOL    HW233486   0.992   0.405   4.665
10863SOL     OW33487   2.507   6.099   4.271
10863SOL    HW133488   2.593   6.077   4.224
10863SOL    HW233489   2.434   6.042   4.234
10864SOL     OW33490   3.904   6.073   3.556
10864SOL    HW133491   3.943   6.060   3.465
10864SOL    HW233492   3.804   6.067   3.550
10865SOL     OW33493   6.445   1.895   5.858
10865SOL    HW133494   6.445   1.834   5.779
10865SOL    HW233495   6.511   1.861   5.926
10866SOL     OW33496   5.109   4.763   0.759
10866SOL    HW133497   5.067   4.819   0.831
10866SOL    HW233498   5.168   4.694   0.801
10867SOL     OW33499   2.903   1.767   6.991
10867SOL    HW133500   2.953   1.718   0.037
10867SOL    HW233501   2.951   1.759   6.904
10868SOL     OW33502   2.995   2.250   2.974
10868SOL    HW133503   2.959   2.316   2.909
10868SOL    HW233504   3.093   2.238   2.960
10869NA      NA33505   6.393   2.502   5.778
10870NA      NA33506   4.506   4.372   5.169
10871NA      NA33507   2.332   3.458   1.634
10872NA      NA33508   4.887   3.741   5.202
10873NA      NA33509   4.371   2.430   5.296
10874NA      NA33510   3.778   4.762   1.763
10875NA      NA33511   6.704   6.048   4.630
10876NA      NA33512   3.641   3.563   4.943
10877NA      NA33513   4.503   0.176   6.874
10878NA      NA33514   3.178   0.211   5.013
10879NA      NA33515   0.464   5.080   2.484
10880NA      NA33516   2.963   0.513   2.725
10881NA      NA33517   3.703   3.979   1.433
10882NA      NA33518   3.865   3.426   2.881
   7.02436   7.02436   7.02436
