Generated by trjconv : CNT in water t= 465.00000
33518
    1C        C    1   2.846   2.774   4.749
    1C        C    2   2.904   2.724   4.867
    1C        C    3   2.846   2.774   4.984
    1C        C    4   2.855   2.781   4.260
    1C        C    5   2.905   2.732   4.383
    1C        C    6   2.851   2.778   4.505
    1C        C    7   3.018   2.647   4.625
    1C        C    8   2.901   2.727   4.627
    1C        C    9   3.083   2.611   4.744
    1C        C   10   3.014   2.635   4.865
    1C        C   11   3.186   2.494   4.975
    1C        C   12   3.062   2.559   4.972
    1C        C   13   2.853   2.774   3.771
    1C        C   14   2.904   2.725   3.894
    1C        C   15   2.854   2.775   4.016
    1C        C   16   3.023   2.650   4.140
    1C        C   17   2.907   2.730   4.139
    1C        C   18   3.085   2.616   4.262
    1C        C   19   3.023   2.654   4.382
    1C        C   20   3.209   2.552   4.502
    1C        C   21   3.080   2.610   4.504
    1C        C   22   3.281   2.535   4.622
    1C        C   23   3.214   2.555   4.745
    1C        C   24   3.417   2.485   4.866
    1C        C   25   3.275   2.507   4.864
    1C        C   26   3.493   2.480   4.983
    1C        C   27   2.854   2.777   3.282
    1C        C   28   2.907   2.731   3.404
    1C        C   29   2.855   2.778   3.527
    1C        C   30   3.023   2.647   3.651
    1C        C   31   2.908   2.729   3.649
    1C        C   32   3.082   2.608   3.773
    1C        C   33   3.020   2.644   3.895
    1C        C   34   3.212   2.554   4.016
    1C        C   35   3.083   2.613   4.017
    1C        C   36   3.280   2.532   4.137
    1C        C   37   3.215   2.559   4.260
    1C        C   38   3.417   2.498   4.380
    1C        C   39   3.280   2.532   4.382
    1C        C   40   3.488   2.490   4.502
    1C        C   41   3.418   2.501   4.624
    1C        C   42   3.632   2.474   4.744
    1C        C   43   3.490   2.480   4.744
    1C        C   44   3.706   2.479   4.863
    1C        C   45   3.631   2.471   4.981
    1C        C   46   2.840   2.756   2.793
    1C        C   47   2.899   2.718   2.916
    1C        C   48   2.849   2.769   3.038
    1C        C   49   3.020   2.645   3.160
    1C        C   50   2.905   2.726   3.160
    1C        C   51   3.082   2.611   3.283
    1C        C   52   3.021   2.647   3.405
    1C        C   53   3.209   2.549   3.527
    1C        C   54   3.083   2.613   3.528
    1C        C   55   3.276   2.525   3.649
    1C        C   56   3.211   2.550   3.772
    1C        C   57   3.416   2.496   3.893
    1C        C   58   3.279   2.530   3.894
    1C        C   59   3.484   2.487   4.017
    1C        C   60   3.417   2.497   4.141
    1C        C   61   3.631   2.488   4.260
    1C        C   62   3.490   2.480   4.260
    1C        C   63   3.701   2.501   4.382
    1C        C   64   3.629   2.497   4.504
    1C        C   65   3.837   2.541   4.622
    1C        C   66   3.704   2.493   4.624
    1C        C   67   3.904   2.562   4.744
    1C        C   68   3.841   2.521   4.864
    1C        C   69   4.051   2.586   4.979
    1C        C   70   3.921   2.535   4.978
    1C        C   71   2.825   2.736   2.307
    1C        C   72   2.888   2.699   2.428
    1C        C   73   2.835   2.748   2.550
    1C        C   74   3.006   2.623   2.672
    1C        C   75   2.889   2.703   2.672
    1C        C   76   3.075   2.599   2.793
    1C        C   77   3.016   2.639   2.915
    1C        C   78   3.209   2.553   3.037
    1C        C   79   3.078   2.606   3.037
    1C        C   80   3.277   2.531   3.159
    1C        C   81   3.211   2.553   3.282
    1C        C   82   3.413   2.498   3.404
    1C        C   83   3.274   2.523   3.404
    1C        C   84   3.484   2.494   3.526
    1C        C   85   3.415   2.500   3.649
    1C        C   86   3.628   2.494   3.769
    1C        C   87   3.487   2.493   3.771
    1C        C   88   3.695   2.503   3.893
    1C        C   89   3.625   2.496   4.016
    1C        C   90   3.834   2.541   4.134
    1C        C   91   3.698   2.502   4.137
    1C        C   92   3.901   2.569   4.255
    1C        C   93   3.836   2.541   4.377
    1C        C   94   4.028   2.631   4.500
    1C        C   95   3.902   2.567   4.499
    1C        C   96   4.089   2.671   4.620
    1C        C   97   4.030   2.627   4.741
    1C        C   98   4.190   2.765   4.862
    1C        C   99   4.098   2.655   4.863
    1C        C  100   4.205   2.847   4.974
    1C        C  101   2.817   2.729   2.070
    1C        C  102   2.990   2.593   2.191
    1C        C  103   2.876   2.680   2.187
    1C        C  104   3.063   2.574   2.311
    1C        C  105   3.006   2.623   2.431
    1C        C  106   3.201   2.531   2.550
    1C        C  107   3.071   2.588   2.551
    1C        C  108   3.269   2.513   2.672
    1C        C  109   3.205   2.543   2.794
    1C        C  110   3.412   2.491   2.916
    1C        C  111   3.275   2.523   2.915
    1C        C  112   3.484   2.489   3.038
    1C        C  113   3.415   2.503   3.161
    1C        C  114   3.627   2.495   3.280
    1C        C  115   3.486   2.491   3.283
    1C        C  116   3.696   2.500   3.403
    1C        C  117   3.625   2.496   3.525
    1C        C  118   3.834   2.537   3.647
    1C        C  119   3.698   2.500   3.646
    1C        C  120   3.899   2.568   3.768
    1C        C  121   3.831   2.542   3.890
    1C        C  122   4.020   2.640   4.012
    1C        C  123   3.897   2.571   4.011
    1C        C  124   4.078   2.682   4.134
    1C        C  125   4.024   2.639   4.257
    1C        C  126   4.194   2.766   4.378
    1C        C  127   4.087   2.674   4.378
    1C        C  128   4.240   2.823   4.499
    1C        C  129   4.189   2.771   4.621
    1C        C  130   4.323   2.938   4.741
    1C        C  131   4.242   2.821   4.742
    1C        C  132   4.354   3.003   4.862
    1C        C  133   4.286   2.960   4.977
    1C        C  134   3.172   2.469   2.082
    1C        C  135   3.039   2.512   2.084
    1C        C  136   3.258   2.475   2.192
    1C        C  137   3.194   2.518   2.310
    1C        C  138   3.408   2.480   2.429
    1C        C  139   3.269   2.506   2.429
    1C        C  140   3.482   2.475   2.549
    1C        C  141   3.409   2.489   2.669
    1C        C  142   3.620   2.491   2.791
    1C        C  143   3.479   2.482   2.792
    1C        C  144   3.693   2.500   2.912
    1C        C  145   3.625   2.491   3.036
    1C        C  146   3.834   2.531   3.157
    1C        C  147   3.696   2.500   3.157
    1C        C  148   3.900   2.558   3.279
    1C        C  149   3.834   2.534   3.402
    1C        C  150   4.026   2.624   3.521
    1C        C  151   3.901   2.557   3.524
    1C        C  152   4.082   2.667   3.644
    1C        C  153   4.022   2.637   3.768
    1C        C  154   4.192   2.764   3.888
    1C        C  155   4.081   2.677   3.890
    1C        C  156   4.246   2.808   4.011
    1C        C  157   4.192   2.765   4.135
    1C        C  158   4.330   2.928   4.253
    1C        C  159   4.243   2.817   4.256
    1C        C  160   4.370   2.989   4.374
    1C        C  161   4.327   2.934   4.497
    1C        C  162   4.435   3.117   4.617
    1C        C  163   4.361   2.997   4.618
    1C        C  164   4.464   3.186   4.737
    1C        C  165   4.431   3.121   4.858
    1C        C  166   4.517   3.318   4.974
    1C        C  167   4.480   3.184   4.973
    1C        C  168   3.478   2.437   2.075
    1C        C  169   3.398   2.456   2.189
    1C        C  170   3.618   2.461   2.307
    1C        C  171   3.476   2.459   2.307
    1C        C  172   3.692   2.485   2.425
    1C        C  173   3.623   2.479   2.548
    1C        C  174   3.828   2.537   2.667
    1C        C  175   3.691   2.501   2.670
    1C        C  176   3.897   2.556   2.789
    1C        C  177   3.831   2.530   2.911
    1C        C  178   4.021   2.622   3.032
    1C        C  179   3.898   2.554   3.033
    1C        C  180   4.081   2.665   3.153
    1C        C  181   4.023   2.627   3.276
    1C        C  182   4.192   2.754   3.398
    1C        C  183   4.084   2.663   3.399
    1C        C  184   4.242   2.806   3.520
    1C        C  185   4.194   2.753   3.642
    1C        C  186   4.331   2.917   3.764
    1C        C  187   4.243   2.806   3.763
    1C        C  188   4.371   2.978   3.885
    1C        C  189   4.331   2.921   4.008
    1C        C  190   4.434   3.109   4.127
    1C        C  191   4.365   2.986   4.129
    1C        C  192   4.465   3.176   4.248
    1C        C  193   4.436   3.114   4.371
    1C        C  194   4.501   3.317   4.494
    1C        C  195   4.458   3.182   4.493
    1C        C  196   4.521   3.390   4.614
    1C        C  197   4.511   3.320   4.736
    1C        C  198   4.554   3.535   4.853
    1C        C  199   4.533   3.393   4.856
    1C        C  200   4.572   3.618   4.967
    1C        C  201   3.617   2.419   2.072
    1C        C  202   3.826   2.510   2.183
    1C        C  203   3.693   2.459   2.187
    1C        C  204   3.897   2.540   2.303
    1C        C  205   3.829   2.521   2.425
    1C        C  206   4.025   2.611   2.543
    1C        C  207   3.897   2.550   2.545
    1C        C  208   4.082   2.656   2.664
    1C        C  209   4.021   2.623   2.787
    1C        C  210   4.196   2.741   2.906
    1C        C  211   4.082   2.658   2.910
    1C        C  212   4.245   2.795   3.027
    1C        C  213   4.192   2.752   3.151
    1C        C  214   4.324   2.915   3.272
    1C        C  215   4.243   2.799   3.275
    1C        C  216   4.365   2.975   3.393
    1C        C  217   4.326   2.919   3.517
    1C        C  218   4.428   3.102   3.640
    1C        C  219   4.366   2.975   3.641
    1C        C  220   4.457   3.171   3.760
    1C        C  221   4.434   3.105   3.883
    1C        C  222   4.502   3.307   4.004
    1C        C  223   4.464   3.171   4.004
    1C        C  224   4.515   3.379   4.125
    1C        C  225   4.507   3.311   4.248
    1C        C  226   4.521   3.523   4.366
    1C        C  227   4.520   3.381   4.370
    1C        C  228   4.522   3.597   4.486
    1C        C  229   4.536   3.530   4.609
    1C        C  230   4.507   3.743   4.726
    1C        C  231   4.540   3.604   4.729
    1C        C  232   4.498   3.819   4.844
    1C        C  233   4.552   3.756   4.957
    1C        C  234   4.015   2.605   2.067
    1C        C  235   3.890   2.544   2.063
    1C        C  236   4.086   2.648   2.180
    1C        C  237   4.023   2.606   2.299
    1C        C  238   4.200   2.729   2.419
    1C        C  239   4.086   2.645   2.420
    1C        C  240   4.250   2.783   2.539
    1C        C  241   4.191   2.746   2.662
    1C        C  242   4.330   2.905   2.783
    1C        C  243   4.244   2.793   2.784
    1C        C  244   4.373   2.961   2.906
    1C        C  245   4.337   2.902   3.029
    1C        C  246   4.427   3.098   3.149
    1C        C  247   4.366   2.970   3.149
    1C        C  248   4.455   3.164   3.270
    1C        C  249   4.426   3.103   3.394
    1C        C  250   4.490   3.304   3.515
    1C        C  251   4.450   3.168   3.517
    1C        C  252   4.507   3.375   3.636
    1C        C  253   4.498   3.306   3.759
    1C        C  254   4.524   3.517   3.879
    1C        C  255   4.516   3.376   3.881
    1C        C  256   4.522   3.591   3.999
    1C        C  257   4.523   3.520   4.122
    1C        C  258   4.489   3.731   4.242
    1C        C  259   4.516   3.592   4.243
    1C        C  260   4.475   3.804   4.362
    1C        C  261   4.493   3.736   4.484
    1C        C  262   4.428   3.941   4.605
    1C        C  263   4.479   3.809   4.604
    1C        C  264   4.405   4.013   4.724
    1C        C  265   4.435   3.946   4.845
    1C        C  266   4.324   4.132   4.957
    1C        C  267   4.398   4.015   4.961
    1C        C  268   4.262   2.774   2.060
    1C        C  269   4.200   2.730   2.178
    1C        C  270   4.341   2.892   2.298
    1C        C  271   4.258   2.776   2.299
    1C        C  272   4.374   2.958   2.419
    1C        C  273   4.332   2.898   2.540
    1C        C  274   4.438   3.085   2.661
    1C        C  275   4.370   2.962   2.660
    1C        C  276   4.462   3.153   2.783
    1C        C  277   4.433   3.089   2.905
    1C        C  278   4.500   3.294   3.023
    1C        C  279   4.456   3.159   3.025
    1C        C  280   4.511   3.365   3.145
    1C        C  281   4.497   3.299   3.269
    1C        C  282   4.520   3.510   3.391
    1C        C  283   4.506   3.369   3.391
    1C        C  284   4.518   3.584   3.511
    1C        C  285   4.524   3.515   3.634
    1C        C  286   4.494   3.725   3.751
    1C        C  287   4.522   3.587   3.756
    1C        C  288   4.476   3.793   3.874
    1C        C  289   4.495   3.729   3.998
    1C        C  290   4.433   3.935   4.117
    1C        C  291   4.477   3.801   4.119
    1C        C  292   4.405   4.002   4.238
    1C        C  293   4.428   3.937   4.361
    1C        C  294   4.332   4.128   4.479
    1C        C  295   4.400   4.005   4.482
    1C        C  296   4.291   4.191   4.599
    1C        C  297   4.332   4.135   4.722
    1C        C  298   4.201   4.314   4.838
    1C        C  299   4.286   4.199   4.840
    1C        C  300   4.172   4.399   4.949
    1C        C  301   4.354   2.878   2.060
    1C        C  302   4.467   3.066   2.179
    1C        C  303   4.394   2.943   2.177
    1C        C  304   4.482   3.142   2.299
    1C        C  305   4.451   3.077   2.420
    1C        C  306   4.504   3.286   2.538
    1C        C  307   4.474   3.148   2.540
    1C        C  308   4.514   3.359   2.659
    1C        C  309   4.499   3.290   2.781
    1C        C  310   4.525   3.503   2.899
    1C        C  311   4.517   3.362   2.901
    1C        C  312   4.518   3.575   3.021
    1C        C  313   4.520   3.506   3.144
    1C        C  314   4.495   3.716   3.263
    1C        C  315   4.518   3.576   3.266
    1C        C  316   4.480   3.789   3.383
    1C        C  317   4.499   3.724   3.506
    1C        C  318   4.428   3.925   3.628
    1C        C  319   4.476   3.792   3.628
    1C        C  320   4.397   3.989   3.750
    1C        C  321   4.427   3.926   3.873
    1C        C  322   4.321   4.113   3.991
    1C        C  323   4.397   3.994   3.993
    1C        C  324   4.281   4.172   4.113
    1C        C  325   4.330   4.122   4.236
    1C        C  326   4.185   4.279   4.356
    1C        C  327   4.288   4.182   4.356
    1C        C  328   4.134   4.334   4.475
    1C        C  329   4.195   4.294   4.596
    1C        C  330   4.024   4.433   4.714
    1C        C  331   4.140   4.350   4.714
    1C        C  332   3.973   4.492   4.831
    1C        C  333   4.054   4.475   4.943
    1C        C  334   4.547   3.268   2.060
    1C        C  335   4.528   3.130   2.066
    1C        C  336   4.537   3.347   2.175
    1C        C  337   4.517   3.280   2.298
    1C        C  338   4.525   3.497   2.412
    1C        C  339   4.517   3.356   2.417
    1C        C  340   4.524   3.569   2.533
    1C        C  341   4.524   3.500   2.656
    1C        C  342   4.500   3.712   2.774
    1C        C  343   4.526   3.573   2.777
    1C        C  344   4.479   3.781   2.895
    1C        C  345   4.492   3.714   3.019
    1C        C  346   4.427   3.916   3.137
    1C        C  347   4.471   3.782   3.140
    1C        C  348   4.392   3.979   3.259
    1C        C  349   4.428   3.921   3.383
    1C        C  350   4.322   4.105   3.503
    1C        C  351   4.398   3.986   3.505
    1C        C  352   4.277   4.164   3.623
    1C        C  353   4.319   4.106   3.745
    1C        C  354   4.181   4.267   3.869
    1C        C  355   4.279   4.166   3.867
    1C        C  356   4.127   4.318   3.989
    1C        C  357   4.182   4.273   4.111
    1C        C  358   4.009   4.395   4.231
    1C        C  359   4.126   4.318   4.233
    1C        C  360   3.948   4.437   4.351
    1C        C  361   4.016   4.413   4.473
    1C        C  362   3.826   4.510   4.593
    1C        C  363   3.959   4.461   4.592
    1C        C  364   3.762   4.543   4.714
    1C        C  365   3.838   4.537   4.832
    1C        C  366   3.629   4.594   4.950
    1C        C  367   3.766   4.572   4.947
    1C        C  368   4.506   3.563   2.053
    1C        C  369   4.525   3.487   2.170
    1C        C  370   4.504   3.704   2.286
    1C        C  371   4.525   3.565   2.288
    1C        C  372   4.487   3.777   2.406
    1C        C  373   4.504   3.709   2.529
    1C        C  374   4.429   3.909   2.648
    1C        C  375   4.484   3.779   2.650
    1C        C  376   4.402   3.978   2.769
    1C        C  377   4.427   3.913   2.892
    1C        C  378   4.323   4.098   3.012
    1C        C  379   4.396   3.977   3.014
    1C        C  380   4.274   4.151   3.134
    1C        C  381   4.312   4.095   3.258
    1C        C  382   4.177   4.258   3.378
    1C        C  383   4.273   4.154   3.380
    1C        C  384   4.121   4.303   3.500
    1C        C  385   4.173   4.259   3.623
    1C        C  386   4.005   4.386   3.744
    1C        C  387   4.122   4.306   3.746
    1C        C  388   3.943   4.426   3.865
    1C        C  389   4.006   4.392   3.987
    1C        C  390   3.818   4.490   4.108
    1C        C  391   3.947   4.431   4.109
    1C        C  392   3.749   4.511   4.229
    1C        C  393   3.820   4.497   4.351
    1C        C  394   3.615   4.552   4.474
    1C        C  395   3.754   4.526   4.472
    1C        C  396   3.546   4.568   4.596
    1C        C  397   3.623   4.567   4.715
    1C        C  398   3.412   4.545   4.839
    1C        C  399   3.550   4.573   4.836
    1C        C  400   3.341   4.507   4.953
    1C        C  401   4.507   3.702   2.051
    1C        C  402   4.458   3.915   2.167
    1C        C  403   4.493   3.779   2.167
    1C        C  404   4.415   3.978   2.286
    1C        C  405   4.440   3.910   2.407
    1C        C  406   4.327   4.095   2.526
    1C        C  407   4.404   3.977   2.527
    1C        C  408   4.285   4.154   2.647
    1C        C  409   4.326   4.096   2.770
    1C        C  410   4.178   4.252   2.889
    1C        C  411   4.283   4.157   2.890
    1C        C  412   4.124   4.295   3.012
    1C        C  413   4.175   4.251   3.136
    1C        C  414   4.003   4.379   3.255
    1C        C  415   4.122   4.304   3.256
    1C        C  416   3.941   4.412   3.377
    1C        C  417   4.003   4.380   3.500
    1C        C  418   3.812   4.473   3.621
    1C        C  419   3.942   4.417   3.622
    1C        C  420   3.744   4.497   3.742
    1C        C  421   3.813   4.480   3.864
    1C        C  422   3.610   4.534   3.989
    1C        C  423   3.749   4.509   3.987
    1C        C  424   3.538   4.542   4.110
    1C        C  425   3.611   4.541   4.231
    1C        C  426   3.400   4.550   4.358
    1C        C  427   3.542   4.552   4.354
    1C        C  428   3.330   4.551   4.480
    1C        C  429   3.405   4.563   4.600
    1C        C  430   3.195   4.521   4.723
    1C        C  431   3.334   4.548   4.721
    1C        C  432   3.123   4.498   4.844
    1C        C  433   3.202   4.494   4.959
    1C        C  434   4.386   4.120   2.054
    1C        C  435   4.446   3.994   2.051
    1C        C  436   4.305   4.163   2.164
    1C        C  437   4.339   4.098   2.286
    1C        C  438   4.181   4.249   2.403
    1C        C  439   4.284   4.153   2.404
    1C        C  440   4.125   4.295   2.525
    1C        C  441   4.181   4.249   2.646
    1C        C  442   4.007   4.374   2.765
    1C        C  443   4.124   4.296   2.766
    1C        C  444   3.942   4.406   2.887
    1C        C  445   4.004   4.371   3.008
    1C        C  446   3.812   4.461   3.131
    1C        C  447   3.943   4.408   3.130
    1C        C  448   3.745   4.485   3.253
    1C        C  449   3.812   4.470   3.376
    1C        C  450   3.607   4.525   3.494
    1C        C  451   3.745   4.494   3.498
    1C        C  452   3.541   4.537   3.618
    1C        C  453   3.606   4.527   3.743
    1C        C  454   3.398   4.546   3.864
    1C        C  455   3.539   4.541   3.866
    1C        C  456   3.330   4.540   3.987
    1C        C  457   3.397   4.549   4.111
    1C        C  458   3.194   4.506   4.238
    1C        C  459   3.331   4.540   4.235
    1C        C  460   3.125   4.492   4.360
    1C        C  461   3.193   4.519   4.481
    1C        C  462   2.997   4.437   4.604
    1C        C  463   3.124   4.498   4.603
    1C        C  464   2.932   4.401   4.724
    1C        C  465   2.990   4.445   4.846
    1C        C  466   2.804   4.332   4.961
    1C        C  467   2.908   4.427   4.962
    1C        C  468   4.125   4.288   2.042
    1C        C  469   4.187   4.244   2.159
    1C        C  470   4.007   4.367   2.280
    1C        C  471   4.127   4.290   2.280
    1C        C  472   3.942   4.401   2.400
    1C        C  473   4.003   4.367   2.523
    1C        C  474   3.810   4.458   2.643
    1C        C  475   3.940   4.404   2.644
    1C        C  476   3.743   4.480   2.766
    1C        C  477   3.810   4.458   2.888
    1C        C  478   3.606   4.512   3.009
    1C        C  479   3.744   4.485   3.009
    1C        C  480   3.535   4.524   3.130
    1C        C  481   3.608   4.520   3.251
    1C        C  482   3.395   4.536   3.379
    1C        C  483   3.536   4.531   3.372
    1C        C  484   3.325   4.529   3.502
    1C        C  485   3.399   4.540   3.622
    1C        C  486   3.189   4.505   3.746
    1C        C  487   3.326   4.539   3.742
    1C        C  488   3.127   4.480   3.870
    1C        C  489   3.194   4.501   3.992
    1C        C  490   3.003   4.415   4.117
    1C        C  491   3.129   4.479   4.116
    1C        C  492   2.941   4.384   4.240
    1C        C  493   2.998   4.429   4.361
    1C        C  494   2.833   4.298   4.485
    1C        C  495   2.937   4.394   4.483
    1C        C  496   2.779   4.253   4.607
    1C        C  497   2.820   4.314   4.728
    1C        C  498   2.665   4.163   4.844
    1C        C  499   2.751   4.275   4.845
    1C        C  500   2.600   4.117   4.960
    1C        C  501   4.008   4.364   2.043
    1C        C  502   3.813   4.460   2.156
    1C        C  503   3.941   4.401   2.160
    1C        C  504   3.744   4.476   2.278
    1C        C  505   3.810   4.451   2.400
    1C        C  506   3.603   4.506   2.523
    1C        C  507   3.741   4.477   2.521
    1C        C  508   3.531   4.517   2.644
    1C        C  509   3.604   4.507   2.765
    1C        C  510   3.393   4.526   2.887
    1C        C  511   3.534   4.515   2.887
    1C        C  512   3.322   4.523   3.009
    1C        C  513   3.394   4.528   3.131
    1C        C  514   3.189   4.494   3.255
    1C        C  515   3.326   4.528   3.255
    1C        C  516   3.121   4.475   3.378
    1C        C  517   3.187   4.500   3.500
    1C        C  518   2.997   4.415   3.624
    1C        C  519   3.121   4.482   3.624
    1C        C  520   2.943   4.375   3.748
    1C        C  521   3.002   4.412   3.871
    1C        C  522   2.839   4.282   3.996
    1C        C  523   2.946   4.374   3.994
    1C        C  524   2.790   4.234   4.120
    1C        C  525   2.838   4.287   4.241
    1C        C  526   2.697   4.132   4.364
    1C        C  527   2.785   4.242   4.364
    1C        C  528   2.655   4.075   4.487
    1C        C  529   2.694   4.141   4.606
    1C        C  530   2.582   3.959   4.732
    1C        C  531   2.641   4.089   4.727
    1C        C  532   2.544   3.900   4.855
    1C        C  533   2.534   3.993   4.963
    1C        C  534   3.614   4.547   2.039
    1C        C  535   3.748   4.508   2.041
    1C        C  536   3.536   4.535   2.158
    1C        C  537   3.605   4.507   2.279
    1C        C  538   3.392   4.518   2.400
    1C        C  539   3.533   4.515   2.400
    1C        C  540   3.320   4.510   2.522
    1C        C  541   3.390   4.516   2.644
    1C        C  542   3.182   4.487   2.765
    1C        C  543   3.320   4.515   2.766
    1C        C  544   3.118   4.464   2.889
    1C        C  545   3.185   4.490   3.010
    1C        C  546   2.995   4.404   3.134
    1C        C  547   3.120   4.470   3.134
    1C        C  548   2.942   4.362   3.258
    1C        C  549   2.997   4.409   3.380
    1C        C  550   2.834   4.277   3.506
    1C        C  551   2.935   4.376   3.503
    1C        C  552   2.785   4.229   3.629
    1C        C  553   2.836   4.282   3.750
    1C        C  554   2.705   4.119   3.876
    1C        C  555   2.790   4.232   3.873
    1C        C  556   2.669   4.058   3.998
    1C        C  557   2.702   4.123   4.119
    1C        C  558   2.599   3.942   4.246
    1C        C  559   2.663   4.068   4.243
    1C        C  560   2.568   3.880   4.369
    1C        C  561   2.598   3.947   4.490
    1C        C  562   2.529   3.748   4.617
    1C        C  563   2.567   3.884   4.613
    1C        C  564   2.513   3.681   4.740
    1C        C  565   2.521   3.758   4.859
    1C        C  566   2.525   3.548   4.981
    1C        C  567   2.520   3.687   4.980
    1C        C  568   3.325   4.479   2.042
    1C        C  569   3.395   4.515   2.157
    1C        C  570   3.185   4.471   2.279
    1C        C  571   3.321   4.512   2.278
    1C        C  572   3.114   4.455   2.400
    1C        C  573   3.181   4.481   2.521
    1C        C  574   2.987   4.401   2.647
    1C        C  575   3.112   4.467   2.644
    1C        C  576   2.930   4.362   2.770
    1C        C  577   2.990   4.402   2.891
    1C        C  578   2.824   4.275   3.019
    1C        C  579   2.932   4.366   3.014
    1C        C  580   2.778   4.220   3.140
    1C        C  581   2.834   4.271   3.259
    1C        C  582   2.698   4.114   3.383
    1C        C  583   2.786   4.225   3.384
    1C        C  584   2.663   4.057   3.508
    1C        C  585   2.699   4.117   3.631
    1C        C  586   2.600   3.934   3.757
    1C        C  587   2.664   4.060   3.755
    1C        C  588   2.575   3.868   3.880
    1C        C  589   2.603   3.933   4.002
    1C        C  590   2.537   3.736   4.130
    1C        C  591   2.573   3.873   4.126
    1C        C  592   2.520   3.671   4.254
    1C        C  593   2.527   3.745   4.374
    1C        C  594   2.506   3.535   4.497
    1C        C  595   2.513   3.676   4.496
    1C        C  596   2.509   3.464   4.619
    1C        C  597   2.513   3.539   4.739
    1C        C  598   2.529   3.331   4.862
    1C        C  599   2.521   3.472   4.863
    1C        C  600   2.532   3.251   4.977
    1C        C  601   3.195   4.433   2.042
    1C        C  602   2.982   4.391   2.158
    1C        C  603   3.118   4.438   2.158
    1C        C  604   2.923   4.358   2.283
    1C        C  605   2.985   4.397   2.403
    1C        C  606   2.820   4.267   2.530
    1C        C  607   2.925   4.362   2.526
    1C        C  608   2.769   4.221   2.653
    1C        C  609   2.819   4.275   2.773
    1C        C  610   2.686   4.112   2.895
    1C        C  611   2.773   4.224   2.897
    1C        C  612   2.648   4.053   3.018
    1C        C  613   2.689   4.110   3.141
    1C        C  614   2.592   3.925   3.266
    1C        C  615   2.651   4.054   3.264
    1C        C  616   2.569   3.865   3.391
    1C        C  617   2.600   3.931   3.512
    1C        C  618   2.533   3.732   3.638
    1C        C  619   2.574   3.867   3.635
    1C        C  620   2.522   3.662   3.760
    1C        C  621   2.538   3.732   3.882
    1C        C  622   2.510   3.526   4.009
    1C        C  623   2.524   3.667   4.007
    1C        C  624   2.510   3.458   4.132
    1C        C  625   2.508   3.530   4.254
    1C        C  626   2.536   3.322   4.378
    1C        C  627   2.511   3.461   4.377
    1C        C  628   2.558   3.257   4.502
    1C        C  629   2.530   3.324   4.623
    1C        C  630   2.596   3.122   4.744
    1C        C  631   2.545   3.255   4.745
    1C        C  632   2.621   3.053   4.866
    1C        C  633   2.569   3.116   4.984
    1C        C  634   2.783   4.302   2.050
    1C        C  635   2.891   4.390   2.047
    1C        C  636   2.749   4.229   2.165
    1C        C  637   2.809   4.273   2.285
    1C        C  638   2.677   4.109   2.409
    1C        C  639   2.765   4.220   2.409
    1C        C  640   2.638   4.050   2.531
    1C        C  641   2.681   4.110   2.652
    1C        C  642   2.588   3.922   2.777
    1C        C  643   2.645   4.051   2.775
    1C        C  644   2.563   3.856   2.899
    1C        C  645   2.589   3.925   3.020
    1C        C  646   2.527   3.724   3.148
    1C        C  647   2.566   3.860   3.143
    1C        C  648   2.515   3.657   3.272
    1C        C  649   2.531   3.729   3.392
    1C        C  650   2.511   3.520   3.519
    1C        C  651   2.521   3.661   3.516
    1C        C  652   2.514   3.450   3.642
    1C        C  653   2.514   3.521   3.763
    1C        C  654   2.525   3.314   3.890
    1C        C  655   2.511   3.454   3.888
    1C        C  656   2.548   3.249   4.014
    1C        C  657   2.530   3.318   4.136
    1C        C  658   2.607   3.119   4.257
    1C        C  659   2.554   3.250   4.258
    1C        C  660   2.637   3.058   4.381
    1C        C  661   2.607   3.124   4.502
    1C        C  662   2.715   2.943   4.624
    1C        C  663   2.632   3.057   4.624
    1C        C  664   2.758   2.886   4.746
    1C        C  665   2.700   2.934   4.866
    1C        C  666   2.746   2.871   4.983
    1C        C  667   2.683   4.019   2.057
    1C        C  668   2.683   4.104   2.169
    1C        C  669   2.586   3.913   2.291
    1C        C  670   2.639   4.045   2.289
    1C        C  671   2.560   3.848   2.414
    1C        C  672   2.588   3.918   2.533
    1C        C  673   2.520   3.718   2.658
    1C        C  674   2.563   3.852   2.656
    1C        C  675   2.506   3.650   2.782
    1C        C  676   2.524   3.720   2.903
    1C        C  677   2.500   3.512   3.029
    1C        C  678   2.514   3.653   3.027
    1C        C  679   2.500   3.446   3.154
    1C        C  680   2.503   3.516   3.276
    1C        C  681   2.526   3.306   3.401
    1C        C  682   2.506   3.446   3.399
    1C        C  683   2.548   3.240   3.524
    1C        C  684   2.528   3.309   3.646
    1C        C  685   2.597   3.112   3.771
    1C        C  686   2.540   3.242   3.769
    1C        C  687   2.638   3.055   3.894
    1C        C  688   2.606   3.121   4.015
    1C        C  689   2.714   2.936   4.137
    1C        C  690   2.635   3.053   4.136
    1C        C  691   2.757   2.882   4.260
    1C        C  692   2.714   2.940   4.382
    1C        C  693   2.757   2.883   4.504
    1C        C  694   2.633   3.889   2.058
    1C        C  695   2.524   3.704   2.175
    1C        C  696   2.573   3.837   2.173
    1C        C  697   2.505   3.636   2.297
    1C        C  698   2.524   3.712   2.414
    1C        C  699   2.492   3.506   2.541
    1C        C  700   2.502   3.647   2.538
    1C        C  701   2.504   3.436   2.663
    1C        C  702   2.501   3.509   2.784
    1C        C  703   2.525   3.300   2.909
    1C        C  704   2.504   3.440   2.907
    1C        C  705   2.545   3.237   3.034
    1C        C  706   2.529   3.307   3.155
    1C        C  707   2.589   3.105   3.280
    1C        C  708   2.542   3.238   3.278
    1C        C  709   2.625   3.045   3.403
    1C        C  710   2.605   3.111   3.526
    1C        C  711   2.710   2.931   3.650
    1C        C  712   2.632   3.049   3.650
    1C        C  713   2.761   2.881   3.771
    1C        C  714   2.721   2.941   3.893
    1C        C  715   2.764   2.884   4.015
    1C        C  716   2.449   3.500   2.061
    1C        C  717   2.490   3.634   2.058
    1C        C  718   2.464   3.423   2.181
    1C        C  719   2.475   3.497   2.302
    1C        C  720   2.516   3.290   2.421
    1C        C  721   2.483   3.427   2.424
    1C        C  722   2.535   3.224   2.545
    1C        C  723   2.523   3.296   2.666
    1C        C  724   2.594   3.097   2.791
    1C        C  725   2.541   3.228   2.788
    1C        C  726   2.622   3.036   2.915
    1C        C  727   2.598   3.107   3.035
    1C        C  728   2.706   2.927   3.158
    1C        C  729   2.628   3.045   3.158
    1C        C  730   2.754   2.878   3.282
    1C        C  731   2.710   2.932   3.404
    1C        C  732   2.756   2.878   3.527
    1C        C  733   2.493   3.202   2.067
    1C        C  734   2.486   3.282   2.182
    1C        C  735   2.583   3.086   2.304
    1C        C  736   2.525   3.216   2.302
    1C        C  737   2.611   3.021   2.426
    1C        C  738   2.587   3.093   2.545
    1C        C  739   2.701   2.916   2.670
    1C        C  740   2.623   3.034   2.668
    1C        C  741   2.743   2.859   2.792
    1C        C  742   2.703   2.920   2.913
    1C        C  743   2.755   2.875   3.037
    1C        C  744   2.547   3.074   2.073
    1C        C  745   2.688   2.899   2.184
    1C        C  746   2.608   3.015   2.184
    1C        C  747   2.732   2.844   2.307
    1C        C  748   2.690   2.904   2.428
    1C        C  749   2.739   2.852   2.550
    1C        C  750   2.731   2.838   2.066
    1C        C  751   3.657   2.295   2.002
    1C        O  752   3.713   2.198   2.060
    1C        O  753   3.649   2.301   1.862
    1C        C  754   4.624   3.057   1.980
    1C        O  755   4.599   3.026   1.860
    1C        O  756   4.757   3.035   2.017
    1C        C  757   4.432   4.213   1.948
    1C        O  758   4.547   4.263   1.961
    1C        O  759   4.405   4.198   1.811
    1C        C  760   3.585   4.664   1.953
    1C        O  761   3.661   4.765   1.958
    1C        O  762   3.566   4.639   1.816
    1C        C  763   2.873   4.503   1.953
    1C        O  764   2.911   4.497   1.833
    1C        O  765   2.810   4.621   1.996
    1C        C  766   2.329   3.478   1.977
    1C        O  767   2.343   3.457   1.853
    1C        O  768   2.196   3.471   2.019
    1C        C  769   4.663   3.585   5.080
    1C        O  770   4.633   3.525   5.186
    1C        O  771   4.799   3.615   5.060
    1C        C  772   4.269   4.437   5.055
    1C        O  773   4.229   4.462   5.172
    1C        O  774   4.377   4.519   5.022
    1C        C  775   4.147   2.522   5.071
    1C        O  776   4.232   2.431   5.048
    1C        O  777   4.140   2.564   5.205
    1C        C  778   2.898   4.521   5.075
    1C        O  779   2.809   4.610   5.086
    1C        O  780   2.911   4.468   5.204
    1C        C  781   2.480   3.042   5.077
    1C        O  782   2.402   2.949   5.040
    1C        O  783   2.464   3.071   5.212
    1C        C  784   2.397   4.010   5.015
    1C        O  785   2.305   4.055   4.941
    1C        O  786   2.360   3.953   5.138
    1C        C  787   2.950   2.416   2.015
    1C        O  788   2.881   2.440   1.912
    1C        O  789   2.888   2.308   2.076
    1C        C  790   3.180   2.362   5.043
    1C        O  791   3.117   2.265   4.993
    1C        O  792   3.267   2.316   5.143
    1C        H  793   4.256   3.035   5.047
    1C        H  794   4.155   2.826   5.066
    1C        H  795   4.490   3.125   5.061
    1C        H  796   4.493   3.373   5.063
    1C        H  797   4.559   3.818   5.044
    1C        H  798   4.430   3.981   5.058
    1C        H  799   4.256   4.137   5.040
    1C        H  800   4.038   4.548   5.020
    1C        H  801   3.820   4.600   5.035
    1C        H  802   3.593   4.665   5.022
    1C        H  803   3.389   4.520   5.048
    1C        H  804   3.161   4.517   5.055
    1C        H  805   3.867   2.569   5.064
    1C        H  806   3.686   2.450   5.071
    1C        H  807   3.008   2.557   5.064
    1C        H  808   3.444   2.509   5.074
    1C        H  809   2.864   2.726   5.078
    1C        H  810   2.672   2.865   5.060
    1C        H  811   2.495   3.291   5.069
    1C        H  812   2.542   3.499   5.075
    1C        H  813   2.491   3.737   5.069
    1C        H  814   2.581   4.186   5.039
    1C        H  815   2.812   4.266   5.045
    1C        H  816   2.741   2.900   1.979
    1C        H  817   2.827   2.664   1.985
    1C        H  818   3.211   2.413   1.999
    1C        H  819   3.441   2.475   1.982
    1C        H  820   3.830   2.559   1.975
    1C        H  821   4.049   2.631   1.969
    1C        H  822   4.270   2.699   1.984
    1C        H  823   4.376   2.924   1.965
    1C        H  824   4.608   3.306   1.980
    1C        H  825   4.463   3.513   1.969
    1C        H  826   4.488   3.752   1.958
    1C        H  827   3.807   4.535   1.955
    1C        H  828   3.978   4.404   1.948
    1C        H  829   4.164   4.251   1.949
    1C        H  830   4.494   3.969   1.959
    1C        H  831   2.660   3.822   1.978
    1C        H  832   2.701   4.065   1.962
    1C        H  833   2.708   4.308   1.974
    1C        H  834   3.366   4.509   1.948
    1C        H  835   3.144   4.428   1.947
    1C        H  836   2.526   3.011   1.988
    1C        H  837   2.434   3.225   1.981
    1C        H  838   2.459   3.691   1.973
    2V3OU   H29  839   2.798   3.545   5.190
    2V3OU   C27  840   2.780   3.502   5.291
    2V3OU   H27  841   2.722   3.571   5.357
    2V3OU   H28  842   2.728   3.403   5.284
    2V3OU   O11  843   2.907   3.479   5.353
    2V3OU   C15  844   2.920   3.398   5.464
    2V3OU   C13  845   3.049   3.377   5.518
    2V3OU   C14  846   3.079   3.272   5.605
    2V3OU   C16  847   2.973   3.187   5.638
    2V3OU    H6  848   2.991   3.102   5.705
    2V3OU   C12  849   3.216   3.233   5.646
    2V3OU    O2  850   3.241   3.125   5.703
    2V3OU   C10  851   3.326   3.313   5.591
    2V3OU    C8  852   3.458   3.270   5.605
    2V3OU   O10  853   3.490   3.151   5.663
    2V3OU   H26  854   3.401   3.113   5.675
    2V3OU    C6  855   3.563   3.351   5.552
    2V3OU    C5  856   3.537   3.467   5.479
    2V3OU    C4  857   3.700   3.293   5.548
    2V3OU    H4  858   3.718   3.227   5.638
    2V3OU    H5  859   3.711   3.228   5.456
    2V3OU    C2  860   3.812   3.397   5.550
    2V3OU    O6  861   3.805   3.474   5.671
    2V3OU   H21  862   3.761   3.556   5.644
    2V3OU    C3  863   3.781   3.492   5.435
    2V3OU    H2  864   3.858   3.574   5.433
    2V3OU    H3  865   3.784   3.437   5.338
    2V3OU   C25  866   3.945   3.326   5.525
    2V3OU    O7  867   3.997   3.292   5.419
    2V3OU   C26  868   4.023   3.293   5.652
    2V3OU   H22  869   4.073   3.383   5.698
    2V3OU   H23  870   4.107   3.223   5.627
    2V3OU    O8  871   3.961   3.209   5.745
    2V3OU   H24  872   3.920   3.262   5.815
    2V3OU    C1  873   3.647   3.563   5.447
    2V3OU    H1  874   3.628   3.618   5.350
    2V3OU    O3  875   3.664   3.658   5.553
    2V3OU   C19  876   3.619   3.794   5.557
    2V3OU    H9  877   3.517   3.802   5.510
    2V3OU    O4  878   3.715   3.856   5.474
    2V3OU   C20  879   3.846   3.875   5.527
    2V3OU   H10  880   3.896   3.774   5.540
    2V3OU   C24  881   3.612   3.852   5.699
    2V3OU   H16  882   3.544   3.788   5.761
    2V3OU   H17  883   3.571   3.955   5.690
    2V3OU   C23  884   3.754   3.870   5.755
    2V3OU   H15  885   3.796   3.765   5.767
    2V3OU    N1  886   3.735   3.950   5.875
    2V3OU   H19  887   3.813   3.928   5.934
    2V3OU   H20  888   3.646   3.925   5.914
    2V3OU   C21  889   3.849   3.949   5.660
    2V3OU   H11  890   3.956   3.931   5.692
    2V3OU    O5  891   3.828   4.089   5.665
    2V3OU   H18  892   3.772   4.107   5.743
    2V3OU   C22  893   3.913   3.951   5.413
    2V3OU   H12  894   3.860   4.048   5.396
    2V3OU   H13  895   3.903   3.893   5.318
    2V3OU   H14  896   4.024   3.955   5.428
    2V3OU   C11  897   3.161   3.468   5.489
    2V3OU    O1  898   3.136   3.584   5.449
    2V3OU    C9  899   3.301   3.428   5.512
    2V3OU    C7  900   3.402   3.506   5.456
    2V3OU    O9  901   3.385   3.620   5.379
    2V3OU   H25  902   3.294   3.623   5.348
    2V3OU   C17  903   2.816   3.314   5.510
    2V3OU    H7  904   2.713   3.337   5.484
    2V3OU   C18  905   2.843   3.207   5.594
    2V3OU    H8  906   2.758   3.154   5.640
    3SOL     OW  907   4.117   3.336   3.847
    3SOL    HW1  908   4.119   3.300   3.940
    3SOL    HW2  909   4.068   3.422   3.845
    4SOL     OW  910   6.803   6.546   0.733
    4SOL    HW1  911   6.726   6.594   0.773
    4SOL    HW2  912   6.881   6.608   0.725
    5SOL     OW  913   4.897   2.072   0.080
    5SOL    HW1  914   4.837   2.017   0.139
    5SOL    HW2  915   4.957   2.128   0.137
    6SOL     OW  916   5.446   0.900   2.849
    6SOL    HW1  917   5.411   0.865   2.936
    6SOL    HW2  918   5.371   0.938   2.796
    7SOL     OW  919   1.267   4.175   4.376
    7SOL    HW1  920   1.179   4.176   4.328
    7SOL    HW2  921   1.333   4.122   4.323
    8SOL     OW  922   1.264   3.477   4.852
    8SOL    HW1  923   1.255   3.379   4.870
    8SOL    HW2  924   1.293   3.524   4.936
    9SOL     OW  925   6.892   0.705   6.335
    9SOL    HW1  926   6.932   0.614   6.333
    9SOL    HW2  927   6.860   0.730   6.244
   10SOL     OW  928   5.134   4.584   2.284
   10SOL    HW1  929   5.169   4.524   2.212
   10SOL    HW2  930   5.164   4.550   2.373
   11SOL     OW  931   2.400   2.285   0.204
   11SOL    HW1  932   2.472   2.338   0.249
   11SOL    HW2  933   2.311   2.312   0.240
   12SOL     OW  934   3.482   4.964   2.926
   12SOL    HW1  935   3.392   4.933   2.957
   12SOL    HW2  936   3.489   4.952   2.827
   13SOL     OW  937   5.936   6.050   1.117
   13SOL    HW1  938   5.982   6.127   1.074
   13SOL    HW2  939   5.993   5.968   1.108
   14SOL     OW  940   4.518   5.767   5.362
   14SOL    HW1  941   4.549   5.805   5.449
   14SOL    HW2  942   4.597   5.750   5.303
   15SOL     OW  943   0.402   6.802   5.927
   15SOL    HW1  944   0.502   6.803   5.928
   15SOL    HW2  945   0.368   6.760   6.011
   16SOL     OW  946   1.590   4.636   5.004
   16SOL    HW1  947   1.500   4.669   4.973
   16SOL    HW2  948   1.657   4.709   4.997
   17SOL     OW  949   6.371   1.526   5.533
   17SOL    HW1  950   6.409   1.472   5.458
   17SOL    HW2  951   6.309   1.595   5.497
   18SOL     OW  952   2.350   1.131   6.243
   18SOL    HW1  953   2.368   1.151   6.147
   18SOL    HW2  954   2.252   1.123   6.257
   19SOL     OW  955   2.843   6.878   3.488
   19SOL    HW1  956   2.744   6.873   3.504
   19SOL    HW2  957   2.888   6.914   3.569
   20SOL     OW  958   6.588   1.576   5.689
   20SOL    HW1  959   6.525   1.567   5.611
   20SOL    HW2  960   6.571   1.501   5.753
   21SOL     OW  961   2.623   4.633   3.255
   21SOL    HW1  962   2.610   4.627   3.156
   21SOL    HW2  963   2.683   4.710   3.276
   22SOL     OW  964   1.415   0.565   6.757
   22SOL    HW1  965   1.400   0.629   6.682
   22SOL    HW2  966   1.352   0.487   6.748
   23SOL     OW  967   6.108   5.028   1.297
   23SOL    HW1  968   6.018   4.994   1.269
   23SOL    HW2  969   6.146   4.968   1.366
   24SOL     OW  970   4.444   0.725   0.912
   24SOL    HW1  971   4.540   0.708   0.893
   24SOL    HW2  972   4.394   0.738   0.826
   25SOL     OW  973   1.856   1.274   4.465
   25SOL    HW1  974   1.785   1.258   4.396
   25SOL    HW2  975   1.940   1.227   4.437
   26SOL     OW  976   0.694   3.140   6.737
   26SOL    HW1  977   0.717   3.233   6.707
   26SOL    HW2  978   0.777   3.085   6.741
   27SOL     OW  979   5.966   0.819   1.355
   27SOL    HW1  980   5.991   0.819   1.451
   27SOL    HW2  981   5.981   0.728   1.316
   28SOL     OW  982   2.315   1.165   5.386
   28SOL    HW1  983   2.377   1.168   5.464
   28SOL    HW2  984   2.325   1.249   5.333
   29SOL     OW  985   0.478   6.939   1.236
   29SOL    HW1  986   0.476   6.839   1.231
   29SOL    HW2  987   0.390   6.972   1.271
   30SOL     OW  988   4.804   0.183   5.070
   30SOL    HW1  989   4.812   0.214   4.976
   30SOL    HW2  990   4.894   0.183   5.114
   31SOL     OW  991   1.040   3.098   5.285
   31SOL    HW1  992   0.956   3.087   5.338
   31SOL    HW2  993   1.050   3.022   5.221
   32SOL     OW  994   3.162   0.470   1.697
   32SOL    HW1  995   3.149   0.374   1.721
   32SOL    HW2  996   3.078   0.521   1.715
   33SOL     OW  997   1.508   5.728   5.994
   33SOL    HW1  998   1.488   5.825   5.980
   33SOL    HW2  999   1.432   5.686   6.044
   34SOL     OW 1000   2.234   5.118   5.521
   34SOL    HW1 1001   2.246   5.100   5.423
   34SOL    HW2 1002   2.324   5.133   5.563
   35SOL     OW 1003   2.504   3.283   0.067
   35SOL    HW1 1004   2.542   3.193   0.090
   35SOL    HW2 1005   2.541   3.313   7.003
   36SOL     OW 1006   3.861   1.058   4.384
   36SOL    HW1 1007   3.831   0.977   4.334
   36SOL    HW2 1008   3.783   1.098   4.433
   37SOL     OW 1009   2.683   0.797   3.979
   37SOL    HW1 1010   2.712   0.878   4.029
   37SOL    HW2 1011   2.658   0.724   4.043
   38SOL     OW 1012   0.730   4.174   2.693
   38SOL    HW1 1013   0.736   4.103   2.622
   38SOL    HW2 1014   0.645   4.164   2.744
   39SOL     OW 1015   6.738   5.196   6.928
   39SOL    HW1 1016   6.803   5.243   6.868
   39SOL    HW2 1017   6.762   5.214   7.024
   40SOL     OW 1018   4.287   1.865   0.671
   40SOL    HW1 1019   4.342   1.925   0.613
   40SOL    HW2 1020   4.265   1.781   0.620
   41SOL     OW 1021   5.210   4.111   1.168
   41SOL    HW1 1022   5.192   4.050   1.245
   41SOL    HW2 1023   5.123   4.149   1.135
   42SOL     OW 1024   2.734   5.143   6.458
   42SOL    HW1 1025   2.718   5.048   6.484
   42SOL    HW2 1026   2.702   5.203   6.532
   43SOL     OW 1027   3.841   6.648   5.107
   43SOL    HW1 1028   3.774   6.704   5.155
   43SOL    HW2 1029   3.823   6.650   5.009
   44SOL     OW 1030   7.006   1.319   5.700
   44SOL    HW1 1031   6.943   1.319   5.778
   44SOL    HW2 1032   0.075   1.298   5.733
   45SOL     OW 1033   2.198   4.936   6.542
   45SOL    HW1 1034   2.158   4.998   6.474
   45SOL    HW2 1035   2.129   4.873   6.575
   46SOL     OW 1036   0.429   3.246   4.289
   46SOL    HW1 1037   0.429   3.294   4.201
   46SOL    HW2 1038   0.518   3.203   4.303
   47SOL     OW 1039   6.263   3.146   0.934
   47SOL    HW1 1040   6.222   3.168   0.846
   47SOL    HW2 1041   6.343   3.089   0.921
   48SOL     OW 1042   6.000   3.781   1.245
   48SOL    HW1 1043   5.951   3.803   1.160
   48SOL    HW2 1044   6.076   3.720   1.224
   49SOL     OW 1045   3.443   4.062   0.023
   49SOL    HW1 1046   3.384   4.129   0.069
   49SOL    HW2 1047   3.447   3.978   0.078
   50SOL     OW 1048   6.356   2.709   0.382
   50SOL    HW1 1049   6.364   2.610   0.375
   50SOL    HW2 1050   6.360   2.736   0.478
   51SOL     OW 1051   2.091   5.528   3.035
   51SOL    HW1 1052   2.059   5.507   3.127
   51SOL    HW2 1053   2.184   5.564   3.039
   52SOL     OW 1054   6.480   3.066   2.007
   52SOL    HW1 1055   6.399   3.122   1.987
   52SOL    HW2 1056   6.450   2.975   2.037
   53SOL     OW 1057   4.212   0.553   1.857
   53SOL    HW1 1058   4.215   0.630   1.793
   53SOL    HW2 1059   4.304   0.536   1.894
   54SOL     OW 1060   5.381   6.992   6.421
   54SOL    HW1 1061   5.379   0.022   6.337
   54SOL    HW2 1062   5.462   7.017   6.474
   55SOL     OW 1063   0.918   3.336   6.280
   55SOL    HW1 1064   0.999   3.319   6.223
   55SOL    HW2 1065   0.837   3.298   6.235
   56SOL     OW 1066   0.645   2.562   6.739
   56SOL    HW1 1067   0.686   2.568   6.830
   56SOL    HW2 1068   0.588   2.643   6.723
   57SOL     OW 1069   4.369   6.412   0.253
   57SOL    HW1 1070   4.279   6.382   0.287
   57SOL    HW2 1071   4.379   6.387   0.157
   58SOL     OW 1072   0.604   0.388   0.153
   58SOL    HW1 1073   0.694   0.414   0.119
   58SOL    HW2 1074   0.597   0.288   0.158
   59SOL     OW 1075   5.237   3.379   5.406
   59SOL    HW1 1076   5.201   3.364   5.498
   59SOL    HW2 1077   5.215   3.301   5.348
   60SOL     OW 1078   5.370   1.717   2.456
   60SOL    HW1 1079   5.301   1.693   2.388
   60SOL    HW2 1080   5.343   1.801   2.503
   61SOL     OW 1081   0.403   5.834   4.279
   61SOL    HW1 1082   0.440   5.864   4.367
   61SOL    HW2 1083   0.311   5.872   4.267
   62SOL     OW 1084   6.106   2.880   2.382
   62SOL    HW1 1085   6.016   2.842   2.361
   62SOL    HW2 1086   6.150   2.824   2.452
   63SOL     OW 1087   4.278   6.693   5.796
   63SOL    HW1 1088   4.337   6.727   5.723
   63SOL    HW2 1089   4.196   6.750   5.802
   64SOL     OW 1090   0.913   4.234   5.298
   64SOL    HW1 1091   0.996   4.265   5.252
   64SOL    HW2 1092   0.881   4.149   5.255
   65SOL     OW 1093   0.595   5.975   4.749
   65SOL    HW1 1094   0.509   6.019   4.774
   65SOL    HW2 1095   0.670   6.039   4.762
   66SOL     OW 1096   3.726   1.143   2.170
   66SOL    HW1 1097   3.636   1.154   2.129
   66SOL    HW2 1098   3.766   1.233   2.185
   67SOL     OW 1099   0.197   2.855   1.839
   67SOL    HW1 1100   0.190   2.871   1.740
   67SOL    HW2 1101   0.275   2.795   1.858
   68SOL     OW 1102   6.820   2.082   5.709
   68SOL    HW1 1103   6.732   2.094   5.757
   68SOL    HW2 1104   6.817   2.000   5.653
   69SOL     OW 1105   1.053   6.147   6.481
   69SOL    HW1 1106   0.998   6.227   6.506
   69SOL    HW2 1107   1.074   6.095   6.563
   70SOL     OW 1108   5.222   3.661   4.125
   70SOL    HW1 1109   5.199   3.597   4.198
   70SOL    HW2 1110   5.143   3.671   4.064
   71SOL     OW 1111   5.352   2.168   4.504
   71SOL    HW1 1112   5.313   2.246   4.553
   71SOL    HW2 1113   5.279   2.104   4.481
   72SOL     OW 1114   0.595   0.512   2.912
   72SOL    HW1 1115   0.648   0.540   2.832
   72SOL    HW2 1116   0.538   0.433   2.889
   73SOL     OW 1117   3.256   1.022   0.649
   73SOL    HW1 1118   3.198   1.070   0.715
   73SOL    HW2 1119   3.351   1.025   0.681
   74SOL     OW 1120   2.481   2.210   1.130
   74SOL    HW1 1121   2.533   2.287   1.095
   74SOL    HW2 1122   2.444   2.232   1.220
   75SOL     OW 1123   3.064   3.135   0.973
   75SOL    HW1 1124   3.095   3.047   1.008
   75SOL    HW2 1125   2.976   3.157   1.015
   76SOL     OW 1126   3.737   4.841   5.308
   76SOL    HW1 1127   3.797   4.763   5.325
   76SOL    HW2 1128   3.706   4.880   5.395
   77SOL     OW 1129   0.301   5.293   4.189
   77SOL    HW1 1130   0.302   5.261   4.284
   77SOL    HW2 1131   0.328   5.390   4.187
   78SOL     OW 1132   4.927   1.647   1.226
   78SOL    HW1 1133   4.933   1.557   1.268
   78SOL    HW2 1134   4.880   1.640   1.138
   79SOL     OW 1135   0.912   4.649   3.246
   79SOL    HW1 1136   0.932   4.745   3.224
   79SOL    HW2 1137   0.886   4.641   3.342
   80SOL     OW 1138   3.540   1.092   5.442
   80SOL    HW1 1139   3.638   1.112   5.442
   80SOL    HW2 1140   3.510   1.071   5.349
   81SOL     OW 1141   4.787   5.477   1.895
   81SOL    HW1 1142   4.822   5.387   1.870
   81SOL    HW2 1143   4.863   5.537   1.920
   82SOL     OW 1144   2.908   6.199   2.031
   82SOL    HW1 1145   2.884   6.121   2.090
   82SOL    HW2 1146   3.004   6.223   2.046
   83SOL     OW 1147   5.494   1.334   4.802
   83SOL    HW1 1148   5.494   1.255   4.741
   83SOL    HW2 1149   5.472   1.416   4.749
   84SOL     OW 1150   5.150   2.515   2.168
   84SOL    HW1 1151   5.158   2.434   2.110
   84SOL    HW2 1152   5.158   2.597   2.111
   85SOL     OW 1153   2.548   6.845   4.234
   85SOL    HW1 1154   2.456   6.862   4.201
   85SOL    HW2 1155   2.547   6.770   4.301
   86SOL     OW 1156   5.876   7.019   0.357
   86SOL    HW1 1157   5.845   7.014   0.262
   86SOL    HW2 1158   5.893   0.091   0.382
   87SOL     OW 1159   2.447   4.241   6.055
   87SOL    HW1 1160   2.445   4.183   5.974
   87SOL    HW2 1161   2.414   4.190   6.134
   88SOL     OW 1162   2.867   3.490   1.053
   88SOL    HW1 1163   2.864   3.390   1.062
   88SOL    HW2 1164   2.835   3.532   1.139
   89SOL     OW 1165   3.415   3.875   4.045
   89SOL    HW1 1166   3.381   3.955   4.095
   89SOL    HW2 1167   3.504   3.849   4.082
   90SOL     OW 1168   4.884   3.573   1.964
   90SOL    HW1 1169   4.885   3.484   1.918
   90SOL    HW2 1170   4.822   3.635   1.915
   91SOL     OW 1171   4.072   5.237   5.592
   91SOL    HW1 1172   3.988   5.289   5.607
   91SOL    HW2 1173   4.150   5.290   5.623
   92SOL     OW 1174   5.116   3.324   6.401
   92SOL    HW1 1175   5.173   3.392   6.448
   92SOL    HW2 1176   5.173   3.271   6.338
   93SOL     OW 1177   3.249   3.539   2.481
   93SOL    HW1 1178   3.340   3.526   2.441
   93SOL    HW2 1179   3.223   3.635   2.476
   94SOL     OW 1180   3.246   2.074   4.672
   94SOL    HW1 1181   3.315   2.074   4.744
   94SOL    HW2 1182   3.171   2.135   4.698
   95SOL     OW 1183   0.405   0.242   3.733
   95SOL    HW1 1184   0.499   0.259   3.704
   95SOL    HW2 1185   0.377   0.151   3.701
   96SOL     OW 1186   6.356   4.796   6.848
   96SOL    HW1 1187   6.419   4.720   6.859
   96SOL    HW2 1188   6.393   4.861   6.782
   97SOL     OW 1189   2.089   4.435   5.309
   97SOL    HW1 1190   2.020   4.422   5.380
   97SOL    HW2 1191   2.177   4.456   5.351
   98SOL     OW 1192   2.071   2.104   3.249
   98SOL    HW1 1193   2.150   2.163   3.264
   98SOL    HW2 1194   2.002   2.123   3.318
   99SOL     OW 1195   3.463   3.950   5.305
   99SOL    HW1 1196   3.457   3.851   5.322
   99SOL    HW2 1197   3.480   3.998   5.391
  100SOL     OW 1198   6.745   0.948   5.158
  100SOL    HW1 1199   6.751   1.028   5.218
  100SOL    HW2 1200   6.660   0.898   5.177
  101SOL     OW 1201   6.415   3.798   2.306
  101SOL    HW1 1202   6.508   3.801   2.344
  101SOL    HW2 1203   6.351   3.836   2.373
  102SOL     OW 1204   4.806   0.021   0.250
  102SOL    HW1 1205   4.825   6.975   0.319
  102SOL    HW2 1206   4.720   0.067   0.271
  103SOL     OW 1207   2.907   0.849   2.187
  103SOL    HW1 1208   2.886   0.788   2.263
  103SOL    HW2 1209   3.006   0.852   2.171
  104SOL     OW 1210   6.660   4.717   2.064
  104SOL    HW1 1211   6.624   4.648   2.127
  104SOL    HW2 1212   6.758   4.706   2.054
  105SOL     OW 1213   6.259   0.793   5.639
  105SOL    HW1 1214   6.218   0.787   5.730
  105SOL    HW2 1215   6.237   0.881   5.598
  106SOL     OW 1216   5.065   4.442   1.246
  106SOL    HW1 1217   5.016   4.363   1.210
  106SOL    HW2 1218   5.162   4.434   1.224
  107SOL     OW 1219   5.811   0.273   1.410
  107SOL    HW1 1220   5.792   0.185   1.454
  107SOL    HW2 1221   5.762   0.346   1.459
  108SOL     OW 1222   2.877   1.071   4.129
  108SOL    HW1 1223   2.791   1.118   4.151
  108SOL    HW2 1224   2.941   1.082   4.205
  109SOL     OW 1225   1.656   1.254   4.264
  109SOL    HW1 1226   1.556   1.251   4.271
  109SOL    HW2 1227   1.682   1.296   4.177
  110SOL     OW 1228   3.604   4.456   5.927
  110SOL    HW1 1229   3.541   4.448   5.850
  110SOL    HW2 1230   3.641   4.366   5.949
  111SOL     OW 1231   6.117   3.039   1.447
  111SOL    HW1 1232   6.175   2.969   1.487
  111SOL    HW2 1233   6.123   3.035   1.347
  112SOL     OW 1234   5.005   6.311   6.447
  112SOL    HW1 1235   5.081   6.263   6.403
  112SOL    HW2 1236   4.919   6.280   6.408
  113SOL     OW 1237   0.556   5.428   2.703
  113SOL    HW1 1238   0.630   5.418   2.636
  113SOL    HW2 1239   0.595   5.433   2.795
  114SOL     OW 1240   6.998   2.592   2.338
  114SOL    HW1 1241   6.980   2.498   2.307
  114SOL    HW2 1242   7.013   2.651   2.259
  115SOL     OW 1243   5.260   0.518   3.216
  115SOL    HW1 1244   5.333   0.475   3.269
  115SOL    HW2 1245   5.264   0.617   3.229
  116SOL     OW 1246   0.382   5.030   0.237
  116SOL    HW1 1247   0.374   5.036   0.337
  116SOL    HW2 1248   0.476   5.007   0.213
  117SOL     OW 1249   2.150   2.327   0.274
  117SOL    HW1 1250   2.105   2.285   0.195
  117SOL    HW2 1251   2.094   2.312   0.356
  118SOL     OW 1252   0.098   2.029   2.788
  118SOL    HW1 1253   0.067   1.938   2.816
  118SOL    HW2 1254   0.181   2.053   2.839
  119SOL     OW 1255   6.220   6.835   6.032
  119SOL    HW1 1256   6.277   6.794   6.104
  119SOL    HW2 1257   6.272   6.907   5.986
  120SOL     OW 1258   5.482   2.739   5.025
  120SOL    HW1 1259   5.456   2.646   5.002
  120SOL    HW2 1260   5.524   2.784   4.946
  121SOL     OW 1261   1.071   4.911   0.057
  121SOL    HW1 1262   1.121   4.909   6.994
  121SOL    HW2 1263   0.991   4.852   0.051
  122SOL     OW 1264   6.824   4.749   6.311
  122SOL    HW1 1265   6.900   4.711   6.363
  122SOL    HW2 1266   6.856   4.780   6.222
  123SOL     OW 1267   0.977   2.208   1.899
  123SOL    HW1 1268   1.029   2.280   1.946
  123SOL    HW2 1269   0.903   2.250   1.846
  124SOL     OW 1270   1.892   2.979   6.964
  124SOL    HW1 1271   1.875   3.076   6.946
  124SOL    HW2 1272   1.874   2.926   6.881
  125SOL     OW 1273   4.470   2.974   0.533
  125SOL    HW1 1274   4.442   3.045   0.469
  125SOL    HW2 1275   4.426   2.988   0.621
  126SOL     OW 1276   4.075   3.584   4.429
  126SOL    HW1 1277   4.055   3.487   4.439
  126SOL    HW2 1278   4.101   3.604   4.335
  127SOL     OW 1279   0.282   5.887   6.023
  127SOL    HW1 1280   0.276   5.919   6.118
  127SOL    HW2 1281   0.289   5.787   6.022
  128SOL     OW 1282   4.671   3.270   6.801
  128SOL    HW1 1283   4.698   3.193   6.743
  128SOL    HW2 1284   4.588   3.311   6.763
  129SOL     OW 1285   1.398   5.527   1.910
  129SOL    HW1 1286   1.304   5.559   1.922
  129SOL    HW2 1287   1.460   5.590   1.956
  130SOL     OW 1288   6.529   3.039   3.706
  130SOL    HW1 1289   6.522   3.139   3.695
  130SOL    HW2 1290   6.470   3.010   3.781
  131SOL     OW 1291   0.219   2.410   3.479
  131SOL    HW1 1292   0.240   2.475   3.406
  131SOL    HW2 1293   0.303   2.385   3.527
  132SOL     OW 1294   3.486   3.065   2.230
  132SOL    HW1 1295   3.471   3.134   2.160
  132SOL    HW2 1296   3.399   3.040   2.272
  133SOL     OW 1297   5.674   6.505   6.374
  133SOL    HW1 1298   5.624   6.592   6.371
  133SOL    HW2 1299   5.768   6.522   6.403
  134SOL     OW 1300   5.558   1.593   1.317
  134SOL    HW1 1301   5.566   1.598   1.417
  134SOL    HW2 1302   5.546   1.498   1.289
  135SOL     OW 1303   4.925   2.868   3.856
  135SOL    HW1 1304   4.860   2.915   3.795
  135SOL    HW2 1305   5.018   2.899   3.836
  136SOL     OW 1306   3.170   0.333   6.403
  136SOL    HW1 1307   3.136   0.411   6.350
  136SOL    HW2 1308   3.193   0.363   6.495
  137SOL     OW 1309   3.248   3.582   6.223
  137SOL    HW1 1310   3.229   3.672   6.262
  137SOL    HW2 1311   3.321   3.590   6.155
  138SOL     OW 1312   1.039   5.211   6.083
  138SOL    HW1 1313   1.097   5.285   6.116
  138SOL    HW2 1314   1.071   5.180   5.994
  139SOL     OW 1315   1.857   6.537   1.197
  139SOL    HW1 1316   1.759   6.522   1.186
  139SOL    HW2 1317   1.885   6.508   1.289
  140SOL     OW 1318   3.515   0.452   1.341
  140SOL    HW1 1319   3.485   0.420   1.251
  140SOL    HW2 1320   3.507   0.551   1.347
  141SOL     OW 1321   6.970   2.889   0.605
  141SOL    HW1 1322   0.014   2.952   0.644
  141SOL    HW2 1323   6.878   2.926   0.619
  142SOL     OW 1324   1.729   4.280   1.656
  142SOL    HW1 1325   1.699   4.192   1.620
  142SOL    HW2 1326   1.668   4.352   1.623
  143SOL     OW 1327   4.656   6.193   2.179
  143SOL    HW1 1328   4.605   6.160   2.100
  143SOL    HW2 1329   4.651   6.126   2.253
  144SOL     OW 1330   3.330   5.223   4.087
  144SOL    HW1 1331   3.366   5.304   4.133
  144SOL    HW2 1332   3.234   5.237   4.065
  145SOL     OW 1333   6.846   4.262   3.171
  145SOL    HW1 1334   6.815   4.314   3.091
  145SOL    HW2 1335   6.773   4.259   3.239
  146SOL     OW 1336   5.195   0.641   6.371
  146SOL    HW1 1337   5.138   0.706   6.322
  146SOL    HW2 1338   5.209   0.560   6.314
  147SOL     OW 1339   4.983   1.027   4.940
  147SOL    HW1 1340   4.995   1.126   4.932
  147SOL    HW2 1341   5.069   0.982   4.918
  148SOL     OW 1342   1.387   5.928   1.457
  148SOL    HW1 1343   1.454   5.936   1.383
  148SOL    HW2 1344   1.376   6.017   1.501
  149SOL     OW 1345   2.140   2.274   4.933
  149SOL    HW1 1346   2.101   2.363   4.956
  149SOL    HW2 1347   2.152   2.220   5.016
  150SOL     OW 1348   4.386   1.442   4.986
  150SOL    HW1 1349   4.286   1.447   4.976
  150SOL    HW2 1350   4.409   1.368   5.049
  151SOL     OW 1351   4.219   2.815   1.385
  151SOL    HW1 1352   4.142   2.757   1.410
  151SOL    HW2 1353   4.231   2.886   1.454
  152SOL     OW 1354   0.320   2.406   0.543
  152SOL    HW1 1355   0.306   2.311   0.515
  152SOL    HW2 1356   0.385   2.450   0.481
  153SOL     OW 1357   2.667   1.408   3.520
  153SOL    HW1 1358   2.684   1.379   3.426
  153SOL    HW2 1359   2.669   1.508   3.525
  154SOL     OW 1360   6.502   1.728   2.721
  154SOL    HW1 1361   6.553   1.774   2.794
  154SOL    HW2 1362   6.483   1.793   2.648
  155SOL     OW 1363   0.964   6.618   2.157
  155SOL    HW1 1364   0.885   6.619   2.218
  155SOL    HW2 1365   1.021   6.698   2.177
  156SOL     OW 1366   5.647   2.948   0.589
  156SOL    HW1 1367   5.676   2.984   0.678
  156SOL    HW2 1368   5.712   2.878   0.559
  157SOL     OW 1369   4.226   5.609   0.525
  157SOL    HW1 1370   4.248   5.702   0.497
  157SOL    HW2 1371   4.208   5.553   0.443
  158SOL     OW 1372   6.940   2.812   3.824
  158SOL    HW1 1373   6.974   2.891   3.774
  158SOL    HW2 1374   6.841   2.805   3.812
  159SOL     OW 1375   6.248   5.285   0.637
  159SOL    HW1 1376   6.157   5.248   0.655
  159SOL    HW2 1377   6.240   5.365   0.578
  160SOL     OW 1378   6.506   7.021   2.057
  160SOL    HW1 1379   6.513   6.921   2.054
  160SOL    HW2 1380   6.585   0.038   2.012
  161SOL     OW 1381   0.745   6.091   0.894
  161SOL    HW1 1382   0.726   6.014   0.833
  161SOL    HW2 1383   0.662   6.144   0.907
  162SOL     OW 1384   4.739   6.667   6.848
  162SOL    HW1 1385   4.752   6.587   6.907
  162SOL    HW2 1386   4.749   6.750   6.902
  163SOL     OW 1387   0.394   4.041   2.491
  163SOL    HW1 1388   0.474   4.100   2.484
  163SOL    HW2 1389   0.319   4.080   2.438
  164SOL     OW 1390   3.052   2.020   4.013
  164SOL    HW1 1391   3.009   1.943   3.965
  164SOL    HW2 1392   3.147   2.029   3.981
  165SOL     OW 1393   0.416   5.797   3.488
  165SOL    HW1 1394   0.467   5.718   3.520
  165SOL    HW2 1395   0.318   5.776   3.485
  166SOL     OW 1396   6.422   3.786   3.174
  166SOL    HW1 1397   6.372   3.773   3.089
  166SOL    HW2 1398   6.407   3.879   3.207
  167SOL     OW 1399   2.472   1.782   6.863
  167SOL    HW1 1400   2.523   1.751   6.783
  167SOL    HW2 1401   2.536   1.799   6.938
  168SOL     OW 1402   4.325   4.084   1.444
  168SOL    HW1 1403   4.408   4.129   1.477
  168SOL    HW2 1404   4.336   4.059   1.348
  169SOL     OW 1405   4.611   2.455   0.933
  169SOL    HW1 1406   4.661   2.444   0.847
  169SOL    HW2 1407   4.562   2.542   0.933
  170SOL     OW 1408   6.979   6.077   2.201
  170SOL    HW1 1409   6.937   6.165   2.222
  170SOL    HW2 1410   0.015   6.087   2.121
  171SOL     OW 1411   3.396   3.429   0.770
  171SOL    HW1 1412   3.462   3.369   0.724
  171SOL    HW2 1413   3.305   3.387   0.767
  172SOL     OW 1414   0.349   2.316   6.558
  172SOL    HW1 1415   0.306   2.364   6.482
  172SOL    HW2 1416   0.447   2.337   6.560
  173SOL     OW 1417   6.610   1.391   4.414
  173SOL    HW1 1418   6.636   1.446   4.335
  173SOL    HW2 1419   6.511   1.393   4.426
  174SOL     OW 1420   5.468   5.450   5.084
  174SOL    HW1 1421   5.537   5.520   5.100
  174SOL    HW2 1422   5.392   5.462   5.148
  175SOL     OW 1423   0.483   6.694   1.522
  175SOL    HW1 1424   0.422   6.628   1.564
  175SOL    HW2 1425   0.465   6.785   1.561
  176SOL     OW 1426   6.004   4.160   1.177
  176SOL    HW1 1427   5.934   4.197   1.238
  176SOL    HW2 1428   6.050   4.083   1.220
  177SOL     OW 1429   5.809   2.866   4.210
  177SOL    HW1 1430   5.861   2.802   4.153
  177SOL    HW2 1431   5.872   2.932   4.252
  178SOL     OW 1432   2.341   6.121   5.579
  178SOL    HW1 1433   2.363   6.035   5.626
  178SOL    HW2 1434   2.286   6.102   5.498
  179SOL     OW 1435   3.605   4.587   0.844
  179SOL    HW1 1436   3.519   4.548   0.879
  179SOL    HW2 1437   3.650   4.520   0.785
  180SOL     OW 1438   3.806   0.986   0.631
  180SOL    HW1 1439   3.888   0.968   0.577
  180SOL    HW2 1440   3.730   0.932   0.596
  181SOL     OW 1441   3.394   2.140   5.569
  181SOL    HW1 1442   3.361   2.055   5.527
  181SOL    HW2 1443   3.344   2.218   5.531
  182SOL     OW 1444   3.759   2.782   6.269
  182SOL    HW1 1445   3.670   2.812   6.235
  182SOL    HW2 1446   3.751   2.692   6.312
  183SOL     OW 1447   3.861   1.418   3.399
  183SOL    HW1 1448   3.778   1.361   3.399
  183SOL    HW2 1449   3.843   1.502   3.450
  184SOL     OW 1450   5.044   5.744   3.658
  184SOL    HW1 1451   4.979   5.677   3.695
  184SOL    HW2 1452   4.996   5.830   3.639
  185SOL     OW 1453   6.931   0.372   4.506
  185SOL    HW1 1454   6.969   0.319   4.430
  185SOL    HW2 1455   6.995   0.371   4.583
  186SOL     OW 1456   4.267   6.523   4.346
  186SOL    HW1 1457   4.188   6.584   4.345
  186SOL    HW2 1458   4.240   6.434   4.308
  187SOL     OW 1459   4.238   6.329   1.782
  187SOL    HW1 1460   4.335   6.316   1.800
  187SOL    HW2 1461   4.221   6.327   1.684
  188SOL     OW 1462   1.419   3.154   3.331
  188SOL    HW1 1463   1.443   3.216   3.256
  188SOL    HW2 1464   1.390   3.208   3.410
  189SOL     OW 1465   5.898   4.886   5.729
  189SOL    HW1 1466   5.886   4.809   5.791
  189SOL    HW2 1467   5.984   4.933   5.751
  190SOL     OW 1468   6.307   0.652   0.021
  190SOL    HW1 1469   6.305   0.639   0.121
  190SOL    HW2 1470   6.214   0.640   7.008
  191SOL     OW 1471   0.169   0.830   5.286
  191SOL    HW1 1472   0.140   0.750   5.339
  191SOL    HW2 1473   0.092   0.860   5.229
  192SOL     OW 1474   0.545   5.420   0.910
  192SOL    HW1 1475   0.562   5.340   0.852
  192SOL    HW2 1476   0.560   5.503   0.857
  193SOL     OW 1477   2.806   6.426   0.450
  193SOL    HW1 1478   2.820   6.327   0.462
  193SOL    HW2 1479   2.801   6.447   0.353
  194SOL     OW 1480   4.051   6.363   2.310
  194SOL    HW1 1481   4.136   6.400   2.273
  194SOL    HW2 1482   3.976   6.427   2.291
  195SOL     OW 1483   3.886   0.986   0.902
  195SOL    HW1 1484   3.843   0.981   0.812
  195SOL    HW2 1485   3.833   1.046   0.961
  196SOL     OW 1486   2.964   2.262   0.114
  196SOL    HW1 1487   2.889   2.328   0.104
  196SOL    HW2 1488   3.048   2.302   0.076
  197SOL     OW 1489   2.534   6.136   0.436
  197SOL    HW1 1490   2.474   6.205   0.475
  197SOL    HW2 1491   2.554   6.159   0.341
  198SOL     OW 1492   4.042   0.756   6.882
  198SOL    HW1 1493   4.037   0.705   6.796
  198SOL    HW2 1494   3.952   0.796   6.901
  199SOL     OW 1495   0.385   0.519   2.642
  199SOL    HW1 1496   0.443   0.545   2.564
  199SOL    HW2 1497   0.313   0.588   2.654
  200SOL     OW 1498   0.310   4.033   3.292
  200SOL    HW1 1499   0.354   4.001   3.208
  200SOL    HW2 1500   0.250   4.110   3.270
  201SOL     OW 1501   4.210   1.569   6.617
  201SOL    HW1 1502   4.282   1.539   6.680
  201SOL    HW2 1503   4.121   1.541   6.653
  202SOL     OW 1504   3.425   0.472   2.778
  202SOL    HW1 1505   3.397   0.378   2.798
  202SOL    HW2 1506   3.495   0.472   2.707
  203SOL     OW 1507   5.556   2.722   6.948
  203SOL    HW1 1508   5.641   2.678   6.976
  203SOL    HW2 1509   5.478   2.665   6.975
  204SOL     OW 1510   2.934   5.906   1.143
  204SOL    HW1 1511   2.839   5.938   1.133
  204SOL    HW2 1512   2.944   5.858   1.230
  205SOL     OW 1513   6.570   0.585   0.113
  205SOL    HW1 1514   6.539   0.497   0.150
  205SOL    HW2 1515   6.502   0.619   0.048
  206SOL     OW 1516   1.008   4.402   1.097
  206SOL    HW1 1517   1.018   4.494   1.136
  206SOL    HW2 1518   0.941   4.351   1.151
  207SOL     OW 1519   4.880   0.627   5.785
  207SOL    HW1 1520   4.948   0.676   5.840
  207SOL    HW2 1521   4.790   0.639   5.825
  208SOL     OW 1522   3.358   4.781   6.078
  208SOL    HW1 1523   3.308   4.816   6.158
  208SOL    HW2 1524   3.420   4.708   6.108
  209SOL     OW 1525   6.614   5.559   5.691
  209SOL    HW1 1526   6.618   5.650   5.733
  209SOL    HW2 1527   6.587   5.492   5.760
  210SOL     OW 1528   4.091   2.155   2.301
  210SOL    HW1 1529   4.176   2.162   2.249
  210SOL    HW2 1530   4.097   2.078   2.364
  211SOL     OW 1531   1.509   2.020   1.984
  211SOL    HW1 1532   1.460   2.001   1.899
  211SOL    HW2 1533   1.574   2.094   1.969
  212SOL     OW 1534   0.869   4.978   3.831
  212SOL    HW1 1535   0.905   4.934   3.750
  212SOL    HW2 1536   0.925   4.953   3.911
  213SOL     OW 1537   4.570   2.667   6.875
  213SOL    HW1 1538   4.621   2.593   6.919
  213SOL    HW2 1539   4.509   2.629   6.805
  214SOL     OW 1540   1.576   0.176   2.366
  214SOL    HW1 1541   1.544   0.127   2.447
  214SOL    HW2 1542   1.643   0.119   2.317
  215SOL     OW 1543   2.900   3.390   2.669
  215SOL    HW1 1544   2.966   3.352   2.604
  215SOL    HW2 1545   2.921   3.357   2.761
  216SOL     OW 1546   0.556   6.356   6.210
  216SOL    HW1 1547   0.477   6.411   6.238
  216SOL    HW2 1548   0.591   6.389   6.123
  217SOL     OW 1549   0.212   2.911   3.634
  217SOL    HW1 1550   0.246   2.840   3.696
  217SOL    HW2 1551   0.271   2.917   3.554
  218SOL     OW 1552   1.056   3.837   5.744
  218SOL    HW1 1553   1.076   3.825   5.647
  218SOL    HW2 1554   1.072   3.751   5.793
  219SOL     OW 1555   4.642   4.835   0.419
  219SOL    HW1 1556   4.584   4.902   0.465
  219SOL    HW2 1557   4.726   4.822   0.471
  220SOL     OW 1558   3.173   5.245   0.276
  220SOL    HW1 1559   3.079   5.266   0.252
  220SOL    HW2 1560   3.198   5.295   0.359
  221SOL     OW 1561   6.371   2.203   4.027
  221SOL    HW1 1562   6.312   2.123   4.032
  221SOL    HW2 1563   6.361   2.247   3.938
  222SOL     OW 1564   1.345   6.226   5.181
  222SOL    HW1 1565   1.309   6.243   5.089
  222SOL    HW2 1566   1.439   6.193   5.174
  223SOL     OW 1567   6.578   3.901   1.656
  223SOL    HW1 1568   6.544   3.880   1.564
  223SOL    HW2 1569   6.599   3.998   1.662
  224SOL     OW 1570   3.200   2.324   1.752
  224SOL    HW1 1571   3.253   2.245   1.785
  224SOL    HW2 1572   3.110   2.324   1.795
  225SOL     OW 1573   6.692   0.109   0.278
  225SOL    HW1 1574   6.789   0.117   0.257
  225SOL    HW2 1575   6.678   0.041   0.350
  226SOL     OW 1576   6.666   5.684   1.067
  226SOL    HW1 1577   6.594   5.737   1.024
  226SOL    HW2 1578   6.750   5.691   1.013
  227SOL     OW 1579   1.442   2.750   4.213
  227SOL    HW1 1580   1.525   2.712   4.173
  227SOL    HW2 1581   1.423   2.705   4.300
  228SOL     OW 1582   3.861   0.092   3.290
  228SOL    HW1 1583   3.790   0.162   3.279
  228SOL    HW2 1584   3.934   0.107   3.223
  229SOL     OW 1585   6.099   5.420   2.367
  229SOL    HW1 1586   6.177   5.405   2.429
  229SOL    HW2 1587   6.087   5.340   2.308
  230SOL     OW 1588   1.389   4.109   5.793
  230SOL    HW1 1589   1.418   4.014   5.784
  230SOL    HW2 1590   1.435   4.165   5.724
  231SOL     OW 1591   0.723   1.929   6.831
  231SOL    HW1 1592   0.772   1.915   6.917
  231SOL    HW2 1593   0.729   2.025   6.804
  232SOL     OW 1594   1.928   5.139   6.653
  232SOL    HW1 1595   1.838   5.101   6.633
  232SOL    HW2 1596   1.991   5.065   6.678
  233SOL     OW 1597   2.693   0.939   5.924
  233SOL    HW1 1598   2.598   0.965   5.944
  233SOL    HW2 1599   2.696   0.890   5.836
  234SOL     OW 1600   2.711   5.683   7.007
  234SOL    HW1 1601   2.780   5.724   0.042
  234SOL    HW2 1602   2.733   5.701   6.911
  235SOL     OW 1603   3.455   3.217   4.843
  235SOL    HW1 1604   3.553   3.231   4.829
  235SOL    HW2 1605   3.433   3.120   4.832
  236SOL     OW 1606   6.934   2.891   5.814
  236SOL    HW1 1607   6.909   2.961   5.881
  236SOL    HW2 1608   6.900   2.917   5.724
  237SOL     OW 1609   0.821   6.881   1.984
  237SOL    HW1 1610   0.833   6.787   1.952
  237SOL    HW2 1611   0.900   6.936   1.958
  238SOL     OW 1612   5.774   2.406   1.963
  238SOL    HW1 1613   5.858   2.359   1.934
  238SOL    HW2 1614   5.696   2.367   1.916
  239SOL     OW 1615   0.689   5.839   0.779
  239SOL    HW1 1616   0.716   5.788   0.697
  239SOL    HW2 1617   0.748   5.813   0.855
  240SOL     OW 1618   6.775   3.998   5.482
  240SOL    HW1 1619   6.734   3.919   5.437
  240SOL    HW2 1620   6.738   4.007   5.575
  241SOL     OW 1621   0.050   1.001   3.105
  241SOL    HW1 1622   6.989   0.953   3.129
  241SOL    HW2 1623   0.097   1.029   3.189
  242SOL     OW 1624   2.158   3.211   3.768
  242SOL    HW1 1625   2.153   3.272   3.847
  242SOL    HW2 1626   2.207   3.128   3.793
  243SOL     OW 1627   4.687   0.634   5.084
  243SOL    HW1 1628   4.763   0.687   5.123
  243SOL    HW2 1629   4.617   0.697   5.049
  244SOL     OW 1630   6.617   1.251   5.534
  244SOL    HW1 1631   6.563   1.273   5.453
  244SOL    HW2 1632   6.556   1.225   5.609
  245SOL     OW 1633   6.185   1.516   3.602
  245SOL    HW1 1634   6.183   1.443   3.670
  245SOL    HW2 1635   6.157   1.602   3.643
  246SOL     OW 1636   4.886   3.093   3.194
  246SOL    HW1 1637   4.974   3.048   3.210
  246SOL    HW2 1638   4.867   3.096   3.096
  247SOL     OW 1639   3.276   1.471   3.481
  247SOL    HW1 1640   3.216   1.550   3.470
  247SOL    HW2 1641   3.299   1.434   3.391
  248SOL     OW 1642   5.893   1.376   2.681
  248SOL    HW1 1643   5.823   1.411   2.744
  248SOL    HW2 1644   5.900   1.277   2.690
  249SOL     OW 1645   3.093   0.255   3.592
  249SOL    HW1 1646   3.014   0.224   3.647
  249SOL    HW2 1647   3.060   0.294   3.506
  250SOL     OW 1648   4.586   3.189   6.002
  250SOL    HW1 1649   4.614   3.152   6.090
  250SOL    HW2 1650   4.491   3.162   5.983
  251SOL     OW 1651   2.252   2.542   0.590
  251SOL    HW1 1652   2.204   2.539   0.678
  251SOL    HW2 1653   2.328   2.476   0.592
  252SOL     OW 1654   0.606   1.281   6.288
  252SOL    HW1 1655   0.561   1.265   6.376
  252SOL    HW2 1656   0.577   1.369   6.251
  253SOL     OW 1657   2.551   3.935   6.102
  253SOL    HW1 1658   2.599   3.850   6.080
  253SOL    HW2 1659   2.539   3.988   6.018
  254SOL     OW 1660   5.719   3.792   5.418
  254SOL    HW1 1661   5.712   3.738   5.501
  254SOL    HW2 1662   5.683   3.884   5.435
  255SOL     OW 1663   3.590   2.138   3.574
  255SOL    HW1 1664   3.660   2.088   3.523
  255SOL    HW2 1665   3.499   2.110   3.543
  256SOL     OW 1666   6.525   5.757   6.979
  256SOL    HW1 1667   6.445   5.809   7.009
  256SOL    HW2 1668   6.539   5.772   6.881
  257SOL     OW 1669   2.723   5.447   5.895
  257SOL    HW1 1670   2.731   5.545   5.912
  257SOL    HW2 1671   2.807   5.401   5.925
  258SOL     OW 1672   5.004   3.891   4.074
  258SOL    HW1 1673   5.091   3.937   4.054
  258SOL    HW2 1674   4.938   3.913   4.002
  259SOL     OW 1675   1.499   2.242   2.858
  259SOL    HW1 1676   1.453   2.158   2.886
  259SOL    HW2 1677   1.486   2.313   2.927
  260SOL     OW 1678   6.110   7.002   6.469
  260SOL    HW1 1679   6.086   0.018   6.381
  260SOL    HW2 1680   6.061   0.026   6.542
  261SOL     OW 1681   1.079   1.835   2.816
  261SOL    HW1 1682   1.152   1.768   2.800
  261SOL    HW2 1683   1.097   1.884   2.901
  262SOL     OW 1684   1.436   5.290   2.053
  262SOL    HW1 1685   1.424   5.376   2.004
  262SOL    HW2 1686   1.363   5.279   2.120
  263SOL     OW 1687   0.633   1.680   4.567
  263SOL    HW1 1688   0.722   1.715   4.596
  263SOL    HW2 1689   0.642   1.585   4.539
  264SOL     OW 1690   2.607   4.522   6.193
  264SOL    HW1 1691   2.703   4.544   6.213
  264SOL    HW2 1692   2.575   4.582   6.120
  265SOL     OW 1693   5.339   5.100   5.266
  265SOL    HW1 1694   5.353   5.008   5.300
  265SOL    HW2 1695   5.349   5.166   5.341
  266SOL     OW 1696   4.136   2.551   0.536
  266SOL    HW1 1697   4.186   2.468   0.511
  266SOL    HW2 1698   4.196   2.630   0.526
  267SOL     OW 1699   1.339   1.514   5.612
  267SOL    HW1 1700   1.291   1.496   5.699
  267SOL    HW2 1701   1.389   1.600   5.619
  268SOL     OW 1702   3.599   5.370   4.500
  268SOL    HW1 1703   3.642   5.442   4.554
  268SOL    HW2 1704   3.594   5.286   4.555
  269SOL     OW 1705   0.932   1.085   5.865
  269SOL    HW1 1706   0.864   1.019   5.898
  269SOL    HW2 1707   1.008   1.036   5.823
  270SOL     OW 1708   4.788   0.636   3.848
  270SOL    HW1 1709   4.826   0.619   3.757
  270SOL    HW2 1710   4.851   0.600   3.917
  271SOL     OW 1711   1.692   1.418   6.961
  271SOL    HW1 1712   1.786   1.383   6.956
  271SOL    HW2 1713   1.645   1.375   0.015
  272SOL     OW 1714   4.082   5.679   2.962
  272SOL    HW1 1715   4.089   5.707   3.058
  272SOL    HW2 1716   4.147   5.733   2.908
  273SOL     OW 1717   2.745   0.258   4.915
  273SOL    HW1 1718   2.729   0.159   4.915
  273SOL    HW2 1719   2.844   0.275   4.915
  274SOL     OW 1720   5.947   2.211   1.378
  274SOL    HW1 1721   5.898   2.124   1.372
  274SOL    HW2 1722   5.945   2.257   1.289
  275SOL     OW 1723   5.917   5.843   4.968
  275SOL    HW1 1724   5.975   5.874   5.043
  275SOL    HW2 1725   5.933   5.745   4.952
  276SOL     OW 1726   6.355   6.186   4.045
  276SOL    HW1 1727   6.369   6.125   3.967
  276SOL    HW2 1728   6.257   6.203   4.057
  277SOL     OW 1729   4.960   1.244   5.619
  277SOL    HW1 1730   5.058   1.250   5.637
  277SOL    HW2 1731   4.944   1.198   5.532
  278SOL     OW 1732   5.799   2.882   3.095
  278SOL    HW1 1733   5.895   2.855   3.103
  278SOL    HW2 1734   5.740   2.804   3.117
  279SOL     OW 1735   0.106   3.604   4.955
  279SOL    HW1 1736   0.010   3.600   4.926
  279SOL    HW2 1737   0.125   3.694   4.994
  280SOL     OW 1738   3.317   0.812   3.161
  280SOL    HW1 1739   3.282   0.772   3.076
  280SOL    HW2 1740   3.395   0.759   3.193
  281SOL     OW 1741   5.847   6.231   3.486
  281SOL    HW1 1742   5.945   6.227   3.503
  281SOL    HW2 1743   5.824   6.178   3.404
  282SOL     OW 1744   2.487   2.072   0.437
  282SOL    HW1 1745   2.460   2.050   0.343
  282SOL    HW2 1746   2.569   2.020   0.460
  283SOL     OW 1747   0.170   2.047   4.709
  283SOL    HW1 1748   0.093   2.110   4.709
  283SOL    HW2 1749   0.228   2.066   4.789
  284SOL     OW 1750   4.992   6.327   3.199
  284SOL    HW1 1751   4.913   6.382   3.173
  284SOL    HW2 1752   4.962   6.250   3.256
  285SOL     OW 1753   4.347   0.437   6.349
  285SOL    HW1 1754   4.367   0.435   6.447
  285SOL    HW2 1755   4.263   0.386   6.331
  286SOL     OW 1756   2.221   4.819   5.253
  286SOL    HW1 1757   2.287   4.893   5.241
  286SOL    HW2 1758   2.269   4.734   5.274
  287SOL     OW 1759   2.942   0.062   6.424
  287SOL    HW1 1760   3.010   0.105   6.484
  287SOL    HW2 1761   2.864   0.123   6.411
  288SOL     OW 1762   4.247   0.430   1.364
  288SOL    HW1 1763   4.283   0.510   1.315
  288SOL    HW2 1764   4.148   0.434   1.367
  289SOL     OW 1765   6.045   6.027   3.323
  289SOL    HW1 1766   5.949   5.999   3.324
  289SOL    HW2 1767   6.068   6.064   3.233
  290SOL     OW 1768   3.567   0.335   6.076
  290SOL    HW1 1769   3.524   0.411   6.026
  290SOL    HW2 1770   3.497   0.283   6.124
  291SOL     OW 1771   2.917   6.821   4.923
  291SOL    HW1 1772   2.870   6.907   4.945
  291SOL    HW2 1773   2.938   6.773   5.008
  292SOL     OW 1774   4.475   0.208   4.353
  292SOL    HW1 1775   4.448   0.163   4.268
  292SOL    HW2 1776   4.499   0.304   4.334
  293SOL     OW 1777   5.678   6.998   2.086
  293SOL    HW1 1778   5.658   7.000   2.184
  293SOL    HW2 1779   5.671   0.067   2.049
  294SOL     OW 1780   6.265   0.600   6.083
  294SOL    HW1 1781   6.360   0.570   6.093
  294SOL    HW2 1782   6.233   0.636   6.170
  295SOL     OW 1783   1.141   1.715   4.886
  295SOL    HW1 1784   1.181   1.716   4.794
  295SOL    HW2 1785   1.042   1.705   4.879
  296SOL     OW 1786   7.016   2.086   0.815
  296SOL    HW1 1787   6.935   2.121   0.863
  296SOL    HW2 1788   7.007   1.988   0.801
  297SOL     OW 1789   5.285   3.142   3.573
  297SOL    HW1 1790   5.259   3.238   3.563
  297SOL    HW2 1791   5.223   3.097   3.637
  298SOL     OW 1792   4.126   0.240   5.936
  298SOL    HW1 1793   4.060   0.166   5.941
  298SOL    HW2 1794   4.084   0.320   5.892
  299SOL     OW 1795   1.048   0.869   0.059
  299SOL    HW1 1796   1.035   0.959   0.101
  299SOL    HW2 1797   1.143   0.862   0.027
  300SOL     OW 1798   4.451   0.301   3.538
  300SOL    HW1 1799   4.356   0.302   3.508
  300SOL    HW2 1800   4.471   0.384   3.591
  301SOL     OW 1801   6.403   5.889   0.982
  301SOL    HW1 1802   6.426   5.876   1.078
  301SOL    HW2 1803   6.466   5.956   0.942
  302SOL     OW 1804   0.665   5.376   1.773
  302SOL    HW1 1805   0.697   5.433   1.697
  302SOL    HW2 1806   0.732   5.378   1.847
  303SOL     OW 1807   5.705   6.231   3.079
  303SOL    HW1 1808   5.664   6.152   3.126
  303SOL    HW2 1809   5.640   6.269   3.014
  304SOL     OW 1810   2.351   5.535   5.001
  304SOL    HW1 1811   2.273   5.582   4.959
  304SOL    HW2 1812   2.414   5.505   4.929
  305SOL     OW 1813   1.013   3.046   2.256
  305SOL    HW1 1814   1.037   3.122   2.195
  305SOL    HW2 1815   1.082   2.974   2.248
  306SOL     OW 1816   0.465   6.370   3.102
  306SOL    HW1 1817   0.422   6.394   3.015
  306SOL    HW2 1818   0.447   6.441   3.170
  307SOL     OW 1819   3.764   2.951   3.975
  307SOL    HW1 1820   3.695   2.922   4.040
  307SOL    HW2 1821   3.733   2.933   3.882
  308SOL     OW 1822   5.376   2.701   3.302
  308SOL    HW1 1823   5.395   2.682   3.206
  308SOL    HW2 1824   5.279   2.720   3.314
  309SOL     OW 1825   1.666   6.744   6.940
  309SOL    HW1 1826   1.676   6.698   0.004
  309SOL    HW2 1827   1.586   6.709   6.893
  310SOL     OW 1828   5.158   0.569   5.122
  310SOL    HW1 1829   5.243   0.598   5.165
  310SOL    HW2 1830   5.082   0.622   5.160
  311SOL     OW 1831   2.223   5.739   2.648
  311SOL    HW1 1832   2.197   5.695   2.562
  311SOL    HW2 1833   2.181   5.689   2.724
  312SOL     OW 1834   3.928   0.994   3.254
  312SOL    HW1 1835   3.878   1.018   3.170
  312SOL    HW2 1836   3.871   0.934   3.310
  313SOL     OW 1837   4.146   3.667   2.571
  313SOL    HW1 1838   4.167   3.627   2.482
  313SOL    HW2 1839   4.075   3.737   2.560
  314SOL     OW 1840   2.270   5.670   5.833
  314SOL    HW1 1841   2.198   5.737   5.813
  314SOL    HW2 1842   2.313   5.693   5.921
  315SOL     OW 1843   5.912   1.065   3.360
  315SOL    HW1 1844   5.967   1.085   3.279
  315SOL    HW2 1845   5.950   1.114   3.439
  316SOL     OW 1846   4.027   1.250   6.414
  316SOL    HW1 1847   4.115   1.203   6.426
  316SOL    HW2 1848   3.963   1.219   6.484
  317SOL     OW 1849   1.252   1.506   2.030
  317SOL    HW1 1850   1.350   1.524   2.026
  317SOL    HW2 1851   1.222   1.470   1.941
  318SOL     OW 1852   1.229   0.376   4.653
  318SOL    HW1 1853   1.168   0.307   4.692
  318SOL    HW2 1854   1.311   0.384   4.710
  319SOL     OW 1855   1.455   1.350   2.506
  319SOL    HW1 1856   1.388   1.305   2.566
  319SOL    HW2 1857   1.421   1.440   2.479
  320SOL     OW 1858   5.908   2.308   6.262
  320SOL    HW1 1859   5.838   2.365   6.218
  320SOL    HW2 1860   5.864   2.242   6.322
  321SOL     OW 1861   4.786   3.099   0.843
  321SOL    HW1 1862   4.795   3.197   0.831
  321SOL    HW2 1863   4.690   3.076   0.863
  322SOL     OW 1864   3.277   3.511   5.866
  322SOL    HW1 1865   3.283   3.587   5.801
  322SOL    HW2 1866   3.366   3.465   5.872
  323SOL     OW 1867   0.873   3.797   2.052
  323SOL    HW1 1868   0.969   3.775   2.066
  323SOL    HW2 1869   0.817   3.716   2.071
  324SOL     OW 1870   0.256   0.280   3.151
  324SOL    HW1 1871   0.172   0.227   3.155
  324SOL    HW2 1872   0.237   0.369   3.110
  325SOL     OW 1873   0.107   3.921   1.801
  325SOL    HW1 1874   0.082   3.826   1.786
  325SOL    HW2 1875   0.024   3.976   1.810
  326SOL     OW 1876   0.723   6.542   6.352
  326SOL    HW1 1877   0.796   6.582   6.297
  326SOL    HW2 1878   0.665   6.485   6.294
  327SOL     OW 1879   5.060   5.494   3.934
  327SOL    HW1 1880   5.035   5.590   3.924
  327SOL    HW2 1881   4.992   5.447   3.989
  328SOL     OW 1882   1.794   4.052   2.608
  328SOL    HW1 1883   1.747   3.990   2.545
  328SOL    HW2 1884   1.851   3.998   2.670
  329SOL     OW 1885   3.035   3.484   1.895
  329SOL    HW1 1886   2.963   3.448   1.954
  329SOL    HW2 1887   3.041   3.583   1.906
  330SOL     OW 1888   2.984   6.008   0.691
  330SOL    HW1 1889   3.071   5.991   0.645
  330SOL    HW2 1890   2.946   5.922   0.723
  331SOL     OW 1891   5.723   5.178   6.709
  331SOL    HW1 1892   5.813   5.168   6.667
  331SOL    HW2 1893   5.713   5.110   6.782
  332SOL     OW 1894   5.956   1.985   3.225
  332SOL    HW1 1895   6.026   2.045   3.187
  332SOL    HW2 1896   5.995   1.895   3.244
  333SOL     OW 1897   2.946   1.028   5.724
  333SOL    HW1 1898   2.863   0.975   5.709
  333SOL    HW2 1899   2.939   1.115   5.675
  334SOL     OW 1900   3.995   3.437   3.341
  334SOL    HW1 1901   4.028   3.360   3.395
  334SOL    HW2 1902   3.924   3.406   3.278
  335SOL     OW 1903   3.767   0.868   6.910
  335SOL    HW1 1904   3.758   0.880   6.811
  335SOL    HW2 1905   3.700   0.801   6.942
  336SOL     OW 1906   2.970   1.634   3.599
  336SOL    HW1 1907   3.042   1.640   3.667
  336SOL    HW2 1908   2.963   1.540   3.566
  337SOL     OW 1909   1.742   0.305   6.183
  337SOL    HW1 1910   1.730   0.303   6.282
  337SOL    HW2 1911   1.747   0.212   6.147
  338SOL     OW 1912   4.048   1.717   1.293
  338SOL    HW1 1913   4.051   1.804   1.342
  338SOL    HW2 1914   4.025   1.733   1.198
  339SOL     OW 1915   4.030   5.380   4.935
  339SOL    HW1 1916   4.043   5.282   4.951
  339SOL    HW2 1917   4.089   5.432   4.997
  340SOL     OW 1918   5.203   2.177   4.181
  340SOL    HW1 1919   5.272   2.105   4.191
  340SOL    HW2 1920   5.130   2.145   4.121
  341SOL     OW 1921   6.225   6.273   2.675
  341SOL    HW1 1922   6.304   6.243   2.728
  341SOL    HW2 1923   6.255   6.329   2.598
  342SOL     OW 1924   4.595   2.099   2.236
  342SOL    HW1 1925   4.590   2.011   2.284
  342SOL    HW2 1926   4.690   2.115   2.206
  343SOL     OW 1927   6.731   5.597   2.631
  343SOL    HW1 1928   6.744   5.696   2.626
  343SOL    HW2 1929   6.797   5.551   2.572
  344SOL     OW 1930   1.863   2.402   1.462
  344SOL    HW1 1931   1.947   2.436   1.420
  344SOL    HW2 1932   1.845   2.454   1.546
  345SOL     OW 1933   6.669   3.816   3.891
  345SOL    HW1 1934   6.676   3.728   3.844
  345SOL    HW2 1935   6.745   3.875   3.862
  346SOL     OW 1936   2.068   6.704   3.390
  346SOL    HW1 1937   1.990   6.730   3.332
  346SOL    HW2 1938   2.150   6.697   3.334
  347SOL     OW 1939   2.607   4.893   0.686
  347SOL    HW1 1940   2.561   4.837   0.755
  347SOL    HW2 1941   2.593   4.990   0.708
  348SOL     OW 1942   4.540   5.115   1.212
  348SOL    HW1 1943   4.639   5.103   1.210
  348SOL    HW2 1944   4.515   5.199   1.164
  349SOL     OW 1945   6.393   4.317   1.411
  349SOL    HW1 1946   6.390   4.404   1.361
  349SOL    HW2 1947   6.309   4.306   1.464
  350SOL     OW 1948   3.382   2.926   0.481
  350SOL    HW1 1949   3.346   2.835   0.465
  350SOL    HW2 1950   3.461   2.942   0.420
  351SOL     OW 1951   3.157   4.528   1.021
  351SOL    HW1 1952   3.248   4.512   1.059
  351SOL    HW2 1953   3.157   4.614   0.970
  352SOL     OW 1954   4.114   0.351   3.109
  352SOL    HW1 1955   4.196   0.346   3.167
  352SOL    HW2 1956   4.041   0.398   3.158
  353SOL     OW 1957   2.178   6.785   6.851
  353SOL    HW1 1958   2.139   6.790   6.759
  353SOL    HW2 1959   2.114   6.737   6.912
  354SOL     OW 1960   0.305   2.990   0.322
  354SOL    HW1 1961   0.305   2.928   0.400
  354SOL    HW2 1962   0.385   2.971   0.264
  355SOL     OW 1963   2.006   2.072   2.485
  355SOL    HW1 1964   2.069   1.995   2.494
  355SOL    HW2 1965   1.914   2.037   2.466
  356SOL     OW 1966   0.749   6.909   6.193
  356SOL    HW1 1967   0.680   6.895   6.264
  356SOL    HW2 1968   0.766   6.823   6.144
  357SOL     OW 1969   5.226   6.716   5.173
  357SOL    HW1 1970   5.325   6.726   5.160
  357SOL    HW2 1971   5.206   6.622   5.199
  358SOL     OW 1972   4.009   5.694   0.282
  358SOL    HW1 1973   4.074   5.758   0.243
  358SOL    HW2 1974   4.054   5.606   0.299
  359SOL     OW 1975   2.308   1.964   2.638
  359SOL    HW1 1976   2.381   1.964   2.570
  359SOL    HW2 1977   2.332   2.025   2.713
  360SOL     OW 1978   1.110   4.568   4.254
  360SOL    HW1 1979   1.195   4.571   4.201
  360SOL    HW2 1980   1.050   4.497   4.217
  361SOL     OW 1981   6.503   0.571   2.996
  361SOL    HW1 1982   6.429   0.506   3.014
  361SOL    HW2 1983   6.521   0.575   2.898
  362SOL     OW 1984   4.173   4.931   0.931
  362SOL    HW1 1985   4.144   4.912   0.837
  362SOL    HW2 1986   4.100   4.903   0.994
  363SOL     OW 1987   5.610   5.159   2.027
  363SOL    HW1 1988   5.631   5.256   2.029
  363SOL    HW2 1989   5.641   5.119   1.941
  364SOL     OW 1990   0.874   6.227   6.157
  364SOL    HW1 1991   0.863   6.207   6.254
  364SOL    HW2 1992   0.820   6.161   6.104
  365SOL     OW 1993   4.849   1.976   3.337
  365SOL    HW1 1994   4.856   1.903   3.269
  365SOL    HW2 1995   4.773   2.037   3.312
  366SOL     OW 1996   5.698   2.081   0.054
  366SOL    HW1 1997   5.643   2.146   0.003
  366SOL    HW2 1998   5.784   2.124   0.081
  367SOL     OW 1999   5.000   1.934   5.702
  367SOL    HW1 2000   4.919   1.875   5.706
  367SOL    HW2 2001   4.987   2.012   5.763
  368SOL     OW 2002   6.110   2.442   6.389
  368SOL    HW1 2003   6.061   2.385   6.323
  368SOL    HW2 2004   6.145   2.523   6.343
  369SOL     OW 2005   6.216   2.868   2.696
  369SOL    HW1 2006   6.158   2.802   2.744
  369SOL    HW2 2007   6.310   2.834   2.693
  370SOL     OW 2008   1.998   3.445   3.506
  370SOL    HW1 2009   2.030   3.456   3.600
  370SOL    HW2 2010   1.916   3.388   3.506
  371SOL     OW 2011   1.419   5.125   6.713
  371SOL    HW1 2012   1.478   5.182   6.770
  371SOL    HW2 2013   1.323   5.145   6.735
  372SOL     OW 2014   3.182   6.284   6.395
  372SOL    HW1 2015   3.197   6.288   6.494
  372SOL    HW2 2016   3.084   6.279   6.377
  373SOL     OW 2017   5.781   5.769   4.275
  373SOL    HW1 2018   5.783   5.698   4.205
  373SOL    HW2 2019   5.797   5.858   4.233
  374SOL     OW 2020   2.559   1.822   2.875
  374SOL    HW1 2021   2.617   1.891   2.920
  374SOL    HW2 2022   2.584   1.815   2.779
  375SOL     OW 2023   1.301   5.049   4.919
  375SOL    HW1 2024   1.240   4.993   4.975
  375SOL    HW2 2025   1.387   5.063   4.968
  376SOL     OW 2026   2.743   0.873   4.479
  376SOL    HW1 2027   2.670   0.863   4.412
  376SOL    HW2 2028   2.829   0.841   4.441
  377SOL     OW 2029   0.929   2.349   6.826
  377SOL    HW1 2030   0.980   2.309   6.750
  377SOL    HW2 2031   0.953   2.446   6.834
  378SOL     OW 2032   3.633   0.977   1.577
  378SOL    HW1 2033   3.644   1.076   1.567
  378SOL    HW2 2034   3.698   0.930   1.517
  379SOL     OW 2035   6.604   1.841   6.365
  379SOL    HW1 2036   6.594   1.774   6.291
  379SOL    HW2 2037   6.595   1.795   6.453
  380SOL     OW 2038   3.966   1.859   1.074
  380SOL    HW1 2039   4.050   1.836   1.025
  380SOL    HW2 2040   3.959   1.959   1.084
  381SOL     OW 2041   1.981   3.799   3.168
  381SOL    HW1 2042   2.059   3.840   3.122
  381SOL    HW2 2043   2.005   3.706   3.198
  382SOL     OW 2044   5.320   0.350   7.014
  382SOL    HW1 2045   5.404   0.332   6.963
  382SOL    HW2 2046   5.295   0.446   7.005
  383SOL     OW 2047   4.032   2.943   0.695
  383SOL    HW1 2048   3.970   2.884   0.642
  383SOL    HW2 2049   3.984   2.977   0.775
  384SOL     OW 2050   5.751   4.262   5.051
  384SOL    HW1 2051   5.696   4.181   5.071
  384SOL    HW2 2052   5.691   4.342   5.044
  385SOL     OW 2053   4.376   4.249   0.386
  385SOL    HW1 2054   4.430   4.207   0.313
  385SOL    HW2 2055   4.403   4.345   0.396
  386SOL     OW 2056   3.376   6.635   3.817
  386SOL    HW1 2057   3.371   6.683   3.905
  386SOL    HW2 2058   3.289   6.645   3.769
  387SOL     OW 2059   2.083   5.825   3.734
  387SOL    HW1 2060   2.164   5.784   3.775
  387SOL    HW2 2061   2.111   5.899   3.673
  388SOL     OW 2062   2.089   3.038   6.414
  388SOL    HW1 2063   2.181   3.045   6.376
  388SOL    HW2 2064   2.083   2.957   6.472
  389SOL     OW 2065   2.908   3.672   3.210
  389SOL    HW1 2066   2.900   3.634   3.118
  389SOL    HW2 2067   2.999   3.653   3.247
  390SOL     OW 2068   2.041   1.048   4.415
  390SOL    HW1 2069   1.957   1.008   4.377
  390SOL    HW2 2070   2.071   0.995   4.494
  391SOL     OW 2071   0.740   3.397   0.120
  391SOL    HW1 2072   0.711   3.346   0.200
  391SOL    HW2 2073   0.666   3.401   0.053
  392SOL     OW 2074   2.542   4.713   2.715
  392SOL    HW1 2075   2.443   4.703   2.709
  392SOL    HW2 2076   2.582   4.698   2.625
  393SOL     OW 2077   5.927   4.798   4.731
  393SOL    HW1 2078   5.903   4.710   4.692
  393SOL    HW2 2079   5.977   4.852   4.663
  394SOL     OW 2080   1.547   0.364   0.667
  394SOL    HW1 2081   1.621   0.431   0.660
  394SOL    HW2 2082   1.532   0.322   0.577
  395SOL     OW 2083   4.934   4.201   1.132
  395SOL    HW1 2084   4.906   4.138   1.061
  395SOL    HW2 2085   4.888   4.178   1.218
  396SOL     OW 2086   3.484   4.123   3.783
  396SOL    HW1 2087   3.445   4.214   3.774
  396SOL    HW2 2088   3.419   4.055   3.750
  397SOL     OW 2089   4.594   1.888   5.789
  397SOL    HW1 2090   4.575   1.959   5.722
  397SOL    HW2 2091   4.509   1.843   5.815
  398SOL     OW 2092   1.156   5.142   2.490
  398SOL    HW1 2093   1.069   5.093   2.490
  398SOL    HW2 2094   1.141   5.237   2.518
  399SOL     OW 2095   4.975   5.032   1.250
  399SOL    HW1 2096   4.896   5.086   1.222
  399SOL    HW2 2097   5.006   4.976   1.173
  400SOL     OW 2098   0.443   5.873   5.259
  400SOL    HW1 2099   0.501   5.813   5.314
  400SOL    HW2 2100   0.428   5.959   5.307
  401SOL     OW 2101   5.077   2.272   6.919
  401SOL    HW1 2102   5.006   2.339   6.896
  401SOL    HW2 2103   5.047   2.181   6.893
  402SOL     OW 2104   6.133   5.934   1.438
  402SOL    HW1 2105   6.157   5.949   1.342
  402SOL    HW2 2106   6.097   6.019   1.478
  403SOL     OW 2107   4.474   2.267   5.705
  403SOL    HW1 2108   4.490   2.224   5.794
  403SOL    HW2 2109   4.376   2.284   5.694
  404SOL     OW 2110   0.877   6.901   4.360
  404SOL    HW1 2111   0.803   6.837   4.339
  404SOL    HW2 2112   0.960   6.872   4.312
  405SOL     OW 2113   1.076   2.606   1.153
  405SOL    HW1 2114   1.112   2.583   1.243
  405SOL    HW2 2115   1.147   2.594   1.084
  406SOL     OW 2116   1.701   2.702   4.105
  406SOL    HW1 2117   1.696   2.786   4.159
  406SOL    HW2 2118   1.755   2.718   4.023
  407SOL     OW 2119   2.614   0.648   5.403
  407SOL    HW1 2120   2.583   0.652   5.498
  407SOL    HW2 2121   2.557   0.582   5.353
  408SOL     OW 2122   1.827   0.452   3.636
  408SOL    HW1 2123   1.776   0.408   3.562
  408SOL    HW2 2124   1.791   0.421   3.724
  409SOL     OW 2125   5.621   3.329   3.551
  409SOL    HW1 2126   5.584   3.338   3.644
  409SOL    HW2 2127   5.547   3.344   3.485
  410SOL     OW 2128   2.377   0.991   6.512
  410SOL    HW1 2129   2.354   1.055   6.438
  410SOL    HW2 2130   2.433   1.039   6.580
  411SOL     OW 2131   6.316   4.651   4.986
  411SOL    HW1 2132   6.379   4.690   4.919
  411SOL    HW2 2133   6.336   4.554   4.999
  412SOL     OW 2134   3.880   0.279   2.363
  412SOL    HW1 2135   3.921   0.240   2.446
  412SOL    HW2 2136   3.861   0.376   2.378
  413SOL     OW 2137   3.258   6.411   0.516
  413SOL    HW1 2138   3.315   6.455   0.586
  413SOL    HW2 2139   3.241   6.316   0.542
  414SOL     OW 2140   4.184   4.166   0.652
  414SOL    HW1 2141   4.255   4.148   0.583
  414SOL    HW2 2142   4.106   4.210   0.608
  415SOL     OW 2143   2.218   6.722   1.456
  415SOL    HW1 2144   2.230   6.771   1.542
  415SOL    HW2 2145   2.274   6.640   1.455
  416SOL     OW 2146   4.253   6.131   4.932
  416SOL    HW1 2147   4.185   6.104   4.864
  416SOL    HW2 2148   4.285   6.223   4.913
  417SOL     OW 2149   4.263   6.133   2.367
  417SOL    HW1 2150   4.183   6.165   2.316
  417SOL    HW2 2151   4.339   6.196   2.351
  418SOL     OW 2152   4.837   5.624   0.506
  418SOL    HW1 2153   4.925   5.618   0.459
  418SOL    HW2 2154   4.822   5.719   0.535
  419SOL     OW 2155   0.259   6.692   1.340
  419SOL    HW1 2156   0.219   6.739   1.418
  419SOL    HW2 2157   0.205   6.711   1.258
  420SOL     OW 2158   5.095   4.285   0.100
  420SOL    HW1 2159   5.099   4.226   0.020
  420SOL    HW2 2160   5.103   4.381   0.072
  421SOL     OW 2161   2.463   6.200   6.343
  421SOL    HW1 2162   2.365   6.184   6.348
  421SOL    HW2 2163   2.510   6.148   6.415
  422SOL     OW 2164   5.735   4.184   6.488
  422SOL    HW1 2165   5.653   4.135   6.518
  422SOL    HW2 2166   5.719   4.282   6.491
  423SOL     OW 2167   5.962   3.142   0.009
  423SOL    HW1 2168   5.909   3.076   0.062
  423SOL    HW2 2169   6.019   3.196   0.071
  424SOL     OW 2170   2.797   4.225   0.732
  424SOL    HW1 2171   2.806   4.321   0.705
  424SOL    HW2 2172   2.701   4.199   0.732
  425SOL     OW 2173   3.506   1.388   1.111
  425SOL    HW1 2174   3.456   1.352   1.032
  425SOL    HW2 2175   3.564   1.317   1.149
  426SOL     OW 2176   5.158   3.058   6.013
  426SOL    HW1 2177   5.085   3.023   6.072
  426SOL    HW2 2178   5.226   2.986   5.997
  427SOL     OW 2179   5.537   4.272   1.266
  427SOL    HW1 2180   5.520   4.282   1.168
  427SOL    HW2 2181   5.538   4.175   1.291
  428SOL     OW 2182   4.250   0.338   5.566
  428SOL    HW1 2183   4.209   0.429   5.577
  428SOL    HW2 2184   4.288   0.330   5.474
  429SOL     OW 2185   1.652   4.749   6.894
  429SOL    HW1 2186   1.608   4.801   6.967
  429SOL    HW2 2187   1.722   4.689   6.933
  430SOL     OW 2188   1.362   6.810   4.914
  430SOL    HW1 2189   1.375   6.780   5.008
  430SOL    HW2 2190   1.430   6.880   4.891
  431SOL     OW 2191   3.717   1.826   0.126
  431SOL    HW1 2192   3.624   1.793   0.111
  431SOL    HW2 2193   3.781   1.768   0.075
  432SOL     OW 2194   6.801   1.810   0.342
  432SOL    HW1 2195   6.890   1.802   0.386
  432SOL    HW2 2196   6.806   1.771   0.250
  433SOL     OW 2197   2.987   6.615   5.110
  433SOL    HW1 2198   2.951   6.558   5.035
  433SOL    HW2 2199   3.079   6.585   5.133
  434SOL     OW 2200   5.597   3.565   1.266
  434SOL    HW1 2201   5.564   3.573   1.360
  434SOL    HW2 2202   5.564   3.643   1.213
  435SOL     OW 2203   3.407   3.965   6.385
  435SOL    HW1 2204   3.440   3.978   6.479
  435SOL    HW2 2205   3.485   3.944   6.326
  436SOL     OW 2206   1.479   0.795   0.802
  436SOL    HW1 2207   1.397   0.743   0.781
  436SOL    HW2 2208   1.478   0.824   0.898
  437SOL     OW 2209   0.106   0.379   6.200
  437SOL    HW1 2210   0.150   0.469   6.193
  437SOL    HW2 2211   0.175   0.309   6.216
  438SOL     OW 2212   1.741   3.190   1.751
  438SOL    HW1 2213   1.766   3.222   1.660
  438SOL    HW2 2214   1.671   3.251   1.790
  439SOL     OW 2215   6.346   4.742   2.133
  439SOL    HW1 2216   6.292   4.665   2.100
  439SOL    HW2 2217   6.393   4.786   2.057
  440SOL     OW 2218   0.827   2.409   3.758
  440SOL    HW1 2219   0.835   2.330   3.697
  440SOL    HW2 2220   0.785   2.381   3.844
  441SOL     OW 2221   1.394   1.435   3.051
  441SOL    HW1 2222   1.437   1.488   3.124
  441SOL    HW2 2223   1.453   1.436   2.970
  442SOL     OW 2224   6.640   4.011   6.847
  442SOL    HW1 2225   6.576   3.934   6.839
  442SOL    HW2 2226   6.615   4.066   6.926
  443SOL     OW 2227   1.417   3.673   5.030
  443SOL    HW1 2228   1.371   3.740   5.088
  443SOL    HW2 2229   1.411   3.702   4.934
  444SOL     OW 2230   4.345   2.346   6.345
  444SOL    HW1 2231   4.441   2.321   6.338
  444SOL    HW2 2232   4.300   2.333   6.257
  445SOL     OW 2233   2.380   4.539   3.827
  445SOL    HW1 2234   2.442   4.592   3.769
  445SOL    HW2 2235   2.380   4.444   3.797
  446SOL     OW 2236   3.984   5.047   3.714
  446SOL    HW1 2237   4.032   4.967   3.748
  446SOL    HW2 2238   3.903   5.019   3.662
  447SOL     OW 2239   0.024   5.165   0.213
  447SOL    HW1 2240   0.009   5.130   0.306
  447SOL    HW2 2241   0.008   5.091   0.147
  448SOL     OW 2242   4.143   0.900   5.309
  448SOL    HW1 2243   4.107   0.879   5.399
  448SOL    HW2 2244   4.234   0.860   5.299
  449SOL     OW 2245   6.157   1.043   4.469
  449SOL    HW1 2246   6.211   0.967   4.504
  449SOL    HW2 2247   6.060   1.020   4.472
  450SOL     OW 2248   0.152   5.811   3.507
  450SOL    HW1 2249   0.066   5.861   3.492
  450SOL    HW2 2250   0.174   5.810   3.604
  451SOL     OW 2251   0.564   1.434   2.372
  451SOL    HW1 2252   0.486   1.378   2.399
  451SOL    HW2 2253   0.558   1.455   2.274
  452SOL     OW 2254   0.325   4.340   0.678
  452SOL    HW1 2255   0.227   4.348   0.657
  452SOL    HW2 2256   0.374   4.417   0.638
  453SOL     OW 2257   3.226   1.695   6.504
  453SOL    HW1 2258   3.220   1.696   6.404
  453SOL    HW2 2259   3.162   1.762   6.542
  454SOL     OW 2260   0.651   6.405   6.828
  454SOL    HW1 2261   0.679   6.481   6.887
  454SOL    HW2 2262   0.710   6.326   6.846
  455SOL     OW 2263   6.149   0.508   3.696
  455SOL    HW1 2264   6.209   0.568   3.748
  455SOL    HW2 2265   6.086   0.461   3.758
  456SOL     OW 2266   4.328   5.670   6.487
  456SOL    HW1 2267   4.271   5.598   6.448
  456SOL    HW2 2268   4.275   5.726   6.550
  457SOL     OW 2269   2.303   4.349   3.147
  457SOL    HW1 2270   2.290   4.283   3.220
  457SOL    HW2 2271   2.214   4.373   3.107
  458SOL     OW 2272   5.865   5.928   5.469
  458SOL    HW1 2273   5.786   5.870   5.450
  458SOL    HW2 2274   5.894   5.914   5.564
  459SOL     OW 2275   1.271   0.511   2.721
  459SOL    HW1 2276   1.267   0.557   2.810
  459SOL    HW2 2277   1.258   0.412   2.734
  460SOL     OW 2278   6.556   1.488   2.362
  460SOL    HW1 2279   6.634   1.547   2.383
  460SOL    HW2 2280   6.506   1.468   2.447
  461SOL     OW 2281   4.589   0.020   5.076
  461SOL    HW1 2282   4.614   6.948   5.093
  461SOL    HW2 2283   4.671   0.077   5.077
  462SOL     OW 2284   3.111   2.869   6.196
  462SOL    HW1 2285   3.058   2.953   6.183
  462SOL    HW2 2286   3.209   2.888   6.183
  463SOL     OW 2287   6.113   5.150   3.243
  463SOL    HW1 2288   6.198   5.101   3.224
  463SOL    HW2 2289   6.122   5.245   3.215
  464SOL     OW 2290   1.808   1.561   6.741
  464SOL    HW1 2291   1.743   1.511   6.798
  464SOL    HW2 2292   1.765   1.587   6.655
  465SOL     OW 2293   0.251   1.850   3.829
  465SOL    HW1 2294   0.295   1.897   3.905
  465SOL    HW2 2295   0.251   1.751   3.846
  466SOL     OW 2296   0.696   6.851   3.662
  466SOL    HW1 2297   0.656   6.762   3.684
  466SOL    HW2 2298   0.636   6.924   3.697
  467SOL     OW 2299   1.203   0.295   5.404
  467SOL    HW1 2300   1.198   0.340   5.315
  467SOL    HW2 2301   1.187   0.197   5.393
  468SOL     OW 2302   3.983   5.785   1.038
  468SOL    HW1 2303   4.067   5.792   0.985
  468SOL    HW2 2304   3.927   5.709   1.004
  469SOL     OW 2305   2.108   5.553   0.408
  469SOL    HW1 2306   2.182   5.519   0.351
  469SOL    HW2 2307   2.084   5.484   0.477
  470SOL     OW 2308   4.289   0.589   2.163
  470SOL    HW1 2309   4.237   0.605   2.247
  470SOL    HW2 2310   4.261   0.501   2.124
  471SOL     OW 2311   1.902   2.664   4.837
  471SOL    HW1 2312   1.884   2.760   4.812
  471SOL    HW2 2313   1.954   2.620   4.764
  472SOL     OW 2314   4.918   5.255   6.436
  472SOL    HW1 2315   4.972   5.288   6.359
  472SOL    HW2 2316   4.837   5.207   6.401
  473SOL     OW 2317   0.603   2.741   2.119
  473SOL    HW1 2318   0.578   2.694   2.204
  473SOL    HW2 2319   0.656   2.823   2.141
  474SOL     OW 2320   4.314   5.212   4.087
  474SOL    HW1 2321   4.307   5.123   4.131
  474SOL    HW2 2322   4.410   5.241   4.085
  475SOL     OW 2323   7.023   6.840   6.415
  475SOL    HW1 2324   6.959   6.858   6.490
  475SOL    HW2 2325   0.067   6.774   6.445
  476SOL     OW 2326   6.291   4.469   2.487
  476SOL    HW1 2327   6.331   4.385   2.450
  476SOL    HW2 2328   6.364   4.537   2.501
  477SOL     OW 2329   2.051   4.955   4.445
  477SOL    HW1 2330   2.148   4.942   4.421
  477SOL    HW2 2331   1.996   4.957   4.361
  478SOL     OW 2332   3.649   5.356   3.201
  478SOL    HW1 2333   3.658   5.318   3.293
  478SOL    HW2 2334   3.700   5.443   3.196
  479SOL     OW 2335   2.588   2.446   0.341
  479SOL    HW1 2336   2.617   2.540   0.362
  479SOL    HW2 2337   2.661   2.382   0.364
  480SOL     OW 2338   1.544   0.063   1.852
  480SOL    HW1 2339   1.596   0.141   1.818
  480SOL    HW2 2340   1.594   0.020   1.927
  481SOL     OW 2341   2.890   0.549   1.794
  481SOL    HW1 2342   2.920   0.644   1.783
  481SOL    HW2 2343   2.904   0.521   1.888
  482SOL     OW 2344   5.418   4.596   2.457
  482SOL    HW1 2345   5.444   4.499   2.467
  482SOL    HW2 2346   5.349   4.619   2.524
  483SOL     OW 2347   5.501   1.828   2.034
  483SOL    HW1 2348   5.543   1.745   2.072
  483SOL    HW2 2349   5.529   1.907   2.089
  484SOL     OW 2350   0.200   2.737   4.117
  484SOL    HW1 2351   0.189   2.829   4.079
  484SOL    HW2 2352   0.117   2.712   4.167
  485SOL     OW 2353   3.706   4.899   2.406
  485SOL    HW1 2354   3.759   4.856   2.333
  485SOL    HW2 2355   3.609   4.896   2.383
  486SOL     OW 2356   0.874   1.610   0.488
  486SOL    HW1 2357   0.939   1.552   0.537
  486SOL    HW2 2358   0.799   1.634   0.549
  487SOL     OW 2359   0.613   2.353   0.198
  487SOL    HW1 2360   0.621   2.287   0.273
  487SOL    HW2 2361   0.680   2.329   0.127
  488SOL     OW 2362   0.558   1.719   1.669
  488SOL    HW1 2363   0.549   1.621   1.687
  488SOL    HW2 2364   0.633   1.757   1.724
  489SOL     OW 2365   3.784   6.076   7.015
  489SOL    HW1 2366   3.827   6.102   0.078
  489SOL    HW2 2367   3.766   6.158   6.961
  490SOL     OW 2368   6.142   6.511   3.940
  490SOL    HW1 2369   6.076   6.497   3.866
  490SOL    HW2 2370   6.093   6.539   4.023
  491SOL     OW 2371   0.457   2.449   2.551
  491SOL    HW1 2372   0.457   2.368   2.492
  491SOL    HW2 2373   0.365   2.486   2.558
  492SOL     OW 2374   3.128   0.839   5.807
  492SOL    HW1 2375   3.168   0.790   5.730
  492SOL    HW2 2376   3.074   0.916   5.773
  493SOL     OW 2377   6.544   4.666   6.054
  493SOL    HW1 2378   6.627   4.612   6.044
  493SOL    HW2 2379   6.553   4.751   6.002
  494SOL     OW 2380   0.575   6.195   0.191
  494SOL    HW1 2381   0.508   6.206   0.118
  494SOL    HW2 2382   0.652   6.257   0.176
  495SOL     OW 2383   5.167   4.971   2.663
  495SOL    HW1 2384   5.245   5.015   2.708
  495SOL    HW2 2385   5.128   5.033   2.595
  496SOL     OW 2386   5.827   3.338   3.084
  496SOL    HW1 2387   5.792   3.265   3.142
  496SOL    HW2 2388   5.919   3.316   3.053
  497SOL     OW 2389   3.334   0.839   5.217
  497SOL    HW1 2390   3.418   0.795   5.186
  497SOL    HW2 2391   3.357   0.924   5.264
  498SOL     OW 2392   0.640   2.670   2.633
  498SOL    HW1 2393   0.586   2.619   2.566
  498SOL    HW2 2394   0.602   2.656   2.725
  499SOL     OW 2395   3.111   0.480   4.623
  499SOL    HW1 2396   3.208   0.485   4.646
  499SOL    HW2 2397   3.091   0.391   4.582
  500SOL     OW 2398   0.705   4.222   3.091
  500SOL    HW1 2399   0.743   4.315   3.090
  500SOL    HW2 2400   0.606   4.227   3.080
  501SOL     OW 2401   2.577   2.681   6.953
  501SOL    HW1 2402   2.626   2.597   6.930
  501SOL    HW2 2403   2.530   2.669   0.017
  502SOL     OW 2404   4.931   4.237   6.096
  502SOL    HW1 2405   4.853   4.299   6.108
  502SOL    HW2 2406   4.987   4.268   6.020
  503SOL     OW 2407   6.169   4.369   5.904
  503SOL    HW1 2408   6.081   4.386   5.948
  503SOL    HW2 2409   6.225   4.452   5.909
  504SOL     OW 2410   2.204   5.942   4.462
  504SOL    HW1 2411   2.123   5.895   4.496
  504SOL    HW2 2412   2.247   5.887   4.390
  505SOL     OW 2413   4.111   0.271   6.222
  505SOL    HW1 2414   4.102   0.185   6.272
  505SOL    HW2 2415   4.136   0.252   6.127
  506SOL     OW 2416   1.842   4.574   4.801
  506SOL    HW1 2417   1.835   4.516   4.720
  506SOL    HW2 2418   1.881   4.520   4.876
  507SOL     OW 2419   3.072   0.215   4.529
  507SOL    HW1 2420   2.979   0.180   4.540
  507SOL    HW2 2421   3.129   0.181   4.604
  508SOL     OW 2422   5.807   3.553   2.889
  508SOL    HW1 2423   5.786   3.647   2.915
  508SOL    HW2 2424   5.849   3.506   2.967
  509SOL     OW 2425   4.043   1.330   1.733
  509SOL    HW1 2426   4.109   1.393   1.773
  509SOL    HW2 2427   4.031   1.350   1.636
  510SOL     OW 2428   6.633   4.709   5.747
  510SOL    HW1 2429   6.604   4.613   5.755
  510SOL    HW2 2430   6.688   4.720   5.665
  511SOL     OW 2431   0.292   6.051   0.586
  511SOL    HW1 2432   0.357   6.046   0.662
  511SOL    HW2 2433   0.223   6.121   0.605
  512SOL     OW 2434   1.375   3.560   6.978
  512SOL    HW1 2435   1.317   3.624   0.004
  512SOL    HW2 2436   1.381   3.474   0.005
  513SOL     OW 2437   6.421   5.989   3.102
  513SOL    HW1 2438   6.514   6.026   3.096
  513SOL    HW2 2439   6.355   6.064   3.103
  514SOL     OW 2440   7.019   1.995   4.191
  514SOL    HW1 2441   0.002   1.911   4.246
  514SOL    HW2 2442   6.928   2.033   4.200
  515SOL     OW 2443   2.375   0.055   5.684
  515SOL    HW1 2444   2.369   0.154   5.683
  515SOL    HW2 2445   2.426   0.024   5.604
  516SOL     OW 2446   2.615   5.105   1.672
  516SOL    HW1 2447   2.517   5.082   1.677
  516SOL    HW2 2448   2.644   5.141   1.761
  517SOL     OW 2449   4.945   6.888   1.665
  517SOL    HW1 2450   4.985   6.965   1.614
  517SOL    HW2 2451   5.018   6.825   1.693
  518SOL     OW 2452   2.136   2.515   1.931
  518SOL    HW1 2453   2.126   2.416   1.922
  518SOL    HW2 2454   2.112   2.543   2.024
  519SOL     OW 2455   0.359   0.441   4.716
  519SOL    HW1 2456   0.411   0.373   4.665
  519SOL    HW2 2457   0.410   0.528   4.716
  520SOL     OW 2458   5.554   4.587   5.821
  520SOL    HW1 2459   5.648   4.563   5.846
  520SOL    HW2 2460   5.539   4.684   5.837
  521SOL     OW 2461   0.112   1.959   6.137
  521SOL    HW1 2462   0.168   2.037   6.109
  521SOL    HW2 2463   0.017   1.988   6.150
  522SOL     OW 2464   3.763   2.771   5.310
  522SOL    HW1 2465   3.826   2.727   5.374
  522SOL    HW2 2466   3.811   2.844   5.261
  523SOL     OW 2467   6.806   6.861   4.056
  523SOL    HW1 2468   6.728   6.918   4.031
  523SOL    HW2 2469   6.812   6.783   3.994
  524SOL     OW 2470   2.765   0.824   6.789
  524SOL    HW1 2471   2.679   0.774   6.799
  524SOL    HW2 2472   2.788   0.832   6.692
  525SOL     OW 2473   2.883   3.559   6.269
  525SOL    HW1 2474   2.804   3.499   6.272
  525SOL    HW2 2475   2.908   3.585   6.363
  526SOL     OW 2476   2.900   5.099   4.675
  526SOL    HW1 2477   2.964   5.034   4.635
  526SOL    HW2 2478   2.814   5.052   4.697
  527SOL     OW 2479   6.495   1.369   5.877
  527SOL    HW1 2480   6.421   1.376   5.944
  527SOL    HW2 2481   6.488   1.281   5.830
  528SOL     OW 2482   1.479   1.457   5.034
  528SOL    HW1 2483   1.459   1.510   4.951
  528SOL    HW2 2484   1.518   1.369   5.008
  529SOL     OW 2485   0.884   5.153   4.925
  529SOL    HW1 2486   0.949   5.116   4.991
  529SOL    HW2 2487   0.827   5.222   4.969
  530SOL     OW 2488   2.464   3.264   5.410
  530SOL    HW1 2489   2.408   3.339   5.375
  530SOL    HW2 2490   2.478   3.196   5.338
  531SOL     OW 2491   0.603   0.435   1.259
  531SOL    HW1 2492   0.564   0.343   1.269
  531SOL    HW2 2493   0.624   0.473   1.349
  532SOL     OW 2494   1.487   1.769   5.614
  532SOL    HW1 2495   1.574   1.790   5.660
  532SOL    HW2 2496   1.486   1.813   5.525
  533SOL     OW 2497   5.279   6.424   4.926
  533SOL    HW1 2498   5.338   6.410   5.005
  533SOL    HW2 2499   5.302   6.358   4.855
  534SOL     OW 2500   4.581   5.492   3.146
  534SOL    HW1 2501   4.568   5.576   3.199
  534SOL    HW2 2502   4.546   5.415   3.199
  535SOL     OW 2503   0.374   3.890   3.762
  535SOL    HW1 2504   0.455   3.936   3.799
  535SOL    HW2 2505   0.403   3.822   3.695
  536SOL     OW 2506   1.210   5.454   1.368
  536SOL    HW1 2507   1.256   5.532   1.325
  536SOL    HW2 2508   1.253   5.434   1.456
  537SOL     OW 2509   2.415   6.510   3.043
  537SOL    HW1 2510   2.432   6.416   3.072
  537SOL    HW2 2511   2.341   6.511   2.975
  538SOL     OW 2512   1.310   5.618   3.630
  538SOL    HW1 2513   1.287   5.625   3.533
  538SOL    HW2 2514   1.336   5.524   3.652
  539SOL     OW 2515   1.274   5.436   1.631
  539SOL    HW1 2516   1.344   5.387   1.682
  539SOL    HW2 2517   1.184   5.404   1.659
  540SOL     OW 2518   0.698   2.076   2.529
  540SOL    HW1 2519   0.726   2.169   2.504
  540SOL    HW2 2520   0.772   2.031   2.580
  541SOL     OW 2521   2.796   6.119   4.976
  541SOL    HW1 2522   2.857   6.040   4.977
  541SOL    HW2 2523   2.736   6.113   4.896
  542SOL     OW 2524   5.556   6.043   6.937
  542SOL    HW1 2525   5.477   6.102   6.954
  542SOL    HW2 2526   5.637   6.083   6.978
  543SOL     OW 2527   1.210   4.907   6.862
  543SOL    HW1 2528   1.303   4.870   6.872
  543SOL    HW2 2529   1.186   4.911   6.766
  544SOL     OW 2530   0.709   5.292   0.534
  544SOL    HW1 2531   0.671   5.275   0.443
  544SOL    HW2 2532   0.675   5.380   0.568
  545SOL     OW 2533   3.923   1.385   2.816
  545SOL    HW1 2534   4.010   1.431   2.834
  545SOL    HW2 2535   3.851   1.429   2.870
  546SOL     OW 2536   1.109   3.393   1.248
  546SOL    HW1 2537   1.065   3.445   1.175
  546SOL    HW2 2538   1.056   3.310   1.266
  547SOL     OW 2539   2.645   2.724   0.871
  547SOL    HW1 2540   2.666   2.819   0.896
  547SOL    HW2 2541   2.563   2.722   0.814
  548SOL     OW 2542   3.959   3.083   4.123
  548SOL    HW1 2543   3.934   3.082   4.220
  548SOL    HW2 2544   3.897   3.023   4.072
  549SOL     OW 2545   4.866   3.714   1.502
  549SOL    HW1 2546   4.882   3.745   1.596
  549SOL    HW2 2547   4.879   3.615   1.497
  550SOL     OW 2548   6.966   2.991   2.228
  550SOL    HW1 2549   6.869   2.967   2.221
  550SOL    HW2 2550   6.983   3.075   2.178
  551SOL     OW 2551   6.879   1.325   0.943
  551SOL    HW1 2552   6.878   1.370   1.032
  551SOL    HW2 2553   6.957   1.264   0.937
  552SOL     OW 2554   3.923   5.041   0.724
  552SOL    HW1 2555   3.934   5.097   0.642
  552SOL    HW2 2556   3.966   4.952   0.709
  553SOL     OW 2557   2.209   1.116   1.700
  553SOL    HW1 2558   2.285   1.101   1.763
  553SOL    HW2 2559   2.239   1.173   1.624
  554SOL     OW 2560   5.563   6.991   5.715
  554SOL    HW1 2561   5.590   7.010   5.809
  554SOL    HW2 2562   5.620   0.022   5.653
  555SOL     OW 2563   1.670   4.920   4.566
  555SOL    HW1 2564   1.722   4.933   4.651
  555SOL    HW2 2565   1.654   4.822   4.553
  556SOL     OW 2566   6.006   1.965   3.498
  556SOL    HW1 2567   6.017   1.971   3.399
  556SOL    HW2 2568   6.077   2.021   3.543
  557SOL     OW 2569   6.800   5.996   6.541
  557SOL    HW1 2570   6.812   6.086   6.582
  557SOL    HW2 2571   6.842   5.995   6.451
  558SOL     OW 2572   4.384   3.504   5.252
  558SOL    HW1 2573   4.334   3.418   5.245
  558SOL    HW2 2574   4.479   3.490   5.227
  559SOL     OW 2575   0.328   5.821   6.445
  559SOL    HW1 2576   0.358   5.735   6.486
  559SOL    HW2 2577   0.325   5.892   6.515
  560SOL     OW 2578   4.714   6.432   6.947
  560SOL    HW1 2579   4.706   6.350   6.890
  560SOL    HW2 2580   4.779   6.414   7.021
  561SOL     OW 2581   6.093   6.920   0.480
  561SOL    HW1 2582   6.141   6.845   0.435
  561SOL    HW2 2583   6.019   6.953   0.421
  562SOL     OW 2584   5.282   1.249   6.220
  562SOL    HW1 2585   5.250   1.342   6.202
  562SOL    HW2 2586   5.284   1.198   6.134
  563SOL     OW 2587   2.527   6.088   3.951
  563SOL    HW1 2588   2.617   6.047   3.936
  563SOL    HW2 2589   2.539   6.182   3.984
  564SOL     OW 2590   1.055   1.582   6.693
  564SOL    HW1 2591   1.012   1.493   6.708
  564SOL    HW2 2592   1.145   1.568   6.652
  565SOL     OW 2593   4.562   3.720   5.664
  565SOL    HW1 2594   4.470   3.701   5.698
  565SOL    HW2 2595   4.628   3.717   5.739
  566SOL     OW 2596   4.419   5.076   3.295
  566SOL    HW1 2597   4.435   5.058   3.392
  566SOL    HW2 2598   4.463   5.162   3.270
  567SOL     OW 2599   3.049   3.125   4.810
  567SOL    HW1 2600   2.969   3.132   4.751
  567SOL    HW2 2601   3.119   3.070   4.765
  568SOL     OW 2602   3.165   2.502   0.232
  568SOL    HW1 2603   3.076   2.516   0.275
  568SOL    HW2 2604   3.173   2.562   0.153
  569SOL     OW 2605   1.486   2.766   0.709
  569SOL    HW1 2606   1.525   2.685   0.666
  569SOL    HW2 2607   1.442   2.823   0.640
  570SOL     OW 2608   1.186   6.510   0.604
  570SOL    HW1 2609   1.281   6.495   0.633
  570SOL    HW2 2610   1.187   6.563   0.519
  571SOL     OW 2611   3.771   5.065   2.794
  571SOL    HW1 2612   3.685   5.112   2.778
  571SOL    HW2 2613   3.841   5.131   2.820
  572SOL     OW 2614   1.801   3.843   5.488
  572SOL    HW1 2615   1.707   3.826   5.460
  572SOL    HW2 2616   1.818   3.802   5.577
  573SOL     OW 2617   4.345   1.278   5.420
  573SOL    HW1 2618   4.305   1.249   5.333
  573SOL    HW2 2619   4.286   1.345   5.463
  574SOL     OW 2620   2.501   2.088   3.882
  574SOL    HW1 2621   2.490   2.156   3.955
  574SOL    HW2 2622   2.484   1.997   3.918
  575SOL     OW 2623   6.562   2.851   0.255
  575SOL    HW1 2624   6.493   2.780   0.271
  575SOL    HW2 2625   6.639   2.837   0.317
  576SOL     OW 2626   1.143   1.995   2.614
  576SOL    HW1 2627   1.235   1.955   2.605
  576SOL    HW2 2628   1.093   1.947   2.687
  577SOL     OW 2629   2.649   1.745   3.659
  577SOL    HW1 2630   2.691   1.716   3.573
  577SOL    HW2 2631   2.607   1.836   3.647
  578SOL     OW 2632   0.283   3.309   3.712
  578SOL    HW1 2633   0.362   3.287   3.769
  578SOL    HW2 2634   0.311   3.315   3.616
  579SOL     OW 2635   4.730   2.079   0.445
  579SOL    HW1 2636   4.812   2.078   0.503
  579SOL    HW2 2637   4.670   2.153   0.473
  580SOL     OW 2638   1.638   5.592   6.649
  580SOL    HW1 2639   1.582   5.533   6.708
  580SOL    HW2 2640   1.715   5.539   6.614
  581SOL     OW 2641   4.002   3.194   2.937
  581SOL    HW1 2642   3.947   3.277   2.929
  581SOL    HW2 2643   4.094   3.212   2.901
  582SOL     OW 2644   5.088   4.156   2.394
  582SOL    HW1 2645   4.997   4.117   2.380
  582SOL    HW2 2646   5.084   4.224   2.467
  583SOL     OW 2647   2.262   4.211   0.400
  583SOL    HW1 2648   2.185   4.237   0.457
  583SOL    HW2 2649   2.229   4.184   0.309
  584SOL     OW 2650   0.225   4.889   4.900
  584SOL    HW1 2651   0.226   4.797   4.860
  584SOL    HW2 2652   0.205   4.956   4.829
  585SOL     OW 2653   6.849   2.154   6.007
  585SOL    HW1 2654   6.845   2.127   5.910
  585SOL    HW2 2655   6.760   2.186   6.036
  586SOL     OW 2656   2.657   6.497   0.843
  586SOL    HW1 2657   2.576   6.555   0.851
  586SOL    HW2 2658   2.738   6.548   0.871
  587SOL     OW 2659   0.887   3.446   5.842
  587SOL    HW1 2660   0.904   3.386   5.921
  587SOL    HW2 2661   0.803   3.498   5.857
  588SOL     OW 2662   3.268   6.191   1.570
  588SOL    HW1 2663   3.339   6.209   1.502
  588SOL    HW2 2664   3.178   6.193   1.525
  589SOL     OW 2665   3.826   5.127   2.482
  589SOL    HW1 2666   3.808   5.045   2.428
  589SOL    HW2 2667   3.845   5.102   2.576
  590SOL     OW 2668   0.053   2.362   1.799
  590SOL    HW1 2669   7.010   2.430   1.767
  590SOL    HW2 2670   0.112   2.404   1.868
  591SOL     OW 2671   3.606   0.287   3.519
  591SOL    HW1 2672   3.637   0.213   3.579
  591SOL    HW2 2673   3.507   0.281   3.506
  592SOL     OW 2674   4.835   0.474   0.197
  592SOL    HW1 2675   4.738   0.482   0.217
  592SOL    HW2 2676   4.866   0.382   0.220
  593SOL     OW 2677   5.003   2.468   4.114
  593SOL    HW1 2678   4.981   2.530   4.039
  593SOL    HW2 2679   4.945   2.386   4.108
  594SOL     OW 2680   3.973   4.077   1.535
  594SOL    HW1 2681   4.010   4.130   1.458
  594SOL    HW2 2682   3.984   3.980   1.517
  595SOL     OW 2683   3.817   6.055   4.070
  595SOL    HW1 2684   3.747   6.126   4.075
  595SOL    HW2 2685   3.809   5.993   4.148
  596SOL     OW 2686   0.795   4.723   2.916
  596SOL    HW1 2687   0.832   4.805   2.960
  596SOL    HW2 2688   0.854   4.698   2.839
  597SOL     OW 2689   4.467   0.237   5.825
  597SOL    HW1 2690   4.398   0.165   5.824
  597SOL    HW2 2691   4.423   0.326   5.818
  598SOL     OW 2692   3.878   4.424   0.339
  598SOL    HW1 2693   3.801   4.361   0.347
  598SOL    HW2 2694   3.873   4.492   0.413
  599SOL     OW 2695   6.686   0.036   2.484
  599SOL    HW1 2696   6.623   6.998   2.531
  599SOL    HW2 2697   6.770   7.010   2.461
  600SOL     OW 2698   1.681   0.312   0.110
  600SOL    HW1 2699   1.596   0.289   0.062
  600SOL    HW2 2700   1.697   0.411   0.102
  601SOL     OW 2701   3.078   5.874   3.975
  601SOL    HW1 2702   3.073   5.972   3.959
  601SOL    HW2 2703   3.061   5.825   3.889
  602SOL     OW 2704   2.246   0.330   1.432
  602SOL    HW1 2705   2.292   0.382   1.504
  602SOL    HW2 2706   2.242   0.386   1.349
  603SOL     OW 2707   4.014   2.221   3.118
  603SOL    HW1 2708   3.921   2.198   3.090
  603SOL    HW2 2709   4.060   2.271   3.045
  604SOL     OW 2710   0.920   3.606   6.292
  604SOL    HW1 2711   0.994   3.638   6.351
  604SOL    HW2 2712   0.915   3.507   6.296
  605SOL     OW 2713   5.872   6.885   3.442
  605SOL    HW1 2714   5.828   6.948   3.379
  605SOL    HW2 2715   5.821   6.882   3.527
  606SOL     OW 2716   3.942   0.700   3.623
  606SOL    HW1 2717   3.965   0.636   3.696
  606SOL    HW2 2718   3.988   0.788   3.638
  607SOL     OW 2719   5.230   1.376   4.067
  607SOL    HW1 2720   5.197   1.282   4.080
  607SOL    HW2 2721   5.302   1.377   3.998
  608SOL     OW 2722   3.812   0.558   0.735
  608SOL    HW1 2723   3.905   0.568   0.771
  608SOL    HW2 2724   3.746   0.574   0.809
  609SOL     OW 2725   3.311   2.900   4.236
  609SOL    HW1 2726   3.290   2.852   4.151
  609SOL    HW2 2727   3.226   2.933   4.278
  610SOL     OW 2728   5.489   2.582   3.928
  610SOL    HW1 2729   5.567   2.522   3.908
  610SOL    HW2 2730   5.412   2.526   3.959
  611SOL     OW 2731   0.277   0.240   0.596
  611SOL    HW1 2732   0.365   0.253   0.642
  611SOL    HW2 2733   0.255   0.323   0.544
  612SOL     OW 2734   2.679   5.152   6.073
  612SOL    HW1 2735   2.616   5.078   6.096
  612SOL    HW2 2736   2.676   5.222   6.145
  613SOL     OW 2737   3.692   1.676   6.846
  613SOL    HW1 2738   3.776   1.627   6.871
  613SOL    HW2 2739   3.616   1.640   6.899
  614SOL     OW 2740   5.593   4.592   1.255
  614SOL    HW1 2741   5.636   4.506   1.282
  614SOL    HW2 2742   5.516   4.612   1.316
  615SOL     OW 2743   0.005   6.555   0.934
  615SOL    HW1 2744   0.002   6.539   0.836
  615SOL    HW2 2745   0.080   6.617   0.956
  616SOL     OW 2746   5.526   1.126   4.308
  616SOL    HW1 2747   5.607   1.091   4.261
  616SOL    HW2 2748   5.491   1.206   4.259
  617SOL     OW 2749   0.524   4.748   5.880
  617SOL    HW1 2750   0.585   4.711   5.810
  617SOL    HW2 2751   0.444   4.790   5.838
  618SOL     OW 2752   5.919   3.357   0.592
  618SOL    HW1 2753   5.850   3.287   0.610
  618SOL    HW2 2754   5.874   3.440   0.559
  619SOL     OW 2755   2.668   0.239   0.910
  619SOL    HW1 2756   2.694   0.282   0.823
  619SOL    HW2 2757   2.647   0.143   0.893
  620SOL     OW 2758   5.786   1.636   2.045
  620SOL    HW1 2759   5.754   1.541   2.042
  620SOL    HW2 2760   5.788   1.673   1.952
  621SOL     OW 2761   3.691   0.799   6.360
  621SOL    HW1 2762   3.690   0.848   6.273
  621SOL    HW2 2763   3.650   0.709   6.349
  622SOL     OW 2764   1.193   1.832   5.111
  622SOL    HW1 2765   1.157   1.785   5.031
  622SOL    HW2 2766   1.290   1.853   5.096
  623SOL     OW 2767   5.900   6.631   3.820
  623SOL    HW1 2768   5.812   6.674   3.797
  623SOL    HW2 2769   5.967   6.656   3.750
  624SOL     OW 2770   6.679   0.542   6.495
  624SOL    HW1 2771   6.746   0.596   6.443
  624SOL    HW2 2772   6.662   0.585   6.583
  625SOL     OW 2773   2.491   0.907   0.129
  625SOL    HW1 2774   2.451   0.885   0.218
  625SOL    HW2 2775   2.558   0.980   0.139
  626SOL     OW 2776   0.638   4.921   3.704
  626SOL    HW1 2777   0.731   4.925   3.740
  626SOL    HW2 2778   0.631   4.980   3.624
  627SOL     OW 2779   6.632   0.318   6.954
  627SOL    HW1 2780   6.692   0.238   6.960
  627SOL    HW2 2781   6.653   0.382   0.003
  628SOL     OW 2782   5.008   5.033   5.439
  628SOL    HW1 2783   5.017   5.037   5.340
  628SOL    HW2 2784   5.048   4.947   5.472
  629SOL     OW 2785   0.129   7.005   5.979
  629SOL    HW1 2786   0.101   0.010   6.071
  629SOL    HW2 2787   0.047   6.998   5.921
  630SOL     OW 2788   6.515   1.198   1.028
  630SOL    HW1 2789   6.445   1.128   1.021
  630SOL    HW2 2790   6.592   1.174   0.968
  631SOL     OW 2791   2.013   2.491   5.023
  631SOL    HW1 2792   1.985   2.554   4.950
  631SOL    HW2 2793   1.946   2.495   5.097
  632SOL     OW 2794   2.862   3.152   0.094
  632SOL    HW1 2795   2.944   3.172   0.148
  632SOL    HW2 2796   2.880   3.168   7.021
  633SOL     OW 2797   2.039   5.808   1.741
  633SOL    HW1 2798   2.091   5.722   1.735
  633SOL    HW2 2799   1.983   5.818   1.658
  634SOL     OW 2800   3.085   3.211   4.100
  634SOL    HW1 2801   3.034   3.291   4.132
  634SOL    HW2 2802   3.053   3.184   4.009
  635SOL     OW 2803   5.909   0.726   6.343
  635SOL    HW1 2804   5.838   0.656   6.343
  635SOL    HW2 2805   5.875   0.807   6.295
  636SOL     OW 2806   2.548   0.741   6.590
  636SOL    HW1 2807   2.481   0.815   6.581
  636SOL    HW2 2808   2.636   0.772   6.556
  637SOL     OW 2809   6.518   1.146   1.427
  637SOL    HW1 2810   6.434   1.096   1.407
  637SOL    HW2 2811   6.524   1.226   1.368
  638SOL     OW 2812   6.561   3.460   4.037
  638SOL    HW1 2813   6.503   3.541   4.049
  638SOL    HW2 2814   6.547   3.397   4.113
  639SOL     OW 2815   5.024   4.689   3.200
  639SOL    HW1 2816   5.105   4.633   3.188
  639SOL    HW2 2817   4.949   4.653   3.144
  640SOL     OW 2818   1.055   2.295   2.248
  640SOL    HW1 2819   1.005   2.210   2.261
  640SOL    HW2 2820   0.992   2.367   2.220
  641SOL     OW 2821   1.927   5.001   4.711
  641SOL    HW1 2822   1.965   4.966   4.625
  641SOL    HW2 2823   1.909   5.099   4.702
  642SOL     OW 2824   0.823   4.005   5.162
  642SOL    HW1 2825   0.727   3.997   5.189
  642SOL    HW2 2826   0.829   4.011   5.062
  643SOL     OW 2827   4.936   4.879   6.478
  643SOL    HW1 2828   4.923   4.795   6.424
  643SOL    HW2 2829   4.894   4.956   6.430
  644SOL     OW 2830   6.447   6.927   4.573
  644SOL    HW1 2831   6.419   6.908   4.667
  644SOL    HW2 2832   6.542   6.898   4.560
  645SOL     OW 2833   4.358   4.713   2.304
  645SOL    HW1 2834   4.349   4.673   2.395
  645SOL    HW2 2835   4.275   4.766   2.282
  646SOL     OW 2836   4.190   0.660   5.486
  646SOL    HW1 2837   4.272   0.634   5.435
  646SOL    HW2 2838   4.111   0.656   5.425
  647SOL     OW 2839   4.580   2.334   5.287
  647SOL    HW1 2840   4.498   2.384   5.263
  647SOL    HW2 2841   4.621   2.374   5.369
  648SOL     OW 2842   5.755   2.152   3.314
  648SOL    HW1 2843   5.667   2.118   3.282
  648SOL    HW2 2844   5.824   2.081   3.303
  649SOL     OW 2845   1.882   5.078   0.770
  649SOL    HW1 2846   1.795   5.098   0.816
  649SOL    HW2 2847   1.940   5.160   0.774
  650SOL     OW 2848   6.708   5.196   1.125
  650SOL    HW1 2849   6.649   5.210   1.204
  650SOL    HW2 2850   6.792   5.249   1.136
  651SOL     OW 2851   1.495   0.040   4.814
  651SOL    HW1 2852   1.503   0.131   4.773
  651SOL    HW2 2853   1.585   7.020   4.817
  652SOL     OW 2854   3.549   6.504   1.734
  652SOL    HW1 2855   3.541   6.588   1.787
  652SOL    HW2 2856   3.511   6.427   1.787
  653SOL     OW 2857   1.154   6.233   1.915
  653SOL    HW1 2858   1.171   6.328   1.942
  653SOL    HW2 2859   1.062   6.225   1.878
  654SOL     OW 2860   0.010   6.787   4.706
  654SOL    HW1 2861   7.013   6.729   4.786
  654SOL    HW2 2862   0.015   6.729   4.624
  655SOL     OW 2863   6.984   4.813   2.085
  655SOL    HW1 2864   6.907   4.872   2.060
  655SOL    HW2 2865   0.026   4.812   2.010
  656SOL     OW 2866   3.777   6.669   0.362
  656SOL    HW1 2867   3.829   6.715   0.435
  656SOL    HW2 2868   3.683   6.655   0.392
  657SOL     OW 2869   3.661   2.973   1.982
  657SOL    HW1 2870   3.631   3.068   1.993
  657SOL    HW2 2871   3.584   2.918   1.950
  658SOL     OW 2872   2.126   3.685   4.080
  658SOL    HW1 2873   2.028   3.696   4.062
  658SOL    HW2 2874   2.178   3.736   4.012
  659SOL     OW 2875   2.142   6.676   5.679
  659SOL    HW1 2876   2.077   6.601   5.670
  659SOL    HW2 2877   2.235   6.641   5.672
  660SOL     OW 2878   4.664   4.352   2.363
  660SOL    HW1 2879   4.700   4.444   2.346
  660SOL    HW2 2880   4.702   4.288   2.296
  661SOL     OW 2881   4.392   4.650   4.387
  661SOL    HW1 2882   4.314   4.693   4.342
  661SOL    HW2 2883   4.379   4.653   4.486
  662SOL     OW 2884   4.813   3.049   0.271
  662SOL    HW1 2885   4.770   2.971   0.224
  662SOL    HW2 2886   4.746   3.123   0.281
  663SOL     OW 2887   0.438   4.535   0.530
  663SOL    HW1 2888   0.532   4.501   0.539
  663SOL    HW2 2889   0.439   4.621   0.478
  664SOL     OW 2890   1.709   7.000   0.020
  664SOL    HW1 2891   1.687   6.917   6.992
  664SOL    HW2 2892   1.718   0.053   6.980
  665SOL     OW 2893   4.402   5.780   0.832
  665SOL    HW1 2894   4.423   5.726   0.913
  665SOL    HW2 2895   4.316   5.830   0.846
  666SOL     OW 2896   3.831   2.086   0.100
  666SOL    HW1 2897   3.771   2.011   0.130
  666SOL    HW2 2898   3.842   2.151   0.175
  667SOL     OW 2899   0.832   3.149   2.801
  667SOL    HW1 2900   0.891   3.227   2.781
  667SOL    HW2 2901   0.885   3.079   2.849
  668SOL     OW 2902   4.947   6.904   0.773
  668SOL    HW1 2903   5.002   6.832   0.730
  668SOL    HW2 2904   4.964   6.991   0.727
  669SOL     OW 2905   1.801   5.842   3.198
  669SOL    HW1 2906   1.811   5.905   3.275
  669SOL    HW2 2907   1.818   5.892   3.113
  670SOL     OW 2908   3.134   3.499   3.795
  670SOL    HW1 2909   3.126   3.541   3.704
  670SOL    HW2 2910   3.231   3.485   3.817
  671SOL     OW 2911   2.046   0.062   5.701
  671SOL    HW1 2912   2.049   0.130   5.774
  671SOL    HW2 2913   2.009   7.000   5.737
  672SOL     OW 2914   2.179   3.404   3.994
  672SOL    HW1 2915   2.160   3.329   4.057
  672SOL    HW2 2916   2.174   3.491   4.043
  673SOL     OW 2917   5.371   0.557   0.752
  673SOL    HW1 2918   5.350   0.603   0.666
  673SOL    HW2 2919   5.403   0.464   0.733
  674SOL     OW 2920   0.404   1.403   3.772
  674SOL    HW1 2921   0.498   1.421   3.744
  674SOL    HW2 2922   0.367   1.484   3.818
  675SOL     OW 2923   6.890   2.669   4.658
  675SOL    HW1 2924   6.831   2.589   4.652
  675SOL    HW2 2925   6.938   2.669   4.746
  676SOL     OW 2926   1.800   4.722   4.326
  676SOL    HW1 2927   1.890   4.759   4.349
  676SOL    HW2 2928   1.759   4.680   4.407
  677SOL     OW 2929   6.328   0.441   0.792
  677SOL    HW1 2930   6.377   0.391   0.863
  677SOL    HW2 2931   6.349   0.538   0.798
  678SOL     OW 2932   2.814   1.113   6.174
  678SOL    HW1 2933   2.742   1.053   6.210
  678SOL    HW2 2934   2.847   1.077   6.086
  679SOL     OW 2935   4.475   0.122   2.480
  679SOL    HW1 2936   4.455   0.193   2.412
  679SOL    HW2 2937   4.436   0.035   2.451
  680SOL     OW 2938   4.673   4.432   6.166
  680SOL    HW1 2939   4.689   4.424   6.265
  680SOL    HW2 2940   4.578   4.410   6.145
  681SOL     OW 2941   0.728   6.770   1.439
  681SOL    HW1 2942   0.639   6.734   1.468
  681SOL    HW2 2943   0.745   6.858   1.483
  682SOL     OW 2944   1.947   6.074   6.831
  682SOL    HW1 2945   1.936   6.078   6.731
  682SOL    HW2 2946   2.044   6.063   6.852
  683SOL     OW 2947   4.557   1.734   0.292
  683SOL    HW1 2948   4.458   1.742   0.297
  683SOL    HW2 2949   4.588   1.660   0.353
  684SOL     OW 2950   0.196   5.586   6.335
  684SOL    HW1 2951   0.170   5.529   6.413
  684SOL    HW2 2952   0.203   5.681   6.364
  685SOL     OW 2953   5.526   0.306   5.654
  685SOL    HW1 2954   5.549   0.363   5.575
  685SOL    HW2 2955   5.610   0.272   5.696
  686SOL     OW 2956   5.201   4.570   2.879
  686SOL    HW1 2957   5.113   4.523   2.888
  686SOL    HW2 2958   5.274   4.503   2.867
  687SOL     OW 2959   7.022   3.628   6.101
  687SOL    HW1 2960   6.943   3.666   6.148
  687SOL    HW2 2961   0.044   3.700   6.048
  688SOL     OW 2962   0.345   4.343   5.970
  688SOL    HW1 2963   0.430   4.377   6.012
  688SOL    HW2 2964   0.284   4.420   5.952
  689SOL     OW 2965   6.422   3.852   5.871
  689SOL    HW1 2966   6.419   3.809   5.781
  689SOL    HW2 2967   6.424   3.781   5.942
  690SOL     OW 2968   1.502   2.405   3.391
  690SOL    HW1 2969   1.574   2.345   3.355
  690SOL    HW2 2970   1.417   2.389   3.342
  691SOL     OW 2971   0.995   2.596   6.571
  691SOL    HW1 2972   1.022   2.647   6.488
  691SOL    HW2 2973   0.897   2.577   6.567
  692SOL     OW 2974   2.756   0.171   2.740
  692SOL    HW1 2975   2.690   0.244   2.724
  692SOL    HW2 2976   2.734   0.126   2.827
  693SOL     OW 2977   6.914   2.340   2.241
  693SOL    HW1 2978   6.875   2.313   2.153
  693SOL    HW2 2979   6.867   2.290   2.314
  694SOL     OW 2980   2.058   6.696   1.096
  694SOL    HW1 2981   2.004   6.739   1.024
  694SOL    HW2 2982   1.999   6.636   1.151
  695SOL     OW 2983   4.970   6.165   5.320
  695SOL    HW1 2984   5.044   6.229   5.296
  695SOL    HW2 2985   4.882   6.211   5.309
  696SOL     OW 2986   4.342   4.666   2.602
  696SOL    HW1 2987   4.264   4.666   2.666
  696SOL    HW2 2988   4.417   4.720   2.641
  697SOL     OW 2989   0.985   4.211   4.331
  697SOL    HW1 2990   0.932   4.127   4.339
  697SOL    HW2 2991   0.962   4.273   4.406
  698SOL     OW 2992   4.679   0.339   3.254
  698SOL    HW1 2993   4.686   0.368   3.158
  698SOL    HW2 2994   4.604   0.274   3.264
  699SOL     OW 2995   1.705   4.137   0.907
  699SOL    HW1 2996   1.714   4.179   0.997
  699SOL    HW2 2997   1.784   4.162   0.851
  700SOL     OW 2998   2.808   2.295   4.454
  700SOL    HW1 2999   2.856   2.214   4.488
  700SOL    HW2 3000   2.839   2.315   4.361
  701SOL     OW 3001   0.366   3.732   6.173
  701SOL    HW1 3002   0.343   3.701   6.081
  701SOL    HW2 3003   0.433   3.806   6.168
  702SOL     OW 3004   5.192   6.351   4.275
  702SOL    HW1 3005   5.119   6.351   4.207
  702SOL    HW2 3006   5.156   6.385   4.362
  703SOL     OW 3007   3.822   3.889   6.862
  703SOL    HW1 3008   3.863   3.855   6.777
  703SOL    HW2 3009   3.893   3.901   6.931
  704SOL     OW 3010   1.627   0.205   6.841
  704SOL    HW1 3011   1.637   0.304   6.850
  704SOL    HW2 3012   1.706   0.168   6.793
  705SOL     OW 3013   5.910   1.802   2.205
  705SOL    HW1 3014   5.853   1.751   2.141
  705SOL    HW2 3015   5.923   1.895   2.171
  706SOL     OW 3016   3.974   1.856   3.667
  706SOL    HW1 3017   4.035   1.817   3.736
  706SOL    HW2 3018   4.022   1.927   3.616
  707SOL     OW 3019   4.808   0.630   1.367
  707SOL    HW1 3020   4.770   0.666   1.282
  707SOL    HW2 3021   4.893   0.581   1.347
  708SOL     OW 3022   4.008   0.936   1.514
  708SOL    HW1 3023   4.047   0.988   1.590
  708SOL    HW2 3024   4.082   0.903   1.455
  709SOL     OW 3025   1.085   4.721   0.488
  709SOL    HW1 3026   1.076   4.622   0.493
  709SOL    HW2 3027   1.123   4.746   0.399
  710SOL     OW 3028   3.047   3.908   2.815
  710SOL    HW1 3029   3.078   3.826   2.766
  710SOL    HW2 3030   3.104   3.986   2.789
  711SOL     OW 3031   6.726   1.169   4.557
  711SOL    HW1 3032   6.683   1.234   4.495
  711SOL    HW2 3033   6.674   1.164   4.643
  712SOL     OW 3034   1.496   4.080   1.272
  712SOL    HW1 3035   1.397   4.072   1.280
  712SOL    HW2 3036   1.533   4.001   1.224
  713SOL     OW 3037   3.868   3.279   2.655
  713SOL    HW1 3038   3.931   3.202   2.641
  713SOL    HW2 3039   3.807   3.259   2.731
  714SOL     OW 3040   5.075   4.841   4.980
  714SOL    HW1 3041   5.082   4.750   5.022
  714SOL    HW2 3042   5.032   4.904   5.044
  715SOL     OW 3043   4.366   0.055   6.237
  715SOL    HW1 3044   4.434   0.102   6.293
  715SOL    HW2 3045   4.283   0.040   6.290
  716SOL     OW 3046   0.275   4.631   1.274
  716SOL    HW1 3047   0.243   4.572   1.348
  716SOL    HW2 3048   0.368   4.662   1.294
  717SOL     OW 3049   6.128   2.816   0.582
  717SOL    HW1 3050   6.167   2.850   0.496
  717SOL    HW2 3051   6.200   2.774   0.637
  718SOL     OW 3052   3.502   3.642   6.049
  718SOL    HW1 3053   3.592   3.683   6.033
  718SOL    HW2 3054   3.500   3.550   6.009
  719SOL     OW 3055   6.177   4.347   0.916
  719SOL    HW1 3056   6.127   4.381   0.996
  719SOL    HW2 3057   6.144   4.255   0.893
  720SOL     OW 3058   2.283   1.693   6.285
  720SOL    HW1 3059   2.268   1.783   6.244
  720SOL    HW2 3060   2.372   1.692   6.331
  721SOL     OW 3061   1.520   0.074   5.892
  721SOL    HW1 3062   1.617   0.075   5.915
  721SOL    HW2 3063   1.483   0.167   5.900
  722SOL     OW 3064   3.977   0.199   4.857
  722SOL    HW1 3065   4.053   0.148   4.817
  722SOL    HW2 3066   3.935   0.256   4.787
  723SOL     OW 3067   1.232   2.862   2.249
  723SOL    HW1 3068   1.330   2.857   2.269
  723SOL    HW2 3069   1.204   2.781   2.199
  724SOL     OW 3070   0.196   0.686   4.450
  724SOL    HW1 3071   0.159   0.776   4.471
  724SOL    HW2 3072   0.215   0.637   4.535
  725SOL     OW 3073   1.762   4.771   2.462
  725SOL    HW1 3074   1.786   4.836   2.390
  725SOL    HW2 3075   1.790   4.679   2.434
  726SOL     OW 3076   3.871   0.193   6.917
  726SOL    HW1 3077   3.965   0.178   6.949
  726SOL    HW2 3078   3.809   0.131   6.966
  727SOL     OW 3079   2.872   5.119   3.838
  727SOL    HW1 3080   2.943   5.189   3.843
  727SOL    HW2 3081   2.892   5.057   3.763
  728SOL     OW 3082   6.634   4.130   4.860
  728SOL    HW1 3083   6.728   4.144   4.829
  728SOL    HW2 3084   6.626   4.160   4.955
  729SOL     OW 3085   2.639   0.623   1.461
  729SOL    HW1 3086   2.562   0.667   1.415
  729SOL    HW2 3087   2.618   0.611   1.558
  730SOL     OW 3088   6.420   0.416   3.258
  730SOL    HW1 3089   6.341   0.397   3.317
  730SOL    HW2 3090   6.480   0.482   3.303
  731SOL     OW 3091   5.774   3.792   4.716
  731SOL    HW1 3092   5.868   3.817   4.738
  731SOL    HW2 3093   5.720   3.790   4.800
  732SOL     OW 3094   6.812   3.111   1.066
  732SOL    HW1 3095   6.750   3.091   1.142
  732SOL    HW2 3096   6.816   3.033   1.004
  733SOL     OW 3097   4.784   4.274   3.858
  733SOL    HW1 3098   4.780   4.214   3.938
  733SOL    HW2 3099   4.774   4.369   3.887
  734SOL     OW 3100   6.649   4.359   1.073
  734SOL    HW1 3101   6.585   4.417   1.023
  734SOL    HW2 3102   6.696   4.414   1.142
  735SOL     OW 3103   2.076   4.327   6.371
  735SOL    HW1 3104   2.046   4.374   6.287
  735SOL    HW2 3105   2.173   4.345   6.386
  736SOL     OW 3106   6.786   0.666   3.532
  736SOL    HW1 3107   6.766   0.739   3.597
  736SOL    HW2 3108   6.883   0.670   3.506
  737SOL     OW 3109   5.019   3.693   0.852
  737SOL    HW1 3110   4.963   3.635   0.911
  737SOL    HW2 3111   5.014   3.660   0.758
  738SOL     OW 3112   0.077   3.919   3.893
  738SOL    HW1 3113   0.090   3.846   3.960
  738SOL    HW2 3114   0.161   3.932   3.841
  739SOL     OW 3115   4.308   5.959   6.002
  739SOL    HW1 3116   4.346   6.052   5.999
  739SOL    HW2 3117   4.322   5.921   6.093
  740SOL     OW 3118   6.659   6.780   1.658
  740SOL    HW1 3119   6.562   6.764   1.677
  740SOL    HW2 3120   6.680   6.755   1.563
  741SOL     OW 3121   1.844   6.437   3.043
  741SOL    HW1 3122   1.875   6.388   2.961
  741SOL    HW2 3123   1.860   6.380   3.124
  742SOL     OW 3124   1.636   6.635   3.480
  742SOL    HW1 3125   1.553   6.589   3.446
  742SOL    HW2 3126   1.610   6.700   3.551
  743SOL     OW 3127   1.896   3.788   3.923
  743SOL    HW1 3128   1.836   3.708   3.919
  743SOL    HW2 3129   1.859   3.860   3.864
  744SOL     OW 3130   0.287   5.652   0.341
  744SOL    HW1 3131   0.294   5.592   0.421
  744SOL    HW2 3132   0.244   5.603   0.266
  745SOL     OW 3133   1.871   5.706   2.631
  745SOL    HW1 3134   1.913   5.621   2.599
  745SOL    HW2 3135   1.915   5.735   2.716
  746SOL     OW 3136   1.416   0.398   4.828
  746SOL    HW1 3137   1.378   0.330   4.891
  746SOL    HW2 3138   1.453   0.475   4.881
  747SOL     OW 3139   4.486   4.975   3.586
  747SOL    HW1 3140   4.461   5.056   3.639
  747SOL    HW2 3141   4.574   4.940   3.618
  748SOL     OW 3142   4.283   3.795   1.061
  748SOL    HW1 3143   4.190   3.774   1.092
  748SOL    HW2 3144   4.293   3.770   0.965
  749SOL     OW 3145   0.280   2.495   5.215
  749SOL    HW1 3146   0.196   2.453   5.249
  749SOL    HW2 3147   0.352   2.484   5.283
  750SOL     OW 3148   1.905   3.589   0.100
  750SOL    HW1 3149   1.972   3.516   0.087
  750SOL    HW2 3150   1.846   3.595   0.020
  751SOL     OW 3151   4.532   0.969   0.123
  751SOL    HW1 3152   4.457   1.021   0.164
  751SOL    HW2 3153   4.584   1.028   0.062
  752SOL     OW 3154   4.336   2.171   2.170
  752SOL    HW1 3155   4.312   2.216   2.084
  752SOL    HW2 3156   4.429   2.135   2.164
  753SOL     OW 3157   2.086   2.888   4.669
  753SOL    HW1 3158   2.062   2.830   4.591
  753SOL    HW2 3159   2.115   2.978   4.637
  754SOL     OW 3160   4.025   4.934   6.664
  754SOL    HW1 3161   4.111   4.885   6.659
  754SOL    HW2 3162   3.950   4.869   6.677
  755SOL     OW 3163   0.738   5.991   0.318
  755SOL    HW1 3164   0.681   6.054   0.266
  755SOL    HW2 3165   0.679   5.925   0.365
  756SOL     OW 3166   4.810   0.777   1.599
  756SOL    HW1 3167   4.804   0.717   1.520
  756SOL    HW2 3168   4.839   0.724   1.679
  757SOL     OW 3169   0.235   6.643   3.375
  757SOL    HW1 3170   0.176   6.573   3.416
  757SOL    HW2 3171   0.195   6.733   3.389
  758SOL     OW 3172   3.608   2.248   1.164
  758SOL    HW1 3173   3.694   2.301   1.163
  758SOL    HW2 3174   3.621   2.165   1.218
  759SOL     OW 3175   0.883   1.975   0.238
  759SOL    HW1 3176   0.968   2.024   0.217
  759SOL    HW2 3177   0.876   1.961   0.336
  760SOL     OW 3178   5.326   1.188   6.876
  760SOL    HW1 3179   5.373   1.273   6.902
  760SOL    HW2 3180   5.264   1.161   6.949
  761SOL     OW 3181   6.293   2.458   0.094
  761SOL    HW1 3182   6.248   2.407   0.021
  761SOL    HW2 3183   6.361   2.519   0.054
  762SOL     OW 3184   2.362   6.182   3.656
  762SOL    HW1 3185   2.449   6.203   3.701
  762SOL    HW2 3186   2.291   6.168   3.725
  763SOL     OW 3187   4.189   5.831   6.668
  763SOL    HW1 3188   4.135   5.911   6.693
  763SOL    HW2 3189   4.150   5.750   6.712
  764SOL     OW 3190   3.441   1.781   1.887
  764SOL    HW1 3191   3.500   1.748   1.814
  764SOL    HW2 3192   3.494   1.839   1.949
  765SOL     OW 3193   0.027   6.959   2.641
  765SOL    HW1 3194   0.108   6.972   2.699
  765SOL    HW2 3195   6.977   6.920   2.696
  766SOL     OW 3196   0.212   6.637   6.978
  766SOL    HW1 3197   0.138   6.583   6.938
  766SOL    HW2 3198   0.299   6.590   6.964
  767SOL     OW 3199   6.338   6.379   2.466
  767SOL    HW1 3200   6.314   6.473   2.441
  767SOL    HW2 3201   6.325   6.320   2.387
  768SOL     OW 3202   2.799   6.661   2.936
  768SOL    HW1 3203   2.766   6.733   2.996
  768SOL    HW2 3204   2.899   6.665   2.930
  769SOL     OW 3205   4.589   0.343   5.175
  769SOL    HW1 3206   4.665   0.287   5.144
  769SOL    HW2 3207   4.621   0.436   5.194
  770SOL     OW 3208   3.125   4.874   3.781
  770SOL    HW1 3209   3.223   4.881   3.765
  770SOL    HW2 3210   3.106   4.891   3.878
  771SOL     OW 3211   1.308   5.072   3.301
  771SOL    HW1 3212   1.324   5.081   3.203
  771SOL    HW2 3213   1.294   4.976   3.325
  772SOL     OW 3214   6.653   4.273   6.743
  772SOL    HW1 3215   6.555   4.291   6.749
  772SOL    HW2 3216   6.668   4.174   6.743
  773SOL     OW 3217   6.724   4.319   2.655
  773SOL    HW1 3218   6.683   4.387   2.594
  773SOL    HW2 3219   6.801   4.360   2.704
  774SOL     OW 3220   1.533   1.578   1.717
  774SOL    HW1 3221   1.552   1.501   1.656
  774SOL    HW2 3222   1.610   1.642   1.714
  775SOL     OW 3223   1.372   2.038   4.424
  775SOL    HW1 3224   1.361   2.062   4.521
  775SOL    HW2 3225   1.367   1.938   4.415
  776SOL     OW 3226   2.006   0.469   6.188
  776SOL    HW1 3227   2.052   0.416   6.117
  776SOL    HW2 3228   1.921   0.422   6.215
  777SOL     OW 3229   4.446   0.952   1.046
  777SOL    HW1 3230   4.522   0.973   1.108
  777SOL    HW2 3231   4.448   0.855   1.021
  778SOL     OW 3232   4.304   0.568   3.754
  778SOL    HW1 3233   4.297   0.648   3.695
  778SOL    HW2 3234   4.226   0.507   3.737
  779SOL     OW 3235   0.864   2.489   2.159
  779SOL    HW1 3236   0.865   2.528   2.067
  779SOL    HW2 3237   0.866   2.563   2.226
  780SOL     OW 3238   5.962   3.049   4.336
  780SOL    HW1 3239   6.041   3.090   4.382
  780SOL    HW2 3240   5.952   3.089   4.245
  781SOL     OW 3241   6.629   1.040   5.958
  781SOL    HW1 3242   6.695   1.081   6.021
  781SOL    HW2 3243   6.656   1.060   5.864
  782SOL     OW 3244   0.511   3.047   1.008
  782SOL    HW1 3245   0.509   3.024   0.911
  782SOL    HW2 3246   0.429   3.099   1.031
  783SOL     OW 3247   3.251   5.409   0.476
  783SOL    HW1 3248   3.254   5.502   0.439
  783SOL    HW2 3249   3.271   5.411   0.574
  784SOL     OW 3250   3.792   1.155   5.066
  784SOL    HW1 3251   3.874   1.199   5.104
  784SOL    HW2 3252   3.788   1.171   4.967
  785SOL     OW 3253   6.257   1.372   3.134
  785SOL    HW1 3254   6.282   1.290   3.082
  785SOL    HW2 3255   6.169   1.407   3.100
  786SOL     OW 3256   0.190   6.682   0.210
  786SOL    HW1 3257   0.185   6.678   0.111
  786SOL    HW2 3258   0.281   6.714   0.238
  787SOL     OW 3259   2.787   2.124   6.485
  787SOL    HW1 3260   2.843   2.138   6.403
  787SOL    HW2 3261   2.739   2.036   6.478
  788SOL     OW 3262   1.898   3.493   4.420
  788SOL    HW1 3263   1.952   3.477   4.503
  788SOL    HW2 3264   1.816   3.437   4.422
  789SOL     OW 3265   5.272   3.932   1.436
  789SOL    HW1 3266   5.353   3.938   1.378
  789SOL    HW2 3267   5.241   3.837   1.441
  790SOL     OW 3268   2.963   1.364   3.459
  790SOL    HW1 3269   3.004   1.285   3.411
  790SOL    HW2 3270   2.889   1.332   3.518
  791SOL     OW 3271   3.468   1.378   5.121
  791SOL    HW1 3272   3.472   1.281   5.144
  791SOL    HW2 3273   3.558   1.409   5.091
  792SOL     OW 3274   5.820   0.521   2.397
  792SOL    HW1 3275   5.749   0.455   2.376
  792SOL    HW2 3276   5.796   0.610   2.360
  793SOL     OW 3277   5.424   0.283   0.717
  793SOL    HW1 3278   5.402   0.198   0.765
  793SOL    HW2 3279   5.499   0.268   0.653
  794SOL     OW 3280   2.604   4.630   5.854
  794SOL    HW1 3281   2.587   4.718   5.809
  794SOL    HW2 3282   2.518   4.592   5.887
  795SOL     OW 3283   4.099   4.944   5.922
  795SOL    HW1 3284   4.028   4.955   5.992
  795SOL    HW2 3285   4.103   4.848   5.894
  796SOL     OW 3286   6.727   2.909   6.083
  796SOL    HW1 3287   6.672   2.952   6.012
  796SOL    HW2 3288   6.816   2.954   6.088
  797SOL     OW 3289   5.820   2.768   3.837
  797SOL    HW1 3290   5.786   2.682   3.799
  797SOL    HW2 3291   5.893   2.748   3.903
  798SOL     OW 3292   5.291   0.575   0.247
  798SOL    HW1 3293   5.374   0.519   0.245
  798SOL    HW2 3294   5.214   0.521   0.213
  799SOL     OW 3295   6.500   1.811   3.233
  799SOL    HW1 3296   6.573   1.805   3.301
  799SOL    HW2 3297   6.460   1.903   3.235
  800SOL     OW 3298   5.280   1.116   2.418
  800SOL    HW1 3299   5.193   1.122   2.370
  800SOL    HW2 3300   5.268   1.145   2.513
  801SOL     OW 3301   0.358   2.134   3.218
  801SOL    HW1 3302   0.308   2.112   3.301
  801SOL    HW2 3303   0.333   2.225   3.186
  802SOL     OW 3304   5.371   1.291   0.234
  802SOL    HW1 3305   5.272   1.282   0.227
  802SOL    HW2 3306   5.393   1.372   0.289
  803SOL     OW 3307   6.225   5.334   4.096
  803SOL    HW1 3308   6.214   5.245   4.053
  803SOL    HW2 3309   6.199   5.328   4.192
  804SOL     OW 3310   0.573   6.785   0.187
  804SOL    HW1 3311   0.501   6.760   0.252
  804SOL    HW2 3312   0.661   6.787   0.234
  805SOL     OW 3313   3.253   3.124   6.005
  805SOL    HW1 3314   3.347   3.149   6.030
  805SOL    HW2 3315   3.232   3.158   5.913
  806SOL     OW 3316   5.049   1.976   6.920
  806SOL    HW1 3317   4.995   1.913   6.864
  806SOL    HW2 3318   4.996   2.005   6.999
  807SOL     OW 3319   0.998   0.735   3.086
  807SOL    HW1 3320   0.981   0.653   3.032
  807SOL    HW2 3321   1.074   0.786   3.046
  808SOL     OW 3322   5.380   2.894   6.036
  808SOL    HW1 3323   5.369   2.795   6.034
  808SOL    HW2 3324   5.456   2.921   5.977
  809SOL     OW 3325   0.708   4.514   0.269
  809SOL    HW1 3326   0.701   4.577   0.347
  809SOL    HW2 3327   0.797   4.468   0.271
  810SOL     OW 3328   5.375   3.922   0.133
  810SOL    HW1 3329   5.290   3.874   0.154
  810SOL    HW2 3330   5.380   4.006   0.187
  811SOL     OW 3331   5.284   4.898   4.024
  811SOL    HW1 3332   5.270   4.984   3.974
  811SOL    HW2 3333   5.219   4.893   4.100
  812SOL     OW 3334   0.239   0.016   1.370
  812SOL    HW1 3335   0.223   0.073   1.450
  812SOL    HW2 3336   0.199   0.060   1.289
  813SOL     OW 3337   4.611   5.417   2.677
  813SOL    HW1 3338   4.526   5.437   2.628
  813SOL    HW2 3339   4.684   5.400   2.610
  814SOL     OW 3340   5.752   6.495   1.717
  814SOL    HW1 3341   5.724   6.560   1.647
  814SOL    HW2 3342   5.792   6.544   1.794
  815SOL     OW 3343   6.756   2.344   0.820
  815SOL    HW1 3344   6.812   2.425   0.800
  815SOL    HW2 3345   6.692   2.328   0.745
  816SOL     OW 3346   6.803   6.258   0.797
  816SOL    HW1 3347   6.842   6.273   0.888
  816SOL    HW2 3348   6.769   6.345   0.761
  817SOL     OW 3349   1.812   3.489   2.110
  817SOL    HW1 3350   1.725   3.442   2.125
  817SOL    HW2 3351   1.854   3.454   2.026
  818SOL     OW 3352   6.148   1.891   0.765
  818SOL    HW1 3353   6.106   1.920   0.679
  818SOL    HW2 3354   6.229   1.835   0.745
  819SOL     OW 3355   6.883   2.192   3.020
  819SOL    HW1 3356   6.978   2.221   3.028
  819SOL    HW2 3357   6.823   2.264   3.053
  820SOL     OW 3358   0.585   2.459   4.364
  820SOL    HW1 3359   0.544   2.528   4.305
  820SOL    HW2 3360   0.631   2.504   4.441
  821SOL     OW 3361   1.325   3.897   0.184
  821SOL    HW1 3362   1.288   3.887   0.091
  821SOL    HW2 3363   1.286   3.826   0.243
  822SOL     OW 3364   0.900   4.374   4.563
  822SOL    HW1 3365   0.821   4.319   4.537
  822SOL    HW2 3366   0.956   4.323   4.628
  823SOL     OW 3367   4.447   3.789   6.947
  823SOL    HW1 3368   4.490   3.706   6.983
  823SOL    HW2 3369   4.429   3.778   6.849
  824SOL     OW 3370   4.789   2.800   5.383
  824SOL    HW1 3371   4.743   2.886   5.362
  824SOL    HW2 3372   4.796   2.789   5.483
  825SOL     OW 3373   2.064   3.348   2.409
  825SOL    HW1 3374   2.099   3.281   2.343
  825SOL    HW2 3375   2.082   3.440   2.375
  826SOL     OW 3376   6.118   3.125   6.657
  826SOL    HW1 3377   6.123   3.219   6.690
  826SOL    HW2 3378   6.073   3.123   6.568
  827SOL     OW 3379   3.609   5.922   0.189
  827SOL    HW1 3380   3.562   5.835   0.172
  827SOL    HW2 3381   3.708   5.909   0.183
  828SOL     OW 3382   5.783   0.861   5.203
  828SOL    HW1 3383   5.705   0.880   5.261
  828SOL    HW2 3384   5.867   0.861   5.258
  829SOL     OW 3385   3.083   3.016   4.324
  829SOL    HW1 3386   3.084   3.085   4.397
  829SOL    HW2 3387   3.074   3.060   4.235
  830SOL     OW 3388   4.706   3.951   5.403
  830SOL    HW1 3389   4.615   3.910   5.397
  830SOL    HW2 3390   4.704   4.042   5.361
  831SOL     OW 3391   6.044   0.760   5.047
  831SOL    HW1 3392   5.995   0.845   5.025
  831SOL    HW2 3393   6.109   0.739   4.975
  832SOL     OW 3394   2.006   2.517   6.950
  832SOL    HW1 3395   1.958   2.434   6.978
  832SOL    HW2 3396   2.104   2.505   6.968
  833SOL     OW 3397   6.281   7.001   6.763
  833SOL    HW1 3398   6.337   7.006   6.681
  833SOL    HW2 3399   6.232   0.064   6.774
  834SOL     OW 3400   2.942   3.714   4.190
  834SOL    HW1 3401   2.945   3.757   4.280
  834SOL    HW2 3402   2.953   3.783   4.119
  835SOL     OW 3403   3.070   6.581   4.131
  835SOL    HW1 3404   2.985   6.630   4.146
  835SOL    HW2 3405   3.087   6.573   4.033
  836SOL     OW 3406   3.236   0.305   0.130
  836SOL    HW1 3407   3.319   0.340   0.087
  836SOL    HW2 3408   3.260   0.247   0.207
  837SOL     OW 3409   5.069   0.487   6.087
  837SOL    HW1 3410   5.065   0.577   6.044
  837SOL    HW2 3411   5.113   0.422   6.025
  838SOL     OW 3412   2.197   5.675   4.249
  838SOL    HW1 3413   2.142   5.668   4.166
  838SOL    HW2 3414   2.289   5.641   4.231
  839SOL     OW 3415   3.062   1.518   3.252
  839SOL    HW1 3416   3.009   1.463   3.316
  839SOL    HW2 3417   3.091   1.603   3.297
  840SOL     OW 3418   1.288   1.121   7.019
  840SOL    HW1 3419   1.270   1.193   6.952
  840SOL    HW2 3420   1.265   1.032   6.980
  841SOL     OW 3421   6.911   3.647   0.207
  841SOL    HW1 3422   6.944   3.727   0.257
  841SOL    HW2 3423   6.988   3.586   0.186
  842SOL     OW 3424   3.575   4.979   3.557
  842SOL    HW1 3425   3.584   5.076   3.536
  842SOL    HW2 3426   3.664   4.934   3.549
  843SOL     OW 3427   6.318   2.265   1.891
  843SOL    HW1 3428   6.318   2.311   1.981
  843SOL    HW2 3429   6.273   2.177   1.899
  844SOL     OW 3430   4.949   5.984   0.453
  844SOL    HW1 3431   4.976   6.076   0.483
  844SOL    HW2 3432   4.890   5.942   0.522
  845SOL     OW 3433   6.898   4.608   4.475
  845SOL    HW1 3434   6.961   4.579   4.402
  845SOL    HW2 3435   6.946   4.609   4.562
  846SOL     OW 3436   6.273   1.405   6.785
  846SOL    HW1 3437   6.330   1.351   6.723
  846SOL    HW2 3438   6.179   1.407   6.749
  847SOL     OW 3439   5.400   3.439   1.596
  847SOL    HW1 3440   5.360   3.380   1.667
  847SOL    HW2 3441   5.418   3.529   1.634
  848SOL     OW 3442   6.174   0.261   6.013
  848SOL    HW1 3443   6.100   0.328   6.014
  848SOL    HW2 3444   6.259   0.305   6.041
  849SOL     OW 3445   0.393   5.263   4.749
  849SOL    HW1 3446   0.299   5.227   4.755
  849SOL    HW2 3447   0.452   5.195   4.706
  850SOL     OW 3448   4.346   1.158   2.831
  850SOL    HW1 3449   4.407   1.090   2.788
  850SOL    HW2 3450   4.401   1.228   2.877
  851SOL     OW 3451   0.912   1.154   6.870
  851SOL    HW1 3452   1.008   1.178   6.882
  851SOL    HW2 3453   0.879   1.109   6.953
  852SOL     OW 3454   2.452   3.302   6.686
  852SOL    HW1 3455   2.449   3.214   6.639
  852SOL    HW2 3456   2.528   3.302   6.751
  853SOL     OW 3457   1.065   2.957   1.743
  853SOL    HW1 3458   1.065   3.045   1.696
  853SOL    HW2 3459   1.046   2.884   1.677
  854SOL     OW 3460   5.354   5.418   2.699
  854SOL    HW1 3461   5.293   5.377   2.766
  854SOL    HW2 3462   5.430   5.356   2.680
  855SOL     OW 3463   5.510   0.047   1.610
  855SOL    HW1 3464   5.608   0.038   1.591
  855SOL    HW2 3465   5.482   6.999   1.674
  856SOL     OW 3466   2.072   6.132   5.131
  856SOL    HW1 3467   2.017   6.215   5.121
  856SOL    HW2 3468   2.029   6.058   5.079
  857SOL     OW 3469   5.880   3.600   1.469
  857SOL    HW1 3470   5.895   3.651   1.384
  857SOL    HW2 3471   5.793   3.549   1.463
  858SOL     OW 3472   3.246   5.127   1.397
  858SOL    HW1 3473   3.344   5.140   1.384
  858SOL    HW2 3474   3.214   5.049   1.343
  859SOL     OW 3475   7.013   4.922   6.985
  859SOL    HW1 3476   6.987   4.853   0.029
  859SOL    HW2 3477   0.078   4.962   7.010
  860SOL     OW 3478   2.611   4.910   1.080
  860SOL    HW1 3479   2.575   4.853   1.005
  860SOL    HW2 3480   2.612   4.857   1.164
  861SOL     OW 3481   3.340   5.944   5.660
  861SOL    HW1 3482   3.281   5.985   5.729
  861SOL    HW2 3483   3.435   5.968   5.677
  862SOL     OW 3484   5.048   4.185   4.483
  862SOL    HW1 3485   5.109   4.129   4.539
  862SOL    HW2 3486   4.988   4.126   4.429
  863SOL     OW 3487   0.038   0.920   0.935
  863SOL    HW1 3488   0.002   0.830   0.911
  863SOL    HW2 3489   0.039   0.930   1.034
  864SOL     OW 3490   6.186   4.065   2.617
  864SOL    HW1 3491   6.195   4.027   2.525
  864SOL    HW2 3492   6.152   4.159   2.611
  865SOL     OW 3493   1.882   6.698   4.323
  865SOL    HW1 3494   1.978   6.678   4.303
  865SOL    HW2 3495   1.838   6.736   4.242
  866SOL     OW 3496   3.329   2.072   2.034
  866SOL    HW1 3497   3.238   2.113   2.032
  866SOL    HW2 3498   3.323   1.974   2.014
  867SOL     OW 3499   2.806   2.852   6.793
  867SOL    HW1 3500   2.827   2.774   6.734
  867SOL    HW2 3501   2.710   2.849   6.819
  868SOL     OW 3502   5.587   1.382   3.031
  868SOL    HW1 3503   5.646   1.361   3.109
  868SOL    HW2 3504   5.643   1.414   2.954
  869SOL     OW 3505   6.208   5.996   1.936
  869SOL    HW1 3506   6.246   5.950   1.856
  869SOL    HW2 3507   6.139   6.062   1.907
  870SOL     OW 3508   6.646   1.697   1.147
  870SOL    HW1 3509   6.602   1.686   1.237
  870SOL    HW2 3510   6.661   1.794   1.129
  871SOL     OW 3511   6.002   2.318   1.134
  871SOL    HW1 3512   5.908   2.353   1.139
  871SOL    HW2 3513   6.058   2.381   1.082
  872SOL     OW 3514   6.263   2.112   3.440
  872SOL    HW1 3515   6.291   2.207   3.454
  872SOL    HW2 3516   6.292   2.057   3.518
  873SOL     OW 3517   3.389   6.685   4.502
  873SOL    HW1 3518   3.307   6.724   4.461
  873SOL    HW2 3519   3.371   6.591   4.530
  874SOL     OW 3520   1.297   3.888   5.121
  874SOL    HW1 3521   1.320   3.977   5.159
  874SOL    HW2 3522   1.216   3.852   5.169
  875SOL     OW 3523   5.776   3.681   0.459
  875SOL    HW1 3524   5.818   3.670   0.369
  875SOL    HW2 3525   5.707   3.753   0.455
  876SOL     OW 3526   0.134   3.324   1.768
  876SOL    HW1 3527   0.110   3.385   1.844
  876SOL    HW2 3528   0.090   3.235   1.782
  877SOL     OW 3529   4.807   5.898   0.013
  877SOL    HW1 3530   4.825   5.800   0.004
  877SOL    HW2 3531   4.728   5.922   6.981
  878SOL     OW 3532   3.013   5.049   0.726
  878SOL    HW1 3533   3.031   5.051   0.824
  878SOL    HW2 3534   2.968   4.963   0.702
  879SOL     OW 3535   4.437   2.441   2.749
  879SOL    HW1 3536   4.502   2.491   2.692
  879SOL    HW2 3537   4.360   2.411   2.693
  880SOL     OW 3538   3.754   5.481   0.628
  880SOL    HW1 3539   3.701   5.566   0.627
  880SOL    HW2 3540   3.692   5.403   0.622
  881SOL     OW 3541   3.724   4.982   4.779
  881SOL    HW1 3542   3.806   4.951   4.730
  881SOL    HW2 3543   3.645   4.972   4.719
  882SOL     OW 3544   1.337   0.768   4.039
  882SOL    HW1 3545   1.267   0.808   3.979
  882SOL    HW2 3546   1.293   0.736   4.123
  883SOL     OW 3547   3.102   5.618   6.006
  883SOL    HW1 3548   3.083   5.521   6.015
  883SOL    HW2 3549   3.160   5.634   5.926
  884SOL     OW 3550   5.348   3.320   1.869
  884SOL    HW1 3551   5.365   3.400   1.926
  884SOL    HW2 3552   5.259   3.281   1.892
  885SOL     OW 3553   5.499   6.310   0.648
  885SOL    HW1 3554   5.465   6.314   0.742
  885SOL    HW2 3555   5.580   6.367   0.639
  886SOL     OW 3556   4.525   1.749   6.599
  886SOL    HW1 3557   4.621   1.758   6.574
  886SOL    HW2 3558   4.469   1.746   6.516
  887SOL     OW 3559   3.902   6.727   5.809
  887SOL    HW1 3560   3.962   6.787   5.862
  887SOL    HW2 3561   3.874   6.649   5.865
  888SOL     OW 3562   6.415   5.726   3.075
  888SOL    HW1 3563   6.450   5.695   3.163
  888SOL    HW2 3564   6.397   5.824   3.079
  889SOL     OW 3565   0.371   6.363   5.057
  889SOL    HW1 3566   0.401   6.362   4.961
  889SOL    HW2 3567   0.424   6.296   5.109
  890SOL     OW 3568   2.673   4.610   2.237
  890SOL    HW1 3569   2.720   4.601   2.148
  890SOL    HW2 3570   2.718   4.550   2.304
  891SOL     OW 3571   5.395   3.179   6.770
  891SOL    HW1 3572   5.423   3.108   6.705
  891SOL    HW2 3573   5.455   3.177   6.849
  892SOL     OW 3574   2.796   5.065   0.964
  892SOL    HW1 3575   2.730   5.001   1.003
  892SOL    HW2 3576   2.758   5.106   0.882
  893SOL     OW 3577   1.190   0.379   6.877
  893SOL    HW1 3578   1.132   0.311   6.922
  893SOL    HW2 3579   1.216   0.347   6.787
  894SOL     OW 3580   1.162   5.579   4.079
  894SOL    HW1 3581   1.218   5.602   4.158
  894SOL    HW2 3582   1.186   5.639   4.002
  895SOL     OW 3583   2.408   6.483   4.682
  895SOL    HW1 3584   2.387   6.526   4.769
  895SOL    HW2 3585   2.410   6.553   4.610
  896SOL     OW 3586   5.515   0.040   2.627
  896SOL    HW1 3587   5.613   0.023   2.635
  896SOL    HW2 3588   5.469   0.011   2.710
  897SOL     OW 3589   5.214   1.918   6.270
  897SOL    HW1 3590   5.148   1.851   6.304
  897SOL    HW2 3591   5.280   1.939   6.342
  898SOL     OW 3592   5.799   6.432   3.265
  898SOL    HW1 3593   5.729   6.504   3.265
  898SOL    HW2 3594   5.784   6.372   3.187
  899SOL     OW 3595   0.264   4.499   5.662
  899SOL    HW1 3596   0.308   4.575   5.614
  899SOL    HW2 3597   0.235   4.529   5.753
  900SOL     OW 3598   0.838   5.511   3.413
  900SOL    HW1 3599   0.880   5.575   3.349
  900SOL    HW2 3600   0.742   5.499   3.390
  901SOL     OW 3601   6.038   1.382   4.127
  901SOL    HW1 3602   6.125   1.408   4.084
  901SOL    HW2 3603   5.964   1.393   4.062
  902SOL     OW 3604   0.064   6.307   0.245
  902SOL    HW1 3605   0.098   6.384   0.300
  902SOL    HW2 3606   0.120   6.226   0.263
  903SOL     OW 3607   1.388   5.028   0.551
  903SOL    HW1 3608   1.467   5.086   0.528
  903SOL    HW2 3609   1.345   5.063   0.635
  904SOL     OW 3610   1.734   1.734   3.722
  904SOL    HW1 3611   1.688   1.780   3.646
  904SOL    HW2 3612   1.812   1.790   3.751
  905SOL     OW 3613   5.885   2.233   5.252
  905SOL    HW1 3614   5.976   2.191   5.253
  905SOL    HW2 3615   5.820   2.169   5.211
  906SOL     OW 3616   6.424   3.195   5.986
  906SOL    HW1 3617   6.356   3.157   6.048
  906SOL    HW2 3618   6.463   3.278   6.026
  907SOL     OW 3619   6.020   2.161   2.430
  907SOL    HW1 3620   5.951   2.222   2.391
  907SOL    HW2 3621   6.107   2.175   2.384
  908SOL     OW 3622   1.810   0.983   4.280
  908SOL    HW1 3623   1.721   1.024   4.303
  908SOL    HW2 3624   1.854   1.038   4.209
  909SOL     OW 3625   3.942   1.576   1.986
  909SOL    HW1 3626   3.971   1.640   1.915
  909SOL    HW2 3627   3.865   1.521   1.953
  910SOL     OW 3628   2.215   2.016   0.548
  910SOL    HW1 3629   2.204   2.100   0.600
  910SOL    HW2 3630   2.305   2.015   0.504
  911SOL     OW 3631   0.094   4.655   1.092
  911SOL    HW1 3632   0.009   4.680   1.138
  911SOL    HW2 3633   0.162   4.627   1.160
  912SOL     OW 3634   1.005   6.830   5.910
  912SOL    HW1 3635   1.076   6.822   5.980
  912SOL    HW2 3636   1.048   6.830   5.819
  913SOL     OW 3637   3.226   0.804   2.371
  913SOL    HW1 3638   3.211   0.817   2.273
  913SOL    HW2 3639   3.286   0.877   2.405
  914SOL     OW 3640   2.825   6.226   2.764
  914SOL    HW1 3641   2.787   6.274   2.843
  914SOL    HW2 3642   2.881   6.149   2.796
  915SOL     OW 3643   0.671   2.855   0.518
  915SOL    HW1 3644   0.733   2.880   0.444
  915SOL    HW2 3645   0.649   2.758   0.511
  916SOL     OW 3646   2.143   3.076   2.627
  916SOL    HW1 3647   2.235   3.051   2.657
  916SOL    HW2 3648   2.142   3.084   2.527
  917SOL     OW 3649   3.997   1.770   0.417
  917SOL    HW1 3650   3.972   1.854   0.464
  917SOL    HW2 3651   3.914   1.718   0.395
  918SOL     OW 3652   1.711   0.264   6.452
  918SOL    HW1 3653   1.707   0.327   6.530
  918SOL    HW2 3654   1.807   0.242   6.433
  919SOL     OW 3655   2.826   6.178   2.506
  919SOL    HW1 3656   2.820   6.078   2.505
  919SOL    HW2 3657   2.815   6.211   2.600
  920SOL     OW 3658   2.106   0.876   3.748
  920SOL    HW1 3659   2.067   0.824   3.673
  920SOL    HW2 3660   2.107   0.819   3.831
  921SOL     OW 3661   5.516   5.385   4.804
  921SOL    HW1 3662   5.515   5.408   4.901
  921SOL    HW2 3663   5.594   5.326   4.785
  922SOL     OW 3664   2.797   3.501   6.667
  922SOL    HW1 3665   2.719   3.507   6.729
  922SOL    HW2 3666   2.786   3.569   6.594
  923SOL     OW 3667   3.465   0.391   6.784
  923SOL    HW1 3668   3.555   0.384   6.740
  923SOL    HW2 3669   3.431   0.299   6.804
  924SOL     OW 3670   5.731   3.113   3.215
  924SOL    HW1 3671   5.658   3.095   3.281
  924SOL    HW2 3672   5.757   3.027   3.171
  925SOL     OW 3673   6.894   1.748   3.648
  925SOL    HW1 3674   6.912   1.767   3.745
  925SOL    HW2 3675   6.822   1.679   3.640
  926SOL     OW 3676   5.242   6.135   0.847
  926SOL    HW1 3677   5.205   6.206   0.907
  926SOL    HW2 3678   5.169   6.098   0.791
  927SOL     OW 3679   3.901   4.927   4.993
  927SOL    HW1 3680   3.825   4.917   4.930
  927SOL    HW2 3681   3.872   4.982   5.072
  928SOL     OW 3682   1.790   1.492   1.092
  928SOL    HW1 3683   1.856   1.559   1.124
  928SOL    HW2 3684   1.721   1.476   1.163
  929SOL     OW 3685   0.179   2.203   2.021
  929SOL    HW1 3686   0.201   2.271   2.091
  929SOL    HW2 3687   0.118   2.245   1.953
  930SOL     OW 3688   5.255   5.586   4.345
  930SOL    HW1 3689   5.181   5.602   4.410
  930SOL    HW2 3690   5.236   5.637   4.261
  931SOL     OW 3691   1.765   2.740   2.636
  931SOL    HW1 3692   1.766   2.780   2.544
  931SOL    HW2 3693   1.838   2.780   2.690
  932SOL     OW 3694   4.702   6.501   0.965
  932SOL    HW1 3695   4.708   6.601   0.969
  932SOL    HW2 3696   4.608   6.475   0.944
  933SOL     OW 3697   1.985   5.771   2.874
  933SOL    HW1 3698   2.009   5.715   2.953
  933SOL    HW2 3699   1.974   5.866   2.902
  934SOL     OW 3700   2.995   1.113   5.261
  934SOL    HW1 3701   3.077   1.124   5.317
  934SOL    HW2 3702   3.015   1.052   5.184
  935SOL     OW 3703   3.812   3.162   6.493
  935SOL    HW1 3704   3.786   3.076   6.537
  935SOL    HW2 3705   3.824   3.233   6.563
  936SOL     OW 3706   1.081   1.647   1.084
  936SOL    HW1 3707   1.157   1.667   1.022
  936SOL    HW2 3708   1.117   1.617   1.172
  937SOL     OW 3709   4.942   1.914   4.749
  937SOL    HW1 3710   4.961   2.004   4.787
  937SOL    HW2 3711   5.017   1.887   4.688
  938SOL     OW 3712   0.348   2.694   6.651
  938SOL    HW1 3713   0.304   2.747   6.723
  938SOL    HW2 3714   0.318   2.599   6.658
  939SOL     OW 3715   5.907   1.097   5.711
  939SOL    HW1 3716   5.964   1.093   5.793
  939SOL    HW2 3717   5.822   1.048   5.727
  940SOL     OW 3718   6.637   1.089   4.295
  940SOL    HW1 3719   6.546   1.065   4.260
  940SOL    HW2 3720   6.654   1.040   4.380
  941SOL     OW 3721   5.584   2.785   4.480
  941SOL    HW1 3722   5.504   2.730   4.501
  941SOL    HW2 3723   5.641   2.738   4.414
  942SOL     OW 3724   5.733   6.635   5.253
  942SOL    HW1 3725   5.800   6.697   5.211
  942SOL    HW2 3726   5.774   6.589   5.331
  943SOL     OW 3727   5.520   2.412   1.359
  943SOL    HW1 3728   5.443   2.452   1.309
  943SOL    HW2 3729   5.497   2.403   1.455
  944SOL     OW 3730   5.284   4.579   4.214
  944SOL    HW1 3731   5.324   4.640   4.146
  944SOL    HW2 3732   5.335   4.586   4.299
  945SOL     OW 3733   5.446   4.377   4.882
  945SOL    HW1 3734   5.434   4.351   4.786
  945SOL    HW2 3735   5.472   4.297   4.936
  946SOL     OW 3736   5.637   2.375   5.315
  946SOL    HW1 3737   5.701   2.335   5.249
  946SOL    HW2 3738   5.642   2.475   5.309
  947SOL     OW 3739   2.083   2.647   6.057
  947SOL    HW1 3740   2.044   2.646   6.150
  947SOL    HW2 3741   2.082   2.740   6.022
  948SOL     OW 3742   3.856   2.316   0.234
  948SOL    HW1 3743   3.772   2.363   0.262
  948SOL    HW2 3744   3.933   2.380   0.236
  949SOL     OW 3745   5.996   6.098   6.442
  949SOL    HW1 3746   5.960   6.013   6.406
  949SOL    HW2 3747   5.959   6.115   6.533
  950SOL     OW 3748   4.461   4.872   1.315
  950SOL    HW1 3749   4.466   4.969   1.293
  950SOL    HW2 3750   4.467   4.819   1.231
  951SOL     OW 3751   0.610   1.623   3.002
  951SOL    HW1 3752   0.551   1.543   2.996
  951SOL    HW2 3753   0.562   1.702   2.963
  952SOL     OW 3754   5.273   1.947   2.592
  952SOL    HW1 3755   5.268   1.923   2.689
  952SOL    HW2 3756   5.181   1.948   2.553
  953SOL     OW 3757   4.518   6.570   6.696
  953SOL    HW1 3758   4.597   6.592   6.754
  953SOL    HW2 3759   4.519   6.473   6.672
  954SOL     OW 3760   6.505   6.505   0.455
  954SOL    HW1 3761   6.562   6.426   0.478
  954SOL    HW2 3762   6.436   6.518   0.526
  955SOL     OW 3763   0.494   6.749   2.800
  955SOL    HW1 3764   0.518   6.671   2.858
  955SOL    HW2 3765   0.462   6.715   2.711
  956SOL     OW 3766   1.377   2.744   1.295
  956SOL    HW1 3767   1.449   2.775   1.233
  956SOL    HW2 3768   1.332   2.822   1.337
  957SOL     OW 3769   2.156   5.640   4.517
  957SOL    HW1 3770   2.165   5.681   4.427
  957SOL    HW2 3771   2.169   5.710   4.587
  958SOL     OW 3772   4.813   2.786   1.049
  958SOL    HW1 3773   4.802   2.859   1.116
  958SOL    HW2 3774   4.825   2.698   1.095
  959SOL     OW 3775   1.923   4.593   2.974
  959SOL    HW1 3776   1.878   4.612   3.061
  959SOL    HW2 3777   1.982   4.670   2.950
  960SOL     OW 3778   1.556   5.222   4.227
  960SOL    HW1 3779   1.548   5.317   4.197
  960SOL    HW2 3780   1.487   5.167   4.181
  961SOL     OW 3781   3.931   0.445   1.936
  961SOL    HW1 3782   3.842   0.487   1.918
  961SOL    HW2 3783   4.003   0.497   1.890
  962SOL     OW 3784   1.816   0.823   3.953
  962SOL    HW1 3785   1.790   0.916   3.926
  962SOL    HW2 3786   1.735   0.765   3.953
  963SOL     OW 3787   6.752   0.293   0.599
  963SOL    HW1 3788   6.688   0.236   0.650
  963SOL    HW2 3789   6.842   0.251   0.598
  964SOL     OW 3790   5.734   3.381   1.826
  964SOL    HW1 3791   5.657   3.342   1.777
  964SOL    HW2 3792   5.761   3.320   1.900
  965SOL     OW 3793   0.590   2.131   0.380
  965SOL    HW1 3794   0.491   2.148   0.381
  965SOL    HW2 3795   0.610   2.054   0.321
  966SOL     OW 3796   6.687   2.460   2.840
  966SOL    HW1 3797   6.754   2.492   2.773
  966SOL    HW2 3798   6.700   2.362   2.856
  967SOL     OW 3799   1.778   6.020   1.741
  967SOL    HW1 3800   1.719   5.983   1.812
  967SOL    HW2 3801   1.785   5.954   1.666
  968SOL     OW 3802   5.030   3.261   2.820
  968SOL    HW1 3803   5.126   3.240   2.803
  968SOL    HW2 3804   5.022   3.355   2.855
  969SOL     OW 3805   4.639   5.774   5.830
  969SOL    HW1 3806   4.547   5.745   5.856
  969SOL    HW2 3807   4.643   5.874   5.826
  970SOL     OW 3808   4.409   2.564   5.257
  970SOL    HW1 3809   4.345   2.549   5.332
  970SOL    HW2 3810   4.361   2.558   5.170
  971SOL     OW 3811   6.452   1.442   1.634
  971SOL    HW1 3812   6.437   1.422   1.731
  971SOL    HW2 3813   6.371   1.488   1.598
  972SOL     OW 3814   6.383   5.274   0.895
  972SOL    HW1 3815   6.390   5.361   0.943
  972SOL    HW2 3816   6.347   5.289   0.803
  973SOL     OW 3817   5.650   4.001   5.746
  973SOL    HW1 3818   5.695   4.082   5.782
  973SOL    HW2 3819   5.715   3.925   5.741
  974SOL     OW 3820   2.458   1.093   3.827
  974SOL    HW1 3821   2.410   1.023   3.774
  974SOL    HW2 3822   2.507   1.154   3.764
  975SOL     OW 3823   3.200   6.577   5.381
  975SOL    HW1 3824   3.178   6.674   5.393
  975SOL    HW2 3825   3.116   6.523   5.390
  976SOL     OW 3826   0.123   4.779   3.494
  976SOL    HW1 3827   0.075   4.693   3.509
  976SOL    HW2 3828   0.090   4.848   3.559
  977SOL     OW 3829   2.158   0.973   3.393
  977SOL    HW1 3830   2.071   1.019   3.414
  977SOL    HW2 3831   2.142   0.876   3.378
  978SOL     OW 3832   5.378   3.376   4.345
  978SOL    HW1 3833   5.353   3.338   4.256
  978SOL    HW2 3834   5.426   3.463   4.332
  979SOL     OW 3835   6.080   0.857   3.159
  979SOL    HW1 3836   6.084   0.859   3.259
  979SOL    HW2 3837   6.097   0.948   3.123
  980SOL     OW 3838   6.082   1.809   4.567
  980SOL    HW1 3839   6.160   1.813   4.505
  980SOL    HW2 3840   6.002   1.849   4.522
  981SOL     OW 3841   0.298   1.905   5.153
  981SOL    HW1 3842   0.219   1.860   5.111
  981SOL    HW2 3843   0.332   1.977   5.092
  982SOL     OW 3844   1.420   3.516   1.586
  982SOL    HW1 3845   1.498   3.577   1.599
  982SOL    HW2 3846   1.344   3.547   1.643
  983SOL     OW 3847   6.138   2.083   2.859
  983SOL    HW1 3848   6.171   1.990   2.848
  983SOL    HW2 3849   6.199   2.146   2.811
  984SOL     OW 3850   4.263   1.987   4.291
  984SOL    HW1 3851   4.232   1.954   4.201
  984SOL    HW2 3852   4.333   2.056   4.278
  985SOL     OW 3853   3.748   5.828   0.811
  985SOL    HW1 3854   3.812   5.821   0.888
  985SOL    HW2 3855   3.797   5.812   0.725
  986SOL     OW 3856   4.190   5.039   6.267
  986SOL    HW1 3857   4.098   5.004   6.254
  986SOL    HW2 3858   4.186   5.131   6.308
  987SOL     OW 3859   4.282   6.775   2.484
  987SOL    HW1 3860   4.214   6.848   2.474
  987SOL    HW2 3861   4.295   6.731   2.395
  988SOL     OW 3862   3.539   3.587   1.433
  988SOL    HW1 3863   3.531   3.673   1.383
  988SOL    HW2 3864   3.628   3.546   1.414
  989SOL     OW 3865   0.539   0.223   5.437
  989SOL    HW1 3866   0.525   0.312   5.480
  989SOL    HW2 3867   0.512   0.151   5.501
  990SOL     OW 3868   4.587   0.314   4.034
  990SOL    HW1 3869   4.661   0.311   4.102
  990SOL    HW2 3870   4.557   0.221   4.014
  991SOL     OW 3871   7.005   1.396   5.003
  991SOL    HW1 3872   6.913   1.368   5.030
  991SOL    HW2 3873   0.044   1.385   5.080
  992SOL     OW 3874   0.526   3.682   0.074
  992SOL    HW1 3875   0.447   3.701   0.133
  992SOL    HW2 3876   0.521   3.588   0.041
  993SOL     OW 3877   3.035   4.868   3.247
  993SOL    HW1 3878   3.082   4.875   3.334
  993SOL    HW2 3879   2.941   4.836   3.262
  994SOL     OW 3880   2.931   3.331   2.957
  994SOL    HW1 3881   2.969   3.255   2.905
  994SOL    HW2 3882   2.882   3.295   3.037
  995SOL     OW 3883   2.181   1.635   5.272
  995SOL    HW1 3884   2.265   1.686   5.254
  995SOL    HW2 3885   2.125   1.631   5.190
  996SOL     OW 3886   1.985   4.025   2.393
  996SOL    HW1 3887   1.961   3.929   2.408
  996SOL    HW2 3888   1.941   4.082   2.462
  997SOL     OW 3889   0.169   0.907   1.749
  997SOL    HW1 3890   0.250   0.893   1.807
  997SOL    HW2 3891   0.100   0.958   1.801
  998SOL     OW 3892   4.343   6.787   2.192
  998SOL    HW1 3893   4.434   6.826   2.211
  998SOL    HW2 3894   4.322   6.799   2.095
  999SOL     OW 3895   6.712   5.487   1.610
  999SOL    HW1 3896   6.645   5.472   1.683
  999SOL    HW2 3897   6.666   5.484   1.521
 1000SOL     OW 3898   3.378   2.090   4.006
 1000SOL    HW1 3899   3.323   2.125   3.930
 1000SOL    HW2 3900   3.417   2.001   3.981
 1001SOL     OW 3901   5.065   0.238   5.570
 1001SOL    HW1 3902   5.154   0.194   5.559
 1001SOL    HW2 3903   5.077   0.329   5.610
 1002SOL     OW 3904   6.145   1.116   0.261
 1002SOL    HW1 3905   6.047   1.101   0.256
 1002SOL    HW2 3906   6.180   1.143   0.171
 1003SOL     OW 3907   3.916   5.885   2.852
 1003SOL    HW1 3908   3.927   5.795   2.894
 1003SOL    HW2 3909   3.866   5.876   2.766
 1004SOL     OW 3910   6.577   6.736   0.305
 1004SOL    HW1 3911   6.500   6.800   0.306
 1004SOL    HW2 3912   6.549   6.649   0.345
 1005SOL     OW 3913   0.714   0.066   3.254
 1005SOL    HW1 3914   0.676   0.149   3.296
 1005SOL    HW2 3915   0.729   7.020   3.324
 1006SOL     OW 3916   2.407   5.403   0.999
 1006SOL    HW1 3917   2.504   5.388   1.021
 1006SOL    HW2 3918   2.351   5.339   1.051
 1007SOL     OW 3919   0.176   1.091   3.351
 1007SOL    HW1 3920   0.132   1.060   3.435
 1007SOL    HW2 3921   0.275   1.086   3.361
 1008SOL     OW 3922   1.748   3.471   3.892
 1008SOL    HW1 3923   1.682   3.492   3.819
 1008SOL    HW2 3924   1.704   3.484   3.981
 1009SOL     OW 3925   0.967   6.387   5.132
 1009SOL    HW1 3926   0.916   6.308   5.099
 1009SOL    HW2 3927   0.903   6.452   5.174
 1010SOL     OW 3928   4.617   2.563   0.470
 1010SOL    HW1 3929   4.643   2.659   0.476
 1010SOL    HW2 3930   4.649   2.526   0.382
 1011SOL     OW 3931   2.532   5.809   3.665
 1011SOL    HW1 3932   2.609   5.872   3.666
 1011SOL    HW2 3933   2.466   5.837   3.595
 1012SOL     OW 3934   4.996   5.224   0.040
 1012SOL    HW1 3935   5.065   5.238   6.992
 1012SOL    HW2 3936   4.905   5.238   0.001
 1013SOL     OW 3937   0.730   0.929   0.647
 1013SOL    HW1 3938   0.709   0.899   0.554
 1013SOL    HW2 3939   0.754   1.026   0.646
 1014SOL     OW 3940   5.043   6.404   5.836
 1014SOL    HW1 3941   5.138   6.432   5.846
 1014SOL    HW2 3942   5.021   6.394   5.739
 1015SOL     OW 3943   3.646   5.949   4.459
 1015SOL    HW1 3944   3.566   5.891   4.469
 1015SOL    HW2 3945   3.683   5.972   4.550
 1016SOL     OW 3946   3.839   2.966   1.267
 1016SOL    HW1 3947   3.804   2.939   1.357
 1016SOL    HW2 3948   3.904   2.897   1.235
 1017SOL     OW 3949   4.304   2.753   0.480
 1017SOL    HW1 3950   4.340   2.729   0.390
 1017SOL    HW2 3951   4.364   2.818   0.524
 1018SOL     OW 3952   1.203   2.748   2.963
 1018SOL    HW1 3953   1.194   2.703   2.874
 1018SOL    HW2 3954   1.295   2.731   2.999
 1019SOL     OW 3955   0.292   1.500   6.607
 1019SOL    HW1 3956   0.281   1.411   6.564
 1019SOL    HW2 3957   0.378   1.541   6.576
 1020SOL     OW 3958   2.416   1.526   1.499
 1020SOL    HW1 3959   2.373   1.565   1.581
 1020SOL    HW2 3960   2.515   1.521   1.512
 1021SOL     OW 3961   6.803   0.981   0.846
 1021SOL    HW1 3962   6.768   1.054   0.788
 1021SOL    HW2 3963   6.885   1.012   0.894
 1022SOL     OW 3964   4.099   3.627   6.175
 1022SOL    HW1 3965   4.068   3.647   6.082
 1022SOL    HW2 3966   4.166   3.695   6.204
 1023SOL     OW 3967   5.450   0.610   2.440
 1023SOL    HW1 3968   5.460   0.630   2.538
 1023SOL    HW2 3969   5.449   0.695   2.389
 1024SOL     OW 3970   6.707   1.533   3.930
 1024SOL    HW1 3971   6.714   1.531   3.830
 1024SOL    HW2 3972   6.678   1.443   3.962
 1025SOL     OW 3973   3.400   5.095   1.107
 1025SOL    HW1 3974   3.381   5.017   1.046
 1025SOL    HW2 3975   3.315   5.145   1.125
 1026SOL     OW 3976   2.152   1.827   0.142
 1026SOL    HW1 3977   2.125   1.767   0.067
 1026SOL    HW2 3978   2.124   1.787   0.229
 1027SOL     OW 3979   2.927   4.796   2.468
 1027SOL    HW1 3980   3.013   4.836   2.500
 1027SOL    HW2 3981   2.933   4.778   2.370
 1028SOL     OW 3982   1.485   5.901   0.604
 1028SOL    HW1 3983   1.459   5.846   0.525
 1028SOL    HW2 3984   1.458   5.996   0.589
 1029SOL     OW 3985   2.426   7.020   6.618
 1029SOL    HW1 3986   2.403   0.092   6.600
 1029SOL    HW2 3987   2.516   6.999   6.580
 1030SOL     OW 3988   3.968   3.666   5.139
 1030SOL    HW1 3989   3.929   3.751   5.103
 1030SOL    HW2 3990   4.034   3.688   5.211
 1031SOL     OW 3991   2.494   5.427   2.131
 1031SOL    HW1 3992   2.538   5.358   2.190
 1031SOL    HW2 3993   2.447   5.494   2.188
 1032SOL     OW 3994   1.250   1.401   4.555
 1032SOL    HW1 3995   1.282   1.415   4.461
 1032SOL    HW2 3996   1.164   1.351   4.554
 1033SOL     OW 3997   2.675   5.623   2.057
 1033SOL    HW1 3998   2.624   5.537   2.065
 1033SOL    HW2 3999   2.698   5.657   2.149
 1034SOL     OW 4000   1.873   4.962   3.713
 1034SOL    HW1 4001   1.821   5.036   3.755
 1034SOL    HW2 4002   1.898   4.895   3.784
 1035SOL     OW 4003   2.862   1.011   4.821
 1035SOL    HW1 4004   2.872   1.046   4.728
 1035SOL    HW2 4005   2.889   1.082   4.887
 1036SOL     OW 4006   4.505   3.000   0.916
 1036SOL    HW1 4007   4.512   2.901   0.902
 1036SOL    HW2 4008   4.437   3.038   0.853
 1037SOL     OW 4009   2.290   1.445   0.174
 1037SOL    HW1 4010   2.272   1.376   0.243
 1037SOL    HW2 4011   2.366   1.504   0.204
 1038SOL     OW 4012   2.002   1.323   5.291
 1038SOL    HW1 4013   1.922   1.323   5.231
 1038SOL    HW2 4014   2.004   1.407   5.346
 1039SOL     OW 4015   3.933   2.196   4.168
 1039SOL    HW1 4016   3.979   2.163   4.085
 1039SOL    HW2 4017   3.834   2.194   4.154
 1040SOL     OW 4018   6.205   4.389   2.856
 1040SOL    HW1 4019   6.296   4.415   2.889
 1040SOL    HW2 4020   6.186   4.295   2.885
 1041SOL     OW 4021   0.416   0.962   4.400
 1041SOL    HW1 4022   0.480   0.889   4.376
 1041SOL    HW2 4023   0.326   0.923   4.418
 1042SOL     OW 4024   5.729   5.094   0.719
 1042SOL    HW1 4025   5.697   5.100   0.813
 1042SOL    HW2 4026   5.702   5.007   0.679
 1043SOL     OW 4027   3.178   1.990   6.374
 1043SOL    HW1 4028   3.261   2.002   6.428
 1043SOL    HW2 4029   3.191   1.917   6.307
 1044SOL     OW 4030   3.974   3.426   1.804
 1044SOL    HW1 4031   4.001   3.348   1.861
 1044SOL    HW2 4032   3.932   3.496   1.862
 1045SOL     OW 4033   3.006   1.330   2.997
 1045SOL    HW1 4034   3.015   1.400   3.069
 1045SOL    HW2 4035   2.911   1.328   2.965
 1046SOL     OW 4036   3.906   0.181   1.259
 1046SOL    HW1 4037   3.887   0.083   1.271
 1046SOL    HW2 4038   3.887   0.229   1.345
 1047SOL     OW 4039   0.997   4.935   2.815
 1047SOL    HW1 4040   1.085   4.977   2.840
 1047SOL    HW2 4041   1.008   4.883   2.730
 1048SOL     OW 4042   4.854   4.558   5.504
 1048SOL    HW1 4043   4.852   4.483   5.438
 1048SOL    HW2 4044   4.786   4.542   5.575
 1049SOL     OW 4045   0.073   3.697   4.685
 1049SOL    HW1 4046   0.009   3.763   4.645
 1049SOL    HW2 4047   0.074   3.708   4.784
 1050SOL     OW 4048   3.598   0.712   0.063
 1050SOL    HW1 4049   3.562   0.679   0.150
 1050SOL    HW2 4050   3.666   0.647   0.028
 1051SOL     OW 4051   4.496   4.521   0.160
 1051SOL    HW1 4052   4.523   4.550   0.251
 1051SOL    HW2 4053   4.572   4.531   0.097
 1052SOL     OW 4054   3.592   0.307   4.968
 1052SOL    HW1 4055   3.564   0.322   4.873
 1052SOL    HW2 4056   3.691   0.318   4.976
 1053SOL     OW 4057   4.463   4.462   4.059
 1053SOL    HW1 4058   4.541   4.470   4.120
 1053SOL    HW2 4059   4.494   4.431   3.969
 1054SOL     OW 4060   3.706   5.539   4.664
 1054SOL    HW1 4061   3.711   5.482   4.746
 1054SOL    HW2 4062   3.732   5.633   4.686
 1055SOL     OW 4063   4.697   6.269   5.179
 1055SOL    HW1 4064   4.615   6.326   5.174
 1055SOL    HW2 4065   4.680   6.181   5.135
 1056SOL     OW 4066   1.667   6.488   5.403
 1056SOL    HW1 4067   1.602   6.413   5.417
 1056SOL    HW2 4068   1.650   6.560   5.470
 1057SOL     OW 4069   3.124   3.641   2.709
 1057SOL    HW1 4070   3.035   3.650   2.663
 1057SOL    HW2 4071   3.192   3.610   2.643
 1058SOL     OW 4072   3.417   1.402   1.652
 1058SOL    HW1 4073   3.514   1.424   1.666
 1058SOL    HW2 4074   3.391   1.423   1.558
 1059SOL     OW 4075   4.225   1.746   1.590
 1059SOL    HW1 4076   4.256   1.822   1.647
 1059SOL    HW2 4077   4.279   1.742   1.506
 1060SOL     OW 4078   1.591   1.923   5.869
 1060SOL    HW1 4079   1.550   2.008   5.835
 1060SOL    HW2 4080   1.686   1.940   5.894
 1061SOL     OW 4081   3.687   5.388   1.682
 1061SOL    HW1 4082   3.744   5.306   1.677
 1061SOL    HW2 4083   3.679   5.417   1.777
 1062SOL     OW 4084   6.039   5.751   5.283
 1062SOL    HW1 4085   6.091   5.688   5.340
 1062SOL    HW2 4086   6.004   5.826   5.340
 1063SOL     OW 4087   1.609   2.724   0.122
 1063SOL    HW1 4088   1.587   2.779   0.041
 1063SOL    HW2 4089   1.640   2.634   0.092
 1064SOL     OW 4090   6.912   2.598   1.956
 1064SOL    HW1 4091   6.957   2.680   1.992
 1064SOL    HW2 4092   6.830   2.580   2.010
 1065SOL     OW 4093   6.087   6.634   4.526
 1065SOL    HW1 4094   6.013   6.580   4.567
 1065SOL    HW2 4095   6.138   6.682   4.598
 1066SOL     OW 4096   4.619   0.815   3.362
 1066SOL    HW1 4097   4.527   0.852   3.350
 1066SOL    HW2 4098   4.613   0.721   3.398
 1067SOL     OW 4099   1.832   3.105   2.045
 1067SOL    HW1 4100   1.852   3.122   1.948
 1067SOL    HW2 4101   1.855   3.010   2.067
 1068SOL     OW 4102   0.516   3.874   2.290
 1068SOL    HW1 4103   0.465   3.896   2.372
 1068SOL    HW2 4104   0.541   3.777   2.292
 1069SOL     OW 4105   3.999   4.180   1.269
 1069SOL    HW1 4106   4.068   4.246   1.239
 1069SOL    HW2 4107   3.973   4.122   1.192
 1070SOL     OW 4108   2.329   0.724   0.589
 1070SOL    HW1 4109   2.229   0.732   0.580
 1070SOL    HW2 4110   2.360   0.782   0.664
 1071SOL     OW 4111   3.678   6.719   3.251
 1071SOL    HW1 4112   3.712   6.802   3.209
 1071SOL    HW2 4113   3.749   6.679   3.310
 1072SOL     OW 4114   3.842   6.138   2.953
 1072SOL    HW1 4115   3.751   6.123   2.992
 1072SOL    HW2 4116   3.883   6.050   2.927
 1073SOL     OW 4117   2.489   4.448   2.570
 1073SOL    HW1 4118   2.510   4.383   2.497
 1073SOL    HW2 4119   2.506   4.406   2.659
 1074SOL     OW 4120   1.106   4.965   1.560
 1074SOL    HW1 4121   1.035   4.967   1.490
 1074SOL    HW2 4122   1.101   5.049   1.614
 1075SOL     OW 4123   6.009   4.571   4.215
 1075SOL    HW1 4124   5.982   4.644   4.152
 1075SOL    HW2 4125   6.108   4.560   4.213
 1076SOL     OW 4126   0.310   4.458   3.789
 1076SOL    HW1 4127   0.362   4.376   3.766
 1076SOL    HW2 4128   0.334   4.532   3.726
 1077SOL     OW 4129   4.397   0.162   1.024
 1077SOL    HW1 4130   4.308   0.154   1.069
 1077SOL    HW2 4131   4.452   0.230   1.071
 1078SOL     OW 4132   1.133   2.072   1.210
 1078SOL    HW1 4133   1.054   2.014   1.227
 1078SOL    HW2 4134   1.198   2.024   1.152
 1079SOL     OW 4135   2.978   5.399   3.597
 1079SOL    HW1 4136   2.971   5.498   3.595
 1079SOL    HW2 4137   2.998   5.369   3.690
 1080SOL     OW 4138   1.838   5.258   4.593
 1080SOL    HW1 4139   1.830   5.208   4.506
 1080SOL    HW2 4140   1.762   5.322   4.601
 1081SOL     OW 4141   1.796   0.778   0.472
 1081SOL    HW1 4142   1.739   0.696   0.461
 1081SOL    HW2 4143   1.748   0.844   0.530
 1082SOL     OW 4144   1.713   6.689   6.055
 1082SOL    HW1 4145   1.716   6.591   6.074
 1082SOL    HW2 4146   1.662   6.705   5.970
 1083SOL     OW 4147   3.306   3.529   1.208
 1083SOL    HW1 4148   3.348   3.547   1.298
 1083SOL    HW2 4149   3.213   3.565   1.207
 1084SOL     OW 4150   6.025   4.097   0.923
 1084SOL    HW1 4151   6.067   4.007   0.931
 1084SOL    HW2 4152   5.991   4.126   1.013
 1085SOL     OW 4153   1.966   3.992   4.098
 1085SOL    HW1 4154   2.015   4.075   4.074
 1085SOL    HW2 4155   1.921   3.955   4.017
 1086SOL     OW 4156   4.472   4.625   2.086
 1086SOL    HW1 4157   4.549   4.563   2.098
 1086SOL    HW2 4158   4.441   4.658   2.175
 1087SOL     OW 4159   4.449   2.867   5.325
 1087SOL    HW1 4160   4.506   2.948   5.315
 1087SOL    HW2 4161   4.486   2.793   5.268
 1088SOL     OW 4162   5.138   4.207   4.206
 1088SOL    HW1 4163   5.171   4.131   4.150
 1088SOL    HW2 4164   5.151   4.184   4.303
 1089SOL     OW 4165   0.173   0.171   3.475
 1089SOL    HW1 4166   0.252   0.144   3.421
 1089SOL    HW2 4167   0.187   0.264   3.510
 1090SOL     OW 4168   1.745   1.208   6.621
 1090SOL    HW1 4169   1.829   1.195   6.674
 1090SOL    HW2 4170   1.769   1.232   6.527
 1091SOL     OW 4171   1.719   1.865   4.984
 1091SOL    HW1 4172   1.708   1.885   4.887
 1091SOL    HW2 4173   1.800   1.913   5.019
 1092SOL     OW 4174   2.302   4.241   1.424
 1092SOL    HW1 4175   2.399   4.257   1.441
 1092SOL    HW2 4176   2.251   4.256   1.508
 1093SOL     OW 4177   0.470   1.886   2.600
 1093SOL    HW1 4178   0.557   1.908   2.556
 1093SOL    HW2 4179   0.407   1.848   2.532
 1094SOL     OW 4180   0.335   6.413   1.231
 1094SOL    HW1 4181   0.306   6.495   1.280
 1094SOL    HW2 4182   0.257   6.351   1.219
 1095SOL     OW 4183   5.666   3.535   6.090
 1095SOL    HW1 4184   5.574   3.567   6.115
 1095SOL    HW2 4185   5.699   3.588   6.012
 1096SOL     OW 4186   3.500   4.372   1.748
 1096SOL    HW1 4187   3.425   4.396   1.687
 1096SOL    HW2 4188   3.542   4.456   1.784
 1097SOL     OW 4189   0.833   5.321   5.244
 1097SOL    HW1 4190   0.743   5.345   5.281
 1097SOL    HW2 4191   0.853   5.225   5.266
 1098SOL     OW 4192   4.459   2.028   2.509
 1098SOL    HW1 4193   4.495   2.022   2.602
 1098SOL    HW2 4194   4.465   2.123   2.477
 1099SOL     OW 4195   4.417   1.913   3.912
 1099SOL    HW1 4196   4.477   1.864   3.975
 1099SOL    HW2 4197   4.322   1.907   3.945
 1100SOL     OW 4198   0.712   0.962   6.758
 1100SOL    HW1 4199   0.778   1.030   6.791
 1100SOL    HW2 4200   0.630   1.008   6.724
 1101SOL     OW 4201   5.574   3.115   1.237
 1101SOL    HW1 4202   5.613   3.027   1.210
 1101SOL    HW2 4203   5.508   3.100   1.311
 1102SOL     OW 4204   0.799   4.541   3.479
 1102SOL    HW1 4205   0.716   4.588   3.450
 1102SOL    HW2 4206   0.799   4.448   3.442
 1103SOL     OW 4207   1.091   2.578   1.661
 1103SOL    HW1 4208   1.166   2.548   1.719
 1103SOL    HW2 4209   1.027   2.502   1.646
 1104SOL     OW 4210   3.513   5.077   6.110
 1104SOL    HW1 4211   3.442   5.107   6.046
 1104SOL    HW2 4212   3.601   5.075   6.063
 1105SOL     OW 4213   4.426   4.209   6.678
 1105SOL    HW1 4214   4.339   4.258   6.670
 1105SOL    HW2 4215   4.427   4.156   6.763
 1106SOL     OW 4216   0.277   2.476   6.107
 1106SOL    HW1 4217   0.376   2.464   6.115
 1106SOL    HW2 4218   0.255   2.509   6.015
 1107SOL     OW 4219   0.690   6.998   0.907
 1107SOL    HW1 4220   0.603   6.959   0.876
 1107SOL    HW2 4221   0.673   0.054   0.965
 1108SOL     OW 4222   1.164   1.224   5.348
 1108SOL    HW1 4223   1.069   1.221   5.378
 1108SOL    HW2 4224   1.170   1.270   5.260
 1109SOL     OW 4225   4.798   0.214   4.180
 1109SOL    HW1 4226   4.735   0.143   4.213
 1109SOL    HW2 4227   4.857   0.243   4.255
 1110SOL     OW 4228   2.847   3.442   2.101
 1110SOL    HW1 4229   2.747   3.433   2.095
 1110SOL    HW2 4230   2.869   3.530   2.143
 1111SOL     OW 4231   5.627   0.145   0.056
 1111SOL    HW1 4232   5.562   0.141   0.132
 1111SOL    HW2 4233   5.687   0.065   0.060
 1112SOL     OW 4234   6.727   0.994   2.577
 1112SOL    HW1 4235   6.729   1.039   2.487
 1112SOL    HW2 4236   6.790   0.916   2.576
 1113SOL     OW 4237   6.880   3.553   2.350
 1113SOL    HW1 4238   6.813   3.532   2.421
 1113SOL    HW2 4239   6.851   3.633   2.299
 1114SOL     OW 4240   4.626   1.795   5.094
 1114SOL    HW1 4241   4.689   1.723   5.121
 1114SOL    HW2 4242   4.629   1.870   5.160
 1115SOL     OW 4243   2.828   3.616   0.799
 1115SOL    HW1 4244   2.837   3.571   0.888
 1115SOL    HW2 4245   2.815   3.714   0.812
 1116SOL     OW 4246   4.099   0.129   4.038
 1116SOL    HW1 4247   4.063   0.133   4.131
 1116SOL    HW2 4248   4.118   0.221   4.005
 1117SOL     OW 4249   2.717   2.899   1.417
 1117SOL    HW1 4250   2.782   2.834   1.378
 1117SOL    HW2 4251   2.625   2.879   1.382
 1118SOL     OW 4252   2.188   3.773   3.758
 1118SOL    HW1 4253   2.153   3.680   3.767
 1118SOL    HW2 4254   2.166   3.809   3.668
 1119SOL     OW 4255   4.281   3.965   1.752
 1119SOL    HW1 4256   4.320   4.048   1.791
 1119SOL    HW2 4257   4.340   3.932   1.679
 1120SOL     OW 4258   4.034   0.540   5.278
 1120SOL    HW1 4259   4.130   0.557   5.258
 1120SOL    HW2 4260   3.979   0.561   5.196
 1121SOL     OW 4261   5.886   3.126   1.899
 1121SOL    HW1 4262   5.862   3.072   1.818
 1121SOL    HW2 4263   5.841   3.088   1.979
 1122SOL     OW 4264   4.871   3.429   6.396
 1122SOL    HW1 4265   4.813   3.348   6.385
 1122SOL    HW2 4266   4.967   3.400   6.398
 1123SOL     OW 4267   3.798   0.519   2.431
 1123SOL    HW1 4268   3.780   0.462   2.511
 1123SOL    HW2 4269   3.753   0.608   2.443
 1124SOL     OW 4270   0.473   4.108   4.925
 1124SOL    HW1 4271   0.539   4.165   4.974
 1124SOL    HW2 4272   0.405   4.072   4.989
 1125SOL     OW 4273   3.353   3.419   5.042
 1125SOL    HW1 4274   3.434   3.405   5.098
 1125SOL    HW2 4275   3.283   3.351   5.066
 1126SOL     OW 4276   5.304   6.174   1.803
 1126SOL    HW1 4277   5.244   6.096   1.787
 1126SOL    HW2 4278   5.391   6.158   1.756
 1127SOL     OW 4279   1.775   4.647   6.651
 1127SOL    HW1 4280   1.783   4.547   6.648
 1127SOL    HW2 4281   1.732   4.674   6.737
 1128SOL     OW 4282   2.867   1.549   4.589
 1128SOL    HW1 4283   2.883   1.470   4.530
 1128SOL    HW2 4284   2.939   1.617   4.573
 1129SOL     OW 4285   5.386   0.692   7.019
 1129SOL    HW1 4286   5.360   0.683   0.091
 1129SOL    HW2 4287   5.312   0.657   6.961
 1130SOL     OW 4288   0.803   4.747   6.729
 1130SOL    HW1 4289   0.854   4.661   6.732
 1130SOL    HW2 4290   0.760   4.757   6.640
 1131SOL     OW 4291   0.409   6.068   5.734
 1131SOL    HW1 4292   0.419   5.986   5.789
 1131SOL    HW2 4293   0.499   6.096   5.700
 1132SOL     OW 4294   5.394   6.955   5.486
 1132SOL    HW1 4295   5.305   6.919   5.514
 1132SOL    HW2 4296   5.448   6.978   5.567
 1133SOL     OW 4297   0.479   3.325   1.532
 1133SOL    HW1 4298   0.401   3.324   1.471
 1133SOL    HW2 4299   0.460   3.383   1.611
 1134SOL     OW 4300   5.249   2.516   6.320
 1134SOL    HW1 4301   5.313   2.441   6.332
 1134SOL    HW2 4302   5.292   2.602   6.349
 1135SOL     OW 4303   2.992   1.949   2.991
 1135SOL    HW1 4304   3.055   2.015   2.951
 1135SOL    HW2 4305   2.898   1.982   2.979
 1136SOL     OW 4306   3.555   5.325   3.760
 1136SOL    HW1 4307   3.485   5.353   3.695
 1136SOL    HW2 4308   3.513   5.312   3.850
 1137SOL     OW 4309   1.360   1.424   6.037
 1137SOL    HW1 4310   1.273   1.379   6.020
 1137SOL    HW2 4311   1.395   1.463   5.952
 1138SOL     OW 4312   0.678   3.644   5.905
 1138SOL    HW1 4313   0.708   3.736   5.878
 1138SOL    HW2 4314   0.657   3.643   6.003
 1139SOL     OW 4315   1.475   6.114   2.265
 1139SOL    HW1 4316   1.410   6.172   2.315
 1139SOL    HW2 4317   1.455   6.120   2.167
 1140SOL     OW 4318   3.575   1.767   3.939
 1140SOL    HW1 4319   3.477   1.789   3.932
 1140SOL    HW2 4320   3.624   1.810   3.863
 1141SOL     OW 4321   6.512   5.672   5.430
 1141SOL    HW1 4322   6.582   5.652   5.361
 1141SOL    HW2 4323   6.531   5.621   5.513
 1142SOL     OW 4324   6.206   0.537   4.029
 1142SOL    HW1 4325   6.282   0.473   4.027
 1142SOL    HW2 4326   6.121   0.488   4.010
 1143SOL     OW 4327   4.222   2.039   2.785
 1143SOL    HW1 4328   4.304   1.983   2.789
 1143SOL    HW2 4329   4.238   2.117   2.724
 1144SOL     OW 4330   0.335   5.581   4.204
 1144SOL    HW1 4331   0.250   5.575   4.255
 1144SOL    HW2 4332   0.368   5.676   4.204
 1145SOL     OW 4333   0.335   5.737   4.743
 1145SOL    HW1 4334   0.403   5.762   4.673
 1145SOL    HW2 4335   0.362   5.775   4.831
 1146SOL     OW 4336   5.590   2.195   0.996
 1146SOL    HW1 4337   5.686   2.168   1.004
 1146SOL    HW2 4338   5.543   2.130   0.936
 1147SOL     OW 4339   0.026   2.797   2.039
 1147SOL    HW1 4340   0.068   2.843   1.961
 1147SOL    HW2 4341   7.017   2.866   2.104
 1148SOL     OW 4342   3.462   6.768   0.526
 1148SOL    HW1 4343   3.522   6.841   0.493
 1148SOL    HW2 4344   3.366   6.797   0.516
 1149SOL     OW 4345   6.566   3.116   2.472
 1149SOL    HW1 4346   6.652   3.097   2.518
 1149SOL    HW2 4347   6.553   3.215   2.465
 1150SOL     OW 4348   1.718   4.627   0.236
 1150SOL    HW1 4349   1.734   4.684   0.316
 1150SOL    HW2 4350   1.621   4.602   0.232
 1151SOL     OW 4351   5.394   5.167   6.546
 1151SOL    HW1 4352   5.430   5.238   6.606
 1151SOL    HW2 4353   5.294   5.171   6.545
 1152SOL     OW 4354   1.294   0.217   4.972
 1152SOL    HW1 4355   1.318   0.269   5.054
 1152SOL    HW2 4356   1.340   0.128   4.974
 1153SOL     OW 4357   2.544   5.391   2.935
 1153SOL    HW1 4358   2.540   5.424   2.841
 1153SOL    HW2 4359   2.607   5.448   2.988
 1154SOL     OW 4360   0.762   3.870   1.734
 1154SOL    HW1 4361   0.666   3.900   1.736
 1154SOL    HW2 4362   0.818   3.940   1.689
 1155SOL     OW 4363   3.904   5.664   2.051
 1155SOL    HW1 4364   3.987   5.643   2.102
 1155SOL    HW2 4365   3.847   5.727   2.104
 1156SOL     OW 4366   2.351   0.327   4.393
 1156SOL    HW1 4367   2.309   0.335   4.483
 1156SOL    HW2 4368   2.377   0.232   4.376
 1157SOL     OW 4369   0.405   2.970   3.889
 1157SOL    HW1 4370   0.310   3.000   3.904
 1157SOL    HW2 4371   0.407   2.871   3.876
 1158SOL     OW 4372   4.987   5.281   5.698
 1158SOL    HW1 4373   5.017   5.372   5.671
 1158SOL    HW2 4374   4.902   5.258   5.651
 1159SOL     OW 4375   4.149   5.224   3.603
 1159SOL    HW1 4376   4.146   5.182   3.512
 1159SOL    HW2 4377   4.106   5.163   3.670
 1160SOL     OW 4378   3.265   3.896   1.227
 1160SOL    HW1 4379   3.323   3.880   1.147
 1160SOL    HW2 4380   3.196   3.824   1.233
 1161SOL     OW 4381   5.205   1.362   3.278
 1161SOL    HW1 4382   5.246   1.353   3.369
 1161SOL    HW2 4383   5.107   1.342   3.284
 1162SOL     OW 4384   3.547   4.161   2.140
 1162SOL    HW1 4385   3.545   4.156   2.040
 1162SOL    HW2 4386   3.504   4.246   2.170
 1163SOL     OW 4387   5.294   1.903   2.876
 1163SOL    HW1 4388   5.289   1.940   2.969
 1163SOL    HW2 4389   5.318   1.806   2.880
 1164SOL     OW 4390   5.886   3.261   3.451
 1164SOL    HW1 4391   5.800   3.250   3.499
 1164SOL    HW2 4392   5.884   3.210   3.365
 1165SOL     OW 4393   1.132   4.853   3.101
 1165SOL    HW1 4394   1.042   4.895   3.097
 1165SOL    HW2 4395   1.201   4.918   3.068
 1166SOL     OW 4396   4.277   2.897   6.304
 1166SOL    HW1 4397   4.237   2.903   6.395
 1166SOL    HW2 4398   4.226   2.829   6.250
 1167SOL     OW 4399   4.768   1.240   5.266
 1167SOL    HW1 4400   4.724   1.216   5.179
 1167SOL    HW2 4401   4.704   1.224   5.341
 1168SOL     OW 4402   6.024   6.812   3.063
 1168SOL    HW1 4403   5.997   6.908   3.071
 1168SOL    HW2 4404   6.046   6.776   3.153
 1169SOL     OW 4405   0.770   3.599   1.794
 1169SOL    HW1 4406   0.741   3.694   1.786
 1169SOL    HW2 4407   0.755   3.567   1.887
 1170SOL     OW 4408   3.090   0.794   0.933
 1170SOL    HW1 4409   3.125   0.733   0.862
 1170SOL    HW2 4410   3.136   0.774   1.020
 1171SOL     OW 4411   2.605   5.631   0.644
 1171SOL    HW1 4412   2.612   5.724   0.609
 1171SOL    HW2 4413   2.524   5.586   0.606
 1172SOL     OW 4414   2.890   3.586   4.920
 1172SOL    HW1 4415   2.809   3.577   4.978
 1172SOL    HW2 4416   2.952   3.509   4.935
 1173SOL     OW 4417   3.843   1.164   6.704
 1173SOL    HW1 4418   3.832   1.071   6.669
 1173SOL    HW2 4419   3.760   1.217   6.686
 1174SOL     OW 4420   2.732   6.030   0.887
 1174SOL    HW1 4421   2.737   5.931   0.869
 1174SOL    HW2 4422   2.815   6.074   0.853
 1175SOL     OW 4423   6.332   4.614   5.612
 1175SOL    HW1 4424   6.265   4.554   5.568
 1175SOL    HW2 4425   6.344   4.697   5.558
 1176SOL     OW 4426   5.571   4.560   0.848
 1176SOL    HW1 4427   5.671   4.559   0.850
 1176SOL    HW2 4428   5.538   4.654   0.837
 1177SOL     OW 4429   6.359   2.702   6.057
 1177SOL    HW1 4430   6.331   2.665   6.146
 1177SOL    HW2 4431   6.453   2.674   6.038
 1178SOL     OW 4432   6.280   3.526   1.956
 1178SOL    HW1 4433   6.218   3.500   2.030
 1178SOL    HW2 4434   6.325   3.612   1.979
 1179SOL     OW 4435   2.129   5.336   6.189
 1179SOL    HW1 4436   2.125   5.359   6.092
 1179SOL    HW2 4437   2.224   5.328   6.217
 1180SOL     OW 4438   2.634   1.378   4.010
 1180SOL    HW1 4439   2.640   1.323   4.093
 1180SOL    HW2 4440   2.652   1.320   3.930
 1181SOL     OW 4441   2.053   4.344   3.023
 1181SOL    HW1 4442   2.049   4.296   2.936
 1181SOL    HW2 4443   1.986   4.418   3.024
 1182SOL     OW 4444   2.044   4.125   3.541
 1182SOL    HW1 4445   1.967   4.080   3.497
 1182SOL    HW2 4446   2.040   4.110   3.640
 1183SOL     OW 4447   4.784   5.854   1.077
 1183SOL    HW1 4448   4.791   5.778   1.142
 1183SOL    HW2 4449   4.827   5.935   1.116
 1184SOL     OW 4450   3.089   2.890   5.814
 1184SOL    HW1 4451   3.090   2.877   5.715
 1184SOL    HW2 4452   3.172   2.938   5.842
 1185SOL     OW 4453   1.958   0.977   6.934
 1185SOL    HW1 4454   1.936   0.960   0.006
 1185SOL    HW2 4455   2.056   0.965   6.920
 1186SOL     OW 4456   4.953   1.375   4.693
 1186SOL    HW1 4457   4.899   1.359   4.776
 1186SOL    HW2 4458   4.926   1.309   4.623
 1187SOL     OW 4459   5.973   0.511   5.264
 1187SOL    HW1 4460   6.039   0.436   5.259
 1187SOL    HW2 4461   5.986   0.572   5.186
 1188SOL     OW 4462   1.838   0.366   5.603
 1188SOL    HW1 4463   1.872   0.281   5.563
 1188SOL    HW2 4464   1.834   0.437   5.533
 1189SOL     OW 4465   5.258   0.816   1.825
 1189SOL    HW1 4466   5.232   0.720   1.839
 1189SOL    HW2 4467   5.337   0.820   1.764
 1190SOL     OW 4468   4.338   4.938   2.964
 1190SOL    HW1 4469   4.360   5.027   3.004
 1190SOL    HW2 4470   4.244   4.913   2.990
 1191SOL     OW 4471   3.148   5.504   6.502
 1191SOL    HW1 4472   3.055   5.533   6.525
 1191SOL    HW2 4473   3.211   5.581   6.515
 1192SOL     OW 4474   5.441   5.082   2.743
 1192SOL    HW1 4475   5.450   5.069   2.842
 1192SOL    HW2 4476   5.508   5.149   2.712
 1193SOL     OW 4477   4.916   0.552   4.069
 1193SOL    HW1 4478   4.945   0.563   4.164
 1193SOL    HW2 4479   4.982   0.494   4.021
 1194SOL     OW 4480   6.064   0.181   0.879
 1194SOL    HW1 4481   5.974   0.213   0.851
 1194SOL    HW2 4482   6.070   0.082   0.866
 1195SOL     OW 4483   5.060   0.555   6.601
 1195SOL    HW1 4484   4.985   0.620   6.589
 1195SOL    HW2 4485   5.128   0.569   6.529
 1196SOL     OW 4486   0.478   5.381   2.379
 1196SOL    HW1 4487   0.558   5.354   2.432
 1196SOL    HW2 4488   0.472   5.481   2.376
 1197SOL     OW 4489   3.924   5.359   6.122
 1197SOL    HW1 4490   3.882   5.290   6.181
 1197SOL    HW2 4491   4.014   5.328   6.092
 1198SOL     OW 4492   2.849   2.085   2.442
 1198SOL    HW1 4493   2.820   1.989   2.438
 1198SOL    HW2 4494   2.848   2.116   2.537
 1199SOL     OW 4495   4.133   3.540   2.323
 1199SOL    HW1 4496   4.128   3.459   2.265
 1199SOL    HW2 4497   4.117   3.622   2.268
 1200SOL     OW 4498   3.972   3.653   0.066
 1200SOL    HW1 4499   3.949   3.749   0.080
 1200SOL    HW2 4500   4.055   3.631   0.116
 1201SOL     OW 4501   1.126   1.094   5.061
 1201SOL    HW1 4502   1.180   1.176   5.040
 1201SOL    HW2 4503   1.111   1.042   4.978
 1202SOL     OW 4504   5.972   0.071   4.736
 1202SOL    HW1 4505   5.936   0.065   4.829
 1202SOL    HW2 4506   5.895   0.078   4.672
 1203SOL     OW 4507   5.754   7.002   1.527
 1203SOL    HW1 4508   5.836   7.011   1.584
 1203SOL    HW2 4509   5.770   6.932   1.457
 1204SOL     OW 4510   3.121   0.738   0.625
 1204SOL    HW1 4511   3.149   0.833   0.641
 1204SOL    HW2 4512   3.040   0.737   0.566
 1205SOL     OW 4513   6.740   2.708   5.111
 1205SOL    HW1 4514   6.766   2.716   5.015
 1205SOL    HW2 4515   6.788   2.778   5.164
 1206SOL     OW 4516   2.233   1.982   4.765
 1206SOL    HW1 4517   2.290   2.064   4.758
 1206SOL    HW2 4518   2.224   1.957   4.861
 1207SOL     OW 4519   5.678   6.980   6.536
 1207SOL    HW1 4520   5.662   6.904   6.472
 1207SOL    HW2 4521   5.635   6.958   6.623
 1208SOL     OW 4522   3.644   3.972   3.365
 1208SOL    HW1 4523   3.709   3.931   3.428
 1208SOL    HW2 4524   3.552   3.940   3.388
 1209SOL     OW 4525   5.881   5.152   4.315
 1209SOL    HW1 4526   5.839   5.084   4.374
 1209SOL    HW2 4527   5.827   5.236   4.317
 1210SOL     OW 4528   3.599   6.924   2.358
 1210SOL    HW1 4529   3.611   6.827   2.333
 1210SOL    HW2 4530   3.611   6.935   2.456
 1211SOL     OW 4531   0.226   4.645   4.786
 1211SOL    HW1 4532   0.267   4.583   4.853
 1211SOL    HW2 4533   0.280   4.644   4.702
 1212SOL     OW 4534   1.714   3.832   4.933
 1212SOL    HW1 4535   1.791   3.888   4.901
 1212SOL    HW2 4536   1.645   3.826   4.861
 1213SOL     OW 4537   5.896   2.010   5.520
 1213SOL    HW1 4538   5.936   1.943   5.457
 1213SOL    HW2 4539   5.796   2.005   5.515
 1214SOL     OW 4540   1.991   3.518   3.771
 1214SOL    HW1 4541   2.054   3.503   3.848
 1214SOL    HW2 4542   1.897   3.515   3.805
 1215SOL     OW 4543   1.235   4.774   1.702
 1215SOL    HW1 4544   1.275   4.812   1.785
 1215SOL    HW2 4545   1.210   4.848   1.640
 1216SOL     OW 4546   2.283   0.344   2.141
 1216SOL    HW1 4547   2.336   0.262   2.160
 1216SOL    HW2 4548   2.259   0.390   2.226
 1217SOL     OW 4549   1.369   6.668   2.093
 1217SOL    HW1 4550   1.340   6.760   2.064
 1217SOL    HW2 4551   1.469   6.667   2.103
 1218SOL     OW 4552   0.482   3.657   3.640
 1218SOL    HW1 4553   0.480   3.665   3.540
 1218SOL    HW2 4554   0.578   3.653   3.670
 1219SOL     OW 4555   3.731   6.167   2.287
 1219SOL    HW1 4556   3.821   6.209   2.272
 1219SOL    HW2 4557   3.738   6.100   2.361
 1220SOL     OW 4558   6.180   3.678   3.542
 1220SOL    HW1 4559   6.158   3.581   3.545
 1220SOL    HW2 4560   6.122   3.724   3.475
 1221SOL     OW 4561   4.750   3.821   0.145
 1221SOL    HW1 4562   4.787   3.880   0.073
 1221SOL    HW2 4563   4.737   3.875   0.228
 1222SOL     OW 4564   0.115   6.467   1.583
 1222SOL    HW1 4565   0.090   6.390   1.642
 1222SOL    HW2 4566   0.122   6.435   1.488
 1223SOL     OW 4567   6.134   6.708   6.471
 1223SOL    HW1 4568   6.141   6.808   6.479
 1223SOL    HW2 4569   6.064   6.684   6.404
 1224SOL     OW 4570   4.777   4.889   2.112
 1224SOL    HW1 4571   4.721   4.832   2.172
 1224SOL    HW2 4572   4.820   4.833   2.042
 1225SOL     OW 4573   4.956   2.314   0.383
 1225SOL    HW1 4574   4.987   2.368   0.461
 1225SOL    HW2 4575   5.029   2.251   0.355
 1226SOL     OW 4576   6.105   5.575   1.042
 1226SOL    HW1 4577   6.116   5.497   1.102
 1226SOL    HW2 4578   6.020   5.564   0.989
 1227SOL     OW 4579   5.378   3.842   5.822
 1227SOL    HW1 4580   5.397   3.940   5.813
 1227SOL    HW2 4581   5.390   3.798   5.733
 1228SOL     OW 4582   3.855   2.954   2.985
 1228SOL    HW1 4583   3.808   2.920   2.903
 1228SOL    HW2 4584   3.914   3.031   2.959
 1229SOL     OW 4585   2.370   5.592   3.059
 1229SOL    HW1 4586   2.408   5.523   2.997
 1229SOL    HW2 4587   2.426   5.596   3.142
 1230SOL     OW 4588   5.306   4.925   1.232
 1230SOL    HW1 4589   5.390   4.931   1.286
 1230SOL    HW2 4590   5.240   4.992   1.266
 1231SOL     OW 4591   1.473   2.328   6.545
 1231SOL    HW1 4592   1.479   2.427   6.558
 1231SOL    HW2 4593   1.514   2.303   6.457
 1232SOL     OW 4594   3.177   0.491   5.649
 1232SOL    HW1 4595   3.237   0.570   5.658
 1232SOL    HW2 4596   3.085   0.521   5.624
 1233SOL     OW 4597   0.207   5.787   5.165
 1233SOL    HW1 4598   0.282   5.836   5.209
 1233SOL    HW2 4599   0.228   5.689   5.163
 1234SOL     OW 4600   6.874   3.342   0.251
 1234SOL    HW1 4601   6.798   3.402   0.279
 1234SOL    HW2 4602   6.882   3.343   0.151
 1235SOL     OW 4603   6.388   5.150   0.452
 1235SOL    HW1 4604   6.326   5.191   0.519
 1235SOL    HW2 4605   6.398   5.211   0.373
 1236SOL     OW 4606   1.461   1.787   2.163
 1236SOL    HW1 4607   1.497   1.859   2.104
 1236SOL    HW2 4608   1.438   1.707   2.108
 1237SOL     OW 4609   0.675   0.209   4.325
 1237SOL    HW1 4610   0.763   0.186   4.368
 1237SOL    HW2 4611   0.608   0.138   4.347
 1238SOL     OW 4612   6.830   0.622   4.626
 1238SOL    HW1 4613   6.800   0.685   4.555
 1238SOL    HW2 4614   6.855   0.534   4.584
 1239SOL     OW 4615   6.454   4.697   4.693
 1239SOL    HW1 4616   6.476   4.617   4.748
 1239SOL    HW2 4617   6.369   4.680   4.642
 1240SOL     OW 4618   6.186   4.297   3.367
 1240SOL    HW1 4619   6.211   4.388   3.399
 1240SOL    HW2 4620   6.136   4.249   3.440
 1241SOL     OW 4621   4.791   5.047   4.888
 1241SOL    HW1 4622   4.742   5.047   4.801
 1241SOL    HW2 4623   4.886   5.074   4.872
 1242SOL     OW 4624   1.090   4.548   6.909
 1242SOL    HW1 4625   1.111   4.548   7.007
 1242SOL    HW2 4626   1.170   4.578   6.858
 1243SOL     OW 4627   0.804   4.747   4.796
 1243SOL    HW1 4628   0.853   4.735   4.710
 1243SOL    HW2 4629   0.709   4.773   4.778
 1244SOL     OW 4630   5.029   0.655   4.895
 1244SOL    HW1 4631   4.955   0.589   4.885
 1244SOL    HW2 4632   5.102   0.615   4.950
 1245SOL     OW 4633   4.921   6.845   1.256
 1245SOL    HW1 4634   4.854   6.912   1.286
 1245SOL    HW2 4635   4.894   6.809   1.167
 1246SOL     OW 4636   4.851   1.698   0.340
 1246SOL    HW1 4637   4.755   1.685   0.314
 1246SOL    HW2 4638   4.867   1.794   0.363
 1247SOL     OW 4639   6.917   6.919   3.686
 1247SOL    HW1 4640   7.009   6.894   3.717
 1247SOL    HW2 4641   6.890   7.005   3.729
 1248SOL     OW 4642   1.202   0.066   4.379
 1248SOL    HW1 4643   1.220   0.024   4.468
 1248SOL    HW2 4644   1.173   7.019   4.315
 1249SOL     OW 4645   5.630   4.631   6.890
 1249SOL    HW1 4646   5.591   4.544   6.862
 1249SOL    HW2 4647   5.557   4.692   6.922
 1250SOL     OW 4648   6.605   3.246   4.847
 1250SOL    HW1 4649   6.669   3.278   4.917
 1250SOL    HW2 4650   6.654   3.231   4.761
 1251SOL     OW 4651   3.038   0.393   3.104
 1251SOL    HW1 4652   3.110   0.455   3.075
 1251SOL    HW2 4653   2.979   0.440   3.171
 1252SOL     OW 4654   1.424   5.560   6.908
 1252SOL    HW1 4655   1.381   5.647   6.884
 1252SOL    HW2 4656   1.356   5.487   6.902
 1253SOL     OW 4657   3.333   1.199   0.934
 1253SOL    HW1 4658   3.404   1.135   0.905
 1253SOL    HW2 4659   3.244   1.166   0.902
 1254SOL     OW 4660   6.729   1.047   1.576
 1254SOL    HW1 4661   6.724   1.109   1.655
 1254SOL    HW2 4662   6.651   1.062   1.516
 1255SOL     OW 4663   5.466   1.628   5.652
 1255SOL    HW1 4664   5.496   1.624   5.556
 1255SOL    HW2 4665   5.384   1.685   5.658
 1256SOL     OW 4666   0.915   5.852   4.312
 1256SOL    HW1 4667   0.900   5.938   4.361
 1256SOL    HW2 4668   0.841   5.839   4.246
 1257SOL     OW 4669   0.255   5.521   3.890
 1257SOL    HW1 4670   0.181   5.586   3.871
 1257SOL    HW2 4671   0.290   5.537   3.982
 1258SOL     OW 4672   4.360   6.574   4.615
 1258SOL    HW1 4673   4.451   6.545   4.645
 1258SOL    HW2 4674   4.352   6.560   4.516
 1259SOL     OW 4675   5.909   0.520   3.850
 1259SOL    HW1 4676   5.939   0.529   3.945
 1259SOL    HW2 4677   5.840   0.447   3.843
 1260SOL     OW 4678   1.790   0.891   2.244
 1260SOL    HW1 4679   1.747   0.834   2.314
 1260SOL    HW2 4680   1.820   0.834   2.167
 1261SOL     OW 4681   6.125   4.507   6.348
 1261SOL    HW1 4682   6.204   4.460   6.309
 1261SOL    HW2 4683   6.055   4.519   6.277
 1262SOL     OW 4684   4.764   5.154   0.528
 1262SOL    HW1 4685   4.851   5.200   0.545
 1262SOL    HW2 4686   4.752   5.080   0.594
 1263SOL     OW 4687   0.115   2.273   1.441
 1263SOL    HW1 4688   0.058   2.261   1.360
 1263SOL    HW2 4689   0.210   2.249   1.418
 1264SOL     OW 4690   0.017   3.320   3.781
 1264SOL    HW1 4691   0.107   3.336   3.739
 1264SOL    HW2 4692   7.008   3.229   3.755
 1265SOL     OW 4693   6.635   4.423   5.388
 1265SOL    HW1 4694   6.604   4.405   5.482
 1265SOL    HW2 4695   6.622   4.341   5.333
 1266SOL     OW 4696   2.904   1.445   4.840
 1266SOL    HW1 4697   2.834   1.385   4.880
 1266SOL    HW2 4698   2.865   1.493   4.761
 1267SOL     OW 4699   6.894   5.070   2.884
 1267SOL    HW1 4700   6.815   5.041   2.937
 1267SOL    HW2 4701   6.898   5.170   2.880
 1268SOL     OW 4702   5.856   2.791   0.499
 1268SOL    HW1 4703   5.846   2.696   0.471
 1268SOL    HW2 4704   5.950   2.807   0.530
 1269SOL     OW 4705   6.791   5.373   5.354
 1269SOL    HW1 4706   6.790   5.347   5.450
 1269SOL    HW2 4707   6.859   5.319   5.305
 1270SOL     OW 4708   1.834   3.072   5.035
 1270SOL    HW1 4709   1.876   3.154   5.074
 1270SOL    HW2 4710   1.740   3.064   5.068
 1271SOL     OW 4711   3.677   1.486   2.893
 1271SOL    HW1 4712   3.629   1.560   2.939
 1271SOL    HW2 4713   3.664   1.493   2.794
 1272SOL     OW 4714   0.359   5.540   1.337
 1272SOL    HW1 4715   0.389   5.453   1.376
 1272SOL    HW2 4716   0.348   5.531   1.238
 1273SOL     OW 4717   2.729   5.808   6.749
 1273SOL    HW1 4718   2.673   5.788   6.669
 1273SOL    HW2 4719   2.678   5.867   6.812
 1274SOL     OW 4720   6.843   2.241   1.981
 1274SOL    HW1 4721   6.828   2.145   2.006
 1274SOL    HW2 4722   6.871   2.247   1.885
 1275SOL     OW 4723   3.569   1.759   4.371
 1275SOL    HW1 4724   3.517   1.823   4.428
 1275SOL    HW2 4725   3.628   1.703   4.430
 1276SOL     OW 4726   6.989   0.175   2.912
 1276SOL    HW1 4727   6.966   0.200   2.818
 1276SOL    HW2 4728   6.906   0.148   2.961
 1277SOL     OW 4729   0.100   0.252   4.659
 1277SOL    HW1 4730   0.026   0.188   4.681
 1277SOL    HW2 4731   0.187   0.202   4.659
 1278SOL     OW 4732   2.347   1.889   5.802
 1278SOL    HW1 4733   2.409   1.845   5.736
 1278SOL    HW2 4734   2.401   1.941   5.868
 1279SOL     OW 4735   2.675   5.530   0.280
 1279SOL    HW1 4736   2.609   5.489   0.342
 1279SOL    HW2 4737   2.663   5.629   0.279
 1280SOL     OW 4738   3.016   6.911   3.725
 1280SOL    HW1 4739   3.107   6.892   3.688
 1280SOL    HW2 4740   2.972   6.826   3.751
 1281SOL     OW 4741   1.310   5.888   3.075
 1281SOL    HW1 4742   1.252   5.937   3.009
 1281SOL    HW2 4743   1.405   5.894   3.045
 1282SOL     OW 4744   0.935   1.196   1.218
 1282SOL    HW1 4745   0.845   1.177   1.258
 1282SOL    HW2 4746   0.929   1.276   1.158
 1283SOL     OW 4747   5.624   4.940   5.225
 1283SOL    HW1 4748   5.606   4.852   5.181
 1283SOL    HW2 4749   5.593   5.014   5.165
 1284SOL     OW 4750   2.673   2.611   1.770
 1284SOL    HW1 4751   2.579   2.579   1.785
 1284SOL    HW2 4752   2.732   2.578   1.843
 1285SOL     OW 4753   4.758   2.813   4.966
 1285SOL    HW1 4754   4.724   2.763   5.046
 1285SOL    HW2 4755   4.812   2.891   4.997
 1286SOL     OW 4756   5.565   4.315   1.590
 1286SOL    HW1 4757   5.621   4.235   1.570
 1286SOL    HW2 4758   5.473   4.301   1.552
 1287SOL     OW 4759   7.013   6.158   6.387
 1287SOL    HW1 4760   0.042   6.215   6.450
 1287SOL    HW2 4761   7.017   6.197   6.295
 1288SOL     OW 4762   0.256   3.147   1.025
 1288SOL    HW1 4763   0.202   3.165   1.106
 1288SOL    HW2 4764   0.273   3.232   0.975
 1289SOL     OW 4765   0.266   6.065   2.757
 1289SOL    HW1 4766   0.314   6.019   2.682
 1289SOL    HW2 4767   0.168   6.063   2.739
 1290SOL     OW 4768   0.687   6.440   0.450
 1290SOL    HW1 4769   0.671   6.411   0.356
 1290SOL    HW2 4770   0.747   6.520   0.452
 1291SOL     OW 4771   1.827   5.847   6.962
 1291SOL    HW1 4772   1.847   5.940   6.929
 1291SOL    HW2 4773   1.836   5.783   6.885
 1292SOL     OW 4774   0.628   5.178   0.784
 1292SOL    HW1 4775   0.550   5.125   0.752
 1292SOL    HW2 4776   0.680   5.212   0.705
 1293SOL     OW 4777   0.614   2.339   6.563
 1293SOL    HW1 4778   0.626   2.262   6.625
 1293SOL    HW2 4779   0.639   2.424   6.609
 1294SOL     OW 4780   0.172   2.404   2.207
 1294SOL    HW1 4781   0.075   2.382   2.197
 1294SOL    HW2 4782   0.186   2.501   2.191
 1295SOL     OW 4783   5.731   2.491   1.624
 1295SOL    HW1 4784   5.753   2.540   1.708
 1295SOL    HW2 4785   5.813   2.488   1.566
 1296SOL     OW 4786   3.435   1.974   6.531
 1296SOL    HW1 4787   3.415   1.968   6.629
 1296SOL    HW2 4788   3.465   1.885   6.497
 1297SOL     OW 4789   6.740   1.217   5.269
 1297SOL    HW1 4790   6.698   1.307   5.255
 1297SOL    HW2 4791   6.792   1.218   5.354
 1298SOL     OW 4792   6.441   2.642   3.206
 1298SOL    HW1 4793   6.491   2.726   3.226
 1298SOL    HW2 4794   6.430   2.632   3.107
 1299SOL     OW 4795   1.400   3.953   4.235
 1299SOL    HW1 4796   1.498   3.950   4.252
 1299SOL    HW2 4797   1.358   3.869   4.270
 1300SOL     OW 4798   3.433   2.847   1.904
 1300SOL    HW1 4799   3.421   2.770   1.842
 1300SOL    HW2 4800   3.381   2.831   1.988
 1301SOL     OW 4801   0.985   6.661   4.073
 1301SOL    HW1 4802   0.976   6.627   3.979
 1301SOL    HW2 4803   1.014   6.757   4.071
 1302SOL     OW 4804   2.740   6.412   4.736
 1302SOL    HW1 4805   2.817   6.350   4.748
 1302SOL    HW2 4806   2.668   6.389   4.801
 1303SOL     OW 4807   3.316   1.912   0.970
 1303SOL    HW1 4808   3.349   1.824   0.934
 1303SOL    HW2 4809   3.378   1.943   1.043
 1304SOL     OW 4810   2.382   0.259   6.603
 1304SOL    HW1 4811   2.369   0.311   6.519
 1304SOL    HW2 4812   2.452   0.303   6.659
 1305SOL     OW 4813   4.441   0.494   4.943
 1305SOL    HW1 4814   4.498   0.442   5.007
 1305SOL    HW2 4815   4.352   0.511   4.984
 1306SOL     OW 4816   0.655   4.502   4.205
 1306SOL    HW1 4817   0.596   4.561   4.150
 1306SOL    HW2 4818   0.607   4.475   4.289
 1307SOL     OW 4819   1.129   2.076   4.288
 1307SOL    HW1 4820   1.218   2.069   4.333
 1307SOL    HW2 4821   1.060   2.030   4.343
 1308SOL     OW 4822   5.034   6.069   4.024
 1308SOL    HW1 4823   4.945   6.042   3.987
 1308SOL    HW2 4824   5.042   6.037   4.119
 1309SOL     OW 4825   6.393   2.307   4.463
 1309SOL    HW1 4826   6.311   2.250   4.459
 1309SOL    HW2 4827   6.366   2.403   4.477
 1310SOL     OW 4828   5.669   3.663   4.522
 1310SOL    HW1 4829   5.719   3.712   4.593
 1310SOL    HW2 4830   5.734   3.613   4.464
 1311SOL     OW 4831   5.841   6.358   5.159
 1311SOL    HW1 4832   5.748   6.382   5.185
 1311SOL    HW2 4833   5.862   6.266   5.192
 1312SOL     OW 4834   0.691   0.523   0.532
 1312SOL    HW1 4835   0.692   0.498   0.435
 1312SOL    HW2 4836   0.781   0.557   0.559
 1313SOL     OW 4837   3.361   5.312   4.668
 1313SOL    HW1 4838   3.388   5.396   4.713
 1313SOL    HW2 4839   3.317   5.333   4.581
 1314SOL     OW 4840   0.980   1.416   5.601
 1314SOL    HW1 4841   0.971   1.349   5.527
 1314SOL    HW2 4842   0.939   1.378   5.684
 1315SOL     OW 4843   2.284   1.622   2.134
 1315SOL    HW1 4844   2.262   1.536   2.089
 1315SOL    HW2 4845   2.246   1.698   2.081
 1316SOL     OW 4846   2.728   6.913   3.994
 1316SOL    HW1 4847   2.661   6.962   3.938
 1316SOL    HW2 4848   2.688   6.889   4.082
 1317SOL     OW 4849   6.658   5.125   4.272
 1317SOL    HW1 4850   6.600   5.202   4.245
 1317SOL    HW2 4851   6.736   5.119   4.209
 1318SOL     OW 4852   0.244   6.995   0.531
 1318SOL    HW1 4853   0.264   0.069   0.531
 1318SOL    HW2 4854   0.149   6.980   0.504
 1319SOL     OW 4855   6.251   1.206   0.011
 1319SOL    HW1 4856   6.220   1.285   6.983
 1319SOL    HW2 4857   6.332   1.167   6.990
 1320SOL     OW 4858   5.625   5.058   5.769
 1320SOL    HW1 4859   5.592   5.067   5.675
 1320SOL    HW2 4860   5.713   5.105   5.778
 1321SOL     OW 4861   3.548   2.682   0.130
 1321SOL    HW1 4862   3.618   2.695   0.060
 1321SOL    HW2 4863   3.593   2.660   0.217
 1322SOL     OW 4864   6.390   1.662   3.940
 1322SOL    HW1 4865   6.357   1.648   4.033
 1322SOL    HW2 4866   6.472   1.719   3.941
 1323SOL     OW 4867   0.071   1.820   5.040
 1323SOL    HW1 4868   0.052   1.733   4.994
 1323SOL    HW2 4869   0.015   1.892   5.000
 1324SOL     OW 4870   1.539   3.378   1.870
 1324SOL    HW1 4871   1.472   3.315   1.830
 1324SOL    HW2 4872   1.494   3.436   1.937
 1325SOL     OW 4873   2.932   6.287   3.404
 1325SOL    HW1 4874   2.939   6.265   3.307
 1325SOL    HW2 4875   2.836   6.304   3.428
 1326SOL     OW 4876   5.297   2.976   4.277
 1326SOL    HW1 4877   5.395   2.961   4.262
 1326SOL    HW2 4878   5.245   2.924   4.210
 1327SOL     OW 4879   4.045   4.919   3.097
 1327SOL    HW1 4880   4.004   4.872   3.020
 1327SOL    HW2 4881   3.996   5.004   3.115
 1328SOL     OW 4882   1.573   1.948   6.951
 1328SOL    HW1 4883   1.515   2.011   7.003
 1328SOL    HW2 4884   1.571   1.975   6.854
 1329SOL     OW 4885   1.160   1.206   0.470
 1329SOL    HW1 4886   1.109   1.284   0.505
 1329SOL    HW2 4887   1.142   1.126   0.528
 1330SOL     OW 4888   0.130   0.170   1.151
 1330SOL    HW1 4889   0.181   0.145   1.068
 1330SOL    HW2 4890   0.056   0.233   1.127
 1331SOL     OW 4891   5.522   0.334   1.754
 1331SOL    HW1 4892   5.540   0.313   1.850
 1331SOL    HW2 4893   5.483   0.253   1.709
 1332SOL     OW 4894   4.197   1.270   1.431
 1332SOL    HW1 4895   4.274   1.216   1.464
 1332SOL    HW2 4896   4.222   1.316   1.346
 1333SOL     OW 4897   3.796   3.844   5.014
 1333SOL    HW1 4898   3.809   3.935   4.974
 1333SOL    HW2 4899   3.703   3.837   5.050
 1334SOL     OW 4900   0.441   3.895   4.749
 1334SOL    HW1 4901   0.477   3.956   4.820
 1334SOL    HW2 4902   0.403   3.813   4.792
 1335SOL     OW 4903   2.456   5.157   3.012
 1335SOL    HW1 4904   2.508   5.237   2.980
 1335SOL    HW2 4905   2.473   5.144   3.110
 1336SOL     OW 4906   0.844   0.433   5.189
 1336SOL    HW1 4907   0.861   0.475   5.278
 1336SOL    HW2 4908   0.795   0.498   5.131
 1337SOL     OW 4909   1.864   2.151   6.365
 1337SOL    HW1 4910   1.897   2.156   6.271
 1337SOL    HW2 4911   1.906   2.223   6.419
 1338SOL     OW 4912   4.438   5.482   6.631
 1338SOL    HW1 4913   4.390   5.548   6.574
 1338SOL    HW2 4914   4.495   5.423   6.574
 1339SOL     OW 4915   6.924   4.311   5.617
 1339SOL    HW1 4916   6.840   4.266   5.647
 1339SOL    HW2 4917   6.945   4.283   5.523
 1340SOL     OW 4918   1.329   2.255   0.521
 1340SOL    HW1 4919   1.266   2.193   0.475
 1340SOL    HW2 4920   1.382   2.205   0.589
 1341SOL     OW 4921   3.300   1.422   3.883
 1341SOL    HW1 4922   3.374   1.436   3.817
 1341SOL    HW2 4923   3.284   1.324   3.895
 1342SOL     OW 4924   0.627   6.333   0.676
 1342SOL    HW1 4925   0.640   6.351   0.578
 1342SOL    HW2 4926   0.711   6.295   0.714
 1343SOL     OW 4927   3.788   6.188   3.532
 1343SOL    HW1 4928   3.759   6.156   3.622
 1343SOL    HW2 4929   3.713   6.239   3.490
 1344SOL     OW 4930   6.434   1.008   2.616
 1344SOL    HW1 4931   6.391   0.957   2.543
 1344SOL    HW2 4932   6.517   1.052   2.581
 1345SOL     OW 4933   0.616   0.421   2.330
 1345SOL    HW1 4934   0.593   0.332   2.291
 1345SOL    HW2 4935   0.586   0.493   2.267
 1346SOL     OW 4936   6.787   0.146   3.706
 1346SOL    HW1 4937   6.857   0.217   3.719
 1346SOL    HW2 4938   6.699   0.190   3.688
 1347SOL     OW 4939   6.271   6.573   3.496
 1347SOL    HW1 4940   6.353   6.544   3.447
 1347SOL    HW2 4941   6.207   6.615   3.431
 1348SOL     OW 4942   6.065   4.197   4.256
 1348SOL    HW1 4943   5.982   4.198   4.200
 1348SOL    HW2 4944   6.141   4.237   4.204
 1349SOL     OW 4945   3.564   2.941   6.989
 1349SOL    HW1 4946   3.660   2.943   7.018
 1349SOL    HW2 4947   3.505   2.958   0.044
 1350SOL     OW 4948   2.892   0.420   6.745
 1350SOL    HW1 4949   2.897   0.479   6.825
 1350SOL    HW2 4950   2.823   0.349   6.760
 1351SOL     OW 4951   0.231   1.326   3.212
 1351SOL    HW1 4952   0.212   1.235   3.249
 1351SOL    HW2 4953   0.164   1.391   3.246
 1352SOL     OW 4954   0.213   1.135   2.893
 1352SOL    HW1 4955   0.184   1.173   2.981
 1352SOL    HW2 4956   0.138   1.144   2.827
 1353SOL     OW 4957   0.714   4.212   4.440
 1353SOL    HW1 4958   0.648   4.286   4.451
 1353SOL    HW2 4959   0.665   4.125   4.427
 1354SOL     OW 4960   0.315   6.895   2.418
 1354SOL    HW1 4961   0.218   6.921   2.420
 1354SOL    HW2 4962   0.370   6.969   2.455
 1355SOL     OW 4963   4.995   3.117   6.552
 1355SOL    HW1 4964   5.062   3.134   6.625
 1355SOL    HW2 4965   4.998   3.190   6.485
 1356SOL     OW 4966   3.593   3.457   2.657
 1356SOL    HW1 4967   3.634   3.380   2.706
 1356SOL    HW2 4968   3.526   3.502   2.715
 1357SOL     OW 4969   2.598   2.929   5.717
 1357SOL    HW1 4970   2.531   2.862   5.749
 1357SOL    HW2 4971   2.675   2.931   5.781
 1358SOL     OW 4972   2.102   2.761   6.539
 1358SOL    HW1 4973   2.200   2.746   6.554
 1358SOL    HW2 4974   2.050   2.690   6.585
 1359SOL     OW 4975   6.504   2.607   0.003
 1359SOL    HW1 4976   6.509   2.704   7.003
 1359SOL    HW2 4977   6.529   2.552   6.948
 1360SOL     OW 4978   3.823   3.743   3.832
 1360SOL    HW1 4979   3.727   3.715   3.839
 1360SOL    HW2 4980   3.835   3.831   3.879
 1361SOL     OW 4981   0.932   6.024   0.110
 1361SOL    HW1 4982   0.875   5.999   0.188
 1361SOL    HW2 4983   0.921   6.121   0.090
 1362SOL     OW 4984   3.018   3.447   5.926
 1362SOL    HW1 4985   3.110   3.472   5.894
 1362SOL    HW2 4986   3.025   3.407   6.018
 1363SOL     OW 4987   6.616   5.932   2.186
 1363SOL    HW1 4988   6.649   5.980   2.104
 1363SOL    HW2 4989   6.516   5.933   2.186
 1364SOL     OW 4990   0.143   3.314   1.432
 1364SOL    HW1 4991   0.140   3.398   1.377
 1364SOL    HW2 4992   0.206   3.249   1.390
 1365SOL     OW 4993   0.147   3.566   6.871
 1365SOL    HW1 4994   0.159   3.663   6.850
 1365SOL    HW2 4995   0.096   3.522   6.797
 1366SOL     OW 4996   6.948   1.491   0.743
 1366SOL    HW1 4997   6.859   1.534   0.729
 1366SOL    HW2 4998   6.942   1.426   0.819
 1367SOL     OW 4999   0.138   5.921   4.267
 1367SOL    HW1 5000   0.100   5.835   4.233
 1367SOL    HW2 5001   0.067   5.991   4.268
 1368SOL     OW 5002   0.056   6.979   4.432
 1368SOL    HW1 5003   0.029   0.013   4.510
 1368SOL    HW2 5004   7.017   6.902   4.425
 1369SOL     OW 5005   2.647   6.438   2.927
 1369SOL    HW1 5006   2.565   6.475   2.970
 1369SOL    HW2 5007   2.709   6.513   2.904
 1370SOL     OW 5008   6.873   2.402   3.294
 1370SOL    HW1 5009   6.833   2.442   3.377
 1370SOL    HW2 5010   6.926   2.321   3.318
 1371SOL     OW 5011   5.590   1.789   5.198
 1371SOL    HW1 5012   5.547   1.878   5.210
 1371SOL    HW2 5013   5.626   1.781   5.105
 1372SOL     OW 5014   6.237   2.277   6.921
 1372SOL    HW1 5015   6.330   2.285   6.883
 1372SOL    HW2 5016   6.170   2.297   6.849
 1373SOL     OW 5017   4.838   2.782   2.069
 1373SOL    HW1 5018   4.812   2.877   2.050
 1373SOL    HW2 5019   4.766   2.721   2.036
 1374SOL     OW 5020   5.186   5.051   0.441
 1374SOL    HW1 5021   5.137   4.964   0.428
 1374SOL    HW2 5022   5.120   5.126   0.435
 1375SOL     OW 5023   5.894   6.179   4.629
 1375SOL    HW1 5024   5.917   6.085   4.654
 1375SOL    HW2 5025   5.874   6.184   4.531
 1376SOL     OW 5026   2.005   4.790   6.679
 1376SOL    HW1 5027   1.931   4.727   6.654
 1376SOL    HW2 5028   2.037   4.769   6.772
 1377SOL     OW 5029   1.775   1.902   2.706
 1377SOL    HW1 5030   1.760   1.977   2.641
 1377SOL    HW2 5031   1.735   1.925   2.794
 1378SOL     OW 5032   5.051   2.343   4.373
 1378SOL    HW1 5033   5.035   2.419   4.310
 1378SOL    HW2 5034   5.095   2.267   4.325
 1379SOL     OW 5035   5.445   5.375   1.141
 1379SOL    HW1 5036   5.417   5.457   1.092
 1379SOL    HW2 5037   5.379   5.302   1.126
 1380SOL     OW 5038   6.903   5.554   0.932
 1380SOL    HW1 5039   6.923   5.628   0.867
 1380SOL    HW2 5040   6.812   5.518   0.913
 1381SOL     OW 5041   6.046   2.396   5.684
 1381SOL    HW1 5042   5.997   2.438   5.607
 1381SOL    HW2 5043   6.094   2.467   5.735
 1382SOL     OW 5044   4.353   2.776   1.156
 1382SOL    HW1 5045   4.405   2.859   1.137
 1382SOL    HW2 5046   4.285   2.795   1.227
 1383SOL     OW 5047   0.569   0.720   1.726
 1383SOL    HW1 5048   0.663   0.749   1.706
 1383SOL    HW2 5049   0.528   0.682   1.643
 1384SOL     OW 5050   5.117   0.915   1.300
 1384SOL    HW1 5051   5.180   0.901   1.376
 1384SOL    HW2 5052   5.031   0.953   1.335
 1385SOL     OW 5053   1.810   5.427   2.326
 1385SOL    HW1 5054   1.865   5.384   2.255
 1385SOL    HW2 5055   1.713   5.414   2.307
 1386SOL     OW 5056   2.805   6.044   3.961
 1386SOL    HW1 5057   2.810   5.947   3.937
 1386SOL    HW2 5058   2.887   6.090   3.928
 1387SOL     OW 5059   4.194   5.943   2.025
 1387SOL    HW1 5060   4.195   5.849   2.061
 1387SOL    HW2 5061   4.112   5.990   2.058
 1388SOL     OW 5062   6.816   0.284   1.307
 1388SOL    HW1 5063   6.861   0.336   1.235
 1388SOL    HW2 5064   6.854   0.191   1.309
 1389SOL     OW 5065   6.716   0.694   3.119
 1389SOL    HW1 5066   6.727   0.787   3.084
 1389SOL    HW2 5067   6.644   0.647   3.067
 1390SOL     OW 5068   0.181   2.921   5.732
 1390SOL    HW1 5069   0.213   2.858   5.661
 1390SOL    HW2 5070   0.084   2.906   5.749
 1391SOL     OW 5071   6.428   1.677   3.564
 1391SOL    HW1 5072   6.370   1.758   3.571
 1391SOL    HW2 5073   6.374   1.595   3.579
 1392SOL     OW 5074   4.774   5.250   5.362
 1392SOL    HW1 5075   4.747   5.163   5.403
 1392SOL    HW2 5076   4.709   5.321   5.389
 1393SOL     OW 5077   4.691   6.587   5.627
 1393SOL    HW1 5078   4.751   6.651   5.674
 1393SOL    HW2 5079   4.676   6.507   5.685
 1394SOL     OW 5080   2.678   5.708   5.596
 1394SOL    HW1 5081   2.606   5.770   5.626
 1394SOL    HW2 5082   2.647   5.655   5.517
 1395SOL     OW 5083   3.281   4.643   5.635
 1395SOL    HW1 5084   3.237   4.660   5.546
 1395SOL    HW2 5085   3.256   4.551   5.666
 1396SOL     OW 5086   6.700   6.391   4.518
 1396SOL    HW1 5087   6.656   6.480   4.525
 1396SOL    HW2 5088   6.631   6.320   4.506
 1397SOL     OW 5089   5.788   0.299   4.383
 1397SOL    HW1 5090   5.888   0.291   4.376
 1397SOL    HW2 5091   5.761   0.290   4.479
 1398SOL     OW 5092   1.200   1.371   5.084
 1398SOL    HW1 5093   1.164   1.435   5.152
 1398SOL    HW2 5094   1.291   1.400   5.056
 1399SOL     OW 5095   3.487   5.654   0.708
 1399SOL    HW1 5096   3.518   5.694   0.622
 1399SOL    HW2 5097   3.551   5.677   0.781
 1400SOL     OW 5098   6.672   0.950   1.851
 1400SOL    HW1 5099   6.735   0.907   1.916
 1400SOL    HW2 5100   6.704   1.042   1.829
 1401SOL     OW 5101   0.471   2.247   5.657
 1401SOL    HW1 5102   0.528   2.168   5.637
 1401SOL    HW2 5103   0.468   2.308   5.577
 1402SOL     OW 5104   0.086   3.379   0.364
 1402SOL    HW1 5105   0.132   3.448   0.308
 1402SOL    HW2 5106   7.019   3.361   0.325
 1403SOL     OW 5107   2.724   6.794   1.863
 1403SOL    HW1 5108   2.733   6.881   1.912
 1403SOL    HW2 5109   2.811   6.746   1.862
 1404SOL     OW 5110   5.535   0.647   0.435
 1404SOL    HW1 5111   5.436   0.641   0.450
 1404SOL    HW2 5112   5.567   0.738   0.461
 1405SOL     OW 5113   2.083   3.938   1.242
 1405SOL    HW1 5114   2.089   4.030   1.201
 1405SOL    HW2 5115   2.056   3.872   1.172
 1406SOL     OW 5116   0.837   4.440   1.655
 1406SOL    HW1 5117   0.786   4.410   1.735
 1406SOL    HW2 5118   0.912   4.500   1.683
 1407SOL     OW 5119   6.605   1.320   2.056
 1407SOL    HW1 5120   6.533   1.356   1.997
 1407SOL    HW2 5121   6.570   1.240   2.105
 1408SOL     OW 5122   5.552   0.889   6.283
 1408SOL    HW1 5123   5.510   0.829   6.351
 1408SOL    HW2 5124   5.542   0.985   6.312
 1409SOL     OW 5125   0.053   0.274   4.286
 1409SOL    HW1 5126   0.067   0.188   4.237
 1409SOL    HW2 5127   0.140   0.324   4.291
 1410SOL     OW 5128   1.012   3.157   6.697
 1410SOL    HW1 5129   1.008   3.184   6.793
 1410SOL    HW2 5130   1.028   3.237   6.640
 1411SOL     OW 5131   2.115   6.550   2.530
 1411SOL    HW1 5132   2.211   6.528   2.511
 1411SOL    HW2 5133   2.056   6.497   2.468
 1412SOL     OW 5134   2.106   2.861   0.683
 1412SOL    HW1 5135   2.124   2.936   0.619
 1412SOL    HW2 5136   2.031   2.887   0.743
 1413SOL     OW 5137   2.407   1.039   4.337
 1413SOL    HW1 5138   2.336   1.064   4.402
 1413SOL    HW2 5139   2.433   0.943   4.352
 1414SOL     OW 5140   2.559   1.734   1.775
 1414SOL    HW1 5141   2.476   1.780   1.806
 1414SOL    HW2 5142   2.558   1.639   1.805
 1415SOL     OW 5143   3.282   6.222   4.715
 1415SOL    HW1 5144   3.285   6.163   4.795
 1415SOL    HW2 5145   3.296   6.167   4.632
 1416SOL     OW 5146   4.543   4.391   2.841
 1416SOL    HW1 5147   4.481   4.459   2.880
 1416SOL    HW2 5148   4.594   4.431   2.765
 1417SOL     OW 5149   2.868   2.477   6.275
 1417SOL    HW1 5150   2.843   2.390   6.317
 1417SOL    HW2 5151   2.959   2.469   6.234
 1418SOL     OW 5152   3.020   3.910   3.101
 1418SOL    HW1 5153   3.027   3.924   3.002
 1418SOL    HW2 5154   2.977   3.821   3.118
 1419SOL     OW 5155   2.877   6.376   4.459
 1419SOL    HW1 5156   2.785   6.352   4.490
 1419SOL    HW2 5157   2.941   6.370   4.536
 1420SOL     OW 5158   1.433   6.279   2.576
 1420SOL    HW1 5159   1.415   6.269   2.674
 1420SOL    HW2 5160   1.349   6.264   2.525
 1421SOL     OW 5161   2.124   2.555   3.049
 1421SOL    HW1 5162   2.131   2.486   3.122
 1421SOL    HW2 5163   2.057   2.624   3.075
 1422SOL     OW 5164   2.427   4.524   2.162
 1422SOL    HW1 5165   2.512   4.563   2.198
 1422SOL    HW2 5166   2.443   4.489   2.070
 1423SOL     OW 5167   5.632   6.254   2.167
 1423SOL    HW1 5168   5.621   6.158   2.194
 1423SOL    HW2 5169   5.542   6.292   2.144
 1424SOL     OW 5170   5.558   5.146   5.070
 1424SOL    HW1 5171   5.485   5.208   5.101
 1424SOL    HW2 5172   5.549   5.132   4.971
 1425SOL     OW 5173   1.832   6.346   3.881
 1425SOL    HW1 5174   1.913   6.359   3.938
 1425SOL    HW2 5175   1.751   6.373   3.933
 1426SOL     OW 5176   0.839   1.914   5.669
 1426SOL    HW1 5177   0.924   1.863   5.684
 1426SOL    HW2 5178   0.806   1.950   5.756
 1427SOL     OW 5179   6.742   0.127   3.069
 1427SOL    HW1 5180   6.701   0.079   3.146
 1427SOL    HW2 5181   6.755   0.223   3.093
 1428SOL     OW 5182   6.403   2.399   0.621
 1428SOL    HW1 5183   6.369   2.381   0.528
 1428SOL    HW2 5184   6.502   2.412   0.618
 1429SOL     OW 5185   6.327   1.258   0.439
 1429SOL    HW1 5186   6.258   1.214   0.382
 1429SOL    HW2 5187   6.377   1.188   0.491
 1430SOL     OW 5188   1.185   4.056   4.093
 1430SOL    HW1 5189   1.257   4.028   4.156
 1430SOL    HW2 5190   1.154   3.977   4.039
 1431SOL     OW 5191   2.249   1.626   1.721
 1431SOL    HW1 5192   2.159   1.642   1.680
 1431SOL    HW2 5193   2.275   1.705   1.776
 1432SOL     OW 5194   2.457   1.253   3.614
 1432SOL    HW1 5195   2.374   1.268   3.560
 1432SOL    HW2 5196   2.532   1.308   3.577
 1433SOL     OW 5197   4.014   0.744   4.042
 1433SOL    HW1 5198   4.097   0.702   4.081
 1433SOL    HW2 5199   4.040   0.809   3.971
 1434SOL     OW 5200   0.570   0.794   5.353
 1434SOL    HW1 5201   0.482   0.835   5.376
 1434SOL    HW2 5202   0.572   0.772   5.255
 1435SOL     OW 5203   5.952   1.098   2.743
 1435SOL    HW1 5204   5.860   1.060   2.751
 1435SOL    HW2 5205   6.005   1.074   2.824
 1436SOL     OW 5206   3.970   4.214   6.723
 1436SOL    HW1 5207   3.877   4.189   6.694
 1436SOL    HW2 5208   4.027   4.133   6.725
 1437SOL     OW 5209   3.219   1.673   3.738
 1437SOL    HW1 5210   3.278   1.696   3.660
 1437SOL    HW2 5211   3.228   1.575   3.758
 1438SOL     OW 5212   3.818   6.425   1.836
 1438SOL    HW1 5213   3.725   6.442   1.801
 1438SOL    HW2 5214   3.871   6.510   1.833
 1439SOL     OW 5215   0.163   6.038   1.996
 1439SOL    HW1 5216   0.211   6.126   2.004
 1439SOL    HW2 5217   0.181   5.999   1.906
 1440SOL     OW 5218   2.675   4.490   1.044
 1440SOL    HW1 5219   2.629   4.401   1.037
 1440SOL    HW2 5220   2.772   4.476   1.062
 1441SOL     OW 5221   6.504   0.114   1.528
 1441SOL    HW1 5222   6.446   0.195   1.520
 1441SOL    HW2 5223   6.451   0.038   1.564
 1442SOL     OW 5224   6.040   6.271   6.829
 1442SOL    HW1 5225   6.049   6.181   6.787
 1442SOL    HW2 5226   6.123   6.324   6.812
 1443SOL     OW 5227   0.606   2.357   2.766
 1443SOL    HW1 5228   0.538   2.372   2.694
 1443SOL    HW2 5229   0.619   2.259   2.779
 1444SOL     OW 5230   5.389   0.072   0.890
 1444SOL    HW1 5231   5.424   0.127   0.966
 1444SOL    HW2 5232   5.297   0.041   0.911
 1445SOL     OW 5233   0.707   3.485   2.957
 1445SOL    HW1 5234   0.754   3.516   2.874
 1445SOL    HW2 5235   0.673   3.564   3.007
 1446SOL     OW 5236   5.927   0.059   6.649
 1446SOL    HW1 5237   5.911   0.143   6.701
 1446SOL    HW2 5238   5.844   0.034   6.601
 1447SOL     OW 5239   5.433   5.398   3.621
 1447SOL    HW1 5240   5.346   5.392   3.671
 1447SOL    HW2 5241   5.506   5.357   3.676
 1448SOL     OW 5242   0.369   3.112   4.928
 1448SOL    HW1 5243   0.308   3.067   4.863
 1448SOL    HW2 5244   0.361   3.069   5.018
 1449SOL     OW 5245   1.351   4.170   4.828
 1449SOL    HW1 5246   1.428   4.204   4.881
 1449SOL    HW2 5247   1.272   4.230   4.840
 1450SOL     OW 5248   1.116   1.638   5.472
 1450SOL    HW1 5249   1.073   1.563   5.521
 1450SOL    HW2 5250   1.215   1.633   5.483
 1451SOL     OW 5251   2.257   6.468   1.921
 1451SOL    HW1 5252   2.258   6.382   1.870
 1451SOL    HW2 5253   2.344   6.516   1.907
 1452SOL     OW 5254   4.317   3.203   6.250
 1452SOL    HW1 5255   4.317   3.111   6.212
 1452SOL    HW2 5256   4.316   3.199   6.350
 1453SOL     OW 5257   0.732   4.600   5.474
 1453SOL    HW1 5258   0.826   4.583   5.447
 1453SOL    HW2 5259   0.721   4.582   5.572
 1454SOL     OW 5260   2.948   2.051   3.390
 1454SOL    HW1 5261   2.921   1.970   3.338
 1454SOL    HW2 5262   2.931   2.036   3.487
 1455SOL     OW 5263   1.709   6.116   2.970
 1455SOL    HW1 5264   1.635   6.146   3.030
 1455SOL    HW2 5265   1.714   6.176   2.890
 1456SOL     OW 5266   6.474   5.834   6.132
 1456SOL    HW1 5267   6.473   5.812   6.230
 1456SOL    HW2 5268   6.425   5.920   6.117
 1457SOL     OW 5269   0.312   4.253   0.327
 1457SOL    HW1 5270   0.375   4.222   0.400
 1457SOL    HW2 5271   0.364   4.301   0.257
 1458SOL     OW 5272   5.725   5.419   5.338
 1458SOL    HW1 5273   5.773   5.348   5.287
 1458SOL    HW2 5274   5.674   5.478   5.274
 1459SOL     OW 5275   5.142   6.853   5.569
 1459SOL    HW1 5276   5.154   6.755   5.553
 1459SOL    HW2 5277   5.093   6.894   5.492
 1460SOL     OW 5278   1.311   6.499   5.542
 1460SOL    HW1 5279   1.257   6.455   5.613
 1460SOL    HW2 5280   1.371   6.432   5.499
 1461SOL     OW 5281   0.474   3.413   2.574
 1461SOL    HW1 5282   0.508   3.319   2.579
 1461SOL    HW2 5283   0.427   3.436   2.660
 1462SOL     OW 5284   0.759   0.797   0.020
 1462SOL    HW1 5285   0.830   0.816   6.975
 1462SOL    HW2 5286   0.689   0.739   7.003
 1463SOL     OW 5287   1.985   5.750   6.219
 1463SOL    HW1 5288   2.071   5.751   6.169
 1463SOL    HW2 5289   1.932   5.831   6.197
 1464SOL     OW 5290   5.961   3.951   3.655
 1464SOL    HW1 5291   6.027   4.021   3.683
 1464SOL    HW2 5292   5.970   3.933   3.558
 1465SOL     OW 5293   1.838   1.331   3.403
 1465SOL    HW1 5294   1.834   1.395   3.480
 1465SOL    HW2 5295   1.895   1.370   3.331
 1466SOL     OW 5296   3.649   2.514   1.729
 1466SOL    HW1 5297   3.561   2.561   1.736
 1466SOL    HW2 5298   3.643   2.426   1.776
 1467SOL     OW 5299   0.725   1.096   3.884
 1467SOL    HW1 5300   0.750   1.101   3.788
 1467SOL    HW2 5301   0.632   1.060   3.893
 1468SOL     OW 5302   3.236   5.609   2.001
 1468SOL    HW1 5303   3.180   5.644   1.926
 1468SOL    HW2 5304   3.178   5.590   2.080
 1469SOL     OW 5305   6.159   6.068   3.638
 1469SOL    HW1 5306   6.141   6.161   3.605
 1469SOL    HW2 5307   6.162   6.005   3.561
 1470SOL     OW 5308   0.037   2.568   0.847
 1470SOL    HW1 5309   0.019   2.483   0.895
 1470SOL    HW2 5310   6.978   2.598   0.799
 1471SOL     OW 5311   6.681   7.008   1.355
 1471SOL    HW1 5312   6.774   0.020   1.348
 1471SOL    HW2 5313   6.623   0.051   1.400
 1472SOL     OW 5314   2.955   0.020   6.137
 1472SOL    HW1 5315   2.865   0.033   6.096
 1472SOL    HW2 5316   2.945   0.000   6.235
 1473SOL     OW 5317   3.598   4.934   4.532
 1473SOL    HW1 5318   3.662   4.857   4.533
 1473SOL    HW2 5319   3.573   4.955   4.438
 1474SOL     OW 5320   4.601   4.802   1.541
 1474SOL    HW1 5321   4.697   4.790   1.518
 1474SOL    HW2 5322   4.545   4.787   1.459
 1475SOL     OW 5323   5.249   0.697   0.531
 1475SOL    HW1 5324   5.164   0.651   0.506
 1475SOL    HW2 5325   5.229   0.792   0.557
 1476SOL     OW 5326   2.937   1.099   1.231
 1476SOL    HW1 5327   2.903   1.082   1.323
 1476SOL    HW2 5328   2.968   1.013   1.191
 1477SOL     OW 5329   4.374   6.116   0.883
 1477SOL    HW1 5330   4.286   6.131   0.928
 1477SOL    HW2 5331   4.425   6.046   0.934
 1478SOL     OW 5332   5.245   6.199   5.204
 1478SOL    HW1 5333   5.234   6.115   5.151
 1478SOL    HW2 5334   5.326   6.192   5.262
 1479SOL     OW 5335   3.848   3.702   1.667
 1479SOL    HW1 5336   3.804   3.618   1.699
 1479SOL    HW2 5337   3.873   3.759   1.746
 1480SOL     OW 5338   2.608   0.516   5.691
 1480SOL    HW1 5339   2.581   0.610   5.710
 1480SOL    HW2 5340   2.593   0.459   5.772
 1481SOL     OW 5341   5.690   2.636   5.350
 1481SOL    HW1 5342   5.780   2.678   5.339
 1481SOL    HW2 5343   5.619   2.707   5.344
 1482SOL     OW 5344   4.738   0.309   0.745
 1482SOL    HW1 5345   4.736   0.318   0.844
 1482SOL    HW2 5346   4.657   0.259   0.714
 1483SOL     OW 5347   4.328   1.449   6.059
 1483SOL    HW1 5348   4.230   1.469   6.060
 1483SOL    HW2 5349   4.363   1.447   6.152
 1484SOL     OW 5350   3.084   4.873   4.049
 1484SOL    HW1 5351   3.050   4.958   4.089
 1484SOL    HW2 5352   3.008   4.812   4.028
 1485SOL     OW 5353   5.168   1.461   2.901
 1485SOL    HW1 5354   5.088   1.410   2.934
 1485SOL    HW2 5355   5.246   1.399   2.893
 1486SOL     OW 5356   5.140   6.959   3.478
 1486SOL    HW1 5357   5.166   6.989   3.386
 1486SOL    HW2 5358   5.217   6.975   3.541
 1487SOL     OW 5359   6.978   0.687   0.026
 1487SOL    HW1 5360   0.024   0.751   7.014
 1487SOL    HW2 5361   6.915   0.663   6.976
 1488SOL     OW 5362   6.431   0.626   2.703
 1488SOL    HW1 5363   6.513   0.618   2.647
 1488SOL    HW2 5364   6.394   0.718   2.696
 1489SOL     OW 5365   4.302   4.909   6.925
 1489SOL    HW1 5366   4.263   5.001   6.925
 1489SOL    HW2 5367   4.277   4.862   6.840
 1490SOL     OW 5368   0.270   2.488   1.922
 1490SOL    HW1 5369   0.367   2.501   1.907
 1490SOL    HW2 5370   0.237   2.554   1.990
 1491SOL     OW 5371   6.904   3.272   1.433
 1491SOL    HW1 5372   6.886   3.178   1.405
 1491SOL    HW2 5373   6.999   3.281   1.464
 1492SOL     OW 5374   6.344   0.837   2.404
 1492SOL    HW1 5375   6.282   0.823   2.326
 1492SOL    HW2 5376   6.438   0.815   2.376
 1493SOL     OW 5377   4.284   1.349   5.742
 1493SOL    HW1 5378   4.337   1.266   5.756
 1493SOL    HW2 5379   4.213   1.356   5.813
 1494SOL     OW 5380   5.714   2.385   5.915
 1494SOL    HW1 5381   5.703   2.423   6.007
 1494SOL    HW2 5382   5.773   2.446   5.861
 1495SOL     OW 5383   5.601   3.394   4.006
 1495SOL    HW1 5384   5.683   3.448   3.990
 1495SOL    HW2 5385   5.600   3.361   4.100
 1496SOL     OW 5386   0.098   6.280   6.759
 1496SOL    HW1 5387   0.060   6.371   6.776
 1496SOL    HW2 5388   0.088   6.223   6.840
 1497SOL     OW 5389   5.302   2.489   2.865
 1497SOL    HW1 5390   5.337   2.401   2.834
 1497SOL    HW2 5391   5.204   2.482   2.882
 1498SOL     OW 5392   3.049   4.652   1.226
 1498SOL    HW1 5393   3.037   4.597   1.309
 1498SOL    HW2 5394   3.132   4.623   1.178
 1499SOL     OW 5395   0.107   3.843   5.951
 1499SOL    HW1 5396   0.085   3.894   5.868
 1499SOL    HW2 5397   0.074   3.892   6.031
 1500SOL     OW 5398   1.059   5.778   0.538
 1500SOL    HW1 5399   0.964   5.782   0.566
 1500SOL    HW2 5400   1.095   5.871   0.529
 1501SOL     OW 5401   5.698   1.323   6.396
 1501SOL    HW1 5402   5.646   1.391   6.344
 1501SOL    HW2 5403   5.779   1.366   6.435
 1502SOL     OW 5404   0.132   1.193   6.062
 1502SOL    HW1 5405   0.110   1.277   6.112
 1502SOL    HW2 5406   0.182   1.131   6.122
 1503SOL     OW 5407   0.844   4.127   1.683
 1503SOL    HW1 5408   0.895   4.179   1.615
 1503SOL    HW2 5409   0.787   4.189   1.738
 1504SOL     OW 5410   0.471   6.865   3.299
 1504SOL    HW1 5411   0.401   6.798   3.274
 1504SOL    HW2 5412   0.494   6.855   3.396
 1505SOL     OW 5413   5.834   6.919   4.957
 1505SOL    HW1 5414   5.844   7.012   4.993
 1505SOL    HW2 5415   5.783   6.921   4.871
 1506SOL     OW 5416   1.767   0.836   1.068
 1506SOL    HW1 5417   1.677   0.867   1.097
 1506SOL    HW2 5418   1.830   0.840   1.145
 1507SOL     OW 5419   1.048   1.963   4.643
 1507SOL    HW1 5420   1.012   2.026   4.574
 1507SOL    HW2 5421   1.044   2.007   4.733
 1508SOL     OW 5422   0.478   1.032   0.531
 1508SOL    HW1 5423   0.497   0.979   0.614
 1508SOL    HW2 5424   0.454   1.126   0.556
 1509SOL     OW 5425   5.467   1.293   5.310
 1509SOL    HW1 5426   5.439   1.265   5.219
 1509SOL    HW2 5427   5.390   1.339   5.356
 1510SOL     OW 5428   3.464   6.986   3.699
 1510SOL    HW1 5429   3.549   0.012   3.681
 1510SOL    HW2 5430   3.442   6.927   3.621
 1511SOL     OW 5431   3.654   3.799   4.163
 1511SOL    HW1 5432   3.751   3.821   4.175
 1511SOL    HW2 5433   3.629   3.722   4.223
 1512SOL     OW 5434   6.759   6.010   1.388
 1512SOL    HW1 5435   6.754   6.098   1.434
 1512SOL    HW2 5436   6.840   6.007   1.330
 1513SOL     OW 5437   3.019   6.833   5.969
 1513SOL    HW1 5438   3.053   6.882   5.889
 1513SOL    HW2 5439   2.982   6.898   6.035
 1514SOL     OW 5440   3.537   2.408   5.691
 1514SOL    HW1 5441   3.493   2.332   5.642
 1514SOL    HW2 5442   3.466   2.472   5.720
 1515SOL     OW 5443   6.427   1.932   2.325
 1515SOL    HW1 5444   6.504   1.887   2.280
 1515SOL    HW2 5445   6.375   1.864   2.378
 1516SOL     OW 5446   6.188   6.427   4.921
 1516SOL    HW1 5447   6.148   6.449   4.832
 1516SOL    HW2 5448   6.170   6.331   4.942
 1517SOL     OW 5449   3.763   6.467   3.654
 1517SOL    HW1 5450   3.708   6.547   3.674
 1517SOL    HW2 5451   3.855   6.479   3.693
 1518SOL     OW 5452   6.919   2.658   0.134
 1518SOL    HW1 5453   6.989   2.727   0.149
 1518SOL    HW2 5454   6.897   2.654   0.036
 1519SOL     OW 5455   0.056   4.324   0.666
 1519SOL    HW1 5456   0.030   4.386   0.592
 1519SOL    HW2 5457   7.019   4.340   0.745
 1520SOL     OW 5458   0.978   4.943   1.316
 1520SOL    HW1 5459   1.052   4.962   1.251
 1520SOL    HW2 5460   0.897   4.994   1.289
 1521SOL     OW 5461   2.366   4.615   6.747
 1521SOL    HW1 5462   2.350   4.576   6.838
 1521SOL    HW2 5463   2.457   4.657   6.745
 1522SOL     OW 5464   5.158   5.739   4.961
 1522SOL    HW1 5465   5.236   5.761   4.902
 1522SOL    HW2 5466   5.074   5.738   4.907
 1523SOL     OW 5467   4.263   6.989   6.833
 1523SOL    HW1 5468   4.251   6.989   6.734
 1523SOL    HW2 5469   4.294   6.898   6.862
 1524SOL     OW 5470   2.638   2.053   2.644
 1524SOL    HW1 5471   2.572   2.125   2.666
 1524SOL    HW2 5472   2.604   1.999   2.567
 1525SOL     OW 5473   6.325   2.454   0.886
 1525SOL    HW1 5474   6.276   2.367   0.876
 1525SOL    HW2 5475   6.405   2.453   0.826
 1526SOL     OW 5476   0.517   1.710   6.856
 1526SOL    HW1 5477   0.431   1.755   6.836
 1526SOL    HW2 5478   0.593   1.766   6.824
 1527SOL     OW 5479   3.532   1.585   4.750
 1527SOL    HW1 5480   3.510   1.541   4.663
 1527SOL    HW2 5481   3.460   1.651   4.773
 1528SOL     OW 5482   4.651   3.708   0.696
 1528SOL    HW1 5483   4.662   3.650   0.777
 1528SOL    HW2 5484   4.586   3.781   0.717
 1529SOL     OW 5485   5.421   0.738   6.487
 1529SOL    HW1 5486   5.342   0.700   6.438
 1529SOL    HW2 5487   5.425   0.698   6.579
 1530SOL     OW 5488   3.185   0.028   1.521
 1530SOL    HW1 5489   3.158   0.024   1.618
 1530SOL    HW2 5490   3.106   0.007   1.463
 1531SOL     OW 5491   4.256   0.656   4.153
 1531SOL    HW1 5492   4.316   0.595   4.101
 1531SOL    HW2 5493   4.201   0.602   4.217
 1532SOL     OW 5494   3.309   5.001   5.909
 1532SOL    HW1 5495   3.216   5.025   5.937
 1532SOL    HW2 5496   3.351   4.943   5.979
 1533SOL     OW 5497   5.266   5.696   1.180
 1533SOL    HW1 5498   5.220   5.783   1.190
 1533SOL    HW2 5499   5.338   5.688   1.249
 1534SOL     OW 5500   3.839   6.489   0.066
 1534SOL    HW1 5501   3.804   6.462   0.156
 1534SOL    HW2 5502   3.774   6.460   7.019
 1535SOL     OW 5503   6.154   6.685   4.828
 1535SOL    HW1 5504   6.062   6.679   4.865
 1535SOL    HW2 5505   6.207   6.605   4.856
 1536SOL     OW 5506   3.996   4.422   0.103
 1536SOL    HW1 5507   3.960   4.430   0.196
 1536SOL    HW2 5508   4.093   4.399   0.107
 1537SOL     OW 5509   3.436   4.973   4.037
 1537SOL    HW1 5510   3.375   4.919   3.979
 1537SOL    HW2 5511   3.396   5.064   4.052
 1538SOL     OW 5512   3.763   1.615   0.360
 1538SOL    HW1 5513   3.801   1.523   0.370
 1538SOL    HW2 5514   3.777   1.646   0.266
 1539SOL     OW 5515   4.899   3.436   1.535
 1539SOL    HW1 5516   4.851   3.361   1.490
 1539SOL    HW2 5517   4.914   3.413   1.631
 1540SOL     OW 5518   2.035   0.165   4.619
 1540SOL    HW1 5519   1.975   0.117   4.683
 1540SOL    HW2 5520   2.108   0.211   4.670
 1541SOL     OW 5521   3.674   2.901   4.438
 1541SOL    HW1 5522   3.576   2.909   4.455
 1541SOL    HW2 5523   3.725   2.932   4.518
 1542SOL     OW 5524   6.491   6.846   2.396
 1542SOL    HW1 5525   6.467   6.823   2.302
 1542SOL    HW2 5526   6.591   6.845   2.407
 1543SOL     OW 5527   2.899   5.874   6.442
 1543SOL    HW1 5528   2.957   5.826   6.375
 1543SOL    HW2 5529   2.811   5.829   6.448
 1544SOL     OW 5530   4.049   3.621   3.870
 1544SOL    HW1 5531   4.098   3.607   3.784
 1544SOL    HW2 5532   3.968   3.678   3.853
 1545SOL     OW 5533   6.264   0.155   1.829
 1545SOL    HW1 5534   6.219   0.206   1.755
 1545SOL    HW2 5535   6.362   0.178   1.830
 1546SOL     OW 5536   5.294   0.177   5.718
 1546SOL    HW1 5537   5.307   0.084   5.753
 1546SOL    HW2 5538   5.382   0.219   5.699
 1547SOL     OW 5539   1.219   4.132   0.465
 1547SOL    HW1 5540   1.241   4.167   0.374
 1547SOL    HW2 5541   1.120   4.133   0.478
 1548SOL     OW 5542   6.556   3.245   0.197
 1548SOL    HW1 5543   6.604   3.224   0.113
 1548SOL    HW2 5544   6.602   3.201   0.274
 1549SOL     OW 5545   3.892   1.594   4.578
 1549SOL    HW1 5546   3.869   1.501   4.550
 1549SOL    HW2 5547   3.941   1.640   4.504
 1550SOL     OW 5548   4.093   3.240   2.356
 1550SOL    HW1 5549   4.138   3.281   2.435
 1550SOL    HW2 5550   4.029   3.169   2.387
 1551SOL     OW 5551   1.085   5.150   0.176
 1551SOL    HW1 5552   1.040   5.169   0.264
 1551SOL    HW2 5553   1.075   5.053   0.154
 1552SOL     OW 5554   2.864   4.704   1.008
 1552SOL    HW1 5555   2.928   4.695   1.084
 1552SOL    HW2 5556   2.782   4.752   1.040
 1553SOL     OW 5557   0.602   1.857   5.964
 1553SOL    HW1 5558   0.532   1.929   5.968
 1553SOL    HW2 5559   0.671   1.874   6.034
 1554SOL     OW 5560   3.367   2.024   3.428
 1554SOL    HW1 5561   3.345   1.981   3.340
 1554SOL    HW2 5562   3.294   2.088   3.453
 1555SOL     OW 5563   6.087   2.604   6.092
 1555SOL    HW1 5564   6.118   2.551   6.014
 1555SOL    HW2 5565   5.993   2.637   6.076
 1556SOL     OW 5566   2.012   1.167   6.690
 1556SOL    HW1 5567   2.077   1.093   6.708
 1556SOL    HW2 5568   2.054   1.255   6.714
 1557SOL     OW 5569   1.515   3.566   6.209
 1557SOL    HW1 5570   1.535   3.549   6.305
 1557SOL    HW2 5571   1.555   3.653   6.181
 1558SOL     OW 5572   6.575   0.594   4.738
 1558SOL    HW1 5573   6.531   0.628   4.655
 1558SOL    HW2 5574   6.673   0.611   4.734
 1559SOL     OW 5575   0.650   2.791   6.437
 1559SOL    HW1 5576   0.650   2.826   6.343
 1559SOL    HW2 5577   0.562   2.810   6.480
 1560SOL     OW 5578   6.950   0.958   6.175
 1560SOL    HW1 5579   7.021   0.909   6.226
 1560SOL    HW2 5580   6.912   1.031   6.232
 1561SOL     OW 5581   4.531   6.221   2.725
 1561SOL    HW1 5582   4.441   6.192   2.690
 1561SOL    HW2 5583   4.585   6.141   2.749
 1562SOL     OW 5584   4.614   6.872   2.174
 1562SOL    HW1 5585   4.650   6.894   2.265
 1562SOL    HW2 5586   4.628   6.951   2.114
 1563SOL     OW 5587   3.458   1.057   6.360
 1563SOL    HW1 5588   3.515   1.054   6.279
 1563SOL    HW2 5589   3.412   0.969   6.373
 1564SOL     OW 5590   1.565   1.270   1.976
 1564SOL    HW1 5591   1.659   1.271   1.941
 1564SOL    HW2 5592   1.533   1.363   1.989
 1565SOL     OW 5593   4.879   3.801   2.332
 1565SOL    HW1 5594   4.796   3.746   2.346
 1565SOL    HW2 5595   4.871   3.852   2.246
 1566SOL     OW 5596   5.162   4.018   3.349
 1566SOL    HW1 5597   5.092   4.058   3.410
 1566SOL    HW2 5598   5.248   4.066   3.362
 1567SOL     OW 5599   5.887   5.893   6.299
 1567SOL    HW1 5600   5.904   5.851   6.210
 1567SOL    HW2 5601   5.810   5.848   6.344
 1568SOL     OW 5602   1.268   0.509   0.478
 1568SOL    HW1 5603   1.285   0.524   0.576
 1568SOL    HW2 5604   1.254   0.597   0.433
 1569SOL     OW 5605   3.805   6.646   4.826
 1569SOL    HW1 5606   3.822   6.724   4.764
 1569SOL    HW2 5607   3.830   6.561   4.780
 1570SOL     OW 5608   2.959   2.057   1.589
 1570SOL    HW1 5609   2.913   2.135   1.632
 1570SOL    HW2 5610   2.908   2.030   1.507
 1571SOL     OW 5611   6.277   3.241   1.937
 1571SOL    HW1 5612   6.281   3.341   1.945
 1571SOL    HW2 5613   6.263   3.215   1.842
 1572SOL     OW 5614   0.628   0.061   1.964
 1572SOL    HW1 5615   0.685   0.142   1.949
 1572SOL    HW2 5616   0.686   7.007   1.990
 1573SOL     OW 5617   5.450   6.732   1.494
 1573SOL    HW1 5618   5.518   6.664   1.469
 1573SOL    HW2 5619   5.424   6.785   1.413
 1574SOL     OW 5620   0.559   2.143   1.568
 1574SOL    HW1 5621   0.620   2.219   1.591
 1574SOL    HW2 5622   0.486   2.137   1.635
 1575SOL     OW 5623   1.960   2.393   0.499
 1575SOL    HW1 5624   1.970   2.482   0.455
 1575SOL    HW2 5625   2.048   2.365   0.538
 1576SOL     OW 5626   5.688   6.092   3.660
 1576SOL    HW1 5627   5.653   6.013   3.610
 1576SOL    HW2 5628   5.736   6.153   3.596
 1577SOL     OW 5629   2.470   0.820   5.699
 1577SOL    HW1 5630   2.420   0.776   5.774
 1577SOL    HW2 5631   2.408   0.880   5.649
 1578SOL     OW 5632   6.127   3.796   5.577
 1578SOL    HW1 5633   6.214   3.790   5.626
 1578SOL    HW2 5634   6.106   3.707   5.537
 1579SOL     OW 5635   0.441   1.391   2.987
 1579SOL    HW1 5636   0.500   1.310   2.984
 1579SOL    HW2 5637   0.370   1.377   3.057
 1580SOL     OW 5638   2.703   4.481   5.388
 1580SOL    HW1 5639   2.621   4.486   5.330
 1580SOL    HW2 5640   2.783   4.463   5.331
 1581SOL     OW 5641   6.401   4.121   4.738
 1581SOL    HW1 5642   6.380   4.045   4.676
 1581SOL    HW2 5643   6.500   4.136   4.738
 1582SOL     OW 5644   0.303   5.230   4.456
 1582SOL    HW1 5645   0.346   5.262   4.540
 1582SOL    HW2 5646   0.310   5.130   4.450
 1583SOL     OW 5647   1.889   3.066   3.992
 1583SOL    HW1 5648   1.974   3.092   4.039
 1583SOL    HW2 5649   1.817   3.049   4.059
 1584SOL     OW 5650   2.458   6.637   5.631
 1584SOL    HW1 5651   2.513   6.638   5.547
 1584SOL    HW2 5652   2.410   6.550   5.638
 1585SOL     OW 5653   5.489   2.065   3.283
 1585SOL    HW1 5654   5.453   2.142   3.230
 1585SOL    HW2 5655   5.415   2.002   3.305
 1586SOL     OW 5656   3.759   4.029   2.278
 1586SOL    HW1 5657   3.681   4.078   2.239
 1586SOL    HW2 5658   3.749   4.023   2.377
 1587SOL     OW 5659   3.661   6.785   0.023
 1587SOL    HW1 5660   3.586   6.806   0.086
 1587SOL    HW2 5661   3.728   6.728   0.069
 1588SOL     OW 5662   5.491   1.592   2.214
 1588SOL    HW1 5663   5.465   1.649   2.292
 1588SOL    HW2 5664   5.409   1.554   2.172
 1589SOL     OW 5665   5.804   4.739   3.570
 1589SOL    HW1 5666   5.901   4.739   3.544
 1589SOL    HW2 5667   5.754   4.678   3.509
 1590SOL     OW 5668   1.993   6.841   0.531
 1590SOL    HW1 5669   1.901   6.843   0.570
 1590SOL    HW2 5670   2.021   6.935   0.509
 1591SOL     OW 5671   0.969   4.683   2.616
 1591SOL    HW1 5672   1.059   4.640   2.625
 1591SOL    HW2 5673   0.901   4.614   2.589
 1592SOL     OW 5674   3.070   3.326   2.454
 1592SOL    HW1 5675   3.135   3.401   2.446
 1592SOL    HW2 5676   3.028   3.308   2.365
 1593SOL     OW 5677   0.618   6.234   4.453
 1593SOL    HW1 5678   0.575   6.288   4.525
 1593SOL    HW2 5679   0.548   6.198   4.392
 1594SOL     OW 5680   6.758   5.211   2.393
 1594SOL    HW1 5681   6.807   5.151   2.457
 1594SOL    HW2 5682   6.684   5.257   2.441
 1595SOL     OW 5683   0.044   4.698   6.410
 1595SOL    HW1 5684   0.035   4.680   6.508
 1595SOL    HW2 5685   0.131   4.661   6.377
 1596SOL     OW 5686   1.971   5.617   5.863
 1596SOL    HW1 5687   1.921   5.622   5.949
 1596SOL    HW2 5688   2.009   5.708   5.842
 1597SOL     OW 5689   2.345   6.175   1.901
 1597SOL    HW1 5690   2.264   6.139   1.853
 1597SOL    HW2 5691   2.427   6.131   1.865
 1598SOL     OW 5692   0.098   4.097   1.214
 1598SOL    HW1 5693   0.131   4.105   1.120
 1598SOL    HW2 5694   0.175   4.105   1.277
 1599SOL     OW 5695   3.739   4.965   6.926
 1599SOL    HW1 5696   3.676   4.975   7.003
 1599SOL    HW2 5697   3.706   5.020   6.849
 1600SOL     OW 5698   5.234   1.669   5.048
 1600SOL    HW1 5699   5.258   1.719   4.965
 1600SOL    HW2 5700   5.202   1.578   5.025
 1601SOL     OW 5701   1.250   4.514   5.287
 1601SOL    HW1 5702   1.202   4.442   5.236
 1601SOL    HW2 5703   1.335   4.537   5.240
 1602SOL     OW 5704   1.583   5.665   3.689
 1602SOL    HW1 5705   1.501   5.636   3.638
 1602SOL    HW2 5706   1.657   5.683   3.624
 1603SOL     OW 5707   0.655   6.570   2.055
 1603SOL    HW1 5708   0.747   6.534   2.045
 1603SOL    HW2 5709   0.599   6.506   2.107
 1604SOL     OW 5710   6.908   5.360   6.761
 1604SOL    HW1 5711   6.894   5.294   6.687
 1604SOL    HW2 5712   6.986   5.331   6.817
 1605SOL     OW 5713   6.624   6.597   2.926
 1605SOL    HW1 5714   6.551   6.644   2.877
 1605SOL    HW2 5715   6.712   6.636   2.899
 1606SOL     OW 5716   4.856   6.809   5.760
 1606SOL    HW1 5717   4.769   6.836   5.801
 1606SOL    HW2 5718   4.900   6.890   5.720
 1607SOL     OW 5719   4.336   2.705   0.893
 1607SOL    HW1 5720   4.419   2.725   0.842
 1607SOL    HW2 5721   4.350   2.725   0.990
 1608SOL     OW 5722   2.328   6.543   0.392
 1608SOL    HW1 5723   2.237   6.575   0.364
 1608SOL    HW2 5724   2.356   6.593   0.474
 1609SOL     OW 5725   4.972   2.165   5.833
 1609SOL    HW1 5726   4.925   2.165   5.922
 1609SOL    HW2 5727   4.953   2.250   5.785
 1610SOL     OW 5728   6.513   6.204   4.527
 1610SOL    HW1 5729   6.469   6.160   4.606
 1610SOL    HW2 5730   6.444   6.250   4.471
 1611SOL     OW 5731   3.661   3.853   2.018
 1611SOL    HW1 5732   3.581   3.869   1.961
 1611SOL    HW2 5733   3.724   3.930   2.008
 1612SOL     OW 5734   2.236   1.523   4.797
 1612SOL    HW1 5735   2.208   1.427   4.798
 1612SOL    HW2 5736   2.336   1.528   4.805
 1613SOL     OW 5737   2.296   5.597   0.677
 1613SOL    HW1 5738   2.281   5.544   0.760
 1613SOL    HW2 5739   2.273   5.693   0.694
 1614SOL     OW 5740   6.400   2.131   0.056
 1614SOL    HW1 5741   6.394   2.050   7.022
 1614SOL    HW2 5742   6.339   2.202   0.021
 1615SOL     OW 5743   6.784   4.481   6.388
 1615SOL    HW1 5744   6.774   4.556   6.322
 1615SOL    HW2 5745   6.696   4.462   6.431
 1616SOL     OW 5746   3.601   1.777   6.092
 1616SOL    HW1 5747   3.615   1.876   6.093
 1616SOL    HW2 5748   3.541   1.751   6.168
 1617SOL     OW 5749   5.559   0.709   2.700
 1617SOL    HW1 5750   5.507   0.783   2.744
 1617SOL    HW2 5751   5.652   0.740   2.683
 1618SOL     OW 5752   6.469   3.310   1.298
 1618SOL    HW1 5753   6.388   3.339   1.247
 1618SOL    HW2 5754   6.443   3.293   1.393
 1619SOL     OW 5755   1.471   3.303   4.269
 1619SOL    HW1 5756   1.452   3.231   4.202
 1619SOL    HW2 5757   1.545   3.274   4.329
 1620SOL     OW 5758   3.103   5.684   1.753
 1620SOL    HW1 5759   3.146   5.766   1.715
 1620SOL    HW2 5760   3.021   5.662   1.700
 1621SOL     OW 5761   1.187   0.452   0.968
 1621SOL    HW1 5762   1.254   0.379   0.954
 1621SOL    HW2 5763   1.214   0.506   1.048
 1622SOL     OW 5764   1.713   1.929   4.729
 1622SOL    HW1 5765   1.725   2.020   4.689
 1622SOL    HW2 5766   1.726   1.859   4.659
 1623SOL     OW 5767   2.557   1.884   6.279
 1623SOL    HW1 5768   2.478   1.926   6.235
 1623SOL    HW2 5769   2.586   1.804   6.227
 1624SOL     OW 5770   3.476   1.458   0.196
 1624SOL    HW1 5771   3.565   1.424   0.167
 1624SOL    HW2 5772   3.457   1.546   0.153
 1625SOL     OW 5773   0.937   4.877   1.806
 1625SOL    HW1 5774   0.976   4.909   1.892
 1625SOL    HW2 5775   1.011   4.847   1.745
 1626SOL     OW 5776   1.813   3.068   6.501
 1626SOL    HW1 5777   1.893   3.125   6.480
 1626SOL    HW2 5778   1.742   3.125   6.542
 1627SOL     OW 5779   6.394   2.618   3.474
 1627SOL    HW1 5780   6.407   2.631   3.376
 1627SOL    HW2 5781   6.452   2.681   3.524
 1628SOL     OW 5782   3.149   4.543   0.678
 1628SOL    HW1 5783   3.122   4.549   0.774
 1628SOL    HW2 5784   3.217   4.613   0.658
 1629SOL     OW 5785   3.548   2.100   4.400
 1629SOL    HW1 5786   3.482   2.024   4.405
 1629SOL    HW2 5787   3.583   2.119   4.492
 1630SOL     OW 5788   0.786   4.872   5.914
 1630SOL    HW1 5789   0.768   4.792   5.857
 1630SOL    HW2 5790   0.875   4.912   5.889
 1631SOL     OW 5791   0.046   7.022   5.292
 1631SOL    HW1 5792   0.071   7.003   5.197
 1631SOL    HW2 5793   0.064   6.941   5.347
 1632SOL     OW 5794   0.136   0.753   0.381
 1632SOL    HW1 5795   0.182   0.819   0.321
 1632SOL    HW2 5796   0.123   0.793   0.471
 1633SOL     OW 5797   6.099   1.767   3.231
 1633SOL    HW1 5798   6.052   1.710   3.298
 1633SOL    HW2 5799   6.174   1.715   3.190
 1634SOL     OW 5800   2.734   6.840   6.342
 1634SOL    HW1 5801   2.826   6.813   6.314
 1634SOL    HW2 5802   2.707   6.922   6.292
 1635SOL     OW 5803   0.027   5.680   4.935
 1635SOL    HW1 5804   0.035   5.779   4.942
 1635SOL    HW2 5805   0.066   5.638   5.017
 1636SOL     OW 5806   2.630   5.794   1.834
 1636SOL    HW1 5807   2.666   5.739   1.909
 1636SOL    HW2 5808   2.634   5.743   1.749
 1637SOL     OW 5809   0.250   3.246   2.110
 1637SOL    HW1 5810   0.294   3.252   2.200
 1637SOL    HW2 5811   0.172   3.309   2.107
 1638SOL     OW 5812   6.992   3.157   4.280
 1638SOL    HW1 5813   6.941   3.194   4.202
 1638SOL    HW2 5814   0.048   3.215   4.298
 1639SOL     OW 5815   4.776   5.655   2.707
 1639SOL    HW1 5816   4.772   5.641   2.806
 1639SOL    HW2 5817   4.711   5.594   2.662
 1640SOL     OW 5818   6.495   0.663   0.767
 1640SOL    HW1 5819   6.520   0.714   0.849
 1640SOL    HW2 5820   6.505   0.722   0.687
 1641SOL     OW 5821   5.738   3.433   4.990
 1641SOL    HW1 5822   5.669   3.467   4.926
 1641SOL    HW2 5823   5.708   3.347   5.031
 1642SOL     OW 5824   6.603   2.509   0.248
 1642SOL    HW1 5825   6.696   2.544   0.260
 1642SOL    HW2 5826   6.570   2.532   0.157
 1643SOL     OW 5827   3.469   6.431   5.250
 1643SOL    HW1 5828   3.486   6.354   5.189
 1643SOL    HW2 5829   3.438   6.510   5.197
 1644SOL     OW 5830   2.687   1.407   1.549
 1644SOL    HW1 5831   2.773   1.450   1.524
 1644SOL    HW2 5832   2.646   1.364   1.469
 1645SOL     OW 5833   3.087   6.656   6.721
 1645SOL    HW1 5834   3.079   6.628   6.817
 1645SOL    HW2 5835   3.128   6.747   6.716
 1646SOL     OW 5836   1.317   4.021   0.688
 1646SOL    HW1 5837   1.412   4.005   0.661
 1646SOL    HW2 5838   1.267   4.062   0.612
 1647SOL     OW 5839   5.624   3.015   3.660
 1647SOL    HW1 5840   5.592   3.094   3.609
 1647SOL    HW2 5841   5.624   2.934   3.601
 1648SOL     OW 5842   4.606   0.009   1.960
 1648SOL    HW1 5843   4.662   0.089   1.935
 1648SOL    HW2 5844   4.610   6.965   1.886
 1649SOL     OW 5845   3.113   0.890   3.321
 1649SOL    HW1 5846   3.095   0.983   3.290
 1649SOL    HW2 5847   3.189   0.852   3.269
 1650SOL     OW 5848   2.758   0.405   3.706
 1650SOL    HW1 5849   2.789   0.316   3.740
 1650SOL    HW2 5850   2.719   0.395   3.615
 1651SOL     OW 5851   0.893   0.412   0.274
 1651SOL    HW1 5852   0.912   0.509   0.290
 1651SOL    HW2 5853   0.880   0.397   0.176
 1652SOL     OW 5854   2.846   2.643   1.558
 1652SOL    HW1 5855   2.796   2.613   1.639
 1652SOL    HW2 5856   2.784   2.646   1.480
 1653SOL     OW 5857   7.005   5.269   0.737
 1653SOL    HW1 5858   6.911   5.303   0.742
 1653SOL    HW2 5859   0.041   5.327   0.793
 1654SOL     OW 5860   6.736   3.346   3.139
 1654SOL    HW1 5861   6.819   3.403   3.146
 1654SOL    HW2 5862   6.692   3.363   3.051
 1655SOL     OW 5863   5.197   3.973   6.564
 1655SOL    HW1 5864   5.146   4.037   6.621
 1655SOL    HW2 5865   5.245   4.023   6.492
 1656SOL     OW 5866   1.231   5.094   3.824
 1656SOL    HW1 5867   1.232   5.044   3.738
 1656SOL    HW2 5868   1.218   5.030   3.900
 1657SOL     OW 5869   1.216   0.667   4.897
 1657SOL    HW1 5870   1.258   0.739   4.841
 1657SOL    HW2 5871   1.282   0.594   4.913
 1658SOL     OW 5872   5.963   5.839   2.954
 1658SOL    HW1 5873   5.983   5.818   2.859
 1658SOL    HW2 5874   6.034   5.800   3.013
 1659SOL     OW 5875   3.607   2.202   6.587
 1659SOL    HW1 5876   3.540   2.133   6.562
 1659SOL    HW2 5877   3.617   2.205   6.686
 1660SOL     OW 5878   1.375   6.047   3.856
 1660SOL    HW1 5879   1.439   6.014   3.925
 1660SOL    HW2 5880   1.359   5.976   3.788
 1661SOL     OW 5881   3.128   1.115   2.183
 1661SOL    HW1 5882   3.192   1.189   2.165
 1661SOL    HW2 5883   3.112   1.108   2.282
 1662SOL     OW 5884   0.190   1.422   2.836
 1662SOL    HW1 5885   0.245   1.471   2.767
 1662SOL    HW2 5886   0.234   1.335   2.858
 1663SOL     OW 5887   3.368   0.207   2.798
 1663SOL    HW1 5888   3.304   0.139   2.761
 1663SOL    HW2 5889   3.408   0.173   2.882
 1664SOL     OW 5890   1.900   6.103   4.498
 1664SOL    HW1 5891   1.851   6.187   4.524
 1664SOL    HW2 5892   1.848   6.054   4.429
 1665SOL     OW 5893   0.385   0.960   2.773
 1665SOL    HW1 5894   0.450   0.908   2.829
 1665SOL    HW2 5895   0.333   1.022   2.832
 1666SOL     OW 5896   5.571   2.678   5.726
 1666SOL    HW1 5897   5.524   2.764   5.706
 1666SOL    HW2 5898   5.561   2.615   5.649
 1667SOL     OW 5899   6.433   6.954   6.210
 1667SOL    HW1 5900   6.399   6.861   6.219
 1667SOL    HW2 5901   6.403   6.992   6.122
 1668SOL     OW 5902   4.070   0.479   4.716
 1668SOL    HW1 5903   4.042   0.545   4.786
 1668SOL    HW2 5904   4.169   0.463   4.722
 1669SOL     OW 5905   5.473   0.149   6.205
 1669SOL    HW1 5906   5.400   0.194   6.257
 1669SOL    HW2 5907   5.482   0.193   6.116
 1670SOL     OW 5908   5.873   4.675   5.397
 1670SOL    HW1 5909   5.877   4.645   5.302
 1670SOL    HW2 5910   5.792   4.732   5.411
 1671SOL     OW 5911   4.981   3.103   0.451
 1671SOL    HW1 5912   4.960   3.041   0.527
 1671SOL    HW2 5913   4.930   3.075   0.370
 1672SOL     OW 5914   2.062   4.599   2.372
 1672SOL    HW1 5915   2.024   4.515   2.333
 1672SOL    HW2 5916   2.043   4.600   2.471
 1673SOL     OW 5917   6.552   3.925   4.101
 1673SOL    HW1 5918   6.593   3.891   4.017
 1673SOL    HW2 5919   6.554   4.025   4.101
 1674SOL     OW 5920   0.662   3.858   0.513
 1674SOL    HW1 5921   0.644   3.796   0.589
 1674SOL    HW2 5922   0.605   3.940   0.522
 1675SOL     OW 5923   4.842   1.519   6.700
 1675SOL    HW1 5924   4.867   1.425   6.676
 1675SOL    HW2 5925   4.788   1.519   6.785
 1676SOL     OW 5926   1.763   0.958   2.837
 1676SOL    HW1 5927   1.768   0.972   2.936
 1676SOL    HW2 5928   1.843   0.906   2.807
 1677SOL     OW 5929   5.896   1.630   5.413
 1677SOL    HW1 5930   5.810   1.596   5.374
 1677SOL    HW2 5931   5.940   1.691   5.347
 1678SOL     OW 5932   5.265   6.486   1.753
 1678SOL    HW1 5933   5.228   6.416   1.814
 1678SOL    HW2 5934   5.305   6.442   1.672
 1679SOL     OW 5935   0.531   3.074   5.864
 1679SOL    HW1 5936   0.445   3.124   5.851
 1679SOL    HW2 5937   0.511   2.978   5.883
 1680SOL     OW 5938   0.450   1.023   3.855
 1680SOL    HW1 5939   0.445   0.925   3.876
 1680SOL    HW2 5940   0.364   1.053   3.813
 1681SOL     OW 5941   6.598   5.592   0.801
 1681SOL    HW1 5942   6.624   5.498   0.823
 1681SOL    HW2 5943   6.499   5.602   0.808
 1682SOL     OW 5944   6.691   3.451   5.281
 1682SOL    HW1 5945   6.592   3.458   5.263
 1682SOL    HW2 5946   6.729   3.541   5.297
 1683SOL     OW 5947   4.975   6.607   1.435
 1683SOL    HW1 5948   4.987   6.698   1.474
 1683SOL    HW2 5949   4.969   6.614   1.335
 1684SOL     OW 5950   0.184   6.840   5.425
 1684SOL    HW1 5951   0.208   6.822   5.520
 1684SOL    HW2 5952   0.226   6.926   5.395
 1685SOL     OW 5953   1.702   1.159   0.271
 1685SOL    HW1 5954   1.795   1.175   0.237
 1685SOL    HW2 5955   1.636   1.199   0.207
 1686SOL     OW 5956   1.212   6.082   5.735
 1686SOL    HW1 5957   1.241   6.092   5.640
 1686SOL    HW2 5958   1.112   6.072   5.739
 1687SOL     OW 5959   1.726   4.974   2.181
 1687SOL    HW1 5960   1.696   5.001   2.089
 1687SOL    HW2 5961   1.717   5.051   2.243
 1688SOL     OW 5962   1.731   2.024   2.939
 1688SOL    HW1 5963   1.636   2.034   2.967
 1688SOL    HW2 5964   1.789   2.016   3.020
 1689SOL     OW 5965   2.643   1.314   2.430
 1689SOL    HW1 5966   2.678   1.244   2.368
 1689SOL    HW2 5967   2.585   1.270   2.499
 1690SOL     OW 5968   1.737   1.740   1.684
 1690SOL    HW1 5969   1.798   1.715   1.759
 1690SOL    HW2 5970   1.715   1.837   1.690
 1691SOL     OW 5971   4.924   3.456   2.976
 1691SOL    HW1 5972   4.919   3.555   2.966
 1691SOL    HW2 5973   4.836   3.422   3.010
 1692SOL     OW 5974   1.056   0.013   1.908
 1692SOL    HW1 5975   1.032   0.037   2.002
 1692SOL    HW2 5976   1.057   0.096   1.851
 1693SOL     OW 5977   2.738   2.272   3.525
 1693SOL    HW1 5978   2.809   2.249   3.592
 1693SOL    HW2 5979   2.680   2.192   3.510
 1694SOL     OW 5980   4.303   6.085   5.443
 1694SOL    HW1 5981   4.320   6.113   5.537
 1694SOL    HW2 5982   4.390   6.081   5.393
 1695SOL     OW 5983   2.972   2.628   5.325
 1695SOL    HW1 5984   2.947   2.723   5.309
 1695SOL    HW2 5985   3.065   2.612   5.293
 1696SOL     OW 5986   5.112   5.572   0.409
 1696SOL    HW1 5987   5.132   5.556   0.506
 1696SOL    HW2 5988   5.137   5.491   0.356
 1697SOL     OW 5989   1.473   0.906   1.062
 1697SOL    HW1 5990   1.464   0.992   1.011
 1697SOL    HW2 5991   1.382   0.873   1.087
 1698SOL     OW 5992   4.719   2.317   1.420
 1698SOL    HW1 5993   4.759   2.382   1.356
 1698SOL    HW2 5994   4.792   2.272   1.471
 1699SOL     OW 5995   2.369   3.412   1.165
 1699SOL    HW1 5996   2.365   3.371   1.256
 1699SOL    HW2 5997   2.329   3.350   1.098
 1700SOL     OW 5998   0.076   2.741   2.724
 1700SOL    HW1 5999   7.008   2.778   2.737
 1700SOL    HW2 6000   0.141   2.816   2.715
 1701SOL     OW 6001   6.349   3.179   4.044
 1701SOL    HW1 6002   6.318   3.264   3.999
 1701SOL    HW2 6003   6.406   3.202   4.123
 1702SOL     OW 6004   5.542   4.009   1.342
 1702SOL    HW1 6005   5.604   3.932   1.327
 1702SOL    HW2 6006   5.534   4.027   1.440
 1703SOL     OW 6007   1.957   3.815   0.543
 1703SOL    HW1 6008   1.992   3.869   0.619
 1703SOL    HW2 6009   1.977   3.719   0.558
 1704SOL     OW 6010   0.204   0.136   1.610
 1704SOL    HW1 6011   0.139   0.210   1.590
 1704SOL    HW2 6012   0.273   0.168   1.674
 1705SOL     OW 6013   3.875   2.918   1.828
 1705SOL    HW1 6014   3.791   2.943   1.875
 1705SOL    HW2 6015   3.953   2.936   1.888
 1706SOL     OW 6016   3.479   0.681   0.773
 1706SOL    HW1 6017   3.489   0.709   0.869
 1706SOL    HW2 6018   3.520   0.591   0.760
 1707SOL     OW 6019   5.911   2.186   2.803
 1707SOL    HW1 6020   5.871   2.225   2.886
 1707SOL    HW2 6021   5.995   2.138   2.826
 1708SOL     OW 6022   6.435   6.164   2.796
 1708SOL    HW1 6023   6.427   6.065   2.808
 1708SOL    HW2 6024   6.511   6.198   2.852
 1709SOL     OW 6025   3.561   6.334   2.604
 1709SOL    HW1 6026   3.647   6.344   2.654
 1709SOL    HW2 6027   3.499   6.276   2.656
 1710SOL     OW 6028   0.320   4.901   4.100
 1710SOL    HW1 6029   0.399   4.935   4.050
 1710SOL    HW2 6030   0.336   4.909   4.199
 1711SOL     OW 6031   1.059   4.327   5.704
 1711SOL    HW1 6032   0.986   4.298   5.643
 1711SOL    HW2 6033   1.087   4.250   5.761
 1712SOL     OW 6034   6.924   4.169   0.280
 1712SOL    HW1 6035   6.915   4.146   0.183
 1712SOL    HW2 6036   6.989   4.244   0.291
 1713SOL     OW 6037   1.440   2.662   1.602
 1713SOL    HW1 6038   1.455   2.616   1.515
 1713SOL    HW2 6039   1.436   2.761   1.587
 1714SOL     OW 6040   3.655   2.001   0.325
 1714SOL    HW1 6041   3.674   1.927   0.261
 1714SOL    HW2 6042   3.579   2.057   0.290
 1715SOL     OW 6043   0.572   3.262   2.823
 1715SOL    HW1 6044   0.648   3.326   2.830
 1715SOL    HW2 6045   0.600   3.184   2.766
 1716SOL     OW 6046   0.422   6.461   6.968
 1716SOL    HW1 6047   0.386   6.370   6.993
 1716SOL    HW2 6048   0.495   6.450   6.902
 1717SOL     OW 6049   2.742   6.902   0.110
 1717SOL    HW1 6050   2.643   6.908   0.097
 1717SOL    HW2 6051   2.775   6.814   0.074
 1718SOL     OW 6052   1.958   4.186   0.447
 1718SOL    HW1 6053   2.002   4.102   0.417
 1718SOL    HW2 6054   1.942   4.246   0.369
 1719SOL     OW 6055   2.060   3.463   1.574
 1719SOL    HW1 6056   2.119   3.541   1.593
 1719SOL    HW2 6057   2.086   3.387   1.633
 1720SOL     OW 6058   6.560   1.412   0.300
 1720SOL    HW1 6059   6.538   1.509   0.311
 1720SOL    HW2 6060   6.499   1.358   0.358
 1721SOL     OW 6061   1.662   6.596   3.181
 1721SOL    HW1 6062   1.671   6.566   3.276
 1721SOL    HW2 6063   1.724   6.543   3.123
 1722SOL     OW 6064   5.691   0.229   1.997
 1722SOL    HW1 6065   5.753   0.213   1.920
 1722SOL    HW2 6066   5.718   0.312   2.045
 1723SOL     OW 6067   6.882   1.671   2.818
 1723SOL    HW1 6068   6.946   1.723   2.873
 1723SOL    HW2 6069   6.878   1.710   2.726
 1724SOL     OW 6070   4.685   1.098   6.956
 1724SOL    HW1 6071   4.780   1.108   6.927
 1724SOL    HW2 6072   4.627   1.160   6.903
 1725SOL     OW 6073   3.519   4.484   1.383
 1725SOL    HW1 6074   3.550   4.443   1.468
 1725SOL    HW2 6075   3.525   4.584   1.390
 1726SOL     OW 6076   0.038   4.449   4.648
 1726SOL    HW1 6077   0.103   4.511   4.692
 1726SOL    HW2 6078   0.031   4.364   4.701
 1727SOL     OW 6079   3.930   3.209   5.158
 1727SOL    HW1 6080   3.875   3.273   5.105
 1727SOL    HW2 6081   3.955   3.251   5.245
 1728SOL     OW 6082   4.332   4.731   3.990
 1728SOL    HW1 6083   4.428   4.709   4.008
 1728SOL    HW2 6084   4.279   4.647   3.983
 1729SOL     OW 6085   1.017   3.673   2.932
 1729SOL    HW1 6086   1.104   3.720   2.935
 1729SOL    HW2 6087   0.993   3.652   2.837
 1730SOL     OW 6088   6.652   2.183   4.851
 1730SOL    HW1 6089   6.634   2.171   4.753
 1730SOL    HW2 6090   6.612   2.107   4.902
 1731SOL     OW 6091   1.898   4.884   0.971
 1731SOL    HW1 6092   1.924   4.967   0.923
 1731SOL    HW2 6093   1.892   4.902   1.069
 1732SOL     OW 6094   1.499   4.463   0.190
 1732SOL    HW1 6095   1.519   4.365   0.196
 1732SOL    HW2 6096   1.472   4.497   0.280
 1733SOL     OW 6097   1.284   3.652   1.785
 1733SOL    HW1 6098   1.265   3.592   1.863
 1733SOL    HW2 6099   1.208   3.716   1.773
 1734SOL     OW 6100   4.026   2.809   1.066
 1734SOL    HW1 6101   4.093   2.882   1.080
 1734SOL    HW2 6102   4.059   2.746   0.996
 1735SOL     OW 6103   5.833   5.187   1.375
 1735SOL    HW1 6104   5.837   5.113   1.308
 1735SOL    HW2 6105   5.853   5.150   1.466
 1736SOL     OW 6106   3.339   3.391   0.391
 1736SOL    HW1 6107   3.339   3.364   0.295
 1736SOL    HW2 6108   3.281   3.329   0.443
 1737SOL     OW 6109   2.311   0.088   3.984
 1737SOL    HW1 6110   2.276   0.016   4.043
 1737SOL    HW2 6111   2.402   0.064   3.951
 1738SOL     OW 6112   2.179   3.090   2.337
 1738SOL    HW1 6113   2.188   2.992   2.317
 1738SOL    HW2 6114   2.164   3.141   2.252
 1739SOL     OW 6115   4.480   2.225   4.900
 1739SOL    HW1 6116   4.496   2.127   4.909
 1739SOL    HW2 6117   4.564   2.275   4.919
 1740SOL     OW 6118   0.018   0.956   5.904
 1740SOL    HW1 6119   6.969   0.908   5.953
 1740SOL    HW2 6120   0.053   1.030   5.961
 1741SOL     OW 6121   1.556   0.520   2.709
 1741SOL    HW1 6122   1.459   0.513   2.689
 1741SOL    HW2 6123   1.609   0.493   2.629
 1742SOL     OW 6124   5.818   0.555   4.790
 1742SOL    HW1 6125   5.740   0.608   4.755
 1742SOL    HW2 6126   5.799   0.525   4.883
 1743SOL     OW 6127   3.440   1.019   1.282
 1743SOL    HW1 6128   3.467   1.101   1.333
 1743SOL    HW2 6129   3.353   1.036   1.237
 1744SOL     OW 6130   2.428   0.914   1.712
 1744SOL    HW1 6131   2.359   0.902   1.784
 1744SOL    HW2 6132   2.519   0.920   1.753
 1745SOL     OW 6133   6.635   1.801   2.996
 1745SOL    HW1 6134   6.579   1.783   3.078
 1745SOL    HW2 6135   6.725   1.832   3.025
 1746SOL     OW 6136   2.626   0.494   6.327
 1746SOL    HW1 6137   2.591   0.552   6.254
 1746SOL    HW2 6138   2.709   0.535   6.366
 1747SOL     OW 6139   3.824   0.328   1.493
 1747SOL    HW1 6140   3.732   0.289   1.487
 1747SOL    HW2 6141   3.879   0.274   1.556
 1748SOL     OW 6142   5.978   1.712   3.895
 1748SOL    HW1 6143   6.001   1.762   3.979
 1748SOL    HW2 6144   6.045   1.733   3.824
 1749SOL     OW 6145   4.470   0.142   6.565
 1749SOL    HW1 6146   4.524   0.174   6.643
 1749SOL    HW2 6147   4.518   0.165   6.480
 1750SOL     OW 6148   4.967   1.530   2.453
 1750SOL    HW1 6149   4.978   1.561   2.547
 1750SOL    HW2 6150   4.873   1.549   2.423
 1751SOL     OW 6151   1.756   5.124   4.370
 1751SOL    HW1 6152   1.677   5.173   4.333
 1751SOL    HW2 6153   1.723   5.047   4.425
 1752SOL     OW 6154   6.738   1.679   0.764
 1752SOL    HW1 6155   6.669   1.642   0.826
 1752SOL    HW2 6156   6.699   1.687   0.672
 1753SOL     OW 6157   0.541   6.590   0.904
 1753SOL    HW1 6158   0.529   6.630   0.994
 1753SOL    HW2 6159   0.639   6.583   0.883
 1754SOL     OW 6160   3.329   3.172   1.201
 1754SOL    HW1 6161   3.347   3.271   1.206
 1754SOL    HW2 6162   3.352   3.139   1.109
 1755SOL     OW 6163   5.346   4.863   1.574
 1755SOL    HW1 6164   5.414   4.835   1.507
 1755SOL    HW2 6165   5.391   4.907   1.652
 1756SOL     OW 6166   6.606   5.095   3.910
 1756SOL    HW1 6167   6.586   5.177   3.964
 1756SOL    HW2 6168   6.520   5.051   3.883
 1757SOL     OW 6169   2.600   6.582   4.338
 1757SOL    HW1 6170   2.611   6.516   4.413
 1757SOL    HW2 6171   2.681   6.579   4.280
 1758SOL     OW 6172   2.388   0.678   3.705
 1758SOL    HW1 6173   2.327   0.652   3.630
 1758SOL    HW2 6174   2.429   0.767   3.685
 1759SOL     OW 6175   0.052   5.254   5.885
 1759SOL    HW1 6176   0.101   5.341   5.873
 1759SOL    HW2 6177   6.977   5.272   5.886
 1760SOL     OW 6178   6.111   1.163   1.336
 1760SOL    HW1 6179   6.182   1.095   1.352
 1760SOL    HW2 6180   6.025   1.132   1.376
 1761SOL     OW 6181   5.802   0.935   0.985
 1761SOL    HW1 6182   5.892   0.946   1.029
 1761SOL    HW2 6183   5.813   0.939   0.886
 1762SOL     OW 6184   6.136   2.262   6.105
 1762SOL    HW1 6185   6.060   2.284   6.166
 1762SOL    HW2 6186   6.221   2.265   6.157
 1763SOL     OW 6187   1.580   3.881   4.641
 1763SOL    HW1 6188   1.507   3.819   4.671
 1763SOL    HW2 6189   1.625   3.843   4.560
 1764SOL     OW 6190   0.811   2.833   3.429
 1764SOL    HW1 6191   0.815   2.885   3.344
 1764SOL    HW2 6192   0.824   2.736   3.410
 1765SOL     OW 6193   2.500   1.470   6.894
 1765SOL    HW1 6194   2.460   1.379   6.904
 1765SOL    HW2 6195   2.526   1.505   6.984
 1766SOL     OW 6196   5.615   3.194   5.069
 1766SOL    HW1 6197   5.668   3.109   5.066
 1766SOL    HW2 6198   5.558   3.200   4.987
 1767SOL     OW 6199   5.402   4.021   2.278
 1767SOL    HW1 6200   5.335   3.955   2.246
 1767SOL    HW2 6201   5.359   4.110   2.290
 1768SOL     OW 6202   4.180   6.992   3.563
 1768SOL    HW1 6203   4.231   6.947   3.636
 1768SOL    HW2 6204   4.242   7.017   3.489
 1769SOL     OW 6205   3.834   1.635   3.539
 1769SOL    HW1 6206   3.882   1.707   3.590
 1769SOL    HW2 6207   3.766   1.677   3.478
 1770SOL     OW 6208   2.030   5.887   5.521
 1770SOL    HW1 6209   2.051   5.795   5.488
 1770SOL    HW2 6210   2.079   5.955   5.466
 1771SOL     OW 6211   3.271   6.327   6.962
 1771SOL    HW1 6212   3.293   6.255   0.005
 1771SOL    HW2 6213   3.192   6.379   6.994
 1772SOL     OW 6214   3.331   6.735   3.135
 1772SOL    HW1 6215   3.399   6.691   3.194
 1772SOL    HW2 6216   3.335   6.834   3.148
 1773SOL     OW 6217   2.037   5.077   6.337
 1773SOL    HW1 6218   1.951   5.099   6.289
 1773SOL    HW2 6219   2.108   5.142   6.309
 1774SOL     OW 6220   4.428   5.210   1.455
 1774SOL    HW1 6221   4.482   5.272   1.512
 1774SOL    HW2 6222   4.486   5.172   1.383
 1775SOL     OW 6223   1.129   3.716   2.126
 1775SOL    HW1 6224   1.093   3.758   2.209
 1775SOL    HW2 6225   1.227   3.738   2.118
 1776SOL     OW 6226   4.039   6.245   4.014
 1776SOL    HW1 6227   3.970   6.172   4.021
 1776SOL    HW2 6228   4.060   6.262   3.918
 1777SOL     OW 6229   3.993   6.246   0.142
 1777SOL    HW1 6230   4.038   6.193   0.070
 1777SOL    HW2 6231   3.986   6.341   0.114
 1778SOL     OW 6232   4.275   3.362   5.872
 1778SOL    HW1 6233   4.252   3.327   5.963
 1778SOL    HW2 6234   4.319   3.290   5.819
 1779SOL     OW 6235   3.729   0.634   5.299
 1779SOL    HW1 6236   3.766   0.709   5.354
 1779SOL    HW2 6237   3.795   0.611   5.227
 1780SOL     OW 6238   3.529   3.204   6.055
 1780SOL    HW1 6239   3.522   3.183   6.153
 1780SOL    HW2 6240   3.578   3.130   6.009
 1781SOL     OW 6241   4.050   6.353   3.260
 1781SOL    HW1 6242   4.134   6.408   3.267
 1781SOL    HW2 6243   4.021   6.348   3.165
 1782SOL     OW 6244   3.281   1.290   2.962
 1782SOL    HW1 6245   3.321   1.200   2.979
 1782SOL    HW2 6246   3.183   1.279   2.942
 1783SOL     OW 6247   2.447   4.899   6.335
 1783SOL    HW1 6248   2.383   4.825   6.354
 1783SOL    HW2 6249   2.452   4.960   6.415
 1784SOL     OW 6250   3.884   0.442   5.787
 1784SOL    HW1 6251   3.860   0.458   5.883
 1784SOL    HW2 6252   3.813   0.388   5.743
 1785SOL     OW 6253   6.755   3.901   2.418
 1785SOL    HW1 6254   6.750   4.001   2.418
 1785SOL    HW2 6255   6.802   3.870   2.335
 1786SOL     OW 6256   2.260   2.453   6.968
 1786SOL    HW1 6257   2.307   2.370   6.939
 1786SOL    HW2 6258   2.311   2.495   0.020
 1787SOL     OW 6259   3.102   1.580   5.816
 1787SOL    HW1 6260   3.048   1.496   5.814
 1787SOL    HW2 6261   3.176   1.570   5.883
 1788SOL     OW 6262   2.123   4.848   5.930
 1788SOL    HW1 6263   2.187   4.795   5.987
 1788SOL    HW2 6264   2.056   4.894   5.989
 1789SOL     OW 6265   5.356   2.311   1.011
 1789SOL    HW1 6266   5.447   2.270   1.021
 1789SOL    HW2 6267   5.319   2.288   0.922
 1790SOL     OW 6268   3.888   6.575   3.391
 1790SOL    HW1 6269   3.943   6.503   3.349
 1790SOL    HW2 6270   3.854   6.544   3.479
 1791SOL     OW 6271   6.813   0.453   2.373
 1791SOL    HW1 6272   6.904   0.433   2.409
 1791SOL    HW2 6273   6.762   0.368   2.360
 1792SOL     OW 6274   6.988   3.925   5.084
 1792SOL    HW1 6275   6.991   3.913   5.183
 1792SOL    HW2 6276   6.896   3.903   5.050
 1793SOL     OW 6277   6.646   0.572   3.919
 1793SOL    HW1 6278   6.610   0.488   3.879
 1793SOL    HW2 6279   6.746   0.574   3.908
 1794SOL     OW 6280   5.223   6.053   5.711
 1794SOL    HW1 6281   5.197   6.092   5.799
 1794SOL    HW2 6282   5.299   6.105   5.672
 1795SOL     OW 6283   0.429   2.766   0.878
 1795SOL    HW1 6284   0.386   2.709   0.808
 1795SOL    HW2 6285   0.481   2.840   0.834
 1796SOL     OW 6286   2.943   0.932   5.994
 1796SOL    HW1 6287   2.990   0.874   5.927
 1796SOL    HW2 6288   2.849   0.947   5.964
 1797SOL     OW 6289   1.225   0.226   0.473
 1797SOL    HW1 6290   1.251   0.323   0.472
 1797SOL    HW2 6291   1.164   0.209   0.550
 1798SOL     OW 6292   4.445   2.504   4.124
 1798SOL    HW1 6293   4.372   2.559   4.084
 1798SOL    HW2 6294   4.432   2.500   4.223
 1799SOL     OW 6295   0.034   2.750   4.463
 1799SOL    HW1 6296   6.976   2.713   4.506
 1799SOL    HW2 6297   0.108   2.683   4.469
 1800SOL     OW 6298   4.545   4.205   1.581
 1800SOL    HW1 6299   4.496   4.237   1.663
 1800SOL    HW2 6300   4.632   4.254   1.573
 1801SOL     OW 6301   0.097   0.811   2.120
 1801SOL    HW1 6302   0.190   0.830   2.153
 1801SOL    HW2 6303   0.082   0.712   2.120
 1802SOL     OW 6304   5.962   5.997   3.816
 1802SOL    HW1 6305   5.870   6.017   3.783
 1802SOL    HW2 6306   6.029   6.040   3.754
 1803SOL     OW 6307   0.639   5.142   6.724
 1803SOL    HW1 6308   0.735   5.114   6.728
 1803SOL    HW2 6309   0.587   5.094   6.795
 1804SOL     OW 6310   2.336   4.101   5.375
 1804SOL    HW1 6311   2.431   4.100   5.405
 1804SOL    HW2 6312   2.327   4.050   5.289
 1805SOL     OW 6313   4.666   3.581   6.442
 1805SOL    HW1 6314   4.757   3.553   6.412
 1805SOL    HW2 6315   4.598   3.542   6.380
 1806SOL     OW 6316   0.479   0.605   0.269
 1806SOL    HW1 6317   0.499   0.586   0.365
 1806SOL    HW2 6318   0.542   0.554   0.211
 1807SOL     OW 6319   5.855   2.537   4.717
 1807SOL    HW1 6320   5.888   2.443   4.712
 1807SOL    HW2 6321   5.755   2.538   4.714
 1808SOL     OW 6322   6.975   5.208   5.232
 1808SOL    HW1 6323   6.975   5.115   5.267
 1808SOL    HW2 6324   6.981   5.207   5.132
 1809SOL     OW 6325   2.948   1.940   5.542
 1809SOL    HW1 6326   2.934   2.036   5.566
 1809SOL    HW2 6327   3.019   1.901   5.601
 1810SOL     OW 6328   3.239   6.778   3.574
 1810SOL    HW1 6329   3.173   6.782   3.499
 1810SOL    HW2 6330   3.331   6.767   3.536
 1811SOL     OW 6331   5.701   5.800   3.471
 1811SOL    HW1 6332   5.619   5.746   3.456
 1811SOL    HW2 6333   5.757   5.757   3.543
 1812SOL     OW 6334   4.055   6.022   5.329
 1812SOL    HW1 6335   4.139   6.059   5.368
 1812SOL    HW2 6336   4.072   5.995   5.234
 1813SOL     OW 6337   5.335   3.927   0.556
 1813SOL    HW1 6338   5.320   4.021   0.587
 1813SOL    HW2 6339   5.421   3.922   0.505
 1814SOL     OW 6340   4.614   6.632   1.873
 1814SOL    HW1 6341   4.691   6.617   1.936
 1814SOL    HW2 6342   4.622   6.723   1.833
 1815SOL     OW 6343   0.378   1.634   2.650
 1815SOL    HW1 6344   0.408   1.718   2.695
 1815SOL    HW2 6345   0.457   1.577   2.628
 1816SOL     OW 6346   2.209   2.731   1.126
 1816SOL    HW1 6347   2.243   2.767   1.039
 1816SOL    HW2 6348   2.112   2.708   1.117
 1817SOL     OW 6349   1.978   6.725   2.249
 1817SOL    HW1 6350   2.076   6.741   2.257
 1817SOL    HW2 6351   1.939   6.715   2.341
 1818SOL     OW 6352   1.395   0.222   3.450
 1818SOL    HW1 6353   1.349   0.224   3.361
 1818SOL    HW2 6354   1.471   0.287   3.449
 1819SOL     OW 6355   1.301   4.399   1.733
 1819SOL    HW1 6356   1.388   4.437   1.704
 1819SOL    HW2 6357   1.228   4.465   1.716
 1820SOL     OW 6358   4.594   1.389   2.625
 1820SOL    HW1 6359   4.579   1.482   2.590
 1820SOL    HW2 6360   4.610   1.327   2.548
 1821SOL     OW 6361   1.935   1.210   2.919
 1821SOL    HW1 6362   1.929   1.159   3.005
 1821SOL    HW2 6363   1.877   1.166   2.850
 1822SOL     OW 6364   3.379   2.645   1.728
 1822SOL    HW1 6365   3.324   2.695   1.661
 1822SOL    HW2 6366   3.329   2.562   1.756
 1823SOL     OW 6367   4.014   6.275   2.582
 1823SOL    HW1 6368   4.043   6.298   2.489
 1823SOL    HW2 6369   4.007   6.176   2.592
 1824SOL     OW 6370   4.144   2.447   1.490
 1824SOL    HW1 6371   4.049   2.469   1.469
 1824SOL    HW2 6372   4.172   2.495   1.573
 1825SOL     OW 6373   1.371   0.561   1.495
 1825SOL    HW1 6374   1.359   0.573   1.396
 1825SOL    HW2 6375   1.467   0.541   1.514
 1826SOL     OW 6376   2.879   1.582   1.395
 1826SOL    HW1 6377   2.937   1.550   1.321
 1826SOL    HW2 6378   2.936   1.622   1.467
 1827SOL     OW 6379   6.987   5.472   1.887
 1827SOL    HW1 6380   0.053   5.448   1.849
 1827SOL    HW2 6381   6.996   5.497   1.983
 1828SOL     OW 6382   1.252   3.104   0.244
 1828SOL    HW1 6383   1.195   3.043   0.299
 1828SOL    HW2 6384   1.320   3.050   0.194
 1829SOL     OW 6385   5.106   6.272   2.953
 1829SOL    HW1 6386   5.039   6.221   2.898
 1829SOL    HW2 6387   5.066   6.298   3.040
 1830SOL     OW 6388   4.356   6.931   3.828
 1830SOL    HW1 6389   4.338   6.864   3.757
 1830SOL    HW2 6390   4.430   6.992   3.799
 1831SOL     OW 6391   5.808   6.762   2.339
 1831SOL    HW1 6392   5.895   6.773   2.291
 1831SOL    HW2 6393   5.825   6.732   2.432
 1832SOL     OW 6394   4.425   2.630   1.659
 1832SOL    HW1 6395   4.446   2.568   1.583
 1832SOL    HW2 6396   4.453   2.723   1.635
 1833SOL     OW 6397   4.910   0.681   4.608
 1833SOL    HW1 6398   4.845   0.718   4.674
 1833SOL    HW2 6399   4.987   0.641   4.656
 1834SOL     OW 6400   2.987   3.893   0.634
 1834SOL    HW1 6401   3.018   3.987   0.620
 1834SOL    HW2 6402   2.906   3.892   0.693
 1835SOL     OW 6403   1.952   4.967   1.240
 1835SOL    HW1 6404   2.049   4.944   1.238
 1835SOL    HW2 6405   1.901   4.895   1.287
 1836SOL     OW 6406   6.863   0.993   0.376
 1836SOL    HW1 6407   6.795   0.921   0.359
 1836SOL    HW2 6408   6.949   0.969   0.330
 1837SOL     OW 6409   0.790   1.913   4.090
 1837SOL    HW1 6410   0.870   1.855   4.105
 1837SOL    HW2 6411   0.820   2.005   4.067
 1838SOL     OW 6412   0.082   2.350   4.075
 1838SOL    HW1 6413   0.021   2.429   4.076
 1838SOL    HW2 6414   0.076   2.303   4.163
 1839SOL     OW 6415   6.038   3.455   4.609
 1839SOL    HW1 6416   6.045   3.551   4.585
 1839SOL    HW2 6417   5.942   3.428   4.614
 1840SOL     OW 6418   2.886   5.784   0.799
 1840SOL    HW1 6419   2.871   5.713   0.731
 1840SOL    HW2 6420   2.832   5.765   0.881
 1841SOL     OW 6421   2.128   3.447   4.282
 1841SOL    HW1 6422   2.165   3.535   4.253
 1841SOL    HW2 6423   2.051   3.462   4.344
 1842SOL     OW 6424   0.591   4.753   0.697
 1842SOL    HW1 6425   0.492   4.763   0.684
 1842SOL    HW2 6426   0.609   4.679   0.762
 1843SOL     OW 6427   2.340   1.618   5.599
 1843SOL    HW1 6428   2.394   1.703   5.599
 1843SOL    HW2 6429   2.272   1.621   5.671
 1844SOL     OW 6430   3.946   2.146   5.037
 1844SOL    HW1 6431   3.921   2.068   4.980
 1844SOL    HW2 6432   3.864   2.198   5.061
 1845SOL     OW 6433   3.142   0.139   6.671
 1845SOL    HW1 6434   3.149   0.147   6.770
 1845SOL    HW2 6435   3.145   0.231   6.630
 1846SOL     OW 6436   4.003   2.290   6.941
 1846SOL    HW1 6437   3.963   2.240   7.018
 1846SOL    HW2 6438   3.959   2.379   6.932
 1847SOL     OW 6439   0.849   0.025   0.685
 1847SOL    HW1 6440   0.945   0.051   0.699
 1847SOL    HW2 6441   0.804   0.013   0.773
 1848SOL     OW 6442   2.972   5.985   2.886
 1848SOL    HW1 6443   2.949   5.908   2.826
 1848SOL    HW2 6444   2.989   5.950   2.978
 1849SOL     OW 6445   3.507   0.548   0.273
 1849SOL    HW1 6446   3.590   0.523   0.323
 1849SOL    HW2 6447   3.431   0.559   0.336
 1850SOL     OW 6448   6.270   1.849   2.901
 1850SOL    HW1 6449   6.191   1.820   2.848
 1850SOL    HW2 6450   6.285   1.786   2.977
 1851SOL     OW 6451   0.206   1.228   1.820
 1851SOL    HW1 6452   0.188   1.312   1.871
 1851SOL    HW2 6453   0.156   1.152   1.861
 1852SOL     OW 6454   4.014   3.385   0.193
 1852SOL    HW1 6455   3.936   3.447   0.197
 1852SOL    HW2 6456   4.009   3.330   0.110
 1853SOL     OW 6457   1.165   3.939   1.281
 1853SOL    HW1 6458   1.140   4.033   1.255
 1853SOL    HW2 6459   1.161   3.931   1.381
 1854SOL     OW 6460   3.016   6.111   4.333
 1854SOL    HW1 6461   2.955   6.183   4.301
 1854SOL    HW2 6462   3.078   6.085   4.259
 1855SOL     OW 6463   5.028   5.238   0.585
 1855SOL    HW1 6464   5.021   5.334   0.611
 1855SOL    HW2 6465   5.071   5.186   0.659
 1856SOL     OW 6466   5.225   2.651   5.397
 1856SOL    HW1 6467   5.188   2.656   5.304
 1856SOL    HW2 6468   5.265   2.561   5.412
 1857SOL     OW 6469   3.873   0.871   4.732
 1857SOL    HW1 6470   3.953   0.866   4.672
 1857SOL    HW2 6471   3.793   0.898   4.679
 1858SOL     OW 6472   5.337   3.203   4.070
 1858SOL    HW1 6473   5.362   3.135   4.138
 1858SOL    HW2 6474   5.401   3.199   3.993
 1859SOL     OW 6475   4.543   2.143   3.789
 1859SOL    HW1 6476   4.513   2.230   3.829
 1859SOL    HW2 6477   4.504   2.067   3.841
 1860SOL     OW 6478   6.396   1.049   4.194
 1860SOL    HW1 6479   6.306   1.083   4.166
 1860SOL    HW2 6480   6.436   0.995   4.120
 1861SOL     OW 6481   4.923   6.133   2.484
 1861SOL    HW1 6482   4.853   6.197   2.517
 1861SOL    HW2 6483   4.899   6.041   2.512
 1862SOL     OW 6484   2.051   0.422   6.770
 1862SOL    HW1 6485   2.062   0.519   6.792
 1862SOL    HW2 6486   1.998   0.377   6.843
 1863SOL     OW 6487   2.791   2.351   1.093
 1863SOL    HW1 6488   2.808   2.305   1.006
 1863SOL    HW2 6489   2.735   2.292   1.151
 1864SOL     OW 6490   0.598   6.710   4.785
 1864SOL    HW1 6491   0.617   6.750   4.696
 1864SOL    HW2 6492   0.598   6.610   4.778
 1865SOL     OW 6493   3.742   1.844   5.775
 1865SOL    HW1 6494   3.724   1.907   5.699
 1865SOL    HW2 6495   3.679   1.766   5.770
 1866SOL     OW 6496   4.711   4.494   2.033
 1866SOL    HW1 6497   4.745   4.411   1.990
 1866SOL    HW2 6498   4.744   4.574   1.982
 1867SOL     OW 6499   0.166   4.144   0.131
 1867SOL    HW1 6500   0.204   4.141   0.039
 1867SOL    HW2 6501   0.234   4.180   0.194
 1868SOL     OW 6502   5.446   4.733   6.391
 1868SOL    HW1 6503   5.481   4.760   6.301
 1868SOL    HW2 6504   5.457   4.810   6.455
 1869SOL     OW 6505   6.474   1.802   5.210
 1869SOL    HW1 6506   6.570   1.782   5.193
 1869SOL    HW2 6507   6.466   1.891   5.254
 1870SOL     OW 6508   1.493   4.472   5.676
 1870SOL    HW1 6509   1.574   4.424   5.644
 1870SOL    HW2 6510   1.411   4.426   5.642
 1871SOL     OW 6511   2.442   6.984   0.442
 1871SOL    HW1 6512   2.533   7.020   0.422
 1871SOL    HW2 6513   2.376   7.021   0.377
 1872SOL     OW 6514   2.738   4.708   0.284
 1872SOL    HW1 6515   2.787   4.795   0.294
 1872SOL    HW2 6516   2.663   4.705   0.350
 1873SOL     OW 6517   3.749   1.053   5.768
 1873SOL    HW1 6518   3.679   1.099   5.824
 1873SOL    HW2 6519   3.824   1.116   5.750
 1874SOL     OW 6520   1.998   2.000   1.791
 1874SOL    HW1 6521   1.899   1.992   1.776
 1874SOL    HW2 6522   2.046   1.975   1.707
 1875SOL     OW 6523   0.527   0.156   6.235
 1875SOL    HW1 6524   0.525   0.075   6.294
 1875SOL    HW2 6525   0.559   0.130   6.144
 1876SOL     OW 6526   2.825   0.071   4.568
 1876SOL    HW1 6527   2.816   0.033   4.476
 1876SOL    HW2 6528   2.763   0.150   4.578
 1877SOL     OW 6529   0.895   0.017   4.017
 1877SOL    HW1 6530   0.828   0.089   4.032
 1877SOL    HW2 6531   0.884   7.002   3.926
 1878SOL     OW 6532   6.852   1.809   3.900
 1878SOL    HW1 6533   6.826   1.906   3.899
 1878SOL    HW2 6534   6.771   1.754   3.919
 1879SOL     OW 6535   1.212   3.184   4.921
 1879SOL    HW1 6536   1.140   3.154   4.858
 1879SOL    HW2 6537   1.173   3.204   5.010
 1880SOL     OW 6538   6.678   1.786   4.773
 1880SOL    HW1 6539   6.659   1.857   4.841
 1880SOL    HW2 6540   6.774   1.761   4.776
 1881SOL     OW 6541   6.524   1.596   0.918
 1881SOL    HW1 6542   6.564   1.614   1.008
 1881SOL    HW2 6543   6.451   1.528   0.926
 1882SOL     OW 6544   1.400   4.068   6.410
 1882SOL    HW1 6545   1.394   3.974   6.443
 1882SOL    HW2 6546   1.377   4.070   6.313
 1883SOL     OW 6547   6.537   2.367   2.378
 1883SOL    HW1 6548   6.604   2.314   2.430
 1883SOL    HW2 6549   6.485   2.426   2.441
 1884SOL     OW 6550   0.751   1.670   1.358
 1884SOL    HW1 6551   0.713   1.727   1.431
 1884SOL    HW2 6552   0.698   1.684   1.274
 1885SOL     OW 6553   1.890   1.751   5.737
 1885SOL    HW1 6554   1.816   1.690   5.710
 1885SOL    HW2 6555   1.977   1.702   5.735
 1886SOL     OW 6556   2.305   0.305   2.535
 1886SOL    HW1 6557   2.356   0.247   2.471
 1886SOL    HW2 6558   2.222   0.258   2.564
 1887SOL     OW 6559   1.288   5.443   5.856
 1887SOL    HW1 6560   1.381   5.433   5.822
 1887SOL    HW2 6561   1.286   5.424   5.954
 1888SOL     OW 6562   3.222   2.275   0.432
 1888SOL    HW1 6563   3.241   2.315   0.342
 1888SOL    HW2 6564   3.301   2.221   0.461
 1889SOL     OW 6565   1.023   3.630   4.400
 1889SOL    HW1 6566   1.046   3.584   4.485
 1889SOL    HW2 6567   0.971   3.568   4.341
 1890SOL     OW 6568   0.668   5.863   4.161
 1890SOL    HW1 6569   0.596   5.885   4.227
 1890SOL    HW2 6570   0.661   5.767   4.135
 1891SOL     OW 6571   3.748   3.476   2.215
 1891SOL    HW1 6572   3.660   3.455   2.172
 1891SOL    HW2 6573   3.753   3.574   2.234
 1892SOL     OW 6574   0.041   0.306   2.289
 1892SOL    HW1 6575   0.137   0.279   2.279
 1892SOL    HW2 6576   7.023   0.313   2.198
 1893SOL     OW 6577   3.439   3.025   2.834
 1893SOL    HW1 6578   3.387   2.983   2.760
 1893SOL    HW2 6579   3.393   3.008   2.921
 1894SOL     OW 6580   3.357   3.483   4.156
 1894SOL    HW1 6581   3.301   3.566   4.157
 1894SOL    HW2 6582   3.307   3.408   4.200
 1895SOL     OW 6583   4.525   0.376   1.117
 1895SOL    HW1 6584   4.466   0.451   1.146
 1895SOL    HW2 6585   4.608   0.413   1.075
 1896SOL     OW 6586   5.674   1.727   0.658
 1896SOL    HW1 6587   5.613   1.672   0.715
 1896SOL    HW2 6588   5.719   1.667   0.591
 1897SOL     OW 6589   1.797   4.902   2.896
 1897SOL    HW1 6590   1.739   4.956   2.957
 1897SOL    HW2 6591   1.887   4.890   2.938
 1898SOL     OW 6592   1.650   5.343   3.146
 1898SOL    HW1 6593   1.712   5.327   3.069
 1898SOL    HW2 6594   1.593   5.423   3.127
 1899SOL     OW 6595   0.416   0.269   1.727
 1899SOL    HW1 6596   0.428   0.235   1.820
 1899SOL    HW2 6597   0.484   0.340   1.708
 1900SOL     OW 6598   2.867   0.127   7.017
 1900SOL    HW1 6599   2.882   0.182   0.075
 1900SOL    HW2 6600   2.810   0.049   0.016
 1901SOL     OW 6601   2.210   2.997   1.183
 1901SOL    HW1 6602   2.211   3.055   1.102
 1901SOL    HW2 6603   2.219   2.901   1.156
 1902SOL     OW 6604   2.487   0.048   4.664
 1902SOL    HW1 6605   2.532   6.982   4.669
 1902SOL    HW2 6606   2.556   0.119   4.652
 1903SOL     OW 6607   0.485   2.699   3.877
 1903SOL    HW1 6608   0.581   2.696   3.906
 1903SOL    HW2 6609   0.435   2.622   3.918
 1904SOL     OW 6610   5.609   5.292   2.674
 1904SOL    HW1 6611   5.671   5.326   2.744
 1904SOL    HW2 6612   5.662   5.261   2.595
 1905SOL     OW 6613   0.895   0.810   3.608
 1905SOL    HW1 6614   0.977   0.771   3.650
 1905SOL    HW2 6615   0.914   0.835   3.513
 1906SOL     OW 6616   2.836   0.571   5.938
 1906SOL    HW1 6617   2.883   0.502   5.993
 1906SOL    HW2 6618   2.754   0.602   5.986
 1907SOL     OW 6619   5.324   2.532   0.413
 1907SOL    HW1 6620   5.308   2.621   0.369
 1907SOL    HW2 6621   5.245   2.509   0.470
 1908SOL     OW 6622   3.930   0.210   0.171
 1908SOL    HW1 6623   3.880   0.139   0.122
 1908SOL    HW2 6624   4.016   0.228   0.123
 1909SOL     OW 6625   6.863   4.217   4.761
 1909SOL    HW1 6626   6.844   4.311   4.732
 1909SOL    HW2 6627   6.934   4.217   4.832
 1910SOL     OW 6628   6.329   5.624   5.960
 1910SOL    HW1 6629   6.383   5.686   6.018
 1910SOL    HW2 6630   6.254   5.676   5.918
 1911SOL     OW 6631   0.125   4.677   4.187
 1911SOL    HW1 6632   0.192   4.610   4.219
 1911SOL    HW2 6633   0.173   4.761   4.161
 1912SOL     OW 6634   2.628   4.652   2.960
 1912SOL    HW1 6635   2.724   4.679   2.971
 1912SOL    HW2 6636   2.600   4.666   2.864
 1913SOL     OW 6637   2.664   5.124   4.474
 1913SOL    HW1 6638   2.668   5.061   4.551
 1913SOL    HW2 6639   2.631   5.076   4.393
 1914SOL     OW 6640   3.257   4.103   6.192
 1914SOL    HW1 6641   3.211   4.040   6.130
 1914SOL    HW2 6642   3.341   4.061   6.227
 1915SOL     OW 6643   4.473   2.815   6.022
 1915SOL    HW1 6644   4.522   2.733   5.994
 1915SOL    HW2 6645   4.488   2.831   6.120
 1916SOL     OW 6646   3.714   6.945   1.863
 1916SOL    HW1 6647   3.619   6.975   1.857
 1916SOL    HW2 6648   3.739   6.934   1.959
 1917SOL     OW 6649   2.650   4.520   0.738
 1917SOL    HW1 6650   2.672   4.526   0.835
 1917SOL    HW2 6651   2.733   4.533   0.684
 1918SOL     OW 6652   0.675   1.046   4.783
 1918SOL    HW1 6653   0.624   1.053   4.869
 1918SOL    HW2 6654   0.728   0.961   4.783
 1919SOL     OW 6655   1.375   2.494   1.789
 1919SOL    HW1 6656   1.361   2.411   1.734
 1919SOL    HW2 6657   1.403   2.568   1.729
 1920SOL     OW 6658   5.148   2.315   1.964
 1920SOL    HW1 6659   5.080   2.370   1.917
 1920SOL    HW2 6660   5.138   2.219   1.936
 1921SOL     OW 6661   1.531   3.058   0.031
 1921SOL    HW1 6662   1.550   2.992   6.982
 1921SOL    HW2 6663   1.594   3.043   0.107
 1922SOL     OW 6664   3.451   3.526   2.295
 1922SOL    HW1 6665   3.421   3.437   2.259
 1922SOL    HW2 6666   3.438   3.596   2.225
 1923SOL     OW 6667   4.680   0.361   6.136
 1923SOL    HW1 6668   4.726   0.365   6.047
 1923SOL    HW2 6669   4.613   0.434   6.143
 1924SOL     OW 6670   4.547   6.965   0.984
 1924SOL    HW1 6671   4.508   0.032   0.970
 1924SOL    HW2 6672   4.490   6.914   1.049
 1925SOL     OW 6673   1.306   4.375   0.662
 1925SOL    HW1 6674   1.310   4.277   0.645
 1925SOL    HW2 6675   1.226   4.396   0.718
 1926SOL     OW 6676   4.153   0.323   1.699
 1926SOL    HW1 6677   4.209   0.375   1.635
 1926SOL    HW2 6678   4.156   0.367   1.789
 1927SOL     OW 6679   2.218   4.881   1.242
 1927SOL    HW1 6680   2.204   4.784   1.258
 1927SOL    HW2 6681   2.300   4.912   1.290
 1928SOL     OW 6682   4.512   4.458   3.784
 1928SOL    HW1 6683   4.502   4.528   3.714
 1928SOL    HW2 6684   4.468   4.373   3.753
 1929SOL     OW 6685   3.034   1.005   2.849
 1929SOL    HW1 6686   3.131   0.985   2.835
 1929SOL    HW2 6687   3.000   0.951   2.926
 1930SOL     OW 6688   4.771   2.963   6.618
 1930SOL    HW1 6689   4.865   2.990   6.598
 1930SOL    HW2 6690   4.708   3.010   6.556
 1931SOL     OW 6691   0.815   1.314   5.798
 1931SOL    HW1 6692   0.850   1.221   5.811
 1931SOL    HW2 6693   0.795   1.354   5.888
 1932SOL     OW 6694   4.352   2.089   3.093
 1932SOL    HW1 6695   4.312   2.161   3.037
 1932SOL    HW2 6696   4.309   2.089   3.184
 1933SOL     OW 6697   0.510   1.589   0.355
 1933SOL    HW1 6698   0.523   1.617   0.259
 1933SOL    HW2 6699   0.464   1.500   0.357
 1934SOL     OW 6700   0.017   0.418   5.391
 1934SOL    HW1 6701   0.116   0.415   5.406
 1934SOL    HW2 6702   7.022   0.417   5.292
 1935SOL     OW 6703   5.383   4.784   3.620
 1935SOL    HW1 6704   5.305   4.721   3.620
 1935SOL    HW2 6705   5.468   4.732   3.613
 1936SOL     OW 6706   5.375   3.364   4.615
 1936SOL    HW1 6707   5.294   3.419   4.636
 1936SOL    HW2 6708   5.383   3.353   4.516
 1937SOL     OW 6709   4.786   4.830   6.739
 1937SOL    HW1 6710   4.832   4.859   6.655
 1937SOL    HW2 6711   4.718   4.898   6.765
 1938SOL     OW 6712   1.200   2.748   6.926
 1938SOL    HW1 6713   1.201   2.845   6.948
 1938SOL    HW2 6714   1.229   2.695   7.006
 1939SOL     OW 6715   1.104   6.270   5.337
 1939SOL    HW1 6716   1.187   6.231   5.298
 1939SOL    HW2 6717   1.062   6.331   5.270
 1940SOL     OW 6718   6.073   4.807   1.536
 1940SOL    HW1 6719   6.115   4.720   1.563
 1940SOL    HW2 6720   6.142   4.879   1.535
 1941SOL     OW 6721   0.528   2.928   4.126
 1941SOL    HW1 6722   0.494   2.848   4.175
 1941SOL    HW2 6723   0.451   2.981   4.091
 1942SOL     OW 6724   5.492   3.311   2.199
 1942SOL    HW1 6725   5.441   3.354   2.273
 1942SOL    HW2 6726   5.493   3.212   2.212
 1943SOL     OW 6727   1.377   1.060   1.984
 1943SOL    HW1 6728   1.442   1.135   1.983
 1943SOL    HW2 6729   1.289   1.091   1.948
 1944SOL     OW 6730   0.204   2.870   1.042
 1944SOL    HW1 6731   0.259   2.809   0.984
 1944SOL    HW2 6732   0.228   2.965   1.022
 1945SOL     OW 6733   4.360   6.864   1.164
 1945SOL    HW1 6734   4.322   6.834   1.252
 1945SOL    HW2 6735   4.285   6.883   1.100
 1946SOL     OW 6736   6.613   6.547   1.866
 1946SOL    HW1 6737   6.532   6.489   1.865
 1946SOL    HW2 6738   6.656   6.545   1.775
 1947SOL     OW 6739   5.646   4.105   2.674
 1947SOL    HW1 6740   5.559   4.072   2.713
 1947SOL    HW2 6741   5.715   4.033   2.683
 1948SOL     OW 6742   5.256   3.213   3.181
 1948SOL    HW1 6743   5.213   3.171   3.261
 1948SOL    HW2 6744   5.202   3.294   3.154
 1949SOL     OW 6745   3.579   5.132   6.794
 1949SOL    HW1 6746   3.521   5.068   6.844
 1949SOL    HW2 6747   3.559   5.225   6.822
 1950SOL     OW 6748   3.737   4.106   4.168
 1950SOL    HW1 6749   3.716   4.009   4.162
 1950SOL    HW2 6750   3.781   4.125   4.256
 1951SOL     OW 6751   6.586   5.122   5.723
 1951SOL    HW1 6752   6.556   5.198   5.781
 1951SOL    HW2 6753   6.519   5.048   5.729
 1952SOL     OW 6754   5.507   4.203   6.991
 1952SOL    HW1 6755   5.506   4.109   6.955
 1952SOL    HW2 6756   5.545   4.264   6.923
 1953SOL     OW 6757   1.087   1.472   6.327
 1953SOL    HW1 6758   1.068   1.494   6.231
 1953SOL    HW2 6759   1.005   1.430   6.367
 1954SOL     OW 6760   3.484   0.245   1.742
 1954SOL    HW1 6761   3.449   0.156   1.773
 1954SOL    HW2 6762   3.457   0.316   1.807
 1955SOL     OW 6763   0.916   1.529   2.014
 1955SOL    HW1 6764   0.967   1.510   1.929
 1955SOL    HW2 6765   0.955   1.610   2.059
 1956SOL     OW 6766   6.090   0.767   2.018
 1956SOL    HW1 6767   6.020   0.831   1.988
 1956SOL    HW2 6768   6.103   0.777   2.117
 1957SOL     OW 6769   5.538   2.300   3.759
 1957SOL    HW1 6770   5.507   2.303   3.664
 1957SOL    HW2 6771   5.618   2.359   3.770
 1958SOL     OW 6772   4.645   1.884   0.858
 1958SOL    HW1 6773   4.653   1.928   0.948
 1958SOL    HW2 6774   4.569   1.819   0.860
 1959SOL     OW 6775   6.998   0.101   4.044
 1959SOL    HW1 6776   7.011   0.015   4.094
 1959SOL    HW2 6777   0.056   0.121   3.990
 1960SOL     OW 6778   5.599   3.732   3.086
 1960SOL    HW1 6779   5.644   3.713   3.174
 1960SOL    HW2 6780   5.502   3.750   3.102
 1961SOL     OW 6781   6.783   4.168   5.119
 1961SOL    HW1 6782   6.851   4.211   5.059
 1961SOL    HW2 6783   6.761   4.077   5.084
 1962SOL     OW 6784   1.115   6.964   3.043
 1962SOL    HW1 6785   1.121   6.997   2.949
 1962SOL    HW2 6786   1.043   7.014   3.092
 1963SOL     OW 6787   0.745   2.061   2.054
 1963SOL    HW1 6788   0.651   2.043   2.083
 1963SOL    HW2 6789   0.805   2.067   2.134
 1964SOL     OW 6790   5.314   4.236   1.839
 1964SOL    HW1 6791   5.263   4.174   1.898
 1964SOL    HW2 6792   5.316   4.199   1.746
 1965SOL     OW 6793   0.440   4.204   4.167
 1965SOL    HW1 6794   0.524   4.151   4.153
 1965SOL    HW2 6795   0.414   4.247   4.081
 1966SOL     OW 6796   1.687   4.341   0.523
 1966SOL    HW1 6797   1.618   4.409   0.498
 1966SOL    HW2 6798   1.763   4.345   0.458
 1967SOL     OW 6799   5.959   2.589   3.386
 1967SOL    HW1 6800   5.881   2.547   3.340
 1967SOL    HW2 6801   6.044   2.550   3.350
 1968SOL     OW 6802   2.029   1.514   5.479
 1968SOL    HW1 6803   2.053   1.569   5.399
 1968SOL    HW2 6804   2.053   1.563   5.563
 1969SOL     OW 6805   2.832   6.166   0.540
 1969SOL    HW1 6806   2.866   6.111   0.616
 1969SOL    HW2 6807   2.733   6.177   0.549
 1970SOL     OW 6808   6.590   5.814   4.974
 1970SOL    HW1 6809   6.504   5.768   4.954
 1970SOL    HW2 6810   6.617   5.870   4.896
 1971SOL     OW 6811   0.964   6.303   5.582
 1971SOL    HW1 6812   0.929   6.219   5.625
 1971SOL    HW2 6813   0.970   6.290   5.483
 1972SOL     OW 6814   6.010   2.755   1.969
 1972SOL    HW1 6815   6.082   2.821   1.948
 1972SOL    HW2 6816   6.039   2.664   1.940
 1973SOL     OW 6817   1.919   4.182   0.752
 1973SOL    HW1 6818   1.925   4.228   0.664
 1973SOL    HW2 6819   1.964   4.238   0.822
 1974SOL     OW 6820   3.641   6.292   4.758
 1974SOL    HW1 6821   3.585   6.272   4.678
 1974SOL    HW2 6822   3.719   6.348   4.732
 1975SOL     OW 6823   1.381   3.016   2.978
 1975SOL    HW1 6824   1.429   2.955   2.915
 1975SOL    HW2 6825   1.427   3.105   2.980
 1976SOL     OW 6826   0.362   0.103   5.860
 1976SOL    HW1 6827   0.447   0.072   5.903
 1976SOL    HW2 6828   0.291   0.034   5.873
 1977SOL     OW 6829   1.983   3.861   5.955
 1977SOL    HW1 6830   1.934   3.822   6.032
 1977SOL    HW2 6831   2.059   3.800   5.929
 1978SOL     OW 6832   2.597   0.425   2.135
 1978SOL    HW1 6833   2.525   0.370   2.093
 1978SOL    HW2 6834   2.556   0.491   2.198
 1979SOL     OW 6835   6.405   5.684   6.725
 1979SOL    HW1 6836   6.495   5.701   6.685
 1979SOL    HW2 6837   6.408   5.601   6.781
 1980SOL     OW 6838   3.024   1.792   1.607
 1980SOL    HW1 6839   2.997   1.888   1.618
 1980SOL    HW2 6840   2.951   1.733   1.642
 1981SOL     OW 6841   4.440   2.523   3.150
 1981SOL    HW1 6842   4.424   2.503   3.246
 1981SOL    HW2 6843   4.490   2.447   3.108
 1982SOL     OW 6844   6.612   2.482   4.122
 1982SOL    HW1 6845   6.576   2.399   4.165
 1982SOL    HW2 6846   6.539   2.528   4.072
 1983SOL     OW 6847   0.669   0.205   1.023
 1983SOL    HW1 6848   0.650   0.191   1.120
 1983SOL    HW2 6849   0.654   0.301   0.999
 1984SOL     OW 6850   5.665   3.117   5.650
 1984SOL    HW1 6851   5.747   3.148   5.699
 1984SOL    HW2 6852   5.631   3.192   5.593
 1985SOL     OW 6853   6.416   4.189   1.889
 1985SOL    HW1 6854   6.372   4.110   1.847
 1985SOL    HW2 6855   6.490   4.220   1.829
 1986SOL     OW 6856   3.330   1.854   0.542
 1986SOL    HW1 6857   3.377   1.942   0.528
 1986SOL    HW2 6858   3.368   1.809   0.622
 1987SOL     OW 6859   2.082   0.332   2.986
 1987SOL    HW1 6860   2.181   0.340   2.969
 1987SOL    HW2 6861   2.051   0.241   2.959
 1988SOL     OW 6862   0.121   1.640   1.423
 1988SOL    HW1 6863   0.091   1.628   1.518
 1988SOL    HW2 6864   0.124   1.551   1.378
 1989SOL     OW 6865   3.049   4.838   4.831
 1989SOL    HW1 6866   2.952   4.852   4.847
 1989SOL    HW2 6867   3.066   4.833   4.732
 1990SOL     OW 6868   3.804   0.293   0.723
 1990SOL    HW1 6869   3.811   0.392   0.733
 1990SOL    HW2 6870   3.844   0.249   0.803
 1991SOL     OW 6871   3.381   5.659   0.413
 1991SOL    HW1 6872   3.439   5.640   0.334
 1991SOL    HW2 6873   3.369   5.758   0.423
 1992SOL     OW 6874   0.730   5.718   1.219
 1992SOL    HW1 6875   0.695   5.627   1.241
 1992SOL    HW2 6876   0.770   5.759   1.301
 1993SOL     OW 6877   2.163   3.143   4.573
 1993SOL    HW1 6878   2.104   3.222   4.589
 1993SOL    HW2 6879   2.244   3.171   4.522
 1994SOL     OW 6880   3.319   3.930   0.671
 1994SOL    HW1 6881   3.247   3.936   0.602
 1994SOL    HW2 6882   3.353   3.836   0.677
 1995SOL     OW 6883   5.351   2.623   4.505
 1995SOL    HW1 6884   5.258   2.620   4.540
 1995SOL    HW2 6885   5.352   2.599   4.408
 1996SOL     OW 6886   3.979   1.723   0.729
 1996SOL    HW1 6887   4.062   1.776   0.711
 1996SOL    HW2 6888   3.899   1.782   0.717
 1997SOL     OW 6889   3.922   1.446   3.734
 1997SOL    HW1 6890   3.900   1.513   3.663
 1997SOL    HW2 6891   3.994   1.481   3.793
 1998SOL     OW 6892   1.548   3.700   1.175
 1998SOL    HW1 6893   1.453   3.671   1.173
 1998SOL    HW2 6894   1.558   3.786   1.125
 1999SOL     OW 6895   1.360   6.706   5.153
 1999SOL    HW1 6896   1.302   6.626   5.164
 1999SOL    HW2 6897   1.455   6.677   5.146
 2000SOL     OW 6898   3.425   3.435   6.507
 2000SOL    HW1 6899   3.384   3.376   6.438
 2000SOL    HW2 6900   3.508   3.477   6.471
 2001SOL     OW 6901   2.810   1.538   6.366
 2001SOL    HW1 6902   2.855   1.471   6.307
 2001SOL    HW2 6903   2.875   1.611   6.388
 2002SOL     OW 6904   6.753   4.724   0.808
 2002SOL    HW1 6905   6.762   4.786   0.887
 2002SOL    HW2 6906   6.839   4.676   0.793
 2003SOL     OW 6907   6.700   5.446   2.191
 2003SOL    HW1 6908   6.743   5.530   2.157
 2003SOL    HW2 6909   6.609   5.467   2.225
 2004SOL     OW 6910   3.564   0.758   3.291
 2004SOL    HW1 6911   3.656   0.774   3.326
 2004SOL    HW2 6912   3.498   0.770   3.365
 2005SOL     OW 6913   1.184   6.154   0.899
 2005SOL    HW1 6914   1.112   6.101   0.944
 2005SOL    HW2 6915   1.154   6.182   0.808
 2006SOL     OW 6916   5.175   6.723   3.019
 2006SOL    HW1 6917   5.093   6.752   3.070
 2006SOL    HW2 6918   5.247   6.792   3.031
 2007SOL     OW 6919   5.560   4.765   0.396
 2007SOL    HW1 6920   5.545   4.860   0.368
 2007SOL    HW2 6921   5.624   4.762   0.473
 2008SOL     OW 6922   1.892   3.740   3.520
 2008SOL    HW1 6923   1.969   3.789   3.479
 2008SOL    HW2 6924   1.920   3.646   3.542
 2009SOL     OW 6925   6.503   6.505   2.217
 2009SOL    HW1 6926   6.517   6.406   2.218
 2009SOL    HW2 6927   6.405   6.525   2.213
 2010SOL     OW 6928   1.620   2.264   1.751
 2010SOL    HW1 6929   1.526   2.262   1.715
 2010SOL    HW2 6930   1.655   2.357   1.746
 2011SOL     OW 6931   0.528   5.835   5.879
 2011SOL    HW1 6932   0.503   5.746   5.841
 2011SOL    HW2 6933   0.472   5.854   5.959
 2012SOL     OW 6934   1.402   3.213   2.537
 2012SOL    HW1 6935   1.346   3.133   2.564
 2012SOL    HW2 6936   1.399   3.281   2.611
 2013SOL     OW 6937   0.575   2.969   2.922
 2013SOL    HW1 6938   0.656   3.018   2.889
 2013SOL    HW2 6939   0.590   2.871   2.915
 2014SOL     OW 6940   3.271   0.548   4.018
 2014SOL    HW1 6941   3.191   0.548   3.957
 2014SOL    HW2 6942   3.321   0.462   4.007
 2015SOL     OW 6943   3.985   1.003   1.973
 2015SOL    HW1 6944   4.050   0.999   1.897
 2015SOL    HW2 6945   4.032   0.981   2.058
 2016SOL     OW 6946   1.979   0.153   5.432
 2016SOL    HW1 6947   1.888   0.120   5.410
 2016SOL    HW2 6948   2.019   0.095   5.503
 2017SOL     OW 6949   3.449   6.946   2.873
 2017SOL    HW1 6950   3.461   6.852   2.840
 2017SOL    HW2 6951   3.486   6.954   2.966
 2018SOL     OW 6952   0.555   0.789   2.923
 2018SOL    HW1 6953   0.635   0.841   2.896
 2018SOL    HW2 6954   0.571   0.692   2.907
 2019SOL     OW 6955   6.078   4.820   6.509
 2019SOL    HW1 6956   6.172   4.833   6.479
 2019SOL    HW2 6957   6.016   4.861   6.442
 2020SOL     OW 6958   2.106   6.364   6.230
 2020SOL    HW1 6959   2.135   6.447   6.277
 2020SOL    HW2 6960   2.011   6.343   6.253
 2021SOL     OW 6961   6.170   5.738   3.660
 2021SOL    HW1 6962   6.091   5.797   3.675
 2021SOL    HW2 6963   6.165   5.660   3.722
 2022SOL     OW 6964   2.081   4.022   5.097
 2022SOL    HW1 6965   2.180   4.023   5.086
 2022SOL    HW2 6966   2.049   4.114   5.118
 2023SOL     OW 6967   0.331   6.966   6.896
 2023SOL    HW1 6968   0.332   6.927   6.988
 2023SOL    HW2 6969   0.390   0.023   6.893
 2024SOL     OW 6970   0.697   5.714   4.959
 2024SOL    HW1 6971   0.780   5.767   4.940
 2024SOL    HW2 6972   0.625   5.776   4.990
 2025SOL     OW 6973   2.340   0.594   4.994
 2025SOL    HW1 6974   2.430   0.638   4.993
 2025SOL    HW2 6975   2.270   0.662   5.015
 2026SOL     OW 6976   6.170   1.053   6.198
 2026SOL    HW1 6977   6.239   1.019   6.134
 2026SOL    HW2 6978   6.079   1.040   6.158
 2027SOL     OW 6979   0.411   6.105   2.988
 2027SOL    HW1 6980   0.338   6.094   2.921
 2027SOL    HW2 6981   0.415   6.200   3.019
 2028SOL     OW 6982   4.262   5.463   3.657
 2028SOL    HW1 6983   4.219   5.383   3.613
 2028SOL    HW2 6984   4.290   5.439   3.750
 2029SOL     OW 6985   5.732   2.669   6.569
 2029SOL    HW1 6986   5.795   2.593   6.583
 2029SOL    HW2 6987   5.727   2.692   6.472
 2030SOL     OW 6988   2.350   6.186   3.251
 2030SOL    HW1 6989   2.368   6.197   3.153
 2030SOL    HW2 6990   2.350   6.275   3.295
 2031SOL     OW 6991   6.444   5.708   3.597
 2031SOL    HW1 6992   6.353   5.744   3.616
 2031SOL    HW2 6993   6.473   5.650   3.674
 2032SOL     OW 6994   3.461   1.749   5.822
 2032SOL    HW1 6995   3.398   1.824   5.800
 2032SOL    HW2 6996   3.493   1.759   5.916
 2033SOL     OW 6997   2.030   1.641   1.148
 2033SOL    HW1 6998   2.085   1.698   1.087
 2033SOL    HW2 6999   2.089   1.575   1.195
 2034SOL     OW 7000   0.053   4.814   5.684
 2034SOL    HW1 7001   7.013   4.738   5.691
 2034SOL    HW2 7002   0.011   4.889   5.633
 2035SOL     OW 7003   5.596   0.051   2.333
 2035SOL    HW1 7004   5.589   0.035   2.431
 2035SOL    HW2 7005   5.506   0.077   2.297
 2036SOL     OW 7006   1.323   4.356   2.014
 2036SOL    HW1 7007   1.423   4.358   2.014
 2036SOL    HW2 7008   1.289   4.369   1.920
 2037SOL     OW 7009   0.003   2.999   6.583
 2037SOL    HW1 7010   6.953   2.975   6.519
 2037SOL    HW2 7011   0.086   3.020   6.531
 2038SOL     OW 7012   2.208   1.247   7.002
 2038SOL    HW1 7013   2.226   1.291   0.066
 2038SOL    HW2 7014   2.289   1.198   6.971
 2039SOL     OW 7015   6.597   6.026   2.585
 2039SOL    HW1 7016   6.556   6.021   2.493
 2039SOL    HW2 7017   6.565   6.108   2.632
 2040SOL     OW 7018   1.955   2.755   0.094
 2040SOL    HW1 7019   1.987   2.684   0.032
 2040SOL    HW2 7020   1.906   2.825   0.043
 2041SOL     OW 7021   1.561   0.511   6.176
 2041SOL    HW1 7022   1.509   0.499   6.261
 2041SOL    HW2 7023   1.633   0.441   6.171
 2042SOL     OW 7024   5.267   1.429   5.428
 2042SOL    HW1 7025   5.245   1.507   5.368
 2042SOL    HW2 7026   5.215   1.437   5.513
 2043SOL     OW 7027   6.360   4.033   0.829
 2043SOL    HW1 7028   6.435   4.099   0.832
 2043SOL    HW2 7029   6.323   4.029   0.736
 2044SOL     OW 7030   4.683   0.609   0.783
 2044SOL    HW1 7031   4.711   0.676   0.714
 2044SOL    HW2 7032   4.663   0.522   0.738
 2045SOL     OW 7033   2.226   6.319   6.627
 2045SOL    HW1 7034   2.288   6.394   6.607
 2045SOL    HW2 7035   2.194   6.325   6.721
 2046SOL     OW 7036   0.933   2.355   4.740
 2046SOL    HW1 7037   0.964   2.260   4.748
 2046SOL    HW2 7038   0.946   2.402   4.828
 2047SOL     OW 7039   6.839   1.117   6.988
 2047SOL    HW1 7040   6.932   1.153   7.000
 2047SOL    HW2 7041   6.772   1.188   7.008
 2048SOL     OW 7042   0.884   1.684   4.877
 2048SOL    HW1 7043   0.789   1.653   4.880
 2048SOL    HW2 7044   0.910   1.700   4.781
 2049SOL     OW 7045   4.498   1.954   4.899
 2049SOL    HW1 7046   4.543   1.886   4.957
 2049SOL    HW2 7047   4.515   1.931   4.803
 2050SOL     OW 7048   0.495   0.758   3.888
 2050SOL    HW1 7049   0.404   0.721   3.869
 2050SOL    HW2 7050   0.552   0.751   3.807
 2051SOL     OW 7051   3.207   6.145   0.608
 2051SOL    HW1 7052   3.300   6.122   0.637
 2051SOL    HW2 7053   3.152   6.170   0.688
 2052SOL     OW 7054   1.783   3.933   6.463
 2052SOL    HW1 7055   1.815   3.953   6.556
 2052SOL    HW2 7056   1.764   4.019   6.415
 2053SOL     OW 7057   1.103   5.283   4.195
 2053SOL    HW1 7058   1.020   5.259   4.144
 2053SOL    HW2 7059   1.142   5.366   4.156
 2054SOL     OW 7060   3.267   3.278   3.533
 2054SOL    HW1 7061   3.241   3.373   3.520
 2054SOL    HW2 7062   3.343   3.272   3.597
 2055SOL     OW 7063   2.649   2.158   5.783
 2055SOL    HW1 7064   2.702   2.109   5.713
 2055SOL    HW2 7065   2.712   2.198   5.849
 2056SOL     OW 7066   4.015   4.869   1.160
 2056SOL    HW1 7067   4.091   4.850   1.222
 2056SOL    HW2 7068   3.937   4.904   1.213
 2057SOL     OW 7069   6.006   2.441   4.344
 2057SOL    HW1 7070   5.913   2.477   4.339
 2057SOL    HW2 7071   6.004   2.347   4.377
 2058SOL     OW 7072   0.591   5.735   2.939
 2058SOL    HW1 7073   0.494   5.726   2.916
 2058SOL    HW2 7074   0.640   5.770   2.860
 2059SOL     OW 7075   1.389   0.153   6.192
 2059SOL    HW1 7076   1.415   0.232   6.137
 2059SOL    HW2 7077   1.434   0.158   6.281
 2060SOL     OW 7078   1.317   3.619   6.705
 2060SOL    HW1 7079   1.255   3.551   6.666
 2060SOL    HW2 7080   1.326   3.603   6.803
 2061SOL     OW 7081   2.101   2.201   2.860
 2061SOL    HW1 7082   2.132   2.283   2.812
 2061SOL    HW2 7083   2.009   2.216   2.896
 2062SOL     OW 7084   6.690   5.078   4.985
 2062SOL    HW1 7085   6.783   5.039   4.985
 2062SOL    HW2 7086   6.637   5.035   4.912
 2063SOL     OW 7087   0.972   0.581   4.858
 2063SOL    HW1 7088   0.985   0.497   4.805
 2063SOL    HW2 7089   1.061   0.615   4.888
 2064SOL     OW 7090   0.720   3.194   3.602
 2064SOL    HW1 7091   0.709   3.095   3.599
 2064SOL    HW2 7092   0.790   3.222   3.536
 2065SOL     OW 7093   4.373   3.149   5.676
 2065SOL    HW1 7094   4.422   3.062   5.681
 2065SOL    HW2 7095   4.355   3.171   5.580
 2066SOL     OW 7096   6.424   3.170   5.047
 2066SOL    HW1 7097   6.331   3.141   5.025
 2066SOL    HW2 7098   6.487   3.136   4.978
 2067SOL     OW 7099   6.352   5.082   1.156
 2067SOL    HW1 7100   6.263   5.072   1.201
 2067SOL    HW2 7101   6.347   5.155   1.088
 2068SOL     OW 7102   3.818   0.342   4.671
 2068SOL    HW1 7103   3.854   0.428   4.634
 2068SOL    HW2 7104   3.771   0.291   4.599
 2069SOL     OW 7105   0.014   2.102   3.914
 2069SOL    HW1 7106   0.011   2.035   3.989
 2069SOL    HW2 7107   0.002   2.194   3.952
 2070SOL     OW 7108   0.697   4.734   1.087
 2070SOL    HW1 7109   0.642   4.680   1.023
 2070SOL    HW2 7110   0.765   4.676   1.131
 2071SOL     OW 7111   6.805   1.337   5.908
 2071SOL    HW1 7112   6.712   1.374   5.905
 2071SOL    HW2 7113   6.834   1.327   6.003
 2072SOL     OW 7114   4.179   4.221   5.796
 2072SOL    HW1 7115   4.131   4.237   5.710
 2072SOL    HW2 7116   4.274   4.251   5.787
 2073SOL     OW 7117   2.950   6.179   6.941
 2073SOL    HW1 7118   3.048   6.168   6.924
 2073SOL    HW2 7119   2.925   6.127   7.022
 2074SOL     OW 7120   0.770   3.874   5.564
 2074SOL    HW1 7121   0.843   3.808   5.550
 2074SOL    HW2 7122   0.686   3.842   5.519
 2075SOL     OW 7123   6.536   1.662   1.413
 2075SOL    HW1 7124   6.579   1.742   1.454
 2075SOL    HW2 7125   6.458   1.634   1.470
 2076SOL     OW 7126   5.172   6.908   4.770
 2076SOL    HW1 7127   5.185   6.849   4.690
 2076SOL    HW2 7128   5.104   6.867   4.831
 2077SOL     OW 7129   6.552   4.231   0.799
 2077SOL    HW1 7130   6.607   4.255   0.879
 2077SOL    HW2 7131   6.532   4.314   0.747
 2078SOL     OW 7132   0.723   3.068   5.637
 2078SOL    HW1 7133   0.806   3.113   5.670
 2078SOL    HW2 7134   0.667   3.040   5.715
 2079SOL     OW 7135   5.042   2.230   2.712
 2079SOL    HW1 7136   4.953   2.264   2.743
 2079SOL    HW2 7137   5.033   2.189   2.621
 2080SOL     OW 7138   2.528   3.160   5.857
 2080SOL    HW1 7139   2.622   3.193   5.864
 2080SOL    HW2 7140   2.520   3.100   5.778
 2081SOL     OW 7141   6.017   0.026   2.808
 2081SOL    HW1 7142   6.072   6.969   2.827
 2081SOL    HW2 7143   6.075   0.101   2.778
 2082SOL     OW 7144   6.893   6.189   3.245
 2082SOL    HW1 7145   6.986   6.218   3.222
 2082SOL    HW2 7146   6.885   6.178   3.344
 2083SOL     OW 7147   0.172   6.140   3.670
 2083SOL    HW1 7148   0.179   6.200   3.750
 2083SOL    HW2 7149   0.216   6.052   3.690
 2084SOL     OW 7150   0.097   2.111   1.674
 2084SOL    HW1 7151   0.127   2.141   1.584
 2084SOL    HW2 7152   0.084   2.191   1.733
 2085SOL     OW 7153   5.085   5.796   0.829
 2085SOL    HW1 7154   5.152   5.800   0.754
 2085SOL    HW2 7155   5.079   5.885   0.874
 2086SOL     OW 7156   4.613   0.235   6.831
 2086SOL    HW1 7157   4.639   0.326   6.865
 2086SOL    HW2 7158   4.693   0.176   6.831
 2087SOL     OW 7159   4.264   2.165   6.835
 2087SOL    HW1 7160   4.336   2.095   6.841
 2087SOL    HW2 7161   4.280   2.222   6.755
 2088SOL     OW 7162   0.478   5.583   5.654
 2088SOL    HW1 7163   0.487   5.485   5.669
 2088SOL    HW2 7164   0.386   5.603   5.622
 2089SOL     OW 7165   2.765   3.545   0.075
 2089SOL    HW1 7166   2.743   3.636   0.040
 2089SOL    HW2 7167   2.847   3.550   0.132
 2090SOL     OW 7168   4.589   3.282   5.344
 2090SOL    HW1 7169   4.632   3.350   5.284
 2090SOL    HW2 7170   4.526   3.328   5.406
 2091SOL     OW 7171   5.953   5.676   1.360
 2091SOL    HW1 7172   6.020   5.750   1.364
 2091SOL    HW2 7173   5.861   5.714   1.354
 2092SOL     OW 7174   4.554   3.900   1.664
 2092SOL    HW1 7175   4.570   3.988   1.708
 2092SOL    HW2 7176   4.581   3.904   1.568
 2093SOL     OW 7177   3.888   1.683   2.586
 2093SOL    HW1 7178   3.808   1.632   2.618
 2093SOL    HW2 7179   3.885   1.777   2.620
 2094SOL     OW 7180   5.533   2.221   6.887
 2094SOL    HW1 7181   5.485   2.241   6.802
 2094SOL    HW2 7182   5.533   2.302   6.945
 2095SOL     OW 7183   4.885   6.735   2.693
 2095SOL    HW1 7184   4.905   6.770   2.784
 2095SOL    HW2 7185   4.926   6.795   2.624
 2096SOL     OW 7186   5.149   6.751   2.049
 2096SOL    HW1 7187   5.083   6.825   2.063
 2096SOL    HW2 7188   5.132   6.708   1.960
 2097SOL     OW 7189   1.342   5.151   6.439
 2097SOL    HW1 7190   1.242   5.150   6.446
 2097SOL    HW2 7191   1.382   5.172   6.528
 2098SOL     OW 7192   2.969   5.693   3.315
 2098SOL    HW1 7193   2.885   5.717   3.266
 2098SOL    HW2 7194   3.000   5.603   3.286
 2099SOL     OW 7195   5.070   0.996   6.934
 2099SOL    HW1 7196   5.125   0.945   6.869
 2099SOL    HW2 7197   5.091   0.966   0.003
 2100SOL     OW 7198   5.803   0.261   1.137
 2100SOL    HW1 7199   5.838   0.245   1.230
 2100SOL    HW2 7200   5.786   0.359   1.124
 2101SOL     OW 7201   0.186   6.562   1.991
 2101SOL    HW1 7202   0.220   6.637   2.047
 2101SOL    HW2 7203   0.099   6.588   1.950
 2102SOL     OW 7204   3.670   3.084   0.652
 2102SOL    HW1 7205   3.738   3.117   0.718
 2102SOL    HW2 7206   3.611   3.160   0.624
 2103SOL     OW 7207   3.026   5.769   0.504
 2103SOL    HW1 7208   2.964   5.701   0.544
 2103SOL    HW2 7209   3.107   5.778   0.561
 2104SOL     OW 7210   1.353   5.004   3.048
 2104SOL    HW1 7211   1.450   5.011   3.073
 2104SOL    HW2 7212   1.344   5.012   2.948
 2105SOL     OW 7213   6.302   4.343   6.214
 2105SOL    HW1 7214   6.261   4.307   6.131
 2105SOL    HW2 7215   6.401   4.354   6.200
 2106SOL     OW 7216   4.783   4.095   1.331
 2106SOL    HW1 7217   4.853   4.028   1.356
 2106SOL    HW2 7218   4.694   4.063   1.363
 2107SOL     OW 7219   5.081   4.289   5.878
 2107SOL    HW1 7220   4.992   4.258   5.846
 2107SOL    HW2 7221   5.103   4.376   5.834
 2108SOL     OW 7222   5.928   0.561   5.827
 2108SOL    HW1 7223   5.952   0.521   5.915
 2108SOL    HW2 7224   5.926   0.490   5.757
 2109SOL     OW 7225   2.666   6.315   3.485
 2109SOL    HW1 7226   2.677   6.311   3.584
 2109SOL    HW2 7227   2.572   6.342   3.463
 2110SOL     OW 7228   3.933   0.527   0.221
 2110SOL    HW1 7229   3.877   0.535   0.304
 2110SOL    HW2 7230   3.968   0.618   0.196
 2111SOL     OW 7231   0.886   2.420   5.625
 2111SOL    HW1 7232   0.846   2.511   5.626
 2111SOL    HW2 7233   0.910   2.395   5.531
 2112SOL     OW 7234   0.270   0.796   6.692
 2112SOL    HW1 7235   0.349   0.805   6.753
 2112SOL    HW2 7236   0.197   0.857   6.723
 2113SOL     OW 7237   1.089   0.535   4.473
 2113SOL    HW1 7238   1.137   0.496   4.551
 2113SOL    HW2 7239   1.011   0.589   4.506
 2114SOL     OW 7240   2.035   1.653   6.347
 2114SOL    HW1 7241   2.125   1.671   6.310
 2114SOL    HW2 7242   2.033   1.562   6.388
 2115SOL     OW 7243   6.527   5.445   2.699
 2115SOL    HW1 7244   6.603   5.505   2.675
 2115SOL    HW2 7245   6.445   5.501   2.718
 2116SOL     OW 7246   0.625   1.945   0.188
 2116SOL    HW1 7247   0.596   1.855   0.156
 2116SOL    HW2 7248   0.722   1.943   0.212
 2117SOL     OW 7249   6.167   1.414   2.338
 2117SOL    HW1 7250   6.080   1.414   2.389
 2117SOL    HW2 7251   6.232   1.353   2.383
 2118SOL     OW 7252   6.160   2.633   2.188
 2118SOL    HW1 7253   6.081   2.644   2.248
 2118SOL    HW2 7254   6.146   2.687   2.104
 2119SOL     OW 7255   2.900   1.018   6.976
 2119SOL    HW1 7256   2.886   0.987   6.882
 2119SOL    HW2 7257   2.997   1.009   6.999
 2120SOL     OW 7258   5.480   1.586   0.765
 2120SOL    HW1 7259   5.467   1.488   0.753
 2120SOL    HW2 7260   5.483   1.608   0.863
 2121SOL     OW 7261   1.286   0.296   6.614
 2121SOL    HW1 7262   1.214   0.326   6.552
 2121SOL    HW2 7263   1.356   0.246   6.563
 2122SOL     OW 7264   6.086   1.077   4.189
 2122SOL    HW1 7265   6.006   1.138   4.194
 2122SOL    HW2 7266   6.125   1.066   4.280
 2123SOL     OW 7267   1.810   5.710   3.577
 2123SOL    HW1 7268   1.845   5.794   3.535
 2123SOL    HW2 7269   1.886   5.659   3.619
 2124SOL     OW 7270   3.780   3.589   5.985
 2124SOL    HW1 7271   3.795   3.497   5.949
 2124SOL    HW2 7272   3.854   3.649   5.953
 2125SOL     OW 7273   1.519   5.728   3.947
 2125SOL    HW1 7274   1.537   5.716   3.849
 2125SOL    HW2 7275   1.452   5.660   3.976
 2126SOL     OW 7276   3.253   4.664   0.174
 2126SOL    HW1 7277   3.320   4.675   0.101
 2126SOL    HW2 7278   3.161   4.658   0.134
 2127SOL     OW 7279   0.462   2.220   4.262
 2127SOL    HW1 7280   0.508   2.303   4.291
 2127SOL    HW2 7281   0.505   2.141   4.305
 2128SOL     OW 7282   5.327   2.732   1.867
 2128SOL    HW1 7283   5.243   2.753   1.917
 2128SOL    HW2 7284   5.304   2.677   1.787
 2129SOL     OW 7285   4.984   4.472   4.160
 2129SOL    HW1 7286   5.044   4.396   4.185
 2129SOL    HW2 7287   4.891   4.452   4.190
 2130SOL     OW 7288   2.360   0.380   2.916
 2130SOL    HW1 7289   2.420   0.453   2.947
 2130SOL    HW2 7290   2.397   0.339   2.832
 2131SOL     OW 7291   5.711   1.416   5.363
 2131SOL    HW1 7292   5.750   1.325   5.378
 2131SOL    HW2 7293   5.617   1.406   5.330
 2132SOL     OW 7294   2.910   2.596   0.379
 2132SOL    HW1 7295   2.947   2.689   0.388
 2132SOL    HW2 7296   2.972   2.532   0.424
 2133SOL     OW 7297   2.723   2.113   2.038
 2133SOL    HW1 7298   2.792   2.185   2.051
 2133SOL    HW2 7299   2.669   2.133   1.956
 2134SOL     OW 7300   1.208   6.551   4.771
 2134SOL    HW1 7301   1.125   6.608   4.767
 2134SOL    HW2 7302   1.288   6.610   4.784
 2135SOL     OW 7303   0.695   1.113   3.274
 2135SOL    HW1 7304   0.653   1.165   3.200
 2135SOL    HW2 7305   0.786   1.149   3.293
 2136SOL     OW 7306   0.137   4.259   3.277
 2136SOL    HW1 7307   0.079   4.188   3.237
 2136SOL    HW2 7308   0.115   4.269   3.374
 2137SOL     OW 7309   1.149   0.452   5.181
 2137SOL    HW1 7310   1.066   0.426   5.132
 2137SOL    HW2 7311   1.147   0.549   5.202
 2138SOL     OW 7312   0.814   2.885   0.303
 2138SOL    HW1 7313   0.907   2.922   0.306
 2138SOL    HW2 7314   0.818   2.785   0.312
 2139SOL     OW 7315   2.445   1.067   5.986
 2139SOL    HW1 7316   2.450   1.165   5.965
 2139SOL    HW2 7317   2.362   1.029   5.946
 2140SOL     OW 7318   2.437   5.859   2.815
 2140SOL    HW1 7319   2.429   5.891   2.910
 2140SOL    HW2 7320   2.361   5.896   2.761
 2141SOL     OW 7321   5.038   1.978   0.458
 2141SOL    HW1 7322   5.087   1.906   0.507
 2141SOL    HW2 7323   4.993   2.039   0.523
 2142SOL     OW 7324   2.469   2.025   3.309
 2142SOL    HW1 7325   2.400   1.982   3.251
 2142SOL    HW2 7326   2.505   2.107   3.263
 2143SOL     OW 7327   3.076   6.709   0.893
 2143SOL    HW1 7328   3.144   6.762   0.844
 2143SOL    HW2 7329   3.051   6.628   0.840
 2144SOL     OW 7330   6.797   0.951   3.037
 2144SOL    HW1 7331   6.779   0.939   2.940
 2144SOL    HW2 7332   6.818   1.047   3.057
 2145SOL     OW 7333   4.173   5.393   2.841
 2145SOL    HW1 7334   4.148   5.383   2.745
 2145SOL    HW2 7335   4.250   5.455   2.850
 2146SOL     OW 7336   4.002   3.043   2.566
 2146SOL    HW1 7337   3.930   2.995   2.515
 2146SOL    HW2 7338   4.046   2.980   2.630
 2147SOL     OW 7339   1.407   0.650   5.355
 2147SOL    HW1 7340   1.326   0.681   5.307
 2147SOL    HW2 7341   1.488   0.695   5.317
 2148SOL     OW 7342   5.221   2.909   3.044
 2148SOL    HW1 7343   5.254   3.001   3.025
 2148SOL    HW2 7344   5.147   2.886   2.979
 2149SOL     OW 7345   3.667   1.205   2.799
 2149SOL    HW1 7346   3.739   1.162   2.745
 2149SOL    HW2 7347   3.694   1.299   2.822
 2150SOL     OW 7348   3.516   2.093   3.171
 2150SOL    HW1 7349   3.572   2.103   3.253
 2150SOL    HW2 7350   3.575   2.105   3.090
 2151SOL     OW 7351   3.737   2.928   5.599
 2151SOL    HW1 7352   3.782   2.839   5.594
 2151SOL    HW2 7353   3.753   2.979   5.514
 2152SOL     OW 7354   6.273   5.898   1.685
 2152SOL    HW1 7355   6.322   5.985   1.683
 2152SOL    HW2 7356   6.250   5.871   1.592
 2153SOL     OW 7357   4.757   2.473   3.143
 2153SOL    HW1 7358   4.714   2.398   3.093
 2153SOL    HW2 7359   4.774   2.445   3.237
 2154SOL     OW 7360   4.012   6.297   5.426
 2154SOL    HW1 7361   3.992   6.308   5.523
 2154SOL    HW2 7362   4.048   6.206   5.409
 2155SOL     OW 7363   0.047   4.069   0.499
 2155SOL    HW1 7364   0.060   4.148   0.559
 2155SOL    HW2 7365   0.006   4.099   0.413
 2156SOL     OW 7366   1.405   0.817   1.813
 2156SOL    HW1 7367   1.412   0.876   1.893
 2156SOL    HW2 7368   1.496   0.806   1.771
 2157SOL     OW 7369   0.809   1.436   5.172
 2157SOL    HW1 7370   0.760   1.484   5.099
 2157SOL    HW2 7371   0.880   1.495   5.210
 2158SOL     OW 7372   3.718   6.519   2.066
 2158SOL    HW1 7373   3.759   6.482   1.983
 2158SOL    HW2 7374   3.687   6.613   2.049
 2159SOL     OW 7375   1.879   6.652   4.803
 2159SOL    HW1 7376   1.803   6.599   4.841
 2159SOL    HW2 7377   1.949   6.665   4.874
 2160SOL     OW 7378   3.175   3.996   0.911
 2160SOL    HW1 7379   3.209   3.985   0.818
 2160SOL    HW2 7380   3.082   4.034   0.909
 2161SOL     OW 7381   5.100   2.271   3.603
 2161SOL    HW1 7382   5.121   2.328   3.683
 2161SOL    HW2 7383   5.170   2.285   3.533
 2162SOL     OW 7384   1.284   0.826   6.954
 2162SOL    HW1 7385   1.306   0.731   6.976
 2162SOL    HW2 7386   1.343   0.858   6.880
 2163SOL     OW 7387   1.777   2.029   0.734
 2163SOL    HW1 7388   1.679   2.013   0.742
 2163SOL    HW2 7389   1.819   2.028   0.824
 2164SOL     OW 7390   1.306   0.600   1.191
 2164SOL    HW1 7391   1.396   0.566   1.162
 2164SOL    HW2 7392   1.317   0.690   1.234
 2165SOL     OW 7393   2.251   6.720   2.253
 2165SOL    HW1 7394   2.234   6.622   2.243
 2165SOL    HW2 7395   2.344   6.735   2.287
 2166SOL     OW 7396   0.241   2.466   6.376
 2166SOL    HW1 7397   0.252   2.564   6.395
 2166SOL    HW2 7398   0.271   2.447   6.283
 2167SOL     OW 7399   2.845   0.417   2.864
 2167SOL    HW1 7400   2.863   0.358   2.785
 2167SOL    HW2 7401   2.927   0.419   2.922
 2168SOL     OW 7402   5.855   5.460   4.568
 2168SOL    HW1 7403   5.953   5.476   4.559
 2168SOL    HW2 7404   5.806   5.547   4.560
 2169SOL     OW 7405   4.874   1.533   6.164
 2169SOL    HW1 7406   4.826   1.479   6.096
 2169SOL    HW2 7407   4.881   1.482   6.250
 2170SOL     OW 7408   4.116   4.787   4.324
 2170SOL    HW1 7409   4.071   4.723   4.262
 2170SOL    HW2 7410   4.113   4.879   4.284
 2171SOL     OW 7411   0.430   2.480   0.002
 2171SOL    HW1 7412   0.524   2.454   0.024
 2171SOL    HW2 7413   0.399   2.550   0.066
 2172SOL     OW 7414   2.787   1.033   0.604
 2172SOL    HW1 7415   2.820   1.021   0.697
 2172SOL    HW2 7416   2.788   0.946   0.556
 2173SOL     OW 7417   5.574   1.641   5.416
 2173SOL    HW1 7418   5.608   1.707   5.349
 2173SOL    HW2 7419   5.608   1.550   5.394
 2174SOL     OW 7420   0.448   5.859   4.968
 2174SOL    HW1 7421   0.429   5.945   4.920
 2174SOL    HW2 7422   0.441   5.874   5.067
 2175SOL     OW 7423   2.315   6.449   4.973
 2175SOL    HW1 7424   2.216   6.446   4.961
 2175SOL    HW2 7425   2.347   6.360   5.004
 2176SOL     OW 7426   1.633   2.217   2.633
 2176SOL    HW1 7427   1.577   2.284   2.584
 2176SOL    HW2 7428   1.590   2.195   2.720
 2177SOL     OW 7429   6.698   1.885   1.491
 2177SOL    HW1 7430   6.797   1.875   1.483
 2177SOL    HW2 7431   6.674   1.982   1.492
 2178SOL     OW 7432   0.624   4.833   6.934
 2178SOL    HW1 7433   0.543   4.878   6.898
 2178SOL    HW2 7434   0.679   4.798   6.858
 2179SOL     OW 7435   1.320   5.094   4.170
 2179SOL    HW1 7436   1.244   5.160   4.170
 2179SOL    HW2 7437   1.300   5.022   4.236
 2180SOL     OW 7438   3.609   2.969   2.533
 2180SOL    HW1 7439   3.512   2.951   2.514
 2180SOL    HW2 7440   3.656   2.992   2.448
 2181SOL     OW 7441   5.257   4.953   5.975
 2181SOL    HW1 7442   5.192   4.985   5.906
 2181SOL    HW2 7443   5.255   5.014   6.054
 2182SOL     OW 7444   6.274   2.891   0.014
 2182SOL    HW1 7445   6.262   2.990   0.013
 2182SOL    HW2 7446   6.368   2.869   7.012
 2183SOL     OW 7447   2.846   3.222   1.109
 2183SOL    HW1 7448   2.888   3.215   1.199
 2183SOL    HW2 7449   2.789   3.141   1.093
 2184SOL     OW 7450   3.955   2.571   6.055
 2184SOL    HW1 7451   4.014   2.493   6.034
 2184SOL    HW2 7452   3.895   2.548   6.132
 2185SOL     OW 7453   1.721   1.362   1.554
 2185SOL    HW1 7454   1.771   1.449   1.545
 2185SOL    HW2 7455   1.786   1.287   1.562
 2186SOL     OW 7456   0.910   5.805   3.147
 2186SOL    HW1 7457   0.926   5.870   3.072
 2186SOL    HW2 7458   0.824   5.827   3.193
 2187SOL     OW 7459   6.901   1.129   6.395
 2187SOL    HW1 7460   6.945   1.140   6.484
 2187SOL    HW2 7461   6.849   1.212   6.373
 2188SOL     OW 7462   5.207   0.485   2.676
 2188SOL    HW1 7463   5.222   0.419   2.750
 2188SOL    HW2 7464   5.111   0.513   2.676
 2189SOL     OW 7465   2.130   0.208   6.638
 2189SOL    HW1 7466   2.219   0.215   6.594
 2189SOL    HW2 7467   2.099   0.299   6.667
 2190SOL     OW 7468   5.126   2.071   1.831
 2190SOL    HW1 7469   5.130   2.058   1.732
 2190SOL    HW2 7470   5.035   2.048   1.864
 2191SOL     OW 7471   3.404   2.370   0.174
 2191SOL    HW1 7472   3.459   2.412   0.247
 2191SOL    HW2 7473   3.315   2.415   0.170
 2192SOL     OW 7474   4.954   5.868   5.263
 2192SOL    HW1 7475   4.893   5.848   5.340
 2192SOL    HW2 7476   4.986   5.962   5.270
 2193SOL     OW 7477   0.356   4.670   6.085
 2193SOL    HW1 7478   0.437   4.687   6.028
 2193SOL    HW2 7479   0.333   4.753   6.136
 2194SOL     OW 7480   2.845   0.191   1.408
 2194SOL    HW1 7481   2.780   0.266   1.403
 2194SOL    HW2 7482   2.797   0.104   1.398
 2195SOL     OW 7483   1.195   4.171   3.020
 2195SOL    HW1 7484   1.134   4.094   3.002
 2195SOL    HW2 7485   1.152   4.255   2.988
 2196SOL     OW 7486   3.389   2.833   6.216
 2196SOL    HW1 7487   3.424   2.860   6.127
 2196SOL    HW2 7488   3.423   2.742   6.240
 2197SOL     OW 7489   4.438   4.947   0.566
 2197SOL    HW1 7490   4.395   4.965   0.478
 2197SOL    HW2 7491   4.368   4.918   0.632
 2198SOL     OW 7492   6.143   4.215   0.251
 2198SOL    HW1 7493   6.219   4.156   0.223
 2198SOL    HW2 7494   6.087   4.238   0.171
 2199SOL     OW 7495   4.379   0.934   1.838
 2199SOL    HW1 7496   4.463   0.978   1.807
 2199SOL    HW2 7497   4.388   0.835   1.831
 2200SOL     OW 7498   2.984   0.656   5.034
 2200SOL    HW1 7499   3.056   0.618   5.093
 2200SOL    HW2 7500   2.904   0.597   5.037
 2201SOL     OW 7501   5.048   4.082   1.947
 2201SOL    HW1 7502   5.133   4.029   1.950
 2201SOL    HW2 7503   4.988   4.044   1.876
 2202SOL     OW 7504   4.510   6.360   3.866
 2202SOL    HW1 7505   4.582   6.295   3.839
 2202SOL    HW2 7506   4.552   6.440   3.909
 2203SOL     OW 7507   3.647   1.695   3.358
 2203SOL    HW1 7508   3.572   1.741   3.310
 2203SOL    HW2 7509   3.675   1.614   3.307
 2204SOL     OW 7510   2.799   2.615   1.075
 2204SOL    HW1 7511   2.771   2.643   0.983
 2204SOL    HW2 7512   2.812   2.516   1.077
 2205SOL     OW 7513   1.996   0.066   0.382
 2205SOL    HW1 7514   2.044   0.116   0.455
 2205SOL    HW2 7515   2.061   0.043   0.310
 2206SOL     OW 7516   1.902   2.646   6.729
 2206SOL    HW1 7517   1.948   2.642   6.818
 2206SOL    HW2 7518   1.825   2.582   6.729
 2207SOL     OW 7519   0.660   4.244   5.080
 2207SOL    HW1 7520   0.662   4.325   5.139
 2207SOL    HW2 7521   0.728   4.178   5.111
 2208SOL     OW 7522   0.388   4.053   1.366
 2208SOL    HW1 7523   0.355   4.010   1.450
 2208SOL    HW2 7524   0.431   3.983   1.308
 2209SOL     OW 7525   1.199   5.666   0.760
 2209SOL    HW1 7526   1.132   5.595   0.782
 2209SOL    HW2 7527   1.178   5.705   0.671
 2210SOL     OW 7528   0.694   6.327   4.002
 2210SOL    HW1 7529   0.790   6.331   3.972
 2210SOL    HW2 7530   0.638   6.290   3.929
 2211SOL     OW 7531   6.167   1.347   5.630
 2211SOL    HW1 7532   6.237   1.406   5.591
 2211SOL    HW2 7533   6.192   1.251   5.614
 2212SOL     OW 7534   1.432   0.330   5.984
 2212SOL    HW1 7535   1.332   0.334   5.988
 2212SOL    HW2 7536   1.469   0.423   5.983
 2213SOL     OW 7537   3.585   1.293   3.363
 2213SOL    HW1 7538   3.565   1.205   3.406
 2213SOL    HW2 7539   3.503   1.327   3.317
 2214SOL     OW 7540   4.251   0.110   4.815
 2214SOL    HW1 7541   4.260   0.031   4.876
 2214SOL    HW2 7542   4.301   0.093   4.731
 2215SOL     OW 7543   5.518   2.857   5.281
 2215SOL    HW1 7544   5.509   2.957   5.287
 2215SOL    HW2 7545   5.522   2.830   5.184
 2216SOL     OW 7546   2.324   0.523   1.940
 2216SOL    HW1 7547   2.302   0.501   1.845
 2216SOL    HW2 7548   2.273   0.463   2.002
 2217SOL     OW 7549   4.227   0.726   1.638
 2217SOL    HW1 7550   4.164   0.705   1.564
 2217SOL    HW2 7551   4.260   0.820   1.629
 2218SOL     OW 7552   1.305   5.682   1.235
 2218SOL    HW1 7553   1.285   5.775   1.265
 2218SOL    HW2 7554   1.401   5.676   1.207
 2219SOL     OW 7555   1.116   3.105   3.084
 2219SOL    HW1 7556   1.213   3.088   3.067
 2219SOL    HW2 7557   1.062   3.029   3.047
 2220SOL     OW 7558   0.490   0.672   6.894
 2220SOL    HW1 7559   0.555   0.658   6.820
 2220SOL    HW2 7560   0.453   0.584   6.924
 2221SOL     OW 7561   0.279   2.145   0.454
 2221SOL    HW1 7562   0.244   2.090   0.379
 2221SOL    HW2 7563   0.268   2.095   0.540
 2222SOL     OW 7564   5.799   6.101   2.711
 2222SOL    HW1 7565   5.733   6.176   2.711
 2222SOL    HW2 7566   5.850   6.102   2.797
 2223SOL     OW 7567   5.374   5.465   1.840
 2223SOL    HW1 7568   5.331   5.410   1.912
 2223SOL    HW2 7569   5.471   5.439   1.833
 2224SOL     OW 7570   1.181   5.044   1.145
 2224SOL    HW1 7571   1.167   5.019   1.049
 2224SOL    HW2 7572   1.183   5.144   1.154
 2225SOL     OW 7573   6.482   4.843   1.309
 2225SOL    HW1 7574   6.432   4.812   1.228
 2225SOL    HW2 7575   6.503   4.764   1.367
 2226SOL     OW 7576   4.342   4.020   1.183
 2226SOL    HW1 7577   4.394   4.073   1.116
 2226SOL    HW2 7578   4.308   3.937   1.140
 2227SOL     OW 7579   0.527   3.496   4.333
 2227SOL    HW1 7580   0.494   3.402   4.326
 2227SOL    HW2 7581   0.622   3.501   4.302
 2228SOL     OW 7582   2.491   4.873   5.789
 2228SOL    HW1 7583   2.550   4.929   5.847
 2228SOL    HW2 7584   2.418   4.930   5.751
 2229SOL     OW 7585   4.848   0.955   3.402
 2229SOL    HW1 7586   4.925   0.904   3.440
 2229SOL    HW2 7587   4.768   0.895   3.396
 2230SOL     OW 7588   1.506   5.655   0.139
 2230SOL    HW1 7589   1.506   5.751   0.113
 2230SOL    HW2 7590   1.507   5.598   0.056
 2231SOL     OW 7591   2.984   6.825   1.626
 2231SOL    HW1 7592   2.994   6.902   1.689
 2231SOL    HW2 7593   3.052   6.833   1.553
 2232SOL     OW 7594   6.891   3.234   2.857
 2232SOL    HW1 7595   6.957   3.308   2.870
 2232SOL    HW2 7596   6.804   3.258   2.899
 2233SOL     OW 7597   3.684   1.374   0.044
 2233SOL    HW1 7598   3.628   1.401   6.989
 2233SOL    HW2 7599   3.665   1.278   0.066
 2234SOL     OW 7600   3.076   1.928   0.596
 2234SOL    HW1 7601   3.032   1.974   0.519
 2234SOL    HW2 7602   3.170   1.902   0.570
 2235SOL     OW 7603   2.026   0.165   1.515
 2235SOL    HW1 7604   1.996   0.105   1.440
 2235SOL    HW2 7605   2.104   0.219   1.484
 2236SOL     OW 7606   6.309   4.037   0.182
 2236SOL    HW1 7607   6.261   3.958   0.220
 2236SOL    HW2 7608   6.408   4.018   0.181
 2237SOL     OW 7609   6.753   2.088   4.165
 2237SOL    HW1 7610   6.745   2.095   4.066
 2237SOL    HW2 7611   6.692   2.154   4.209
 2238SOL     OW 7612   0.686   5.918   2.342
 2238SOL    HW1 7613   0.767   5.887   2.393
 2238SOL    HW2 7614   0.643   5.994   2.390
 2239SOL     OW 7615   5.107   4.960   3.195
 2239SOL    HW1 7616   5.204   4.972   3.174
 2239SOL    HW2 7617   5.078   4.868   3.170
 2240SOL     OW 7618   5.376   3.717   2.552
 2240SOL    HW1 7619   5.347   3.813   2.551
 2240SOL    HW2 7620   5.368   3.679   2.460
 2241SOL     OW 7621   0.857   0.176   2.414
 2241SOL    HW1 7622   0.803   0.092   2.417
 2241SOL    HW2 7623   0.847   0.225   2.501
 2242SOL     OW 7624   4.888   2.458   2.784
 2242SOL    HW1 7625   4.967   2.486   2.730
 2242SOL    HW2 7626   4.839   2.539   2.817
 2243SOL     OW 7627   2.699   5.869   5.286
 2243SOL    HW1 7628   2.766   5.820   5.341
 2243SOL    HW2 7629   2.715   5.849   5.189
 2244SOL     OW 7630   2.555   0.943   4.959
 2244SOL    HW1 7631   2.558   0.916   5.056
 2244SOL    HW2 7632   2.592   0.870   4.903
 2245SOL     OW 7633   0.710   1.822   1.907
 2245SOL    HW1 7634   0.755   1.898   1.953
 2245SOL    HW2 7635   0.712   1.741   1.966
 2246SOL     OW 7636   0.881   3.979   4.880
 2246SOL    HW1 7637   0.844   3.948   4.792
 2246SOL    HW2 7638   0.981   3.969   4.879
 2247SOL     OW 7639   2.060   1.953   5.852
 2247SOL    HW1 7640   2.154   1.934   5.823
 2247SOL    HW2 7641   1.998   1.890   5.805
 2248SOL     OW 7642   4.983   4.201   5.498
 2248SOL    HW1 7643   5.079   4.215   5.474
 2248SOL    HW2 7644   4.972   4.210   5.597
 2249SOL     OW 7645   4.898   5.819   4.810
 2249SOL    HW1 7646   4.870   5.801   4.715
 2249SOL    HW2 7647   4.892   5.917   4.828
 2250SOL     OW 7648   6.132   5.030   0.247
 2250SOL    HW1 7649   6.172   4.961   0.308
 2250SOL    HW2 7650   6.079   4.984   0.175
 2251SOL     OW 7651   6.923   0.881   6.550
 2251SOL    HW1 7652   6.944   0.961   6.494
 2251SOL    HW2 7653   6.886   0.809   6.491
 2252SOL     OW 7654   3.575   1.498   5.761
 2252SOL    HW1 7655   3.657   1.507   5.704
 2252SOL    HW2 7656   3.556   1.585   5.806
 2253SOL     OW 7657   1.640   2.663   6.363
 2253SOL    HW1 7658   1.665   2.594   6.295
 2253SOL    HW2 7659   1.698   2.743   6.352
 2254SOL     OW 7660   1.759   3.719   6.151
 2254SOL    HW1 7661   1.752   3.724   6.251
 2254SOL    HW2 7662   1.827   3.651   6.126
 2255SOL     OW 7663   5.734   2.192   1.650
 2255SOL    HW1 7664   5.746   2.169   1.746
 2255SOL    HW2 7665   5.726   2.292   1.640
 2256SOL     OW 7666   4.047   4.988   1.814
 2256SOL    HW1 7667   4.099   5.068   1.782
 2256SOL    HW2 7668   4.097   4.944   1.889
 2257SOL     OW 7669   1.782   3.965   3.713
 2257SOL    HW1 7670   1.811   3.892   3.651
 2257SOL    HW2 7671   1.747   4.042   3.660
 2258SOL     OW 7672   1.656   5.493   4.576
 2258SOL    HW1 7673   1.578   5.435   4.552
 2258SOL    HW2 7674   1.627   5.562   4.642
 2259SOL     OW 7675   5.470   2.710   6.651
 2259SOL    HW1 7676   5.564   2.678   6.650
 2259SOL    HW2 7677   5.456   2.769   6.731
 2260SOL     OW 7678   5.423   5.085   0.786
 2260SOL    HW1 7679   5.430   5.185   0.795
 2260SOL    HW2 7680   5.438   5.042   0.875
 2261SOL     OW 7681   4.318   6.415   6.280
 2261SOL    HW1 7682   4.305   6.507   6.244
 2261SOL    HW2 7683   4.295   6.414   6.377
 2262SOL     OW 7684   4.172   1.491   2.930
 2262SOL    HW1 7685   4.236   1.507   2.855
 2262SOL    HW2 7686   4.136   1.578   2.963
 2263SOL     OW 7687   7.006   4.476   6.611
 2263SOL    HW1 7688   6.953   4.496   6.529
 2263SOL    HW2 7689   7.002   4.378   6.631
 2264SOL     OW 7690   3.762   4.091   3.756
 2264SOL    HW1 7691   3.663   4.087   3.769
 2264SOL    HW2 7692   3.788   4.182   3.723
 2265SOL     OW 7693   6.714   0.367   1.857
 2265SOL    HW1 7694   6.656   0.410   1.927
 2265SOL    HW2 7695   6.737   0.434   1.786
 2266SOL     OW 7696   6.044   6.964   0.778
 2266SOL    HW1 7697   6.031   6.869   0.806
 2266SOL    HW2 7698   6.086   6.967   0.687
 2267SOL     OW 7699   5.182   1.752   5.635
 2267SOL    HW1 7700   5.116   1.823   5.660
 2267SOL    HW2 7701   5.165   1.722   5.541
 2268SOL     OW 7702   6.400   5.301   0.217
 2268SOL    HW1 7703   6.423   5.207   0.193
 2268SOL    HW2 7704   6.453   5.364   0.161
 2269SOL     OW 7705   6.999   5.263   4.966
 2269SOL    HW1 7706   0.024   5.336   4.919
 2269SOL    HW2 7707   6.901   5.269   4.947
 2270SOL     OW 7708   4.345   3.244   1.763
 2270SOL    HW1 7709   4.372   3.219   1.856
 2270SOL    HW2 7710   4.311   3.338   1.762
 2271SOL     OW 7711   6.299   4.022   3.216
 2271SOL    HW1 7712   6.220   4.039   3.158
 2271SOL    HW2 7713   6.296   4.083   3.296
 2272SOL     OW 7714   5.310   2.046   6.564
 2272SOL    HW1 7715   5.331   2.133   6.608
 2272SOL    HW2 7716   5.289   1.978   6.634
 2273SOL     OW 7717   1.022   1.689   3.803
 2273SOL    HW1 7718   1.116   1.709   3.773
 2273SOL    HW2 7719   0.964   1.768   3.785
 2274SOL     OW 7720   1.786   3.305   3.431
 2274SOL    HW1 7721   1.746   3.222   3.469
 2274SOL    HW2 7722   1.728   3.383   3.453
 2275SOL     OW 7723   4.845   0.180   3.384
 2275SOL    HW1 7724   4.893   0.217   3.463
 2275SOL    HW2 7725   4.785   0.250   3.344
 2276SOL     OW 7726   4.889   4.803   1.446
 2276SOL    HW1 7727   4.921   4.880   1.391
 2276SOL    HW2 7728   4.962   4.772   1.507
 2277SOL     OW 7729   3.068   4.055   0.304
 2277SOL    HW1 7730   3.059   4.018   0.211
 2277SOL    HW2 7731   3.148   4.115   0.309
 2278SOL     OW 7732   5.958   6.746   0.894
 2278SOL    HW1 7733   6.009   6.661   0.907
 2278SOL    HW2 7734   5.861   6.731   0.915
 2279SOL     OW 7735   5.116   4.514   4.815
 2279SOL    HW1 7736   5.208   4.541   4.844
 2279SOL    HW2 7737   5.123   4.437   4.751
 2280SOL     OW 7738   5.201   6.746   6.043
 2280SOL    HW1 7739   5.106   6.737   6.011
 2280SOL    HW2 7740   5.201   6.749   6.143
 2281SOL     OW 7741   2.708   2.986   1.016
 2281SOL    HW1 7742   2.671   2.924   1.085
 2281SOL    HW2 7743   2.638   3.053   0.990
 2282SOL     OW 7744   3.929   5.261   2.896
 2282SOL    HW1 7745   3.925   5.212   2.983
 2282SOL    HW2 7746   4.014   5.314   2.891
 2283SOL     OW 7747   0.181   3.560   3.161
 2283SOL    HW1 7748   0.215   3.569   3.255
 2283SOL    HW2 7749   0.190   3.465   3.131
 2284SOL     OW 7750   2.375   2.620   2.149
 2284SOL    HW1 7751   2.428   2.657   2.073
 2284SOL    HW2 7752   2.418   2.536   2.183
 2285SOL     OW 7753   1.809   4.300   0.042
 2285SOL    HW1 7754   1.710   4.306   0.028
 2285SOL    HW2 7755   1.836   4.204   0.051
 2286SOL     OW 7756   5.738   6.542   4.450
 2286SOL    HW1 7757   5.697   6.608   4.387
 2286SOL    HW2 7758   5.752   6.584   4.540
 2287SOL     OW 7759   1.979   2.865   1.708
 2287SOL    HW1 7760   1.894   2.910   1.680
 2287SOL    HW2 7761   1.985   2.776   1.664
 2288SOL     OW 7762   0.680   6.355   4.739
 2288SOL    HW1 7763   0.741   6.278   4.757
 2288SOL    HW2 7764   0.715   6.408   4.662
 2289SOL     OW 7765   4.497   2.484   1.385
 2289SOL    HW1 7766   4.574   2.420   1.390
 2289SOL    HW2 7767   4.529   2.571   1.349
 2290SOL     OW 7768   3.264   3.260   2.735
 2290SOL    HW1 7769   3.332   3.219   2.795
 2290SOL    HW2 7770   3.172   3.241   2.770
 2291SOL     OW 7771   1.226   2.515   0.143
 2291SOL    HW1 7772   1.305   2.492   0.200
 2291SOL    HW2 7773   1.165   2.436   0.138
 2292SOL     OW 7774   4.508   1.932   2.776
 2292SOL    HW1 7775   4.506   1.840   2.814
 2292SOL    HW2 7776   4.587   1.982   2.812
 2293SOL     OW 7777   6.747   1.408   6.563
 2293SOL    HW1 7778   6.706   1.317   6.565
 2293SOL    HW2 7779   6.732   1.453   6.651
 2294SOL     OW 7780   0.071   2.037   5.681
 2294SOL    HW1 7781   0.108   1.947   5.701
 2294SOL    HW2 7782   6.996   2.038   5.699
 2295SOL     OW 7783   6.054   6.531   1.191
 2295SOL    HW1 7784   5.969   6.508   1.239
 2295SOL    HW2 7785   6.043   6.517   1.093
 2296SOL     OW 7786   3.447   5.732   4.532
 2296SOL    HW1 7787   3.452   5.644   4.579
 2296SOL    HW2 7788   3.394   5.796   4.588
 2297SOL     OW 7789   4.316   4.180   5.481
 2297SOL    HW1 7790   4.221   4.210   5.480
 2297SOL    HW2 7791   4.374   4.250   5.439
 2298SOL     OW 7792   3.836   3.659   4.815
 2298SOL    HW1 7793   3.835   3.724   4.890
 2298SOL    HW2 7794   3.930   3.630   4.798
 2299SOL     OW 7795   5.784   3.322   4.613
 2299SOL    HW1 7796   5.688   3.315   4.642
 2299SOL    HW2 7797   5.822   3.230   4.603
 2300SOL     OW 7798   4.764   6.440   2.270
 2300SOL    HW1 7799   4.747   6.431   2.369
 2300SOL    HW2 7800   4.724   6.362   2.222
 2301SOL     OW 7801   3.882   3.089   4.374
 2301SOL    HW1 7802   3.826   3.168   4.350
 2301SOL    HW2 7803   3.823   3.011   4.395
 2302SOL     OW 7804   5.073   2.523   0.535
 2302SOL    HW1 7805   5.054   2.620   0.522
 2302SOL    HW2 7806   5.052   2.497   0.629
 2303SOL     OW 7807   3.875   1.894   6.925
 2303SOL    HW1 7808   3.798   1.849   6.881
 2303SOL    HW2 7809   3.842   1.961   6.991
 2304SOL     OW 7810   4.873   5.986   2.136
 2304SOL    HW1 7811   4.773   5.973   2.136
 2304SOL    HW2 7812   4.901   6.025   2.223
 2305SOL     OW 7813   2.607   0.646   4.968
 2305SOL    HW1 7814   2.673   0.582   5.006
 2305SOL    HW2 7815   2.645   0.688   4.885
 2306SOL     OW 7816   1.189   4.877   4.288
 2306SOL    HW1 7817   1.205   4.782   4.262
 2306SOL    HW2 7818   1.194   4.886   4.387
 2307SOL     OW 7819   6.586   3.439   6.019
 2307SOL    HW1 7820   6.644   3.389   5.954
 2307SOL    HW2 7821   6.615   3.416   6.112
 2308SOL     OW 7822   2.036   5.305   1.712
 2308SOL    HW1 7823   2.089   5.295   1.797
 2308SOL    HW2 7824   2.096   5.335   1.638
 2309SOL     OW 7825   2.311   6.399   5.406
 2309SOL    HW1 7826   2.298   6.301   5.420
 2309SOL    HW2 7827   2.408   6.421   5.414
 2310SOL     OW 7828   4.559   6.844   1.473
 2310SOL    HW1 7829   4.627   6.866   1.404
 2310SOL    HW2 7830   4.522   6.753   1.455
 2311SOL     OW 7831   3.394   5.573   1.392
 2311SOL    HW1 7832   3.480   5.526   1.411
 2311SOL    HW2 7833   3.320   5.531   1.445
 2312SOL     OW 7834   3.143   4.933   2.577
 2312SOL    HW1 7835   3.222   4.994   2.567
 2312SOL    HW2 7836   3.130   4.910   2.673
 2313SOL     OW 7837   5.180   5.825   1.525
 2313SOL    HW1 7838   5.229   5.739   1.539
 2313SOL    HW2 7839   5.192   5.855   1.431
 2314SOL     OW 7840   1.916   5.327   4.260
 2314SOL    HW1 7841   1.855   5.262   4.305
 2314SOL    HW2 7842   1.863   5.408   4.233
 2315SOL     OW 7843   4.468   2.476   6.688
 2315SOL    HW1 7844   4.563   2.473   6.717
 2315SOL    HW2 7845   4.464   2.483   6.588
 2316SOL     OW 7846   5.197   3.862   2.186
 2316SOL    HW1 7847   5.102   3.878   2.214
 2316SOL    HW2 7848   5.220   3.765   2.201
 2317SOL     OW 7849   0.590   4.679   3.817
 2317SOL    HW1 7850   0.590   4.774   3.786
 2317SOL    HW2 7851   0.529   4.669   3.896
 2318SOL     OW 7852   7.013   0.897   4.227
 2318SOL    HW1 7853   0.033   0.808   4.212
 2318SOL    HW2 7854   7.021   0.953   4.144
 2319SOL     OW 7855   0.425   4.236   3.697
 2319SOL    HW1 7856   0.409   4.226   3.598
 2319SOL    HW2 7857   0.476   4.157   3.730
 2320SOL     OW 7858   6.206   4.450   4.675
 2320SOL    HW1 7859   6.190   4.539   4.632
 2320SOL    HW2 7860   6.148   4.381   4.633
 2321SOL     OW 7861   2.297   5.096   5.244
 2321SOL    HW1 7862   2.383   5.055   5.212
 2321SOL    HW2 7863   2.277   5.177   5.189
 2322SOL     OW 7864   2.246   0.297   6.154
 2322SOL    HW1 7865   2.279   0.347   6.234
 2322SOL    HW2 7866   2.151   0.269   6.169
 2323SOL     OW 7867   5.072   4.710   1.627
 2323SOL    HW1 7868   5.052   4.668   1.716
 2323SOL    HW2 7869   5.171   4.715   1.614
 2324SOL     OW 7870   6.600   4.915   3.611
 2324SOL    HW1 7871   6.530   4.978   3.643
 2324SOL    HW2 7872   6.690   4.959   3.618
 2325SOL     OW 7873   6.797   2.765   0.376
 2325SOL    HW1 7874   6.846   2.841   0.419
 2325SOL    HW2 7875   6.847   2.734   0.296
 2326SOL     OW 7876   1.858   4.999   0.131
 2326SOL    HW1 7877   1.906   5.036   0.211
 2326SOL    HW2 7878   1.902   4.914   0.102
 2327SOL     OW 7879   5.758   2.327   4.974
 2327SOL    HW1 7880   5.722   2.246   5.021
 2327SOL    HW2 7881   5.684   2.374   4.927
 2328SOL     OW 7882   5.485   6.849   3.247
 2328SOL    HW1 7883   5.494   6.900   3.332
 2328SOL    HW2 7884   5.505   6.909   3.169
 2329SOL     OW 7885   6.927   6.148   3.567
 2329SOL    HW1 7886   6.927   6.048   3.556
 2329SOL    HW2 7887   7.020   6.179   3.587
 2330SOL     OW 7888   0.332   3.696   2.148
 2330SOL    HW1 7889   0.385   3.620   2.187
 2330SOL    HW2 7890   0.281   3.741   2.220
 2331SOL     OW 7891   0.734   4.248   5.790
 2331SOL    HW1 7892   0.777   4.202   5.712
 2331SOL    HW2 7893   0.637   4.266   5.769
 2332SOL     OW 7894   6.043   2.308   4.964
 2332SOL    HW1 7895   6.060   2.404   4.988
 2332SOL    HW2 7896   5.945   2.289   4.967
 2333SOL     OW 7897   1.244   4.941   3.598
 2333SOL    HW1 7898   1.236   4.906   3.505
 2333SOL    HW2 7899   1.335   4.918   3.634
 2334SOL     OW 7900   2.363   0.151   0.883
 2334SOL    HW1 7901   2.385   0.215   0.957
 2334SOL    HW2 7902   2.284   0.186   0.832
 2335SOL     OW 7903   4.637   6.559   4.036
 2335SOL    HW1 7904   4.699   6.507   4.095
 2335SOL    HW2 7905   4.563   6.598   4.091
 2336SOL     OW 7906   4.533   2.111   5.936
 2336SOL    HW1 7907   4.480   2.090   6.018
 2336SOL    HW2 7908   4.578   2.028   5.903
 2337SOL     OW 7909   6.030   0.448   2.561
 2337SOL    HW1 7910   6.004   0.360   2.603
 2337SOL    HW2 7911   5.951   0.486   2.513
 2338SOL     OW 7912   1.303   6.667   6.387
 2338SOL    HW1 7913   1.368   6.668   6.463
 2338SOL    HW2 7914   1.311   6.752   6.335
 2339SOL     OW 7915   3.984   4.745   0.125
 2339SOL    HW1 7916   3.906   4.690   0.094
 2339SOL    HW2 7917   4.059   4.685   0.153
 2340SOL     OW 7918   3.998   4.843   4.075
 2340SOL    HW1 7919   3.904   4.855   4.043
 2340SOL    HW2 7920   4.049   4.790   4.007
 2341SOL     OW 7921   6.002   5.366   0.035
 2341SOL    HW1 7922   6.045   5.335   0.120
 2341SOL    HW2 7923   5.902   5.365   0.046
 2342SOL     OW 7924   6.271   0.161   5.071
 2342SOL    HW1 7925   6.365   0.193   5.082
 2342SOL    HW2 7926   6.271   0.068   5.034
 2343SOL     OW 7927   1.227   6.675   0.387
 2343SOL    HW1 7928   1.272   6.656   0.299
 2343SOL    HW2 7929   1.133   6.707   0.370
 2344SOL     OW 7930   2.327   1.529   3.042
 2344SOL    HW1 7931   2.291   1.579   2.963
 2344SOL    HW2 7932   2.265   1.538   3.119
 2345SOL     OW 7933   2.260   1.253   3.967
 2345SOL    HW1 7934   2.302   1.343   3.958
 2345SOL    HW2 7935   2.320   1.184   3.926
 2346SOL     OW 7936   4.716   3.774   5.874
 2346SOL    HW1 7937   4.801   3.794   5.824
 2346SOL    HW2 7938   4.738   3.733   5.962
 2347SOL     OW 7939   1.362   3.300   1.227
 2347SOL    HW1 7940   1.340   3.243   1.148
 2347SOL    HW2 7941   1.283   3.357   1.250
 2348SOL     OW 7942   2.805   6.455   1.650
 2348SOL    HW1 7943   2.761   6.544   1.654
 2348SOL    HW2 7944   2.888   6.462   1.593
 2349SOL     OW 7945   5.002   5.428   5.952
 2349SOL    HW1 7946   5.100   5.434   5.974
 2349SOL    HW2 7947   4.989   5.364   5.876
 2350SOL     OW 7948   3.003   6.209   5.645
 2350SOL    HW1 7949   2.906   6.233   5.642
 2350SOL    HW2 7950   3.054   6.268   5.583
 2351SOL     OW 7951   2.416   5.414   4.332
 2351SOL    HW1 7952   2.320   5.414   4.360
 2351SOL    HW2 7953   2.422   5.431   4.234
 2352SOL     OW 7954   0.049   3.516   2.154
 2352SOL    HW1 7955   0.089   3.566   2.231
 2352SOL    HW2 7956   6.985   3.476   2.182
 2353SOL     OW 7957   2.851   4.248   6.061
 2353SOL    HW1 7958   2.803   4.330   6.032
 2353SOL    HW2 7959   2.914   4.219   5.988
 2354SOL     OW 7960   3.874   3.214   1.216
 2354SOL    HW1 7961   3.864   3.115   1.221
 2354SOL    HW2 7962   3.820   3.250   1.140
 2355SOL     OW 7963   0.311   7.022   1.002
 2355SOL    HW1 7964   0.377   7.011   1.077
 2355SOL    HW2 7965   0.358   7.016   0.914
 2356SOL     OW 7966   2.757   4.920   3.192
 2356SOL    HW1 7967   2.723   4.951   3.281
 2356SOL    HW2 7968   2.699   4.958   3.119
 2357SOL     OW 7969   6.226   4.748   0.691
 2357SOL    HW1 7970   6.321   4.753   0.721
 2357SOL    HW2 7971   6.197   4.653   0.687
 2358SOL     OW 7972   4.098   1.655   5.826
 2358SOL    HW1 7973   4.065   1.572   5.872
 2358SOL    HW2 7974   4.069   1.735   5.878
 2359SOL     OW 7975   1.420   1.281   5.461
 2359SOL    HW1 7976   1.326   1.262   5.431
 2359SOL    HW2 7977   1.420   1.359   5.524
 2360SOL     OW 7978   3.980   3.826   0.447
 2360SOL    HW1 7979   3.943   3.917   0.461
 2360SOL    HW2 7980   3.906   3.763   0.423
 2361SOL     OW 7981   4.279   5.848   1.600
 2361SOL    HW1 7982   4.201   5.899   1.638
 2361SOL    HW2 7983   4.360   5.906   1.603
 2362SOL     OW 7984   4.267   5.847   3.491
 2362SOL    HW1 7985   4.260   5.947   3.491
 2362SOL    HW2 7986   4.217   5.810   3.569
 2363SOL     OW 7987   2.559   4.122   0.743
 2363SOL    HW1 7988   2.558   4.117   0.643
 2363SOL    HW2 7989   2.492   4.189   0.774
 2364SOL     OW 7990   4.390   1.308   2.224
 2364SOL    HW1 7991   4.378   1.407   2.226
 2364SOL    HW2 7992   4.302   1.264   2.206
 2365SOL     OW 7993   4.896   3.340   3.318
 2365SOL    HW1 7994   4.985   3.331   3.362
 2365SOL    HW2 7995   4.871   3.253   3.275
 2366SOL     OW 7996   2.415   4.477   4.857
 2366SOL    HW1 7997   2.478   4.499   4.932
 2366SOL    HW2 7998   2.423   4.547   4.786
 2367SOL     OW 7999   5.876   4.536   6.226
 2367SOL    HW1 8000   5.919   4.579   6.146
 2367SOL    HW2 8001   5.778   4.530   6.212
 2368SOL     OW 8002   5.358   6.612   4.391
 2368SOL    HW1 8003   5.430   6.564   4.340
 2368SOL    HW2 8004   5.306   6.547   4.445
 2369SOL     OW 8005   3.355   1.916   4.461
 2369SOL    HW1 8006   3.284   1.895   4.395
 2369SOL    HW2 8007   3.313   1.957   4.543
 2370SOL     OW 8008   6.147   2.948   1.775
 2370SOL    HW1 8009   6.052   2.969   1.800
 2370SOL    HW2 8010   6.189   3.030   1.734
 2371SOL     OW 8011   0.630   6.572   2.962
 2371SOL    HW1 8012   0.586   6.507   3.023
 2371SOL    HW2 8013   0.677   6.642   3.016
 2372SOL     OW 8014   6.473   0.400   6.114
 2372SOL    HW1 8015   6.537   0.415   6.038
 2372SOL    HW2 8016   6.512   0.334   6.178
 2373SOL     OW 8017   5.757   5.244   0.019
 2373SOL    HW1 8018   5.708   5.176   0.073
 2373SOL    HW2 8019   5.787   5.204   6.956
 2374SOL     OW 8020   6.615   6.243   2.139
 2374SOL    HW1 8021   6.662   6.205   2.059
 2374SOL    HW2 8022   6.681   6.294   2.195
 2375SOL     OW 8023   1.118   6.954   4.159
 2375SOL    HW1 8024   1.038   7.001   4.122
 2375SOL    HW2 8025   1.188   6.946   4.088
 2376SOL     OW 8026   5.716   1.597   3.465
 2376SOL    HW1 8027   5.814   1.590   3.449
 2376SOL    HW2 8028   5.686   1.691   3.450
 2377SOL     OW 8029   4.056   4.756   5.588
 2377SOL    HW1 8030   4.106   4.842   5.585
 2377SOL    HW2 8031   4.008   4.748   5.676
 2378SOL     OW 8032   6.657   0.907   0.034
 2378SOL    HW1 8033   6.734   0.957   7.017
 2378SOL    HW2 8034   6.673   0.894   0.131
 2379SOL     OW 8035   6.389   4.525   0.967
 2379SOL    HW1 8036   6.422   4.555   0.878
 2379SOL    HW2 8037   6.306   4.470   0.956
 2380SOL     OW 8038   4.653   4.680   4.629
 2380SOL    HW1 8039   4.593   4.660   4.706
 2380SOL    HW2 8040   4.743   4.639   4.644
 2381SOL     OW 8041   1.679   4.636   4.586
 2381SOL    HW1 8042   1.615   4.559   4.580
 2381SOL    HW2 8043   1.720   4.638   4.677
 2382SOL     OW 8044   0.645   6.148   2.775
 2382SOL    HW1 8045   0.586   6.111   2.846
 2382SOL    HW2 8046   0.592   6.206   2.713
 2383SOL     OW 8047   5.777   5.539   5.615
 2383SOL    HW1 8048   5.874   5.561   5.623
 2383SOL    HW2 8049   5.758   5.505   5.523
 2384SOL     OW 8050   0.642   1.647   2.116
 2384SOL    HW1 8051   0.718   1.583   2.122
 2384SOL    HW2 8052   0.560   1.599   2.086
 2385SOL     OW 8053   0.308   1.753   0.930
 2385SOL    HW1 8054   0.341   1.847   0.922
 2385SOL    HW2 8055   0.261   1.742   1.018
 2386SOL     OW 8056   5.254   5.821   3.495
 2386SOL    HW1 8057   5.188   5.775   3.554
 2386SOL    HW2 8058   5.234   5.800   3.399
 2387SOL     OW 8059   2.053   2.048   4.297
 2387SOL    HW1 8060   2.101   2.117   4.351
 2387SOL    HW2 8061   2.101   2.032   4.211
 2388SOL     OW 8062   6.428   2.053   5.241
 2388SOL    HW1 8063   6.339   2.062   5.195
 2388SOL    HW2 8064   6.448   2.137   5.292
 2389SOL     OW 8065   5.148   4.756   4.608
 2389SOL    HW1 8066   5.118   4.735   4.515
 2389SOL    HW2 8067   5.112   4.687   4.671
 2390SOL     OW 8068   4.138   3.694   5.706
 2390SOL    HW1 8069   4.150   3.763   5.635
 2390SOL    HW2 8070   4.169   3.605   5.672
 2391SOL     OW 8071   2.834   4.873   6.059
 2391SOL    HW1 8072   2.882   4.855   6.145
 2391SOL    HW2 8073   2.737   4.851   6.069
 2392SOL     OW 8074   3.729   5.373   5.227
 2392SOL    HW1 8075   3.671   5.387   5.146
 2392SOL    HW2 8076   3.671   5.354   5.306
 2393SOL     OW 8077   3.602   4.866   1.285
 2393SOL    HW1 8078   3.527   4.804   1.306
 2393SOL    HW2 8079   3.610   4.879   1.186
 2394SOL     OW 8080   0.783   2.254   3.533
 2394SOL    HW1 8081   0.704   2.213   3.579
 2394SOL    HW2 8082   0.851   2.182   3.515
 2395SOL     OW 8083   0.213   2.536   4.493
 2395SOL    HW1 8084   0.289   2.602   4.497
 2395SOL    HW2 8085   0.223   2.479   4.411
 2396SOL     OW 8086   6.948   0.277   5.167
 2396SOL    HW1 8087   6.922   0.368   5.135
 2396SOL    HW2 8088   6.875   0.239   5.224
 2397SOL     OW 8089   0.179   4.200   5.577
 2397SOL    HW1 8090   0.222   4.229   5.492
 2397SOL    HW2 8091   0.134   4.278   5.620
 2398SOL     OW 8092   3.677   6.479   4.087
 2398SOL    HW1 8093   3.633   6.395   4.055
 2398SOL    HW2 8094   3.774   6.475   4.065
 2399SOL     OW 8095   3.679   2.132   3.832
 2399SOL    HW1 8096   3.646   2.208   3.889
 2399SOL    HW2 8097   3.643   2.142   3.739
 2400SOL     OW 8098   0.704   4.177   0.478
 2400SOL    HW1 8099   0.761   4.130   0.545
 2400SOL    HW2 8100   0.610   4.146   0.487
 2401SOL     OW 8101   2.574   0.415   5.923
 2401SOL    HW1 8102   2.493   0.364   5.951
 2401SOL    HW2 8103   2.653   0.353   5.923
 2402SOL     OW 8104   1.109   4.547   2.279
 2402SOL    HW1 8105   1.200   4.582   2.258
 2402SOL    HW2 8106   1.116   4.476   2.349
 2403SOL     OW 8107   4.092   3.667   3.057
 2403SOL    HW1 8108   4.057   3.759   3.070
 2403SOL    HW2 8109   4.129   3.633   3.144
 2404SOL     OW 8110   6.300   1.414   0.962
 2404SOL    HW1 8111   6.220   1.441   0.908
 2404SOL    HW2 8112   6.284   1.436   1.058
 2405SOL     OW 8113   1.751   3.292   0.880
 2405SOL    HW1 8114   1.730   3.388   0.893
 2405SOL    HW2 8115   1.675   3.236   0.915
 2406SOL     OW 8116   2.704   5.801   4.732
 2406SOL    HW1 8117   2.687   5.897   4.708
 2406SOL    HW2 8118   2.720   5.749   4.648
 2407SOL     OW 8119   3.391   1.174   4.225
 2407SOL    HW1 8120   3.311   1.155   4.283
 2407SOL    HW2 8121   3.377   1.261   4.178
 2408SOL     OW 8122   3.000   6.003   4.579
 2408SOL    HW1 8123   2.994   6.024   4.482
 2408SOL    HW2 8124   2.916   5.958   4.608
 2409SOL     OW 8125   1.797   3.208   1.474
 2409SOL    HW1 8126   1.719   3.246   1.424
 2409SOL    HW2 8127   1.879   3.259   1.451
 2410SOL     OW 8128   1.133   3.327   5.181
 2410SOL    HW1 8129   1.078   3.411   5.184
 2410SOL    HW2 8130   1.096   3.261   5.245
 2411SOL     OW 8131   2.832   4.072   0.423
 2411SOL    HW1 8132   2.812   4.035   0.513
 2411SOL    HW2 8133   2.922   4.041   0.392
 2412SOL     OW 8134   3.311   1.917   6.786
 2412SOL    HW1 8135   3.367   1.917   6.869
 2412SOL    HW2 8136   3.217   1.942   6.809
 2413SOL     OW 8137   6.923   3.234   6.764
 2413SOL    HW1 8138   6.835   3.203   6.727
 2413SOL    HW2 8139   6.986   3.157   6.771
 2414SOL     OW 8140   6.896   2.396   5.091
 2414SOL    HW1 8141   6.917   2.355   5.002
 2414SOL    HW2 8142   6.799   2.383   5.111
 2415SOL     OW 8143   2.456   5.283   0.470
 2415SOL    HW1 8144   2.553   5.272   0.453
 2415SOL    HW2 8145   2.424   5.368   0.428
 2416SOL     OW 8146   0.043   3.794   2.074
 2416SOL    HW1 8147   0.067   3.700   2.098
 2416SOL    HW2 8148   0.120   3.837   2.027
 2417SOL     OW 8149   3.060   2.916   1.718
 2417SOL    HW1 8150   2.962   2.934   1.715
 2417SOL    HW2 8151   3.078   2.822   1.690
 2418SOL     OW 8152   4.484   4.200   6.404
 2418SOL    HW1 8153   4.486   4.192   6.503
 2418SOL    HW2 8154   4.522   4.117   6.363
 2419SOL     OW 8155   2.122   6.404   3.800
 2419SOL    HW1 8156   2.034   6.428   3.759
 2419SOL    HW2 8157   2.133   6.305   3.799
 2420SOL     OW 8158   1.437   4.149   2.868
 2420SOL    HW1 8159   1.352   4.159   2.918
 2420SOL    HW2 8160   1.430   4.072   2.804
 2421SOL     OW 8161   2.272   6.194   4.404
 2421SOL    HW1 8162   2.356   6.178   4.352
 2421SOL    HW2 8163   2.238   6.107   4.439
 2422SOL     OW 8164   4.706   6.658   0.585
 2422SOL    HW1 8165   4.778   6.723   0.562
 2422SOL    HW2 8166   4.744   6.565   0.587
 2423SOL     OW 8167   2.609   5.315   2.636
 2423SOL    HW1 8168   2.513   5.328   2.614
 2423SOL    HW2 8169   2.632   5.218   2.631
 2424SOL     OW 8170   5.665   0.668   5.910
 2424SOL    HW1 8171   5.751   0.634   5.873
 2424SOL    HW2 8172   5.610   0.707   5.835
 2425SOL     OW 8173   5.281   5.800   5.386
 2425SOL    HW1 8174   5.208   5.794   5.454
 2425SOL    HW2 8175   5.332   5.714   5.383
 2426SOL     OW 8176   2.418   4.036   5.857
 2426SOL    HW1 8177   2.368   4.102   5.801
 2426SOL    HW2 8178   2.473   3.977   5.797
 2427SOL     OW 8179   5.050   1.059   0.294
 2427SOL    HW1 8180   4.951   1.067   0.303
 2427SOL    HW2 8181   5.087   1.143   0.253
 2428SOL     OW 8182   0.489   0.465   3.207
 2428SOL    HW1 8183   0.517   0.468   3.111
 2428SOL    HW2 8184   0.437   0.381   3.223
 2429SOL     OW 8185   5.630   5.037   1.719
 2429SOL    HW1 8186   5.575   5.103   1.668
 2429SOL    HW2 8187   5.727   5.061   1.710
 2430SOL     OW 8188   6.318   1.673   6.837
 2430SOL    HW1 8189   6.321   1.576   6.813
 2430SOL    HW2 8190   6.274   1.724   6.763
 2431SOL     OW 8191   6.602   2.782   1.861
 2431SOL    HW1 8192   6.597   2.870   1.814
 2431SOL    HW2 8193   6.675   2.726   1.819
 2432SOL     OW 8194   3.413   5.183   2.570
 2432SOL    HW1 8195   3.383   5.182   2.665
 2432SOL    HW2 8196   3.334   5.181   2.509
 2433SOL     OW 8197   5.928   4.306   6.011
 2433SOL    HW1 8198   5.988   4.229   5.991
 2433SOL    HW2 8199   5.928   4.323   6.110
 2434SOL     OW 8200   4.947   1.305   2.994
 2434SOL    HW1 8201   4.993   1.230   3.043
 2434SOL    HW2 8202   4.898   1.362   3.060
 2435SOL     OW 8203   5.860   6.501   0.048
 2435SOL    HW1 8204   5.813   6.463   6.992
 2435SOL    HW2 8205   5.931   6.564   0.018
 2436SOL     OW 8206   1.871   2.169   2.221
 2436SOL    HW1 8207   1.821   2.226   2.155
 2436SOL    HW2 8208   1.948   2.221   2.258
 2437SOL     OW 8209   0.074   4.681   2.590
 2437SOL    HW1 8210   0.015   4.737   2.648
 2437SOL    HW2 8211   0.029   4.667   2.501
 2438SOL     OW 8212   3.110   1.362   5.142
 2438SOL    HW1 8213   3.166   1.359   5.225
 2438SOL    HW2 8214   3.020   1.324   5.161
 2439SOL     OW 8215   1.082   6.462   1.468
 2439SOL    HW1 8216   1.177   6.434   1.479
 2439SOL    HW2 8217   1.036   6.458   1.557
 2440SOL     OW 8218   5.760   1.100   5.032
 2440SOL    HW1 8219   5.754   1.059   5.123
 2440SOL    HW2 8220   5.781   1.029   4.965
 2441SOL     OW 8221   6.087   0.029   0.031
 2441SOL    HW1 8222   6.171   0.074   0.061
 2441SOL    HW2 8223   6.029   0.095   7.007
 2442SOL     OW 8224   5.088   3.207   1.954
 2442SOL    HW1 8225   5.021   3.258   2.009
 2442SOL    HW2 8226   5.043   3.130   1.910
 2443SOL     OW 8227   0.384   2.189   1.350
 2443SOL    HW1 8228   0.451   2.173   1.422
 2443SOL    HW2 8229   0.416   2.264   1.291
 2444SOL     OW 8230   3.772   6.084   1.663
 2444SOL    HW1 8231   3.689   6.053   1.710
 2444SOL    HW2 8232   3.844   6.016   1.672
 2445SOL     OW 8233   6.660   2.382   0.567
 2445SOL    HW1 8234   6.687   2.450   0.499
 2445SOL    HW2 8235   6.732   2.312   0.574
 2446SOL     OW 8236   1.902   4.715   1.346
 2446SOL    HW1 8237   1.818   4.664   1.327
 2446SOL    HW2 8238   1.978   4.673   1.297
 2447SOL     OW 8239   3.016   7.021   0.333
 2447SOL    HW1 8240   2.961   0.065   0.284
 2447SOL    HW2 8241   3.028   0.027   0.427
 2448SOL     OW 8242   6.441   1.927   4.634
 2448SOL    HW1 8243   6.501   1.851   4.659
 2448SOL    HW2 8244   6.492   2.013   4.636
 2449SOL     OW 8245   1.872   4.652   1.789
 2449SOL    HW1 8246   1.924   4.662   1.874
 2449SOL    HW2 8247   1.775   4.646   1.811
 2450SOL     OW 8248   1.739   6.411   6.094
 2450SOL    HW1 8249   1.648   6.377   6.070
 2450SOL    HW2 8250   1.792   6.338   6.138
 2451SOL     OW 8251   1.072   6.875   4.875
 2451SOL    HW1 8252   1.169   6.854   4.860
 2451SOL    HW2 8253   1.017   6.795   4.853
 2452SOL     OW 8254   3.003   1.452   4.033
 2452SOL    HW1 8255   3.034   1.393   3.958
 2452SOL    HW2 8256   2.912   1.488   4.012
 2453SOL     OW 8257   1.281   1.543   6.952
 2453SOL    HW1 8258   1.273   1.637   6.986
 2453SOL    HW2 8259   1.296   1.546   6.853
 2454SOL     OW 8260   3.201   5.273   1.048
 2454SOL    HW1 8261   3.173   5.303   1.140
 2454SOL    HW2 8262   3.204   5.352   0.987
 2455SOL     OW 8263   3.449   2.119   0.521
 2455SOL    HW1 8264   3.447   2.179   0.600
 2455SOL    HW2 8265   3.543   2.111   0.488
 2456SOL     OW 8266   0.991   4.628   6.240
 2456SOL    HW1 8267   1.077   4.631   6.291
 2456SOL    HW2 8268   0.984   4.542   6.191
 2457SOL     OW 8269   5.547   2.180   5.572
 2457SOL    HW1 8270   5.602   2.260   5.551
 2457SOL    HW2 8271   5.461   2.209   5.614
 2458SOL     OW 8272   1.745   0.127   1.577
 2458SOL    HW1 8273   1.729   0.157   1.671
 2458SOL    HW2 8274   1.844   0.126   1.559
 2459SOL     OW 8275   3.138   5.856   0.947
 2459SOL    HW1 8276   3.100   5.892   1.033
 2459SOL    HW2 8277   3.063   5.826   0.888
 2460SOL     OW 8278   1.264   0.949   5.422
 2460SOL    HW1 8279   1.201   0.874   5.400
 2460SOL    HW2 8280   1.216   1.036   5.410
 2461SOL     OW 8281   3.831   1.622   4.124
 2461SOL    HW1 8282   3.870   1.699   4.174
 2461SOL    HW2 8283   3.752   1.653   4.071
 2462SOL     OW 8284   6.931   4.351   0.913
 2462SOL    HW1 8285   6.890   4.343   1.004
 2462SOL    HW2 8286   6.977   4.440   0.904
 2463SOL     OW 8287   6.652   1.161   6.197
 2463SOL    HW1 8288   6.680   1.083   6.254
 2463SOL    HW2 8289   6.558   1.145   6.165
 2464SOL     OW 8290   0.368   1.760   3.364
 2464SOL    HW1 8291   0.348   1.817   3.444
 2464SOL    HW2 8292   0.438   1.804   3.308
 2465SOL     OW 8293   0.763   4.604   5.749
 2465SOL    HW1 8294   0.688   4.544   5.775
 2465SOL    HW2 8295   0.842   4.585   5.808
 2466SOL     OW 8296   0.740   2.433   1.798
 2466SOL    HW1 8297   0.759   2.419   1.701
 2466SOL    HW2 8298   0.680   2.361   1.832
 2467SOL     OW 8299   5.091   1.392   5.984
 2467SOL    HW1 8300   5.094   1.490   5.969
 2467SOL    HW2 8301   4.998   1.359   5.968
 2468SOL     OW 8302   3.408   6.704   5.653
 2468SOL    HW1 8303   3.367   6.695   5.744
 2468SOL    HW2 8304   3.499   6.746   5.661
 2469SOL     OW 8305   3.445   2.802   5.646
 2469SOL    HW1 8306   3.513   2.848   5.704
 2469SOL    HW2 8307   3.436   2.707   5.676
 2470SOL     OW 8308   3.338   4.976   6.518
 2470SOL    HW1 8309   3.314   4.915   6.594
 2470SOL    HW2 8310   3.306   5.068   6.538
 2471SOL     OW 8311   4.724   5.867   1.383
 2471SOL    HW1 8312   4.797   5.851   1.449
 2471SOL    HW2 8313   4.691   5.780   1.346
 2472SOL     OW 8314   4.777   1.616   4.540
 2472SOL    HW1 8315   4.731   1.543   4.591
 2472SOL    HW2 8316   4.875   1.615   4.562
 2473SOL     OW 8317   0.268   4.288   4.865
 2473SOL    HW1 8318   0.284   4.360   4.932
 2473SOL    HW2 8319   0.337   4.216   4.877
 2474SOL     OW 8320   1.246   5.738   1.621
 2474SOL    HW1 8321   1.269   5.643   1.641
 2474SOL    HW2 8322   1.294   5.768   1.539
 2475SOL     OW 8323   4.734   0.742   1.116
 2475SOL    HW1 8324   4.706   0.683   1.040
 2475SOL    HW2 8325   4.832   0.757   1.113
 2476SOL     OW 8326   5.970   0.266   0.436
 2476SOL    HW1 8327   5.896   0.330   0.458
 2476SOL    HW2 8328   6.028   0.306   0.365
 2477SOL     OW 8329   3.905   0.512   3.258
 2477SOL    HW1 8330   3.934   0.530   3.352
 2477SOL    HW2 8331   3.922   0.594   3.202
 2478SOL     OW 8332   4.235   1.375   3.166
 2478SOL    HW1 8333   4.163   1.309   3.189
 2478SOL    HW2 8334   4.221   1.409   3.073
 2479SOL     OW 8335   0.563   3.680   0.696
 2479SOL    HW1 8336   0.608   3.684   0.785
 2479SOL    HW2 8337   0.472   3.641   0.707
 2480SOL     OW 8338   3.235   2.441   1.474
 2480SOL    HW1 8339   3.317   2.422   1.420
 2480SOL    HW2 8340   3.245   2.401   1.565
 2481SOL     OW 8341   2.885   0.976   0.861
 2481SOL    HW1 8342   2.960   0.911   0.873
 2481SOL    HW2 8343   2.802   0.939   0.903
 2482SOL     OW 8344   5.120   3.775   6.753
 2482SOL    HW1 8345   5.168   3.839   6.693
 2482SOL    HW2 8346   5.029   3.757   6.716
 2483SOL     OW 8347   0.613   2.185   0.689
 2483SOL    HW1 8348   0.595   2.169   0.592
 2483SOL    HW2 8349   0.593   2.281   0.711
 2484SOL     OW 8350   5.158   1.634   2.285
 2484SOL    HW1 8351   5.204   1.572   2.222
 2484SOL    HW2 8352   5.081   1.587   2.328
 2485SOL     OW 8353   4.799   2.412   6.315
 2485SOL    HW1 8354   4.895   2.391   6.297
 2485SOL    HW2 8355   4.762   2.345   6.380
 2486SOL     OW 8356   0.570   3.981   5.252
 2486SOL    HW1 8357   0.549   3.913   5.323
 2486SOL    HW2 8358   0.491   3.992   5.193
 2487SOL     OW 8359   4.764   6.056   0.233
 2487SOL    HW1 8360   4.763   6.009   0.321
 2487SOL    HW2 8361   4.779   5.990   0.160
 2488SOL     OW 8362   6.869   4.613   1.835
 2488SOL    HW1 8363   6.955   4.587   1.790
 2488SOL    HW2 8364   6.839   4.540   1.895
 2489SOL     OW 8365   0.238   5.878   3.759
 2489SOL    HW1 8366   0.179   5.838   3.828
 2489SOL    HW2 8367   0.334   5.860   3.782
 2490SOL     OW 8368   3.114   6.211   2.436
 2490SOL    HW1 8369   3.152   6.275   2.502
 2490SOL    HW2 8370   3.014   6.208   2.447
 2491SOL     OW 8371   4.335   4.989   1.760
 2491SOL    HW1 8372   4.295   4.904   1.727
 2491SOL    HW2 8373   4.397   5.027   1.691
 2492SOL     OW 8374   5.600   3.910   0.492
 2492SOL    HW1 8375   5.632   3.989   0.439
 2492SOL    HW2 8376   5.628   3.920   0.587
 2493SOL     OW 8377   6.997   6.805   1.376
 2493SOL    HW1 8378   0.037   6.834   1.448
 2493SOL    HW2 8379   6.929   6.744   1.415
 2494SOL     OW 8380   6.088   2.476   1.633
 2494SOL    HW1 8381   6.122   2.388   1.600
 2494SOL    HW2 8382   6.029   2.518   1.564
 2495SOL     OW 8383   5.475   5.643   3.480
 2495SOL    HW1 8384   5.435   5.564   3.526
 2495SOL    HW2 8385   5.403   5.710   3.461
 2496SOL     OW 8386   6.565   4.367   6.501
 2496SOL    HW1 8387   6.499   4.442   6.497
 2496SOL    HW2 8388   6.626   4.381   6.580
 2497SOL     OW 8389   0.425   6.899   1.705
 2497SOL    HW1 8390   0.434   6.904   1.805
 2497SOL    HW2 8391   0.334   6.929   1.677
 2498SOL     OW 8392   2.785   3.207   5.962
 2498SOL    HW1 8393   2.861   3.272   5.976
 2498SOL    HW2 8394   2.822   3.117   5.942
 2499SOL     OW 8395   6.205   3.622   1.702
 2499SOL    HW1 8396   6.204   3.574   1.790
 2499SOL    HW2 8397   6.156   3.567   1.635
 2500SOL     OW 8398   3.776   3.951   6.419
 2500SOL    HW1 8399   3.826   3.864   6.419
 2500SOL    HW2 8400   3.714   3.953   6.340
 2501SOL     OW 8401   5.931   6.010   0.381
 2501SOL    HW1 8402   5.969   6.089   0.431
 2501SOL    HW2 8403   5.984   5.996   0.297
 2502SOL     OW 8404   2.606   5.693   5.074
 2502SOL    HW1 8405   2.664   5.633   5.129
 2502SOL    HW2 8406   2.548   5.638   5.014
 2503SOL     OW 8407   2.747   6.690   5.452
 2503SOL    HW1 8408   2.718   6.726   5.363
 2503SOL    HW2 8409   2.821   6.747   5.487
 2504SOL     OW 8410   3.250   5.664   3.003
 2504SOL    HW1 8411   3.256   5.591   2.935
 2504SOL    HW2 8412   3.335   5.668   3.055
 2505SOL     OW 8413   0.884   5.772   2.525
 2505SOL    HW1 8414   0.952   5.846   2.517
 2505SOL    HW2 8415   0.832   5.784   2.610
 2506SOL     OW 8416   6.172   4.169   6.444
 2506SOL    HW1 8417   6.113   4.206   6.516
 2506SOL    HW2 8418   6.166   4.227   6.363
 2507SOL     OW 8419   6.791   3.110   0.354
 2507SOL    HW1 8420   6.829   3.036   0.298
 2507SOL    HW2 8421   6.831   3.197   0.325
 2508SOL     OW 8422   3.080   2.230   5.314
 2508SOL    HW1 8423   3.151   2.262   5.251
 2508SOL    HW2 8424   2.994   2.276   5.293
 2509SOL     OW 8425   6.333   4.009   6.745
 2509SOL    HW1 8426   6.295   3.933   6.798
 2509SOL    HW2 8427   6.347   3.980   6.651
 2510SOL     OW 8428   3.471   4.144   1.877
 2510SOL    HW1 8429   3.490   4.238   1.848
 2510SOL    HW2 8430   3.494   4.081   1.803
 2511SOL     OW 8431   2.148   0.760   5.127
 2511SOL    HW1 8432   2.203   0.743   5.209
 2511SOL    HW2 8433   2.188   0.837   5.076
 2512SOL     OW 8434   3.513   4.699   5.268
 2512SOL    HW1 8435   3.592   4.754   5.239
 2512SOL    HW2 8436   3.543   4.605   5.284
 2513SOL     OW 8437   1.950   6.842   5.781
 2513SOL    HW1 8438   1.859   6.801   5.774
 2513SOL    HW2 8439   2.016   6.784   5.733
 2514SOL     OW 8440   1.263   3.098   3.637
 2514SOL    HW1 8441   1.282   3.180   3.584
 2514SOL    HW2 8442   1.186   3.049   3.596
 2515SOL     OW 8443   2.023   0.490   1.756
 2515SOL    HW1 8444   2.064   0.401   1.735
 2515SOL    HW2 8445   1.927   0.490   1.728
 2516SOL     OW 8446   5.051   1.433   3.692
 2516SOL    HW1 8447   5.057   1.532   3.692
 2516SOL    HW2 8448   4.986   1.403   3.762
 2517SOL     OW 8449   1.410   0.839   5.080
 2517SOL    HW1 8450   1.391   0.887   4.995
 2517SOL    HW2 8451   1.341   0.864   5.148
 2518SOL     OW 8452   2.496   5.625   1.312
 2518SOL    HW1 8453   2.446   5.653   1.230
 2518SOL    HW2 8454   2.575   5.569   1.285
 2519SOL     OW 8455   2.645   1.439   1.925
 2519SOL    HW1 8456   2.708   1.403   1.856
 2519SOL    HW2 8457   2.582   1.367   1.955
 2520SOL     OW 8458   3.531   2.374   0.637
 2520SOL    HW1 8459   3.475   2.450   0.668
 2520SOL    HW2 8460   3.572   2.328   0.716
 2521SOL     OW 8461   4.104   1.410   4.961
 2521SOL    HW1 8462   4.116   1.382   4.865
 2521SOL    HW2 8463   4.018   1.375   4.995
 2522SOL     OW 8464   1.100   1.940   5.352
 2522SOL    HW1 8465   1.134   1.918   5.260
 2522SOL    HW2 8466   1.075   1.856   5.400
 2523SOL     OW 8467   2.008   4.364   0.936
 2523SOL    HW1 8468   2.036   4.315   1.019
 2523SOL    HW2 8469   1.956   4.445   0.961
 2524SOL     OW 8470   0.612   6.761   4.340
 2524SOL    HW1 8471   0.603   6.665   4.366
 2524SOL    HW2 8472   0.595   6.771   4.242
 2525SOL     OW 8473   1.077   2.757   4.721
 2525SOL    HW1 8474   1.170   2.735   4.752
 2525SOL    HW2 8475   1.063   2.721   4.629
 2526SOL     OW 8476   1.777   5.148   6.945
 2526SOL    HW1 8477   1.817   5.097   7.021
 2526SOL    HW2 8478   1.843   5.215   6.911
 2527SOL     OW 8479   5.637   5.792   5.373
 2527SOL    HW1 8480   5.595   5.704   5.394
 2527SOL    HW2 8481   5.567   5.864   5.375
 2528SOL     OW 8482   5.576   4.553   5.453
 2528SOL    HW1 8483   5.586   4.650   5.473
 2528SOL    HW2 8484   5.485   4.536   5.415
 2529SOL     OW 8485   0.860   0.434   6.350
 2529SOL    HW1 8486   0.895   0.395   6.265
 2529SOL    HW2 8487   0.760   0.433   6.348
 2530SOL     OW 8488   2.684   6.232   6.140
 2530SOL    HW1 8489   2.748   6.265   6.209
 2530SOL    HW2 8490   2.611   6.179   6.184
 2531SOL     OW 8491   5.479   5.885   5.852
 2531SOL    HW1 8492   5.409   5.945   5.814
 2531SOL    HW2 8493   5.440   5.795   5.870
 2532SOL     OW 8494   0.792   6.162   1.229
 2532SOL    HW1 8495   0.828   6.124   1.144
 2532SOL    HW2 8496   0.722   6.231   1.208
 2533SOL     OW 8497   4.801   1.211   3.519
 2533SOL    HW1 8498   4.847   1.142   3.464
 2533SOL    HW2 8499   4.789   1.178   3.612
 2534SOL     OW 8500   4.803   1.858   1.747
 2534SOL    HW1 8501   4.747   1.782   1.715
 2534SOL    HW2 8502   4.895   1.850   1.710
 2535SOL     OW 8503   3.479   2.807   6.725
 2535SOL    HW1 8504   3.449   2.712   6.727
 2535SOL    HW2 8505   3.455   2.852   6.811
 2536SOL     OW 8506   1.720   0.734   6.390
 2536SOL    HW1 8507   1.644   0.762   6.449
 2536SOL    HW2 8508   1.688   0.667   6.324
 2537SOL     OW 8509   3.444   0.530   6.531
 2537SOL    HW1 8510   3.504   0.486   6.464
 2537SOL    HW2 8511   3.445   0.478   6.616
 2538SOL     OW 8512   6.870   3.984   3.760
 2538SOL    HW1 8513   6.880   3.936   3.672
 2538SOL    HW2 8514   6.947   3.962   3.819
 2539SOL     OW 8515   5.717   0.837   3.386
 2539SOL    HW1 8516   5.808   0.869   3.358
 2539SOL    HW2 8517   5.685   0.893   3.462
 2540SOL     OW 8518   3.773   2.105   3.041
 2540SOL    HW1 8519   3.765   2.101   2.942
 2540SOL    HW2 8520   3.787   2.012   3.077
 2541SOL     OW 8521   2.639   0.044   5.254
 2541SOL    HW1 8522   2.650   0.024   5.351
 2541SOL    HW2 8523   2.566   0.111   5.242
 2542SOL     OW 8524   2.126   3.585   6.693
 2542SOL    HW1 8525   2.133   3.683   6.671
 2542SOL    HW2 8526   2.204   3.537   6.653
 2543SOL     OW 8527   0.776   1.347   4.021
 2543SOL    HW1 8528   0.723   1.355   4.105
 2543SOL    HW2 8529   0.748   1.265   3.971
 2544SOL     OW 8530   1.098   5.387   0.875
 2544SOL    HW1 8531   1.022   5.323   0.885
 2544SOL    HW2 8532   1.168   5.367   0.943
 2545SOL     OW 8533   1.932   7.020   2.393
 2545SOL    HW1 8534   2.013   0.054   2.397
 2545SOL    HW2 8535   1.948   6.935   2.444
 2546SOL     OW 8536   6.376   1.747   0.729
 2546SOL    HW1 8537   6.449   1.765   0.663
 2546SOL    HW2 8538   6.412   1.693   0.805
 2547SOL     OW 8539   0.327   4.025   6.540
 2547SOL    HW1 8540   0.317   3.962   6.463
 2547SOL    HW2 8541   0.292   4.115   6.515
 2548SOL     OW 8542   0.315   6.676   4.338
 2548SOL    HW1 8543   0.401   6.719   4.311
 2548SOL    HW2 8544   0.263   6.649   4.256
 2549SOL     OW 8545   0.475   0.642   1.475
 2549SOL    HW1 8546   0.451   0.648   1.378
 2549SOL    HW2 8547   0.423   0.568   1.518
 2550SOL     OW 8548   6.339   6.889   0.893
 2550SOL    HW1 8549   6.312   6.922   0.984
 2550SOL    HW2 8550   6.350   6.967   0.832
 2551SOL     OW 8551   2.624   4.566   6.824
 2551SOL    HW1 8552   2.601   4.556   6.920
 2551SOL    HW2 8553   2.617   4.477   6.779
 2552SOL     OW 8554   2.535   4.536   4.370
 2552SOL    HW1 8555   2.547   4.633   4.392
 2552SOL    HW2 8556   2.458   4.499   4.421
 2553SOL     OW 8557   3.802   3.672   6.254
 2553SOL    HW1 8558   3.902   3.676   6.257
 2553SOL    HW2 8559   3.773   3.646   6.162
 2554SOL     OW 8560   2.341   1.582   0.447
 2554SOL    HW1 8561   2.389   1.598   0.361
 2554SOL    HW2 8562   2.400   1.605   0.523
 2555SOL     OW 8563   4.907   2.952   4.370
 2555SOL    HW1 8564   4.843   2.976   4.297
 2555SOL    HW2 8565   4.876   2.868   4.415
 2556SOL     OW 8566   3.655   6.239   0.581
 2556SOL    HW1 8567   3.665   6.259   0.483
 2556SOL    HW2 8568   3.590   6.164   0.593
 2557SOL     OW 8569   1.905   3.323   6.477
 2557SOL    HW1 8570   1.998   3.336   6.511
 2557SOL    HW2 8571   1.895   3.368   6.389
 2558SOL     OW 8572   5.112   0.880   5.705
 2558SOL    HW1 8573   5.211   0.875   5.691
 2558SOL    HW2 8574   5.066   0.884   5.616
 2559SOL     OW 8575   0.982   4.360   6.114
 2559SOL    HW1 8576   1.060   4.297   6.119
 2559SOL    HW2 8577   0.898   4.307   6.109
 2560SOL     OW 8578   6.508   2.420   6.443
 2560SOL    HW1 8579   6.434   2.412   6.509
 2560SOL    HW2 8580   6.594   2.393   6.486
 2561SOL     OW 8581   3.193   4.870   4.360
 2561SOL    HW1 8582   3.261   4.940   4.339
 2561SOL    HW2 8583   3.179   4.811   4.281
 2562SOL     OW 8584   2.330   4.271   0.773
 2562SOL    HW1 8585   2.263   4.298   0.705
 2562SOL    HW2 8586   2.285   4.260   0.862
 2563SOL     OW 8587   2.813   0.351   0.414
 2563SOL    HW1 8588   2.767   0.335   0.502
 2563SOL    HW2 8589   2.789   0.442   0.380
 2564SOL     OW 8590   1.724   5.437   0.968
 2564SOL    HW1 8591   1.810   5.387   0.979
 2564SOL    HW2 8592   1.740   5.520   0.914
 2565SOL     OW 8593   0.919   0.615   0.992
 2565SOL    HW1 8594   0.925   0.541   1.059
 2565SOL    HW2 8595   0.895   0.575   0.903
 2566SOL     OW 8596   2.215   6.462   1.001
 2566SOL    HW1 8597   2.266   6.433   1.082
 2566SOL    HW2 8598   2.144   6.528   1.027
 2567SOL     OW 8599   1.382   6.894   0.465
 2567SOL    HW1 8600   1.375   6.863   0.560
 2567SOL    HW2 8601   1.360   6.818   0.403
 2568SOL     OW 8602   4.665   2.439   6.979
 2568SOL    HW1 8603   4.678   2.349   6.937
 2568SOL    HW2 8604   4.669   2.429   0.055
 2569SOL     OW 8605   3.478   1.467   3.657
 2569SOL    HW1 8606   3.537   1.546   3.638
 2569SOL    HW2 8607   3.414   1.455   3.582
 2570SOL     OW 8608   5.658   0.991   5.779
 2570SOL    HW1 8609   5.629   0.911   5.727
 2570SOL    HW2 8610   5.630   0.982   5.874
 2571SOL     OW 8611   1.650   4.756   4.087
 2571SOL    HW1 8612   1.677   4.678   4.031
 2571SOL    HW2 8613   1.682   4.744   4.181
 2572SOL     OW 8614   2.323   4.618   2.940
 2572SOL    HW1 8615   2.333   4.552   2.866
 2572SOL    HW2 8616   2.406   4.617   2.996
 2573SOL     OW 8617   0.577   1.546   0.957
 2573SOL    HW1 8618   0.482   1.547   0.989
 2573SOL    HW2 8619   0.580   1.512   0.863
 2574SOL     OW 8620   5.972   2.989   1.058
 2574SOL    HW1 8621   6.060   3.031   1.079
 2574SOL    HW2 8622   5.973   2.953   0.965
 2575SOL     OW 8623   6.098   5.936   0.167
 2575SOL    HW1 8624   6.083   6.023   0.118
 2575SOL    HW2 8625   6.052   5.862   0.118
 2576SOL     OW 8626   4.557   6.913   4.392
 2576SOL    HW1 8627   4.473   6.883   4.438
 2576SOL    HW2 8628   4.546   7.007   4.360
 2577SOL     OW 8629   2.968   4.778   2.187
 2577SOL    HW1 8630   2.914   4.725   2.121
 2577SOL    HW2 8631   3.063   4.747   2.183
 2578SOL     OW 8632   3.813   1.448   4.350
 2578SOL    HW1 8633   3.819   1.513   4.274
 2578SOL    HW2 8634   3.720   1.412   4.355
 2579SOL     OW 8635   0.698   6.339   3.536
 2579SOL    HW1 8636   0.713   6.278   3.614
 2579SOL    HW2 8637   0.653   6.288   3.462
 2580SOL     OW 8638   2.460   4.392   0.311
 2580SOL    HW1 8639   2.497   4.452   0.381
 2580SOL    HW2 8640   2.422   4.310   0.354
 2581SOL     OW 8641   2.951   6.392   5.883
 2581SOL    HW1 8642   2.878   6.332   5.849
 2581SOL    HW2 8643   3.035   6.373   5.832
 2582SOL     OW 8644   6.558   3.822   1.120
 2582SOL    HW1 8645   6.653   3.847   1.101
 2582SOL    HW2 8646   6.553   3.724   1.140
 2583SOL     OW 8647   0.008   6.739   0.664
 2583SOL    HW1 8648   0.108   6.740   0.675
 2583SOL    HW2 8649   7.007   6.801   0.589
 2584SOL     OW 8650   3.860   5.055   5.715
 2584SOL    HW1 8651   3.931   5.100   5.662
 2584SOL    HW2 8652   3.902   4.993   5.781
 2585SOL     OW 8653   3.106   5.355   6.288
 2585SOL    HW1 8654   3.062   5.272   6.323
 2585SOL    HW2 8655   3.140   5.409   6.365
 2586SOL     OW 8656   2.190   1.034   5.832
 2586SOL    HW1 8657   2.206   0.986   5.746
 2586SOL    HW2 8658   2.155   1.126   5.814
 2587SOL     OW 8659   0.795   0.923   2.880
 2587SOL    HW1 8660   0.849   0.991   2.931
 2587SOL    HW2 8661   0.857   0.866   2.826
 2588SOL     OW 8662   4.757   2.289   5.679
 2588SOL    HW1 8663   4.792   2.200   5.648
 2588SOL    HW2 8664   4.657   2.284   5.686
 2589SOL     OW 8665   1.016   6.768   0.005
 2589SOL    HW1 8666   0.945   6.803   6.969
 2589SOL    HW2 8667   1.106   6.790   6.991
 2590SOL     OW 8668   2.524   5.027   0.243
 2590SOL    HW1 8669   2.589   5.103   0.233
 2590SOL    HW2 8670   2.546   4.975   0.325
 2591SOL     OW 8671   6.148   5.532   3.932
 2591SOL    HW1 8672   6.117   5.620   3.968
 2591SOL    HW2 8673   6.170   5.471   4.008
 2592SOL     OW 8674   2.106   4.188   6.902
 2592SOL    HW1 8675   2.185   4.206   6.843
 2592SOL    HW2 8676   2.034   4.254   6.882
 2593SOL     OW 8677   3.243   5.810   0.685
 2593SOL    HW1 8678   3.318   5.745   0.671
 2593SOL    HW2 8679   3.237   5.834   0.782
 2594SOL     OW 8680   1.762   4.192   5.243
 2594SOL    HW1 8681   1.802   4.271   5.197
 2594SOL    HW2 8682   1.832   4.145   5.297
 2595SOL     OW 8683   1.229   1.755   4.628
 2595SOL    HW1 8684   1.168   1.834   4.622
 2595SOL    HW2 8685   1.280   1.746   4.543
 2596SOL     OW 8686   1.754   3.054   1.197
 2596SOL    HW1 8687   1.727   3.148   1.221
 2596SOL    HW2 8688   1.845   3.036   1.235
 2597SOL     OW 8689   0.506   5.517   6.104
 2597SOL    HW1 8690   0.484   5.468   6.189
 2597SOL    HW2 8691   0.605   5.517   6.091
 2598SOL     OW 8692   6.161   1.384   2.068
 2598SOL    HW1 8693   6.128   1.412   2.158
 2598SOL    HW2 8694   6.157   1.284   2.061
 2599SOL     OW 8695   3.251   6.594   1.570
 2599SOL    HW1 8696   3.317   6.533   1.526
 2599SOL    HW2 8697   3.221   6.554   1.657
 2600SOL     OW 8698   6.510   4.140   4.398
 2600SOL    HW1 8699   6.512   4.171   4.303
 2600SOL    HW2 8700   6.601   4.151   4.439
 2601SOL     OW 8701   1.065   1.633   2.464
 2601SOL    HW1 8702   0.983   1.576   2.472
 2601SOL    HW2 8703   1.041   1.728   2.482
 2602SOL     OW 8704   1.539   5.030   4.006
 2602SOL    HW1 8705   1.464   5.051   4.069
 2602SOL    HW2 8706   1.594   4.955   4.043
 2603SOL     OW 8707   2.999   1.200   2.455
 2603SOL    HW1 8708   3.069   1.205   2.527
 2603SOL    HW2 8709   2.944   1.284   2.458
 2604SOL     OW 8710   6.022   1.457   1.787
 2604SOL    HW1 8711   5.963   1.379   1.769
 2604SOL    HW2 8712   6.087   1.434   1.860
 2605SOL     OW 8713   1.443   3.819   1.631
 2605SOL    HW1 8714   1.476   3.869   1.712
 2605SOL    HW2 8715   1.362   3.766   1.656
 2606SOL     OW 8716   5.180   4.623   0.959
 2606SOL    HW1 8717   5.243   4.655   0.889
 2606SOL    HW2 8718   5.228   4.562   1.022
 2607SOL     OW 8719   1.766   2.457   0.983
 2607SOL    HW1 8720   1.783   2.419   0.893
 2607SOL    HW2 8721   1.737   2.384   1.045
 2608SOL     OW 8722   2.549   6.061   6.558
 2608SOL    HW1 8723   2.508   6.033   6.644
 2608SOL    HW2 8724   2.642   6.093   6.573
 2609SOL     OW 8725   0.897   0.869   1.152
 2609SOL    HW1 8726   0.915   0.827   1.241
 2609SOL    HW2 8727   0.899   0.798   1.081
 2610SOL     OW 8728   0.818   4.833   4.326
 2610SOL    HW1 8729   0.808   4.790   4.236
 2610SOL    HW2 8730   0.876   4.776   4.384
 2611SOL     OW 8731   5.072   6.717   0.049
 2611SOL    HW1 8732   5.127   6.788   0.005
 2611SOL    HW2 8733   5.131   6.657   0.103
 2612SOL     OW 8734   5.316   0.623   4.662
 2612SOL    HW1 8735   5.317   0.540   4.718
 2612SOL    HW2 8736   5.361   0.606   4.575
 2613SOL     OW 8737   0.768   5.774   6.420
 2613SOL    HW1 8738   0.728   5.772   6.328
 2613SOL    HW2 8739   0.739   5.857   6.468
 2614SOL     OW 8740   6.599   0.776   5.831
 2614SOL    HW1 8741   6.542   0.708   5.785
 2614SOL    HW2 8742   6.669   0.810   5.768
 2615SOL     OW 8743   1.121   3.863   0.803
 2615SOL    HW1 8744   1.205   3.895   0.759
 2615SOL    HW2 8745   1.072   3.803   0.741
 2616SOL     OW 8746   1.598   0.348   5.419
 2616SOL    HW1 8747   1.574   0.393   5.505
 2616SOL    HW2 8748   1.690   0.374   5.392
 2617SOL     OW 8749   5.512   0.436   0.232
 2617SOL    HW1 8750   5.560   0.500   0.292
 2617SOL    HW2 8751   5.537   0.343   0.256
 2618SOL     OW 8752   1.560   6.225   6.011
 2618SOL    HW1 8753   1.630   6.155   5.993
 2618SOL    HW2 8754   1.523   6.258   5.925
 2619SOL     OW 8755   4.384   1.594   2.030
 2619SOL    HW1 8756   4.320   1.568   2.103
 2619SOL    HW2 8757   4.462   1.531   2.030
 2620SOL     OW 8758   6.964   6.349   1.897
 2620SOL    HW1 8759   6.949   6.277   1.830
 2620SOL    HW2 8760   6.944   6.438   1.856
 2621SOL     OW 8761   1.161   5.871   2.709
 2621SOL    HW1 8762   1.138   5.774   2.707
 2621SOL    HW2 8763   1.129   5.915   2.625
 2622SOL     OW 8764   2.938   3.296   6.486
 2622SOL    HW1 8765   2.995   3.248   6.420
 2622SOL    HW2 8766   2.990   3.370   6.528
 2623SOL     OW 8767   0.936   6.882   3.769
 2623SOL    HW1 8768   0.846   6.894   3.729
 2623SOL    HW2 8769   0.970   6.791   3.748
 2624SOL     OW 8770   0.387   2.038   4.530
 2624SOL    HW1 8771   0.305   2.034   4.586
 2624SOL    HW2 8772   0.452   2.103   4.569
 2625SOL     OW 8773   1.840   5.118   5.363
 2625SOL    HW1 8774   1.873   5.023   5.360
 2625SOL    HW2 8775   1.888   5.172   5.294
 2626SOL     OW 8776   6.236   5.953   5.718
 2626SOL    HW1 8777   6.213   6.016   5.643
 2626SOL    HW2 8778   6.232   6.003   5.804
 2627SOL     OW 8779   1.359   6.903   6.221
 2627SOL    HW1 8780   1.354   7.003   6.225
 2627SOL    HW2 8781   1.334   6.873   6.129
 2628SOL     OW 8782   1.757   3.775   2.938
 2628SOL    HW1 8783   1.818   3.725   3.000
 2628SOL    HW2 8784   1.722   3.857   2.983
 2629SOL     OW 8785   3.361   4.102   3.452
 2629SOL    HW1 8786   3.435   4.130   3.392
 2629SOL    HW2 8787   3.274   4.107   3.402
 2630SOL     OW 8788   3.713   1.280   3.883
 2630SOL    HW1 8789   3.746   1.187   3.897
 2630SOL    HW2 8790   3.787   1.337   3.848
 2631SOL     OW 8791   5.637   0.773   6.969
 2631SOL    HW1 8792   5.683   0.700   6.918
 2631SOL    HW2 8793   5.552   0.737   7.009
 2632SOL     OW 8794   5.684   4.753   1.789
 2632SOL    HW1 8795   5.653   4.845   1.767
 2632SOL    HW2 8796   5.779   4.756   1.823
 2633SOL     OW 8797   6.851   3.255   5.895
 2633SOL    HW1 8798   6.775   3.200   5.860
 2633SOL    HW2 8799   6.894   3.306   5.820
 2634SOL     OW 8800   5.890   0.145   5.009
 2634SOL    HW1 8801   5.945   0.224   4.982
 2634SOL    HW2 8802   5.889   0.137   5.109
 2635SOL     OW 8803   5.581   5.179   3.856
 2635SOL    HW1 8804   5.585   5.115   3.932
 2635SOL    HW2 8805   5.517   5.253   3.878
 2636SOL     OW 8806   3.874   6.918   6.233
 2636SOL    HW1 8807   3.858   6.909   6.135
 2636SOL    HW2 8808   3.808   6.862   6.283
 2637SOL     OW 8809   1.555   1.244   3.355
 2637SOL    HW1 8810   1.609   1.276   3.277
 2637SOL    HW2 8811   1.553   1.315   3.426
 2638SOL     OW 8812   0.962   0.397   4.279
 2638SOL    HW1 8813   0.942   0.301   4.302
 2638SOL    HW2 8814   1.032   0.431   4.341
 2639SOL     OW 8815   4.489   5.215   4.962
 2639SOL    HW1 8816   4.442   5.136   4.923
 2639SOL    HW2 8817   4.572   5.234   4.911
 2640SOL     OW 8818   0.932   0.150   4.425
 2640SOL    HW1 8819   0.900   0.059   4.398
 2640SOL    HW2 8820   1.031   0.155   4.413
 2641SOL     OW 8821   5.583   2.380   0.073
 2641SOL    HW1 8822   5.683   2.388   0.069
 2641SOL    HW2 8823   5.552   2.393   0.167
 2642SOL     OW 8824   0.054   1.105   4.023
 2642SOL    HW1 8825   7.010   1.174   4.048
 2642SOL    HW2 8826   0.144   1.149   4.013
 2643SOL     OW 8827   0.860   4.290   3.428
 2643SOL    HW1 8828   0.917   4.268   3.349
 2643SOL    HW2 8829   0.866   4.216   3.495
 2644SOL     OW 8830   5.062   5.615   5.191
 2644SOL    HW1 8831   4.996   5.675   5.236
 2644SOL    HW2 8832   5.104   5.664   5.114
 2645SOL     OW 8833   4.929   4.796   3.460
 2645SOL    HW1 8834   4.905   4.890   3.435
 2645SOL    HW2 8835   4.969   4.750   3.381
 2646SOL     OW 8836   0.313   3.683   5.878
 2646SOL    HW1 8837   0.352   3.723   5.795
 2646SOL    HW2 8838   0.225   3.725   5.897
 2647SOL     OW 8839   4.885   6.374   1.600
 2647SOL    HW1 8840   4.801   6.430   1.593
 2647SOL    HW2 8841   4.961   6.424   1.559
 2648SOL     OW 8842   0.327   0.369   4.312
 2648SOL    HW1 8843   0.419   0.388   4.280
 2648SOL    HW2 8844   0.331   0.320   4.399
 2649SOL     OW 8845   4.936   2.397   1.803
 2649SOL    HW1 8846   4.919   2.305   1.768
 2649SOL    HW2 8847   4.873   2.417   1.878
 2650SOL     OW 8848   3.544   6.027   5.182
 2650SOL    HW1 8849   3.596   5.952   5.224
 2650SOL    HW2 8850   3.566   6.113   5.229
 2651SOL     OW 8851   4.042   1.872   5.137
 2651SOL    HW1 8852   3.972   1.924   5.187
 2651SOL    HW2 8853   4.056   1.914   5.047
 2652SOL     OW 8854   5.233   4.184   5.426
 2652SOL    HW1 8855   5.278   4.165   5.513
 2652SOL    HW2 8856   5.291   4.154   5.351
 2653SOL     OW 8857   3.065   6.441   0.053
 2653SOL    HW1 8858   3.039   6.537   0.060
 2653SOL    HW2 8859   2.987   6.384   0.079
 2654SOL     OW 8860   5.658   0.933   0.511
 2654SOL    HW1 8861   5.591   0.893   0.573
 2654SOL    HW2 8862   5.638   1.030   0.499
 2655SOL     OW 8863   5.119   5.898   3.045
 2655SOL    HW1 8864   5.021   5.916   3.048
 2655SOL    HW2 8865   5.159   5.944   2.966
 2656SOL     OW 8866   3.759   5.195   3.871
 2656SOL    HW1 8867   3.684   5.226   3.812
 2656SOL    HW2 8868   3.821   5.137   3.817
 2657SOL     OW 8869   1.926   3.342   0.224
 2657SOL    HW1 8870   1.967   3.304   0.307
 2657SOL    HW2 8871   1.869   3.420   0.248
 2658SOL     OW 8872   4.444   5.028   6.393
 2658SOL    HW1 8873   4.493   4.954   6.347
 2658SOL    HW2 8874   4.349   5.030   6.361
 2659SOL     OW 8875   6.788   2.432   4.540
 2659SOL    HW1 8876   6.757   2.480   4.458
 2659SOL    HW2 8877   6.710   2.417   4.601
 2660SOL     OW 8878   0.541   1.861   1.442
 2660SOL    HW1 8879   0.528   1.804   1.523
 2660SOL    HW2 8880   0.575   1.951   1.469
 2661SOL     OW 8881   1.958   1.348   0.943
 2661SOL    HW1 8882   1.887   1.382   1.005
 2661SOL    HW2 8883   2.021   1.423   0.921
 2662SOL     OW 8884   3.026   0.637   2.848
 2662SOL    HW1 8885   3.046   0.665   2.755
 2662SOL    HW2 8886   2.941   0.585   2.851
 2663SOL     OW 8887   4.205   6.619   6.737
 2663SOL    HW1 8888   4.106   6.628   6.725
 2663SOL    HW2 8889   4.238   6.691   6.798
 2664SOL     OW 8890   4.175   2.735   5.817
 2664SOL    HW1 8891   4.198   2.723   5.914
 2664SOL    HW2 8892   4.157   2.831   5.799
 2665SOL     OW 8893   1.950   3.810   5.177
 2665SOL    HW1 8894   1.868   3.839   5.227
 2665SOL    HW2 8895   2.005   3.891   5.155
 2666SOL     OW 8896   2.006   4.060   2.128
 2666SOL    HW1 8897   2.093   4.044   2.081
 2666SOL    HW2 8898   2.017   4.041   2.225
 2667SOL     OW 8899   5.910   3.795   4.106
 2667SOL    HW1 8900   5.925   3.852   4.187
 2667SOL    HW2 8901   5.898   3.854   4.026
 2668SOL     OW 8902   5.907   1.512   4.338
 2668SOL    HW1 8903   5.832   1.458   4.377
 2668SOL    HW2 8904   5.965   1.452   4.282
 2669SOL     OW 8905   2.472   0.689   0.378
 2669SOL    HW1 8906   2.407   0.653   0.311
 2669SOL    HW2 8907   2.423   0.712   0.462
 2670SOL     OW 8908   0.509   0.648   6.106
 2670SOL    HW1 8909   0.412   0.628   6.091
 2670SOL    HW2 8910   0.520   0.697   6.192
 2671SOL     OW 8911   3.841   5.386   5.655
 2671SOL    HW1 8912   3.804   5.458   5.596
 2671SOL    HW2 8913   3.787   5.380   5.739
 2672SOL     OW 8914   3.393   1.149   1.760
 2672SOL    HW1 8915   3.419   1.238   1.724
 2672SOL    HW2 8916   3.395   1.081   1.686
 2673SOL     OW 8917   4.836   0.450   2.445
 2673SOL    HW1 8918   4.889   0.495   2.517
 2673SOL    HW2 8919   4.820   0.355   2.471
 2674SOL     OW 8920   0.782   5.116   2.661
 2674SOL    HW1 8921   0.840   5.194   2.680
 2674SOL    HW2 8922   0.838   5.033   2.656
 2675SOL     OW 8923   6.004   0.225   4.112
 2675SOL    HW1 8924   6.023   0.185   4.202
 2675SOL    HW2 8925   5.911   0.262   4.112
 2676SOL     OW 8926   3.295   3.647   3.063
 2676SOL    HW1 8927   3.198   3.623   3.065
 2676SOL    HW2 8928   3.350   3.564   3.058
 2677SOL     OW 8929   2.353   5.063   1.734
 2677SOL    HW1 8930   2.282   4.994   1.752
 2677SOL    HW2 8931   2.384   5.102   1.821
 2678SOL     OW 8932   5.582   2.316   2.432
 2678SOL    HW1 8933   5.507   2.253   2.412
 2678SOL    HW2 8934   5.669   2.267   2.427
 2679SOL     OW 8935   1.938   4.735   3.538
 2679SOL    HW1 8936   1.924   4.809   3.604
 2679SOL    HW2 8937   2.036   4.716   3.529
 2680SOL     OW 8938   0.881   1.831   0.029
 2680SOL    HW1 8939   0.895   1.895   0.104
 2680SOL    HW2 8940   0.966   1.821   7.001
 2681SOL     OW 8941   1.825   2.508   5.238
 2681SOL    HW1 8942   1.879   2.474   5.315
 2681SOL    HW2 8943   1.785   2.597   5.262
 2682SOL     OW 8944   4.379   4.412   1.418
 2682SOL    HW1 8945   4.449   4.357   1.465
 2682SOL    HW2 8946   4.296   4.416   1.474
 2683SOL     OW 8947   2.352   4.328   2.321
 2683SOL    HW1 8948   2.395   4.398   2.265
 2683SOL    HW2 8949   2.351   4.241   2.271
 2684SOL     OW 8950   6.024   6.855   2.196
 2684SOL    HW1 8951   6.035   6.872   2.098
 2684SOL    HW2 8952   6.102   6.893   2.246
 2685SOL     OW 8953   0.916   6.112   5.070
 2685SOL    HW1 8954   0.943   6.016   5.073
 2685SOL    HW2 8955   0.899   6.138   4.975
 2686SOL     OW 8956   0.946   1.531   4.406
 2686SOL    HW1 8957   0.913   1.462   4.471
 2686SOL    HW2 8958   1.043   1.516   4.388
 2687SOL     OW 8959   3.628   1.518   1.373
 2687SOL    HW1 8960   3.566   1.560   1.308
 2687SOL    HW2 8961   3.721   1.518   1.335
 2688SOL     OW 8962   3.530   3.408   5.892
 2688SOL    HW1 8963   3.620   3.386   5.854
 2688SOL    HW2 8964   3.507   3.342   5.964
 2689SOL     OW 8965   0.838   3.804   3.376
 2689SOL    HW1 8966   0.912   3.818   3.442
 2689SOL    HW2 8967   0.812   3.891   3.335
 2690SOL     OW 8968   3.446   1.331   6.170
 2690SOL    HW1 8969   3.391   1.268   6.225
 2690SOL    HW2 8970   3.525   1.361   6.224
 2691SOL     OW 8971   0.356   4.602   3.567
 2691SOL    HW1 8972   0.378   4.520   3.515
 2691SOL    HW2 8973   0.305   4.666   3.509
 2692SOL     OW 8974   2.791   5.571   2.805
 2692SOL    HW1 8975   2.849   5.640   2.761
 2692SOL    HW2 8976   2.695   5.590   2.784
 2693SOL     OW 8977   1.540   5.352   3.685
 2693SOL    HW1 8978   1.464   5.340   3.621
 2693SOL    HW2 8979   1.627   5.343   3.637
 2694SOL     OW 8980   3.244   6.821   4.130
 2694SOL    HW1 8981   3.198   6.736   4.154
 2694SOL    HW2 8982   3.343   6.806   4.130
 2695SOL     OW 8983   7.015   5.519   3.270
 2695SOL    HW1 8984   0.034   5.490   3.185
 2695SOL    HW2 8985   6.979   5.611   3.259
 2696SOL     OW 8986   5.002   4.095   6.317
 2696SOL    HW1 8987   4.939   4.075   6.393
 2696SOL    HW2 8988   4.949   4.127   6.238
 2697SOL     OW 8989   4.071   2.637   0.838
 2697SOL    HW1 8990   4.051   2.629   0.740
 2697SOL    HW2 8991   4.163   2.672   0.851
 2698SOL     OW 8992   1.541   3.866   6.088
 2698SOL    HW1 8993   1.574   3.937   6.025
 2698SOL    HW2 8994   1.614   3.800   6.105
 2699SOL     OW 8995   3.710   5.778   2.193
 2699SOL    HW1 8996   3.678   5.750   2.102
 2699SOL    HW2 8997   3.666   5.722   2.263
 2700SOL     OW 8998   2.859   2.291   1.714
 2700SOL    HW1 8999   2.902   2.345   1.641
 2700SOL    HW2 9000   2.843   2.350   1.793
 2701SOL     OW 9001   5.078   2.617   4.628
 2701SOL    HW1 9002   5.085   2.697   4.688
 2701SOL    HW2 9003   5.058   2.647   4.535
 2702SOL     OW 9004   2.468   1.908   4.611
 2702SOL    HW1 9005   2.377   1.916   4.652
 2702SOL    HW2 9006   2.467   1.838   4.541
 2703SOL     OW 9007   1.653   6.675   2.009
 2703SOL    HW1 9008   1.737   6.641   2.050
 2703SOL    HW2 9009   1.650   6.649   1.913
 2704SOL     OW 9010   5.705   6.866   3.673
 2704SOL    HW1 9011   5.653   6.790   3.711
 2704SOL    HW2 9012   5.753   6.914   3.746
 2705SOL     OW 9013   0.095   6.931   5.036
 2705SOL    HW1 9014   0.007   6.975   5.016
 2705SOL    HW2 9015   0.098   6.841   4.992
 2706SOL     OW 9016   6.796   4.376   3.752
 2706SOL    HW1 9017   6.872   4.329   3.798
 2706SOL    HW2 9018   6.789   4.343   3.658
 2707SOL     OW 9019   3.989   0.764   3.149
 2707SOL    HW1 9020   3.993   0.853   3.195
 2707SOL    HW2 9021   3.998   0.778   3.050
 2708SOL     OW 9022   5.843   2.958   0.185
 2708SOL    HW1 9023   5.874   2.877   0.235
 2708SOL    HW2 9024   5.746   2.947   0.161
 2709SOL     OW 9025   4.793   0.968   5.122
 2709SOL    HW1 9026   4.807   0.947   5.219
 2709SOL    HW2 9027   4.880   0.958   5.073
 2710SOL     OW 9028   1.160   2.644   3.862
 2710SOL    HW1 9029   1.207   2.556   3.871
 2710SOL    HW2 9030   1.091   2.638   3.790
 2711SOL     OW 9031   3.517   2.133   2.632
 2711SOL    HW1 9032   3.481   2.198   2.565
 2711SOL    HW2 9033   3.551   2.052   2.585
 2712SOL     OW 9034   4.526   5.493   2.210
 2712SOL    HW1 9035   4.458   5.427   2.242
 2712SOL    HW2 9036   4.575   5.455   2.131
 2713SOL     OW 9037   3.670   4.835   6.239
 2713SOL    HW1 9038   3.659   4.786   6.325
 2713SOL    HW2 9039   3.591   4.895   6.224
 2714SOL     OW 9040   2.971   4.547   0.105
 2714SOL    HW1 9041   2.974   4.448   0.097
 2714SOL    HW2 9042   2.949   4.573   0.199
 2715SOL     OW 9043   4.214   0.846   1.363
 2715SOL    HW1 9044   4.210   0.842   1.263
 2715SOL    HW2 9045   4.309   0.855   1.392
 2716SOL     OW 9046   3.775   2.104   2.769
 2716SOL    HW1 9047   3.819   2.018   2.742
 2716SOL    HW2 9048   3.690   2.115   2.718
 2717SOL     OW 9049   0.762   1.218   2.630
 2717SOL    HW1 9050   0.760   1.142   2.695
 2717SOL    HW2 9051   0.677   1.271   2.637
 2718SOL     OW 9052   0.041   6.995   5.662
 2718SOL    HW1 9053   0.087   0.059   5.645
 2718SOL    HW2 9054   6.979   7.011   5.710
 2719SOL     OW 9055   1.672   3.946   2.381
 2719SOL    HW1 9056   1.667   4.037   2.340
 2719SOL    HW2 9057   1.702   3.880   2.312
 2720SOL     OW 9058   1.238   6.045   5.447
 2720SOL    HW1 9059   1.216   5.964   5.392
 2720SOL    HW2 9060   1.170   6.116   5.431
 2721SOL     OW 9061   3.560   5.669   1.678
 2721SOL    HW1 9062   3.610   5.755   1.673
 2721SOL    HW2 9063   3.616   5.595   1.640
 2722SOL     OW 9064   4.584   4.992   6.863
 2722SOL    HW1 9065   4.588   4.939   6.948
 2722SOL    HW2 9066   4.500   5.046   6.861
 2723SOL     OW 9067   3.002   6.525   0.707
 2723SOL    HW1 9068   3.080   6.509   0.646
 2723SOL    HW2 9069   2.919   6.539   0.653
 2724SOL     OW 9070   1.677   5.937   0.922
 2724SOL    HW1 9071   1.578   5.933   0.913
 2724SOL    HW2 9072   1.708   6.032   0.911
 2725SOL     OW 9073   5.562   3.786   4.915
 2725SOL    HW1 9074   5.586   3.872   4.959
 2725SOL    HW2 9075   5.482   3.746   4.959
 2726SOL     OW 9076   0.229   1.384   1.609
 2726SOL    HW1 9077   0.206   1.313   1.676
 2726SOL    HW2 9078   0.162   1.382   1.534
 2727SOL     OW 9079   1.917   4.043   4.368
 2727SOL    HW1 9080   1.943   4.010   4.278
 2727SOL    HW2 9081   1.919   3.968   4.434
 2728SOL     OW 9082   5.162   5.779   5.975
 2728SOL    HW1 9083   5.075   5.731   5.959
 2728SOL    HW2 9084   5.157   5.870   5.935
 2729SOL     OW 9085   5.577   5.449   6.013
 2729SOL    HW1 9086   5.603   5.521   5.948
 2729SOL    HW2 9087   5.657   5.420   6.065
 2730SOL     OW 9088   0.773   5.484   2.179
 2730SOL    HW1 9089   0.849   5.520   2.231
 2730SOL    HW2 9090   0.689   5.534   2.202
 2731SOL     OW 9091   3.498   3.010   3.875
 2731SOL    HW1 9092   3.422   2.980   3.932
 2731SOL    HW2 9093   3.551   3.079   3.924
 2732SOL     OW 9094   5.865   1.248   1.790
 2732SOL    HW1 9095   5.773   1.215   1.770
 2732SOL    HW2 9096   5.932   1.179   1.763
 2733SOL     OW 9097   0.601   0.475   5.927
 2733SOL    HW1 9098   0.562   0.552   5.977
 2733SOL    HW2 9099   0.626   0.505   5.835
 2734SOL     OW 9100   3.590   5.731   1.937
 2734SOL    HW1 9101   3.543   5.702   1.854
 2734SOL    HW2 9102   3.568   5.826   1.957
 2735SOL     OW 9103   0.799   1.410   1.434
 2735SOL    HW1 9104   0.756   1.374   1.351
 2735SOL    HW2 9105   0.789   1.509   1.436
 2736SOL     OW 9106   4.443   5.610   3.509
 2736SOL    HW1 9107   4.380   5.557   3.566
 2736SOL    HW2 9108   4.406   5.701   3.493
 2737SOL     OW 9109   2.271   1.916   6.743
 2737SOL    HW1 9110   2.236   1.858   6.669
 2737SOL    HW2 9111   2.345   1.868   6.790
 2738SOL     OW 9112   5.714   0.441   1.586
 2738SOL    HW1 9113   5.791   0.479   1.638
 2738SOL    HW2 9114   5.646   0.403   1.648
 2739SOL     OW 9115   1.175   5.306   2.241
 2739SOL    HW1 9116   1.203   5.402   2.237
 2739SOL    HW2 9117   1.139   5.286   2.332
 2740SOL     OW 9118   6.625   6.148   3.098
 2740SOL    HW1 9119   6.702   6.120   3.041
 2740SOL    HW2 9120   6.613   6.247   3.092
 2741SOL     OW 9121   1.097   2.137   4.832
 2741SOL    HW1 9122   1.120   2.142   4.929
 2741SOL    HW2 9123   1.177   2.159   4.777
 2742SOL     OW 9124   3.626   5.199   2.082
 2742SOL    HW1 9125   3.624   5.117   2.024
 2742SOL    HW2 9126   3.536   5.241   2.083
 2743SOL     OW 9127   6.002   4.194   2.226
 2743SOL    HW1 9128   5.998   4.279   2.174
 2743SOL    HW2 9129   5.950   4.205   2.311
 2744SOL     OW 9130   3.394   3.856   2.899
 2744SOL    HW1 9131   3.488   3.831   2.875
 2744SOL    HW2 9132   3.358   3.792   2.967
 2745SOL     OW 9133   6.772   0.223   5.775
 2745SOL    HW1 9134   6.838   0.280   5.726
 2745SOL    HW2 9135   6.813   0.136   5.800
 2746SOL     OW 9136   1.461   1.070   3.574
 2746SOL    HW1 9137   1.429   1.100   3.663
 2746SOL    HW2 9138   1.475   1.150   3.515
 2747SOL     OW 9139   3.916   6.236   0.679
 2747SOL    HW1 9140   3.960   6.316   0.719
 2747SOL    HW2 9141   3.817   6.249   0.679
 2748SOL     OW 9142   4.453   6.611   1.470
 2748SOL    HW1 9143   4.434   6.569   1.381
 2748SOL    HW2 9144   4.368   6.614   1.523
 2749SOL     OW 9145   1.982   3.548   0.618
 2749SOL    HW1 9146   1.939   3.461   0.592
 2749SOL    HW2 9147   2.080   3.543   0.597
 2750SOL     OW 9148   2.627   5.285   2.319
 2750SOL    HW1 9149   2.657   5.332   2.402
 2750SOL    HW2 9150   2.578   5.201   2.345
 2751SOL     OW 9151   0.916   3.162   1.261
 2751SOL    HW1 9152   0.977   3.118   1.194
 2751SOL    HW2 9153   0.825   3.122   1.253
 2752SOL     OW 9154   3.652   4.763   6.512
 2752SOL    HW1 9155   3.697   4.735   6.597
 2752SOL    HW2 9156   3.621   4.857   6.519
 2753SOL     OW 9157   6.192   5.905   5.132
 2753SOL    HW1 9158   6.144   5.864   5.209
 2753SOL    HW2 9159   6.273   5.954   5.165
 2754SOL     OW 9160   0.632   6.688   6.602
 2754SOL    HW1 9161   0.640   6.634   6.686
 2754SOL    HW2 9162   0.679   6.640   6.527
 2755SOL     OW 9163   2.641   6.773   3.139
 2755SOL    HW1 9164   2.547   6.789   3.108
 2755SOL    HW2 9165   2.678   6.857   3.177
 2756SOL     OW 9166   4.890   6.333   0.111
 2756SOL    HW1 9167   4.882   6.249   0.058
 2756SOL    HW2 9168   4.897   6.310   0.208
 2757SOL     OW 9169   0.744   5.074   1.281
 2757SOL    HW1 9170   0.711   5.109   1.369
 2757SOL    HW2 9171   0.670   5.024   1.236
 2758SOL     OW 9172   4.814   0.320   5.923
 2758SOL    HW1 9173   4.803   0.299   5.826
 2758SOL    HW2 9174   4.884   0.260   5.962
 2759SOL     OW 9175   5.643   6.679   4.248
 2759SOL    HW1 9176   5.572   6.749   4.252
 2759SOL    HW2 9177   5.688   6.684   4.159
 2760SOL     OW 9178   2.521   4.979   2.683
 2760SOL    HW1 9179   2.537   4.882   2.702
 2760SOL    HW2 9180   2.515   4.993   2.584
 2761SOL     OW 9181   2.159   5.466   2.769
 2761SOL    HW1 9182   2.114   5.474   2.858
 2761SOL    HW2 9183   2.092   5.436   2.701
 2762SOL     OW 9184   1.140   6.784   5.643
 2762SOL    HW1 9185   1.114   6.744   5.555
 2762SOL    HW2 9186   1.215   6.848   5.630
 2763SOL     OW 9187   5.505   2.034   3.600
 2763SOL    HW1 9188   5.593   2.001   3.565
 2763SOL    HW2 9189   5.452   1.958   3.635
 2764SOL     OW 9190   5.444   0.832   1.297
 2764SOL    HW1 9191   5.419   0.800   1.206
 2764SOL    HW2 9192   5.499   0.763   1.344
 2765SOL     OW 9193   6.063   1.070   1.801
 2765SOL    HW1 9194   6.072   1.069   1.901
 2765SOL    HW2 9195   6.152   1.090   1.760
 2766SOL     OW 9196   5.969   1.579   1.425
 2766SOL    HW1 9197   5.888   1.529   1.395
 2766SOL    HW2 9198   5.986   1.656   1.364
 2767SOL     OW 9199   5.267   3.522   6.119
 2767SOL    HW1 9200   5.333   3.595   6.136
 2767SOL    HW2 9201   5.177   3.551   6.153
 2768SOL     OW 9202   5.119   1.472   6.864
 2768SOL    HW1 9203   5.196   1.524   6.899
 2768SOL    HW2 9204   5.052   1.535   6.823
 2769SOL     OW 9205   0.102   4.133   2.006
 2769SOL    HW1 9206   0.132   4.228   2.017
 2769SOL    HW2 9207   0.181   4.073   2.008
 2770SOL     OW 9208   1.384   5.119   1.452
 2770SOL    HW1 9209   1.440   5.037   1.458
 2770SOL    HW2 9210   1.341   5.124   1.362
 2771SOL     OW 9211   5.493   2.171   1.258
 2771SOL    HW1 9212   5.468   2.257   1.302
 2771SOL    HW2 9213   5.530   2.190   1.166
 2772SOL     OW 9214   4.220   2.461   6.849
 2772SOL    HW1 9215   4.316   2.439   6.830
 2772SOL    HW2 9216   4.172   2.378   6.876
 2773SOL     OW 9217   4.178   4.357   6.661
 2773SOL    HW1 9218   4.195   4.407   6.746
 2773SOL    HW2 9219   4.085   4.319   6.663
 2774SOL     OW 9220   5.492   3.040   2.251
 2774SOL    HW1 9221   5.564   3.042   2.181
 2774SOL    HW2 9222   5.522   2.982   2.327
 2775SOL     OW 9223   0.126   5.430   0.902
 2775SOL    HW1 9224   0.200   5.454   0.965
 2775SOL    HW2 9225   0.039   5.461   0.941
 2776SOL     OW 9226   3.663   6.731   5.994
 2776SOL    HW1 9227   3.725   6.657   6.022
 2776SOL    HW2 9228   3.695   6.771   5.908
 2777SOL     OW 9229   3.153   1.453   2.593
 2777SOL    HW1 9230   3.220   1.448   2.519
 2777SOL    HW2 9231   3.126   1.361   2.620
 2778SOL     OW 9232   2.537   1.817   5.585
 2778SOL    HW1 9233   2.579   1.727   5.588
 2778SOL    HW2 9234   2.605   1.884   5.554
 2779SOL     OW 9235   5.326   0.056   6.785
 2779SOL    HW1 9236   5.294   0.048   6.880
 2779SOL    HW2 9237   5.395   0.127   6.780
 2780SOL     OW 9238   4.779   5.055   6.310
 2780SOL    HW1 9239   4.697   4.998   6.303
 2780SOL    HW2 9240   4.819   5.068   6.220
 2781SOL     OW 9241   6.035   4.503   1.585
 2781SOL    HW1 9242   5.935   4.511   1.587
 2781SOL    HW2 9243   6.060   4.413   1.548
 2782SOL     OW 9244   3.156   2.704   6.434
 2782SOL    HW1 9245   3.070   2.745   6.466
 2782SOL    HW2 9246   3.179   2.743   6.345
 2783SOL     OW 9247   6.931   4.578   5.703
 2783SOL    HW1 9248   6.943   4.480   5.689
 2783SOL    HW2 9249   6.883   4.594   5.790
 2784SOL     OW 9250   1.926   2.663   1.081
 2784SOL    HW1 9251   1.900   2.709   1.166
 2784SOL    HW2 9252   1.856   2.595   1.057
 2785SOL     OW 9253   6.631   0.812   0.307
 2785SOL    HW1 9254   6.698   0.758   0.357
 2785SOL    HW2 9255   6.579   0.751   0.246
 2786SOL     OW 9256   4.254   6.060   1.327
 2786SOL    HW1 9257   4.350   6.042   1.347
 2786SOL    HW2 9258   4.243   6.156   1.302
 2787SOL     OW 9259   1.739   2.920   6.282
 2787SOL    HW1 9260   1.713   2.977   6.204
 2787SOL    HW2 9261   1.764   2.979   6.359
 2788SOL     OW 9262   2.873   4.525   0.596
 2788SOL    HW1 9263   2.849   4.478   0.511
 2788SOL    HW2 9264   2.972   4.525   0.607
 2789SOL     OW 9265   1.001   1.681   4.170
 2789SOL    HW1 9266   0.926   1.652   4.229
 2789SOL    HW2 9267   1.032   1.604   4.114
 2790SOL     OW 9268   3.691   4.876   3.076
 2790SOL    HW1 9269   3.609   4.920   3.038
 2790SOL    HW2 9270   3.672   4.845   3.169
 2791SOL     OW 9271   1.399   3.723   4.763
 2791SOL    HW1 9272   1.305   3.750   4.742
 2791SOL    HW2 9273   1.410   3.625   4.746
 2792SOL     OW 9274   0.656   0.818   5.060
 2792SOL    HW1 9275   0.725   0.886   5.085
 2792SOL    HW2 9276   0.579   0.863   5.014
 2793SOL     OW 9277   5.509   1.245   2.639
 2793SOL    HW1 9278   5.516   1.225   2.541
 2793SOL    HW2 9279   5.473   1.337   2.652
 2794SOL     OW 9280   0.152   1.472   0.229
 2794SOL    HW1 9281   0.214   1.514   0.162
 2794SOL    HW2 9282   0.205   1.420   0.295
 2795SOL     OW 9283   2.796   3.994   1.379
 2795SOL    HW1 9284   2.832   3.975   1.287
 2795SOL    HW2 9285   2.696   3.994   1.376
 2796SOL     OW 9286   5.797   3.880   2.706
 2796SOL    HW1 9287   5.885   3.844   2.737
 2796SOL    HW2 9288   5.747   3.809   2.657
 2797SOL     OW 9289   4.632   5.510   4.945
 2797SOL    HW1 9290   4.642   5.430   5.005
 2797SOL    HW2 9291   4.717   5.524   4.895
 2798SOL     OW 9292   1.100   3.462   3.804
 2798SOL    HW1 9293   1.123   3.378   3.854
 2798SOL    HW2 9294   1.007   3.455   3.768
 2799SOL     OW 9295   6.929   5.164   6.196
 2799SOL    HW1 9296   6.860   5.174   6.124
 2799SOL    HW2 9297   6.934   5.249   6.249
 2800SOL     OW 9298   3.713   5.131   6.572
 2800SOL    HW1 9299   3.671   5.133   6.663
 2800SOL    HW2 9300   3.644   5.104   6.505
 2801SOL     OW 9301   5.101   5.327   2.550
 2801SOL    HW1 9302   5.109   5.421   2.583
 2801SOL    HW2 9303   5.176   5.272   2.588
 2802SOL     OW 9304   4.293   1.999   5.547
 2802SOL    HW1 9305   4.246   2.054   5.616
 2802SOL    HW2 9306   4.355   2.058   5.495
 2803SOL     OW 9307   2.500   6.688   6.356
 2803SOL    HW1 9308   2.567   6.762   6.351
 2803SOL    HW2 9309   2.546   6.600   6.343
 2804SOL     OW 9310   6.225   4.724   3.745
 2804SOL    HW1 9311   6.204   4.811   3.700
 2804SOL    HW2 9312   6.322   4.701   3.731
 2805SOL     OW 9313   5.073   3.194   1.224
 2805SOL    HW1 9314   5.099   3.261   1.293
 2805SOL    HW2 9315   5.047   3.241   1.139
 2806SOL     OW 9316   5.811   5.290   2.885
 2806SOL    HW1 9317   5.863   5.341   2.953
 2806SOL    HW2 9318   5.865   5.213   2.852
 2807SOL     OW 9319   4.155   4.712   3.507
 2807SOL    HW1 9320   4.247   4.710   3.468
 2807SOL    HW2 9321   4.096   4.770   3.450
 2808SOL     OW 9322   5.741   1.272   3.230
 2808SOL    HW1 9323   5.733   1.182   3.272
 2808SOL    HW2 9324   5.734   1.342   3.301
 2809SOL     OW 9325   6.117   2.550   1.021
 2809SOL    HW1 9326   6.206   2.523   0.984
 2809SOL    HW2 9327   6.069   2.606   0.953
 2810SOL     OW 9328   2.669   0.139   5.597
 2810SOL    HW1 9329   2.579   0.174   5.569
 2810SOL    HW2 9330   2.695   0.177   5.685
 2811SOL     OW 9331   0.627   1.191   2.986
 2811SOL    HW1 9332   0.632   1.092   2.991
 2811SOL    HW2 9333   0.717   1.228   2.961
 2812SOL     OW 9334   4.828   3.899   2.784
 2812SOL    HW1 9335   4.874   3.833   2.725
 2812SOL    HW2 9336   4.729   3.887   2.775
 2813SOL     OW 9337   5.846   6.740   5.871
 2813SOL    HW1 9338   5.913   6.812   5.888
 2813SOL    HW2 9339   5.862   6.664   5.933
 2814SOL     OW 9340   4.137   4.010   5.954
 2814SOL    HW1 9341   4.217   4.034   6.007
 2814SOL    HW2 9342   4.130   4.070   5.874
 2815SOL     OW 9343   6.610   1.198   4.794
 2815SOL    HW1 9344   6.593   1.290   4.827
 2815SOL    HW2 9345   6.674   1.152   4.856
 2816SOL     OW 9346   5.842   0.043   3.782
 2816SOL    HW1 9347   5.854   0.136   3.747
 2816SOL    HW2 9348   5.931   7.022   3.790
 2817SOL     OW 9349   1.525   1.145   1.602
 2817SOL    HW1 9350   1.451   1.163   1.666
 2817SOL    HW2 9351   1.581   1.227   1.591
 2818SOL     OW 9352   6.902   4.837   6.059
 2818SOL    HW1 9353   6.840   4.891   6.002
 2818SOL    HW2 9354   6.990   4.884   6.066
 2819SOL     OW 9355   0.259   3.282   0.545
 2819SOL    HW1 9356   0.241   3.203   0.603
 2819SOL    HW2 9357   0.185   3.292   0.478
 2820SOL     OW 9358   0.125   2.514   2.883
 2820SOL    HW1 9359   0.159   2.442   2.824
 2820SOL    HW2 9360   0.088   2.589   2.828
 2821SOL     OW 9361   1.750   4.542   5.484
 2821SOL    HW1 9362   1.741   4.442   5.484
 2821SOL    HW2 9363   1.677   4.582   5.429
 2822SOL     OW 9364   5.152   2.155   0.256
 2822SOL    HW1 9365   5.210   2.151   0.174
 2822SOL    HW2 9366   5.159   2.069   0.306
 2823SOL     OW 9367   2.428   6.750   2.671
 2823SOL    HW1 9368   2.464   6.793   2.753
 2823SOL    HW2 9369   2.501   6.700   2.624
 2824SOL     OW 9370   2.299   1.393   5.245
 2824SOL    HW1 9371   2.303   1.484   5.203
 2824SOL    HW2 9372   2.206   1.357   5.238
 2825SOL     OW 9373   6.938   6.326   1.027
 2825SOL    HW1 9374   6.970   6.417   1.000
 2825SOL    HW2 9375   7.016   6.264   1.029
 2826SOL     OW 9376   4.988   2.376   5.400
 2826SOL    HW1 9377   4.997   2.374   5.300
 2826SOL    HW2 9378   4.957   2.287   5.432
 2827SOL     OW 9379   6.458   1.030   5.162
 2827SOL    HW1 9380   6.534   1.093   5.179
 2827SOL    HW2 9381   6.476   0.942   5.207
 2828SOL     OW 9382   4.062   0.876   6.274
 2828SOL    HW1 9383   3.995   0.915   6.337
 2828SOL    HW2 9384   4.143   0.934   6.272
 2829SOL     OW 9385   3.890   5.859   6.116
 2829SOL    HW1 9386   3.856   5.785   6.058
 2829SOL    HW2 9387   3.927   5.821   6.201
 2830SOL     OW 9388   4.879   3.409   6.051
 2830SOL    HW1 9389   4.947   3.359   5.996
 2830SOL    HW2 9390   4.852   3.353   6.129
 2831SOL     OW 9391   5.697   6.317   4.314
 2831SOL    HW1 9392   5.722   6.395   4.371
 2831SOL    HW2 9393   5.607   6.332   4.274
 2832SOL     OW 9394   0.155   1.286   1.111
 2832SOL    HW1 9395   0.129   1.236   1.028
 2832SOL    HW2 9396   0.230   1.238   1.157
 2833SOL     OW 9397   6.176   2.553   1.886
 2833SOL    HW1 9398   6.273   2.576   1.891
 2833SOL    HW2 9399   6.152   2.528   1.793
 2834SOL     OW 9400   3.657   1.390   6.306
 2834SOL    HW1 9401   3.709   1.462   6.262
 2834SOL    HW2 9402   3.670   1.395   6.405
 2835SOL     OW 9403   0.601   6.401   2.256
 2835SOL    HW1 9404   0.513   6.354   2.250
 2835SOL    HW2 9405   0.614   6.436   2.348
 2836SOL     OW 9406   0.121   6.950   1.969
 2836SOL    HW1 9407   0.101   6.954   2.067
 2836SOL    HW2 9408   0.057   7.009   1.919
 2837SOL     OW 9409   5.415   3.670   3.417
 2837SOL    HW1 9410   5.367   3.624   3.343
 2837SOL    HW2 9411   5.492   3.614   3.447
 2838SOL     OW 9412   2.630   4.668   1.808
 2838SOL    HW1 9413   2.647   4.653   1.711
 2838SOL    HW2 9414   2.715   4.656   1.860
 2839SOL     OW 9415   5.608   1.598   1.621
 2839SOL    HW1 9416   5.577   1.506   1.643
 2839SOL    HW2 9417   5.702   1.610   1.653
 2840SOL     OW 9418   0.123   1.380   5.241
 2840SOL    HW1 9419   0.179   1.431   5.306
 2840SOL    HW2 9420   0.098   1.291   5.281
 2841SOL     OW 9421   1.118   5.756   1.014
 2841SOL    HW1 9422   1.143   5.750   0.917
 2841SOL    HW2 9423   1.186   5.706   1.069
 2842SOL     OW 9424   6.670   3.409   3.771
 2842SOL    HW1 9425   6.616   3.432   3.853
 2842SOL    HW2 9426   6.751   3.358   3.799
 2843SOL     OW 9427   3.543   1.079   5.154
 2843SOL    HW1 9428   3.489   1.027   5.087
 2843SOL    HW2 9429   3.637   1.089   5.121
 2844SOL     OW 9430   1.173   4.182   6.934
 2844SOL    HW1 9431   1.157   4.095   6.888
 2844SOL    HW2 9432   1.226   4.243   6.874
 2845SOL     OW 9433   0.468   3.937   0.007
 2845SOL    HW1 9434   0.454   3.946   6.932
 2845SOL    HW2 9435   0.498   3.843   0.028
 2846SOL     OW 9436   4.793   1.438   0.052
 2846SOL    HW1 9437   4.884   1.464   0.084
 2846SOL    HW2 9438   4.797   1.347   0.010
 2847SOL     OW 9439   5.681   4.365   3.647
 2847SOL    HW1 9440   5.712   4.272   3.630
 2847SOL    HW2 9441   5.683   4.417   3.561
 2848SOL     OW 9442   0.387   4.694   5.536
 2848SOL    HW1 9443   0.408   4.703   5.439
 2848SOL    HW2 9444   0.369   4.784   5.575
 2849SOL     OW 9445   3.362   1.370   0.432
 2849SOL    HW1 9446   3.420   1.422   0.369
 2849SOL    HW2 9447   3.350   1.277   0.398
 2850SOL     OW 9448   3.550   0.224   1.478
 2850SOL    HW1 9449   3.541   0.303   1.419
 2850SOL    HW2 9450   3.505   0.242   1.566
 2851SOL     OW 9451   0.983   4.531   5.425
 2851SOL    HW1 9452   1.005   4.590   5.502
 2851SOL    HW2 9453   1.062   4.525   5.364
 2852SOL     OW 9454   6.180   3.396   6.843
 2852SOL    HW1 9455   6.191   3.318   6.906
 2852SOL    HW2 9456   6.112   3.459   6.880
 2853SOL     OW 9457   3.304   2.446   0.925
 2853SOL    HW1 9458   3.364   2.478   0.998
 2853SOL    HW2 9459   3.215   2.421   0.963
 2854SOL     OW 9460   2.500   0.769   4.318
 2854SOL    HW1 9461   2.533   0.704   4.249
 2854SOL    HW2 9462   2.491   0.723   4.406
 2855SOL     OW 9463   1.894   0.690   5.619
 2855SOL    HW1 9464   1.801   0.670   5.649
 2855SOL    HW2 9465   1.896   0.776   5.568
 2856SOL     OW 9466   2.443   2.314   5.229
 2856SOL    HW1 9467   2.477   2.354   5.314
 2856SOL    HW2 9468   2.365   2.367   5.196
 2857SOL     OW 9469   2.833   2.119   1.351
 2857SOL    HW1 9470   2.894   2.192   1.383
 2857SOL    HW2 9471   2.851   2.100   1.255
 2858SOL     OW 9472   6.488   2.818   2.382
 2858SOL    HW1 9473   6.498   2.770   2.295
 2858SOL    HW2 9474   6.546   2.899   2.382
 2859SOL     OW 9475   4.860   0.962   0.717
 2859SOL    HW1 9476   4.866   0.908   0.633
 2859SOL    HW2 9477   4.942   1.018   0.727
 2860SOL     OW 9478   3.850   1.929   1.629
 2860SOL    HW1 9479   3.751   1.931   1.614
 2860SOL    HW2 9480   3.885   2.022   1.632
 2861SOL     OW 9481   4.137   5.877   5.599
 2861SOL    HW1 9482   4.221   5.867   5.652
 2861SOL    HW2 9483   4.160   5.905   5.506
 2862SOL     OW 9484   5.228   1.233   3.735
 2862SOL    HW1 9485   5.148   1.290   3.718
 2862SOL    HW2 9486   5.199   1.140   3.757
 2863SOL     OW 9487   6.215   2.148   0.305
 2863SOL    HW1 9488   6.290   2.137   0.370
 2863SOL    HW2 9489   6.253   2.160   0.213
 2864SOL     OW 9490   3.994   0.503   1.375
 2864SOL    HW1 9491   3.954   0.578   1.322
 2864SOL    HW2 9492   3.922   0.440   1.405
 2865SOL     OW 9493   4.391   4.414   5.359
 2865SOL    HW1 9494   4.328   4.428   5.283
 2865SOL    HW2 9495   4.482   4.448   5.334
 2866SOL     OW 9496   6.934   5.884   6.770
 2866SOL    HW1 9497   6.897   5.842   6.853
 2866SOL    HW2 9498   6.859   5.911   6.710
 2867SOL     OW 9499   6.118   5.243   2.623
 2867SOL    HW1 9500   6.046   5.218   2.558
 2867SOL    HW2 9501   6.138   5.340   2.616
 2868SOL     OW 9502   0.323   3.991   5.125
 2868SOL    HW1 9503   0.258   4.045   5.179
 2868SOL    HW2 9504   0.273   3.938   5.057
 2869SOL     OW 9505   6.025   0.424   2.220
 2869SOL    HW1 9506   6.053   0.335   2.257
 2869SOL    HW2 9507   5.957   0.465   2.281
 2870SOL     OW 9508   6.372   2.050   3.201
 2870SOL    HW1 9509   6.327   2.065   3.289
 2870SOL    HW2 9510   6.307   2.065   3.127
 2871SOL     OW 9511   1.808   1.939   6.498
 2871SOL    HW1 9512   1.828   2.019   6.441
 2871SOL    HW2 9513   1.838   1.957   6.592
 2872SOL     OW 9514   2.596   0.572   4.123
 2872SOL    HW1 9515   2.652   0.540   4.199
 2872SOL    HW2 9516   2.608   0.511   4.045
 2873SOL     OW 9517   0.962   5.979   2.907
 2873SOL    HW1 9518   1.046   5.957   2.856
 2873SOL    HW2 9519   0.955   6.078   2.919
 2874SOL     OW 9520   5.208   3.940   2.546
 2874SOL    HW1 9521   5.131   3.895   2.590
 2874SOL    HW2 9522   5.176   3.996   2.470
 2875SOL     OW 9523   3.631   6.420   6.154
 2875SOL    HW1 9524   3.600   6.330   6.122
 2875SOL    HW2 9525   3.612   6.429   6.251
 2876SOL     OW 9526   0.762   1.334   1.679
 2876SOL    HW1 9527   0.772   1.360   1.583
 2876SOL    HW2 9528   0.782   1.413   1.737
 2877SOL     OW 9529   2.948   2.894   5.292
 2877SOL    HW1 9530   2.998   2.929   5.212
 2877SOL    HW2 9531   2.882   2.963   5.322
 2878SOL     OW 9532   2.342   4.459   4.591
 2878SOL    HW1 9533   2.370   4.382   4.648
 2878SOL    HW2 9534   2.286   4.426   4.515
 2879SOL     OW 9535   4.747   5.211   6.965
 2879SOL    HW1 9536   4.706   5.127   6.929
 2879SOL    HW2 9537   4.688   5.249   0.013
 2880SOL     OW 9538   0.527   5.963   1.373
 2880SOL    HW1 9539   0.528   5.864   1.383
 2880SOL    HW2 9540   0.605   5.992   1.317
 2881SOL     OW 9541   6.421   6.340   0.728
 2881SOL    HW1 9542   6.333   6.331   0.681
 2881SOL    HW2 9543   6.444   6.254   0.773
 2882SOL     OW 9544   0.181   3.044   2.375
 2882SOL    HW1 9545   0.196   3.141   2.392
 2882SOL    HW2 9546   0.107   3.034   2.308
 2883SOL     OW 9547   3.802   6.912   3.101
 2883SOL    HW1 9548   3.842   6.991   3.147
 2883SOL    HW2 9549   3.854   6.892   3.018
 2884SOL     OW 9550   0.877   6.236   2.896
 2884SOL    HW1 9551   0.874   6.255   2.994
 2884SOL    HW2 9552   0.784   6.234   2.859
 2885SOL     OW 9553   0.618   2.085   2.804
 2885SOL    HW1 9554   0.588   2.059   2.711
 2885SOL    HW2 9555   0.692   2.025   2.833
 2886SOL     OW 9556   1.724   2.350   0.187
 2886SOL    HW1 9557   1.763   2.259   0.192
 2886SOL    HW2 9558   1.728   2.384   0.093
 2887SOL     OW 9559   2.208   0.377   5.082
 2887SOL    HW1 9560   2.266   0.452   5.053
 2887SOL    HW2 9561   2.252   0.290   5.061
 2888SOL     OW 9562   6.799   4.465   6.896
 2888SOL    HW1 9563   6.882   4.469   6.839
 2888SOL    HW2 9564   6.735   4.400   6.856
 2889SOL     OW 9565   0.866   0.901   1.838
 2889SOL    HW1 9566   0.873   0.971   1.768
 2889SOL    HW2 9567   0.882   0.811   1.797
 2890SOL     OW 9568   3.318   0.702   1.554
 2890SOL    HW1 9569   3.237   0.744   1.595
 2890SOL    HW2 9570   3.320   0.605   1.576
 2891SOL     OW 9571   1.960   4.390   3.444
 2891SOL    HW1 9572   1.881   4.410   3.503
 2891SOL    HW2 9573   1.986   4.295   3.455
 2892SOL     OW 9574   3.536   4.326   6.632
 2892SOL    HW1 9575   3.613   4.263   6.622
 2892SOL    HW2 9576   3.451   4.280   6.610
 2893SOL     OW 9577   2.369   6.728   5.066
 2893SOL    HW1 9578   2.371   6.638   5.024
 2893SOL    HW2 9579   2.304   6.787   5.017
 2894SOL     OW 9580   2.927   2.692   6.979
 2894SOL    HW1 9581   2.872   2.757   0.007
 2894SOL    HW2 9582   2.951   2.732   6.890
 2895SOL     OW 9583   3.930   2.853   6.490
 2895SOL    HW1 9584   3.893   2.850   6.397
 2895SOL    HW2 9585   3.870   2.801   6.551
 2896SOL     OW 9586   2.263   5.472   0.034
 2896SOL    HW1 9587   2.177   5.514   0.064
 2896SOL    HW2 9588   2.287   5.397   0.095
 2897SOL     OW 9589   2.756   6.565   3.481
 2897SOL    HW1 9590   2.712   6.475   3.483
 2897SOL    HW2 9591   2.776   6.590   3.386
 2898SOL     OW 9592   4.457   5.108   2.696
 2898SOL    HW1 9593   4.374   5.102   2.641
 2898SOL    HW2 9594   4.432   5.123   2.792
 2899SOL     OW 9595   0.135   7.015   6.629
 2899SOL    HW1 9596   0.056   6.954   6.630
 2899SOL    HW2 9597   0.219   6.961   6.619
 2900SOL     OW 9598   1.052   4.898   5.852
 2900SOL    HW1 9599   1.102   4.964   5.796
 2900SOL    HW2 9600   1.117   4.846   5.907
 2901SOL     OW 9601   2.576   0.744   2.734
 2901SOL    HW1 9602   2.526   0.825   2.763
 2901SOL    HW2 9603   2.651   0.771   2.673
 2902SOL     OW 9604   5.421   6.636   0.882
 2902SOL    HW1 9605   5.437   6.654   0.785
 2902SOL    HW2 9606   5.322   6.624   0.898
 2903SOL     OW 9607   2.656   0.941   1.837
 2903SOL    HW1 9608   2.676   1.033   1.870
 2903SOL    HW2 9609   2.708   0.875   1.891
 2904SOL     OW 9610   2.223   3.238   5.191
 2904SOL    HW1 9611   2.268   3.326   5.204
 2904SOL    HW2 9612   2.281   3.165   5.225
 2905SOL     OW 9613   1.538   0.876   2.465
 2905SOL    HW1 9614   1.565   0.962   2.421
 2905SOL    HW2 9615   1.440   0.863   2.455
 2906SOL     OW 9616   5.476   4.908   2.065
 2906SOL    HW1 9617   5.461   4.906   2.164
 2906SOL    HW2 9618   5.504   5.000   2.038
 2907SOL     OW 9619   0.023   2.135   5.389
 2907SOL    HW1 9620   0.093   2.100   5.451
 2907SOL    HW2 9621   6.976   2.065   5.376
 2908SOL     OW 9622   4.096   6.728   4.325
 2908SOL    HW1 9623   4.038   6.648   4.318
 2908SOL    HW2 9624   4.061   6.800   4.265
 2909SOL     OW 9625   0.997   5.589   4.416
 2909SOL    HW1 9626   0.978   5.522   4.344
 2909SOL    HW2 9627   0.972   5.680   4.385
 2910SOL     OW 9628   3.443   6.607   5.046
 2910SOL    HW1 9629   3.514   6.640   4.984
 2910SOL    HW2 9630   3.370   6.563   4.994
 2911SOL     OW 9631   2.300   4.997   3.412
 2911SOL    HW1 9632   2.231   5.021   3.480
 2911SOL    HW2 9633   2.277   4.909   3.370
 2912SOL     OW 9634   2.874   5.962   0.378
 2912SOL    HW1 9635   2.856   6.034   0.445
 2912SOL    HW2 9636   2.934   5.893   0.418
 2913SOL     OW 9637   1.525   3.604   2.426
 2913SOL    HW1 9638   1.566   3.539   2.362
 2913SOL    HW2 9639   1.590   3.678   2.445
 2914SOL     OW 9640   5.503   4.222   6.089
 2914SOL    HW1 9641   5.414   4.220   6.043
 2914SOL    HW2 9642   5.575   4.208   6.021
 2915SOL     OW 9643   4.333   1.256   4.443
 2915SOL    HW1 9644   4.238   1.259   4.410
 2915SOL    HW2 9645   4.382   1.184   4.394
 2916SOL     OW 9646   6.151   4.347   5.206
 2916SOL    HW1 9647   6.180   4.394   5.123
 2916SOL    HW2 9648   6.225   4.289   5.240
 2917SOL     OW 9649   3.834   0.063   0.949
 2917SOL    HW1 9650   3.773   0.141   0.937
 2917SOL    HW2 9651   3.907   0.087   1.012
 2918SOL     OW 9652   0.477   3.622   3.354
 2918SOL    HW1 9653   0.384   3.586   3.366
 2918SOL    HW2 9654   0.541   3.565   3.404
 2919SOL     OW 9655   6.551   6.513   0.039
 2919SOL    HW1 9656   6.578   6.553   0.127
 2919SOL    HW2 9657   6.608   6.551   6.990
 2920SOL     OW 9658   3.963   2.216   2.584
 2920SOL    HW1 9659   3.910   2.241   2.502
 2920SOL    HW2 9660   3.902   2.172   2.650
 2921SOL     OW 9661   6.991   1.171   2.769
 2921SOL    HW1 9662   7.006   1.267   2.746
 2921SOL    HW2 9663   6.927   1.164   2.845
 2922SOL     OW 9664   4.871   0.063   5.699
 2922SOL    HW1 9665   4.914   0.101   5.617
 2922SOL    HW2 9666   4.926   0.087   5.780
 2923SOL     OW 9667   0.006   5.023   2.355
 2923SOL    HW1 9668   6.956   4.970   2.395
 2923SOL    HW2 9669   0.089   5.012   2.411
 2924SOL     OW 9670   0.664   1.174   5.584
 2924SOL    HW1 9671   0.686   1.235   5.660
 2924SOL    HW2 9672   0.636   1.227   5.505
 2925SOL     OW 9673   5.564   2.843   1.822
 2925SOL    HW1 9674   5.473   2.807   1.839
 2925SOL    HW2 9675   5.633   2.773   1.841
 2926SOL     OW 9676   6.850   1.983   4.994
 2926SOL    HW1 9677   6.833   2.029   5.081
 2926SOL    HW2 9678   6.871   2.051   4.924
 2927SOL     OW 9679   1.093   2.528   2.684
 2927SOL    HW1 9680   1.069   2.432   2.670
 2927SOL    HW2 9681   1.192   2.539   2.677
 2928SOL     OW 9682   6.995   0.415   6.916
 2928SOL    HW1 9683   0.024   0.425   7.001
 2928SOL    HW2 9684   6.973   0.318   6.902
 2929SOL     OW 9685   0.680   0.580   6.708
 2929SOL    HW1 9686   0.729   0.654   6.661
 2929SOL    HW2 9687   0.725   0.493   6.688
 2930SOL     OW 9688   5.168   0.303   4.556
 2930SOL    HW1 9689   5.264   0.330   4.551
 2930SOL    HW2 9690   5.153   0.243   4.635
 2931SOL     OW 9691   4.652   6.332   6.584
 2931SOL    HW1 9692   4.670   6.247   6.635
 2931SOL    HW2 9693   4.596   6.312   6.505
 2932SOL     OW 9694   1.365   4.152   1.717
 2932SOL    HW1 9695   1.330   4.101   1.796
 2932SOL    HW2 9696   1.324   4.244   1.717
 2933SOL     OW 9697   5.186   2.971   3.813
 2933SOL    HW1 9698   5.256   2.912   3.773
 2933SOL    HW2 9699   5.226   3.024   3.888
 2934SOL     OW 9700   3.428   0.112   0.304
 2934SOL    HW1 9701   3.488   0.060   0.363
 2934SOL    HW2 9702   3.409   0.059   0.221
 2935SOL     OW 9703   6.186   3.620   1.136
 2935SOL    HW1 9704   6.224   3.703   1.094
 2935SOL    HW2 9705   6.244   3.593   1.212
 2936SOL     OW 9706   4.819   5.448   0.723
 2936SOL    HW1 9707   4.766   5.508   0.783
 2936SOL    HW2 9708   4.818   5.484   0.630
 2937SOL     OW 9709   3.497   5.193   0.865
 2937SOL    HW1 9710   3.462   5.182   0.958
 2937SOL    HW2 9711   3.591   5.158   0.861
 2938SOL     OW 9712   4.724   5.508   5.580
 2938SOL    HW1 9713   4.663   5.502   5.501
 2938SOL    HW2 9714   4.698   5.438   5.647
 2939SOL     OW 9715   5.915   0.100   5.268
 2939SOL    HW1 9716   5.974   0.056   5.336
 2939SOL    HW2 9717   5.896   0.194   5.297
 2940SOL     OW 9718   5.467   0.319   5.086
 2940SOL    HW1 9719   5.368   0.307   5.076
 2940SOL    HW2 9720   5.506   0.238   5.128
 2941SOL     OW 9721   0.866   1.913   5.060
 2941SOL    HW1 9722   0.888   1.841   4.994
 2941SOL    HW2 9723   0.773   1.900   5.093
 2942SOL     OW 9724   3.407   0.481   2.281
 2942SOL    HW1 9725   3.308   0.489   2.275
 2942SOL    HW2 9726   3.433   0.385   2.274
 2943SOL     OW 9727   6.150   3.387   2.734
 2943SOL    HW1 9728   6.177   3.297   2.699
 2943SOL    HW2 9729   6.216   3.416   2.803
 2944SOL     OW 9730   3.303   4.891   4.933
 2944SOL    HW1 9731   3.211   4.855   4.915
 2944SOL    HW2 9732   3.337   4.937   4.851
 2945SOL     OW 9733   3.548   3.164   3.250
 2945SOL    HW1 9734   3.580   3.074   3.279
 2945SOL    HW2 9735   3.529   3.221   3.330
 2946SOL     OW 9736   6.621   5.781   5.849
 2946SOL    HW1 9737   6.616   5.817   5.942
 2946SOL    HW2 9738   6.592   5.851   5.784
 2947SOL     OW 9739   6.638   3.941   6.194
 2947SOL    HW1 9740   6.636   3.975   6.288
 2947SOL    HW2 9741   6.550   3.959   6.150
 2948SOL     OW 9742   6.350   4.006   4.974
 2948SOL    HW1 9743   6.375   4.031   4.881
 2948SOL    HW2 9744   6.383   3.914   4.994
 2949SOL     OW 9745   1.937   6.825   0.888
 2949SOL    HW1 9746   1.869   6.839   0.816
 2949SOL    HW2 9747   2.024   6.798   0.846
 2950SOL     OW 9748   6.020   3.697   4.375
 2950SOL    HW1 9749   5.929   3.661   4.355
 2950SOL    HW2 9750   6.083   3.675   4.301
 2951SOL     OW 9751   0.024   1.708   0.395
 2951SOL    HW1 9752   0.081   1.747   0.468
 2951SOL    HW2 9753   0.060   1.619   0.369
 2952SOL     OW 9754   1.044   4.195   3.261
 2952SOL    HW1 9755   1.098   4.112   3.253
 2952SOL    HW2 9756   1.075   4.262   3.194
 2953SOL     OW 9757   4.961   1.908   2.255
 2953SOL    HW1 9758   4.892   1.837   2.238
 2953SOL    HW2 9759   4.920   1.998   2.243
 2954SOL     OW 9760   0.235   6.451   2.545
 2954SOL    HW1 9761   0.147   6.473   2.587
 2954SOL    HW2 9762   0.232   6.471   2.447
 2955SOL     OW 9763   0.344   3.384   0.919
 2955SOL    HW1 9764   0.326   3.431   0.832
 2955SOL    HW2 9765   0.409   3.437   0.972
 2956SOL     OW 9766   0.136   5.382   3.064
 2956SOL    HW1 9767   0.173   5.457   3.010
 2956SOL    HW2 9768   0.194   5.301   3.053
 2957SOL     OW 9769   0.011   3.849   1.306
 2957SOL    HW1 9770   0.013   3.940   1.265
 2957SOL    HW2 9771   6.959   3.843   1.371
 2958SOL     OW 9772   1.368   4.707   5.741
 2958SOL    HW1 9773   1.416   4.788   5.708
 2958SOL    HW2 9774   1.410   4.625   5.703
 2959SOL     OW 9775   5.284   4.672   6.039
 2959SOL    HW1 9776   5.295   4.627   5.950
 2959SOL    HW2 9777   5.290   4.771   6.027
 2960SOL     OW 9778   2.617   1.885   0.053
 2960SOL    HW1 9779   2.662   1.969   0.025
 2960SOL    HW2 9780   2.682   1.827   0.103
 2961SOL     OW 9781   5.495   3.605   4.319
 2961SOL    HW1 9782   5.556   3.626   4.395
 2961SOL    HW2 9783   5.486   3.685   4.260
 2962SOL     OW 9784   4.507   1.166   3.837
 2962SOL    HW1 9785   4.512   1.081   3.786
 2962SOL    HW2 9786   4.536   1.242   3.778
 2963SOL     OW 9787   1.773   1.057   5.945
 2963SOL    HW1 9788   1.814   1.129   5.889
 2963SOL    HW2 9789   1.688   1.026   5.901
 2964SOL     OW 9790   1.876   6.491   1.488
 2964SOL    HW1 9791   1.890   6.580   1.530
 2964SOL    HW2 9792   1.780   6.481   1.461
 2965SOL     OW 9793   0.216   1.014   5.581
 2965SOL    HW1 9794   0.189   1.088   5.643
 2965SOL    HW2 9795   0.225   0.929   5.632
 2966SOL     OW 9796   5.270   4.430   3.982
 2966SOL    HW1 9797   5.191   4.368   3.984
 2966SOL    HW2 9798   5.280   4.473   4.071
 2967SOL     OW 9799   5.393   2.267   3.510
 2967SOL    HW1 9800   5.429   2.183   3.551
 2967SOL    HW2 9801   5.424   2.273   3.415
 2968SOL     OW 9802   0.569   3.962   4.479
 2968SOL    HW1 9803   0.551   3.955   4.577
 2968SOL    HW2 9804   0.490   3.927   4.428
 2969SOL     OW 9805   5.741   2.066   4.728
 2969SOL    HW1 9806   5.676   2.098   4.797
 2969SOL    HW2 9807   5.693   2.049   4.642
 2970SOL     OW 9808   0.809   4.312   6.440
 2970SOL    HW1 9809   0.764   4.242   6.495
 2970SOL    HW2 9810   0.894   4.339   6.484
 2971SOL     OW 9811   6.061   3.062   3.487
 2971SOL    HW1 9812   6.023   2.970   3.503
 2971SOL    HW2 9813   5.990   3.130   3.500
 2972SOL     OW 9814   6.286   3.253   6.415
 2972SOL    HW1 9815   6.345   3.313   6.468
 2972SOL    HW2 9816   6.190   3.280   6.428
 2973SOL     OW 9817   5.615   0.652   3.692
 2973SOL    HW1 9818   5.540   0.711   3.719
 2973SOL    HW2 9819   5.696   0.672   3.747
 2974SOL     OW 9820   6.588   4.533   2.812
 2974SOL    HW1 9821   6.539   4.527   2.899
 2974SOL    HW2 9822   6.649   4.454   2.803
 2975SOL     OW 9823   0.585   1.353   5.386
 2975SOL    HW1 9824   0.647   1.412   5.335
 2975SOL    HW2 9825   0.497   1.346   5.339
 2976SOL     OW 9826   4.324   1.500   2.691
 2976SOL    HW1 9827   4.316   1.594   2.659
 2976SOL    HW2 9828   4.420   1.471   2.686
 2977SOL     OW 9829   2.836   6.965   4.294
 2977SOL    HW1 9830   2.755   7.016   4.266
 2977SOL    HW2 9831   2.906   6.971   4.223
 2978SOL     OW 9832   4.807   4.734   7.002
 2978SOL    HW1 9833   4.799   4.749   6.904
 2978SOL    HW2 9834   4.752   4.802   0.027
 2979SOL     OW 9835   3.601   0.172   2.983
 2979SOL    HW1 9836   3.584   0.088   3.034
 2979SOL    HW2 9837   3.627   0.245   3.046
 2980SOL     OW 9838   0.675   6.585   4.121
 2980SOL    HW1 9839   0.691   6.491   4.094
 2980SOL    HW2 9840   0.760   6.626   4.154
 2981SOL     OW 9841   1.599   0.886   5.808
 2981SOL    HW1 9842   1.643   0.807   5.766
 2981SOL    HW2 9843   1.543   0.933   5.740
 2982SOL     OW 9844   4.481   5.773   2.569
 2982SOL    HW1 9845   4.450   5.850   2.513
 2982SOL    HW2 9846   4.422   5.695   2.552
 2983SOL     OW 9847   0.151   0.949   4.536
 2983SOL    HW1 9848   0.171   0.980   4.629
 2983SOL    HW2 9849   0.063   0.986   4.507
 2984SOL     OW 9850   6.513   5.419   1.802
 2984SOL    HW1 9851   6.476   5.393   1.891
 2984SOL    HW2 9852   6.466   5.501   1.769
 2985SOL     OW 9853   0.410   1.798   4.424
 2985SOL    HW1 9854   0.463   1.731   4.476
 2985SOL    HW2 9855   0.413   1.886   4.470
 2986SOL     OW 9856   1.500   3.444   5.184
 2986SOL    HW1 9857   1.519   3.389   5.103
 2986SOL    HW2 9858   1.477   3.537   5.157
 2987SOL     OW 9859   4.079   1.323   4.713
 2987SOL    HW1 9860   4.144   1.248   4.707
 2987SOL    HW2 9861   4.115   1.403   4.664
 2988SOL     OW 9862   0.954   0.360   1.570
 2988SOL    HW1 9863   0.868   0.406   1.549
 2988SOL    HW2 9864   1.026   0.392   1.508
 2989SOL     OW 9865   6.599   4.586   1.424
 2989SOL    HW1 9866   6.522   4.560   1.366
 2989SOL    HW2 9867   6.684   4.552   1.384
 2990SOL     OW 9868   3.140   0.647   2.587
 2990SOL    HW1 9869   3.147   0.644   2.487
 2990SOL    HW2 9870   3.219   0.697   2.624
 2991SOL     OW 9871   0.284   3.892   0.478
 2991SOL    HW1 9872   0.241   3.828   0.543
 2991SOL    HW2 9873   0.217   3.961   0.451
 2992SOL     OW 9874   3.227   5.739   6.410
 2992SOL    HW1 9875   3.163   5.754   6.334
 2992SOL    HW2 9876   3.316   5.776   6.386
 2993SOL     OW 9877   1.920   4.844   1.585
 2993SOL    HW1 9878   1.955   4.795   1.506
 2993SOL    HW2 9879   1.912   4.781   1.663
 2994SOL     OW 9880   4.898   0.652   0.027
 2994SOL    HW1 9881   4.988   0.695   0.030
 2994SOL    HW2 9882   4.887   0.592   0.106
 2995SOL     OW 9883   1.129   2.075   0.313
 2995SOL    HW1 9884   1.206   2.023   0.350
 2995SOL    HW2 9885   1.077   2.115   0.388
 2996SOL     OW 9886   3.011   5.260   5.212
 2996SOL    HW1 9887   2.929   5.272   5.268
 2996SOL    HW2 9888   3.043   5.165   5.219
 2997SOL     OW 9889   5.839   6.158   1.352
 2997SOL    HW1 9890   5.839   6.132   1.256
 2997SOL    HW2 9891   5.932   6.182   1.380
 2998SOL     OW 9892   5.607   6.221   3.876
 2998SOL    HW1 9893   5.536   6.186   3.938
 2998SOL    HW2 9894   5.617   6.159   3.799
 2999SOL     OW 9895   3.625   6.464   3.201
 2999SOL    HW1 9896   3.650   6.559   3.217
 2999SOL    HW2 9897   3.620   6.415   3.288
 3000SOL     OW 9898   1.590   2.947   5.620
 3000SOL    HW1 9899   1.529   2.975   5.694
 3000SOL    HW2 9900   1.664   2.891   5.658
 3001SOL     OW 9901   5.023   0.522   5.578
 3001SOL    HW1 9902   4.955   0.556   5.643
 3001SOL    HW2 9903   5.115   0.537   5.615
 3002SOL     OW 9904   4.358   6.961   5.284
 3002SOL    HW1 9905   4.424   6.909   5.338
 3002SOL    HW2 9906   4.352   0.030   5.320
 3003SOL     OW 9907   2.723   6.266   5.626
 3003SOL    HW1 9908   2.678   6.276   5.715
 3003SOL    HW2 9909   2.668   6.309   5.555
 3004SOL     OW 9910   6.079   4.093   3.884
 3004SOL    HW1 9911   6.006   4.107   3.951
 3004SOL    HW2 9912   6.095   4.178   3.834
 3005SOL     OW 9913   3.437   2.930   1.275
 3005SOL    HW1 9914   3.398   3.018   1.247
 3005SOL    HW2 9915   3.498   2.945   1.353
 3006SOL     OW 9916   5.388   1.221   0.862
 3006SOL    HW1 9917   5.471   1.252   0.907
 3006SOL    HW2 9918   5.315   1.288   0.875
 3007SOL     OW 9919   6.118   4.685   2.837
 3007SOL    HW1 9920   6.168   4.614   2.789
 3007SOL    HW2 9921   6.182   4.742   2.890
 3008SOL     OW 9922   3.273   6.809   6.235
 3008SOL    HW1 9923   3.323   6.839   6.154
 3008SOL    HW2 9924   3.280   6.878   6.307
 3009SOL     OW 9925   1.121   0.340   2.111
 3009SOL    HW1 9926   1.160   0.374   2.026
 3009SOL    HW2 9927   1.164   0.387   2.188
 3010SOL     OW 9928   3.854   5.117   3.140
 3010SOL    HW1 9929   3.807   5.204   3.156
 3010SOL    HW2 9930   3.787   5.046   3.121
 3011SOL     OW 9931   6.194   0.358   6.868
 3011SOL    HW1 9932   6.275   0.362   6.810
 3011SOL    HW2 9933   6.222   0.338   6.962
 3012SOL     OW 9934   0.090   3.624   3.667
 3012SOL    HW1 9935   0.151   3.635   3.746
 3012SOL    HW2 9936   7.022   3.601   3.698
 3013SOL     OW 9937   6.107   5.890   2.356
 3013SOL    HW1 9938   6.140   5.925   2.443
 3013SOL    HW2 9939   6.013   5.920   2.341
 3014SOL     OW 9940   5.068   1.438   4.324
 3014SOL    HW1 9941   5.025   1.528   4.318
 3014SOL    HW2 9942   5.140   1.431   4.255
 3015SOL     OW 9943   2.442   2.308   0.573
 3015SOL    HW1 9944   2.448   2.224   0.519
 3015SOL    HW2 9945   2.495   2.380   0.528
 3016SOL     OW 9946   3.613   6.200   4.137
 3016SOL    HW1 9947   3.594   6.238   4.228
 3016SOL    HW2 9948   3.530   6.158   4.101
 3017SOL     OW 9949   1.590   6.174   1.580
 3017SOL    HW1 9950   1.587   6.248   1.648
 3017SOL    HW2 9951   1.644   6.098   1.616
 3018SOL     OW 9952   4.144   0.187   6.968
 3018SOL    HW1 9953   4.176   0.281   6.962
 3018SOL    HW2 9954   4.178   0.135   6.890
 3019SOL     OW 9955   3.441   5.960   0.927
 3019SOL    HW1 9956   3.431   6.059   0.933
 3019SOL    HW2 9957   3.353   5.916   0.945
 3020SOL     OW 9958   2.969   3.769   1.879
 3020SOL    HW1 9959   3.029   3.822   1.819
 3020SOL    HW2 9960   2.902   3.719   1.824
 3021SOL     OW 9961   1.450   1.790   6.544
 3021SOL    HW1 9962   1.391   1.801   6.464
 3021SOL    HW2 9963   1.543   1.767   6.516
 3022SOL     OW 9964   4.019   6.084   3.366
 3022SOL    HW1 9965   4.050   6.149   3.297
 3022SOL    HW2 9966   3.926   6.106   3.393
 3023SOL     OW 9967   3.858   5.720   3.831
 3023SOL    HW1 9968   3.807   5.635   3.821
 3023SOL    HW2 9969   3.915   5.716   3.913
 3024SOL     OW 9970   3.478   1.406   6.883
 3024SOL    HW1 9971   3.424   1.327   6.851
 3024SOL    HW2 9972   3.420   1.487   6.885
 3025SOL     OW 9973   2.602   2.783   1.153
 3025SOL    HW1 9974   2.527   2.720   1.133
 3025SOL    HW2 9975   2.688   2.734   1.151
 3026SOL     OW 9976   1.282   3.148   0.996
 3026SOL    HW1 9977   1.244   3.074   1.051
 3026SOL    HW2 9978   1.251   3.138   0.901
 3027SOL     OW 9979   3.103   1.035   1.823
 3027SOL    HW1 9980   3.201   1.056   1.826
 3027SOL    HW2 9981   3.060   1.085   1.749
 3028SOL     OW 9982   1.479   5.304   6.235
 3028SOL    HW1 9983   1.433   5.236   6.292
 3028SOL    HW2 9984   1.491   5.269   6.143
 3029SOL     OW 9985   6.118   5.538   4.605
 3029SOL    HW1 9986   6.204   5.566   4.562
 3029SOL    HW2 9987   6.137   5.496   4.694
 3030SOL     OW 9988   1.037   0.829   5.559
 3030SOL    HW1 9989   0.958   0.877   5.520
 3030SOL    HW2 9990   1.005   0.763   5.627
 3031SOL     OW 9991   0.660   3.905   6.698
 3031SOL    HW1 9992   0.709   3.940   6.778
 3031SOL    HW2 9993   0.562   3.902   6.717
 3032SOL     OW 9994   5.070   0.239   6.975
 3032SOL    HW1 9995   5.031   0.270   6.889
 3032SOL    HW2 9996   5.160   0.281   6.988
 3033SOL     OW 9997   0.140   3.869   6.903
 3033SOL    HW1 9998   0.052   3.890   6.860
 3033SOL    HW2 9999   0.129   3.872   7.003
 3034SOL     OW10000   3.089   6.529   3.807
 3034SOL    HW110001   3.025   6.601   3.837
 3034SOL    HW210002   3.058   6.492   3.719
 3035SOL     OW10003   6.486   1.134   6.938
 3035SOL    HW110004   6.518   1.118   6.845
 3035SOL    HW210005   6.533   1.074   7.001
 3036SOL     OW10006   1.208   3.852   6.951
 3036SOL    HW110007   1.156   3.767   6.956
 3036SOL    HW210008   1.214   3.881   6.855
 3037SOL     OW10009   6.596   6.132   5.008
 3037SOL    HW110010   6.521   6.109   4.945
 3037SOL    HW210011   6.558   6.173   5.090
 3038SOL     OW10012   5.226   0.238   6.249
 3038SOL    HW110013   5.205   0.292   6.167
 3038SOL    HW210014   5.162   0.161   6.255
 3039SOL     OW10015   6.970   4.443   2.212
 3039SOL    HW110016   6.968   4.536   2.248
 3039SOL    HW210017   0.022   4.435   2.147
 3040SOL     OW10018   3.347   3.501   6.768
 3040SOL    HW110019   3.253   3.533   6.764
 3040SOL    HW210020   3.382   3.491   6.674
 3041SOL     OW10021   1.980   2.174   5.550
 3041SOL    HW110022   2.071   2.134   5.557
 3041SOL    HW210023   1.986   2.263   5.504
 3042SOL     OW10024   5.108   0.315   1.468
 3042SOL    HW110025   5.204   0.308   1.493
 3042SOL    HW210026   5.099   0.370   1.385
 3043SOL     OW10027   0.966   5.479   0.387
 3043SOL    HW110028   1.031   5.510   0.318
 3043SOL    HW210029   1.014   5.424   0.455
 3044SOL     OW10030   3.315   4.114   5.558
 3044SOL    HW110031   3.407   4.151   5.545
 3044SOL    HW210032   3.266   4.115   5.471
 3045SOL     OW10033   4.595   1.650   2.897
 3045SOL    HW110034   4.683   1.604   2.884
 3045SOL    HW210035   4.590   1.687   2.990
 3046SOL     OW10036   1.432   3.006   5.821
 3046SOL    HW110037   1.467   2.932   5.878
 3046SOL    HW210038   1.333   3.015   5.835
 3047SOL     OW10039   6.386   5.401   2.025
 3047SOL    HW110040   6.296   5.362   2.007
 3047SOL    HW210041   6.386   5.441   2.117
 3048SOL     OW10042   3.906   3.698   1.405
 3048SOL    HW110043   3.861   3.704   1.494
 3048SOL    HW210044   4.005   3.689   1.418
 3049SOL     OW10045   1.320   7.020   1.712
 3049SOL    HW110046   1.293   0.056   1.636
 3049SOL    HW210047   1.398   0.036   1.760
 3050SOL     OW10048   3.293   5.800   3.555
 3050SOL    HW110049   3.220   5.856   3.517
 3050SOL    HW210050   3.322   5.732   3.488
 3051SOL     OW10051   2.599   5.293   6.648
 3051SOL    HW110052   2.527   5.223   6.641
 3051SOL    HW210053   2.565   5.371   6.700
 3052SOL     OW10054   4.028   0.493   2.706
 3052SOL    HW110055   3.942   0.520   2.750
 3052SOL    HW210056   4.019   0.502   2.607
 3053SOL     OW10057   6.111   0.420   0.245
 3053SOL    HW110058   6.161   0.499   0.281
 3053SOL    HW210059   6.034   0.452   0.189
 3054SOL     OW10060   7.020   3.530   0.620
 3054SOL    HW110061   0.005   3.490   0.529
 3054SOL    HW210062   0.046   3.617   0.623
 3055SOL     OW10063   5.755   0.352   3.673
 3055SOL    HW110064   5.805   0.435   3.646
 3055SOL    HW210065   5.700   0.319   3.596
 3056SOL     OW10066   6.945   0.228   0.183
 3056SOL    HW110067   6.883   0.305   0.171
 3056SOL    HW210068   0.015   0.258   0.165
 3057SOL     OW10069   6.132   4.678   2.332
 3057SOL    HW110070   6.214   4.718   2.291
 3057SOL    HW210071   6.136   4.579   2.323
 3058SOL     OW10072   6.506   6.125   0.856
 3058SOL    HW110073   6.587   6.133   0.914
 3058SOL    HW210074   6.531   6.080   0.770
 3059SOL     OW10075   0.387   2.784   4.762
 3059SOL    HW110076   0.326   2.745   4.831
 3059SOL    HW210077   0.462   2.832   4.807
 3060SOL     OW10078   0.512   6.660   1.164
 3060SOL    HW110079   0.597   6.672   1.215
 3060SOL    HW210080   0.443   6.618   1.223
 3061SOL     OW10081   0.067   1.059   5.100
 3061SOL    HW110082   0.012   0.976   5.110
 3061SOL    HW210083   0.074   1.105   5.188
 3062SOL     OW10084   2.999   6.487   1.480
 3062SOL    HW110085   3.070   6.553   1.507
 3062SOL    HW210086   3.041   6.410   1.431
 3063SOL     OW10087   1.967   4.681   2.061
 3063SOL    HW110088   1.884   4.637   2.095
 3063SOL    HW210089   2.029   4.612   2.024
 3064SOL     OW10090   6.407   3.848   3.557
 3064SOL    HW110091   6.416   3.841   3.657
 3064SOL    HW210092   6.348   3.775   3.524
 3065SOL     OW10093   1.640   0.497   6.897
 3065SOL    HW110094   1.686   0.570   6.947
 3065SOL    HW210095   1.564   0.536   6.844
 3066SOL     OW10096   5.930   4.641   0.659
 3066SOL    HW110097   5.891   4.578   0.592
 3066SOL    HW210098   6.029   4.635   0.658
 3067SOL     OW10099   4.205   0.536   5.043
 3067SOL    HW110100   4.130   0.573   4.988
 3067SOL    HW210101   4.196   0.436   5.047
 3068SOL     OW10102   6.319   6.217   1.317
 3068SOL    HW110103   6.394   6.240   1.378
 3068SOL    HW210104   6.350   6.223   1.222
 3069SOL     OW10105   0.507   5.939   2.130
 3069SOL    HW110106   0.589   5.940   2.186
 3069SOL    HW210107   0.456   6.024   2.142
 3070SOL     OW10108   1.883   1.545   3.187
 3070SOL    HW110109   1.915   1.526   3.094
 3070SOL    HW210110   1.880   1.644   3.201
 3071SOL     OW10111   6.191   0.077   3.981
 3071SOL    HW110112   6.280   0.119   3.963
 3071SOL    HW210113   6.130   0.145   4.022
 3072SOL     OW10114   0.377   6.220   2.235
 3072SOL    HW110115   0.298   6.204   2.293
 3072SOL    HW210116   0.347   6.260   2.148
 3073SOL     OW10117   0.806   3.106   5.036
 3073SOL    HW110118   0.830   3.047   5.113
 3073SOL    HW210119   0.851   3.072   4.953
 3074SOL     OW10120   4.497   3.257   0.656
 3074SOL    HW110121   4.597   3.256   0.661
 3074SOL    HW210122   4.468   3.300   0.571
 3075SOL     OW10123   2.103   6.398   1.586
 3075SOL    HW110124   2.066   6.405   1.679
 3075SOL    HW210125   2.031   6.419   1.520
 3076SOL     OW10126   6.558   0.530   5.030
 3076SOL    HW110127   6.492   0.578   5.088
 3076SOL    HW210128   6.529   0.536   4.935
 3077SOL     OW10129   6.278   4.387   4.352
 3077SOL    HW110130   6.200   4.372   4.414
 3077SOL    HW210131   6.354   4.329   4.381
 3078SOL     OW10132   1.829   3.873   1.999
 3078SOL    HW110133   1.888   3.946   2.034
 3078SOL    HW210134   1.884   3.806   1.949
 3079SOL     OW10135   0.512   2.537   4.741
 3079SOL    HW110136   0.434   2.599   4.747
 3079SOL    HW210137   0.534   2.503   4.833
 3080SOL     OW10138   6.071   4.981   0.760
 3080SOL    HW110139   6.123   4.900   0.735
 3080SOL    HW210140   6.041   4.974   0.855
 3081SOL     OW10141   0.522   3.946   6.031
 3081SOL    HW110142   0.436   3.978   5.991
 3081SOL    HW210143   0.580   3.909   5.958
 3082SOL     OW10144   3.942   6.830   2.874
 3082SOL    HW110145   3.994   6.907   2.837
 3082SOL    HW210146   3.896   6.782   2.799
 3083SOL     OW10147   3.550   0.685   2.167
 3083SOL    HW110148   3.495   0.763   2.135
 3083SOL    HW210149   3.492   0.605   2.176
 3084SOL     OW10150   4.919   5.377   4.150
 3084SOL    HW110151   4.906   5.282   4.122
 3084SOL    HW210152   4.892   5.387   4.246
 3085SOL     OW10153   6.789   5.308   2.675
 3085SOL    HW110154   6.692   5.324   2.693
 3085SOL    HW210155   6.844   5.342   2.752
 3086SOL     OW10156   4.500   1.058   2.211
 3086SOL    HW110157   4.461   1.150   2.219
 3086SOL    HW210158   4.427   0.990   2.215
 3087SOL     OW10159   6.080   3.719   3.003
 3087SOL    HW110160   6.101   3.640   3.061
 3087SOL    HW210161   6.004   3.771   3.042
 3088SOL     OW10162   2.012   4.288   5.109
 3088SOL    HW110163   2.066   4.316   5.030
 3088SOL    HW210164   2.038   4.344   5.188
 3089SOL     OW10165   0.995   2.609   6.832
 3089SOL    HW110166   1.077   2.656   6.864
 3089SOL    HW210167   0.995   2.606   6.732
 3090SOL     OW10168   2.194   1.956   1.589
 3090SOL    HW110169   2.158   2.034   1.539
 3090SOL    HW210170   2.294   1.953   1.580
 3091SOL     OW10171   2.570   0.250   0.252
 3091SOL    HW110172   2.586   0.207   0.163
 3091SOL    HW210173   2.635   0.213   0.318
 3092SOL     OW10174   6.298   6.351   0.141
 3092SOL    HW110175   6.391   6.386   0.137
 3092SOL    HW210176   6.239   6.418   0.187
 3093SOL     OW10177   6.203   5.324   5.434
 3093SOL    HW110178   6.131   5.273   5.481
 3093SOL    HW210179   6.292   5.282   5.455
 3094SOL     OW10180   3.186   5.403   5.085
 3094SOL    HW110181   3.276   5.360   5.071
 3094SOL    HW210182   3.126   5.340   5.132
 3095SOL     OW10183   2.058   4.739   4.137
 3095SOL    HW110184   2.016   4.650   4.152
 3095SOL    HW210185   2.144   4.746   4.188
 3096SOL     OW10186   6.718   6.840   5.051
 3096SOL    HW110187   6.800   6.897   5.039
 3096SOL    HW210188   6.746   6.745   5.063
 3097SOL     OW10189   0.555   2.993   0.749
 3097SOL    HW110190   0.592   2.926   0.685
 3097SOL    HW210191   0.605   3.079   0.739
 3098SOL     OW10192   2.759   3.880   0.788
 3098SOL    HW110193   2.672   3.832   0.777
 3098SOL    HW210194   2.741   3.972   0.824
 3099SOL     OW10195   0.098   6.001   4.972
 3099SOL    HW110196   0.003   6.031   4.964
 3099SOL    HW210197   0.119   5.980   5.068
 3100SOL     OW10198   6.585   6.270   5.457
 3100SOL    HW110199   6.634   6.319   5.529
 3100SOL    HW210200   6.609   6.173   5.460
 3101SOL     OW10201   4.851   6.245   5.978
 3101SOL    HW110202   4.897   6.296   5.904
 3101SOL    HW210203   4.916   6.183   6.021
 3102SOL     OW10204   1.893   4.374   1.352
 3102SOL    HW110205   1.819   4.440   1.335
 3102SOL    HW210206   1.925   4.384   1.446
 3103SOL     OW10207   3.750   2.543   1.060
 3103SOL    HW110208   3.802   2.519   0.977
 3103SOL    HW210209   3.813   2.551   1.137
 3104SOL     OW10210   5.467   6.343   4.184
 3104SOL    HW110211   5.472   6.325   4.086
 3104SOL    HW210212   5.372   6.336   4.214
 3105SOL     OW10213   5.768   6.027   3.305
 3105SOL    HW110214   5.695   6.020   3.237
 3105SOL    HW210215   5.765   5.948   3.366
 3106SOL     OW10216   6.179   2.443   2.693
 3106SOL    HW110217   6.158   2.524   2.747
 3106SOL    HW210218   6.097   2.412   2.645
 3107SOL     OW10219   3.331   0.823   3.962
 3107SOL    HW110220   3.309   0.734   4.001
 3107SOL    HW210221   3.252   0.859   3.913
 3108SOL     OW10222   1.981   0.687   4.131
 3108SOL    HW110223   1.953   0.597   4.163
 3108SOL    HW210224   1.908   0.728   4.076
 3109SOL     OW10225   5.337   5.760   2.451
 3109SOL    HW110226   5.377   5.847   2.425
 3109SOL    HW210227   5.346   5.747   2.550
 3110SOL     OW10228   0.321   3.290   3.439
 3110SOL    HW110229   0.391   3.246   3.383
 3110SOL    HW210230   0.232   3.247   3.421
 3111SOL     OW10231   6.400   5.119   3.659
 3111SOL    HW110232   6.320   5.131   3.601
 3111SOL    HW210233   6.371   5.095   3.752
 3112SOL     OW10234   4.369   3.624   5.834
 3112SOL    HW110235   4.280   3.669   5.826
 3112SOL    HW210236   4.356   3.527   5.853
 3113SOL     OW10237   2.307   6.838   4.119
 3113SOL    HW110238   2.257   6.859   4.202
 3113SOL    HW210239   2.271   6.754   4.079
 3114SOL     OW10240   4.655   3.965   6.794
 3114SOL    HW110241   4.570   3.994   6.839
 3114SOL    HW210242   4.732   3.974   6.857
 3115SOL     OW10243   3.711   3.910   0.747
 3115SOL    HW110244   3.775   3.882   0.819
 3115SOL    HW210245   3.631   3.953   0.789
 3116SOL     OW10246   5.887   2.439   6.585
 3116SOL    HW110247   5.891   2.373   6.659
 3116SOL    HW210248   5.974   2.442   6.537
 3117SOL     OW10249   4.263   3.492   5.535
 3117SOL    HW110250   4.355   3.472   5.569
 3117SOL    HW210251   4.268   3.518   5.438
 3118SOL     OW10252   6.740   4.978   0.249
 3118SOL    HW110253   6.662   4.957   0.308
 3118SOL    HW210254   6.716   5.053   0.187
 3119SOL     OW10255   1.545   4.480   5.243
 3119SOL    HW110256   1.585   4.389   5.242
 3119SOL    HW210257   1.592   4.538   5.175
 3120SOL     OW10258   2.340   5.187   4.536
 3120SOL    HW110259   2.259   5.226   4.491
 3120SOL    HW210260   2.410   5.168   4.467
 3121SOL     OW10261   6.923   1.334   2.346
 3121SOL    HW110262   6.981   1.348   2.427
 3121SOL    HW210263   6.862   1.257   2.362
 3122SOL     OW10264   2.350   5.346   6.359
 3122SOL    HW110265   2.369   5.427   6.305
 3122SOL    HW210266   2.412   5.342   6.437
 3123SOL     OW10267   3.484   6.663   4.100
 3123SOL    HW110268   3.553   6.593   4.084
 3123SOL    HW210269   3.514   6.750   4.060
 3124SOL     OW10270   4.739   0.973   5.411
 3124SOL    HW110271   4.669   1.042   5.397
 3124SOL    HW210272   4.698   0.889   5.447
 3125SOL     OW10273   6.231   1.832   5.483
 3125SOL    HW110274   6.321   1.864   5.453
 3125SOL    HW210275   6.210   1.871   5.573
 3126SOL     OW10276   4.673   5.113   5.915
 3126SOL    HW110277   4.750   5.090   5.974
 3126SOL    HW210278   4.620   5.030   5.895
 3127SOL     OW10279   1.390   1.593   4.069
 3127SOL    HW110280   1.337   1.676   4.088
 3127SOL    HW210281   1.487   1.611   4.087
 3128SOL     OW10282   2.218   1.361   0.601
 3128SOL    HW110283   2.286   1.291   0.582
 3128SOL    HW210284   2.232   1.439   0.540
 3129SOL     OW10285   0.071   4.485   5.113
 3129SOL    HW110286   0.076   4.535   5.200
 3129SOL    HW210287   7.012   4.512   5.065
 3130SOL     OW10288   2.304   4.651   2.580
 3130SOL    HW110289   2.383   4.603   2.540
 3130SOL    HW210290   2.226   4.588   2.585
 3131SOL     OW10291   0.141   3.750   2.632
 3131SOL    HW110292   0.085   3.674   2.666
 3131SOL    HW210293   0.086   3.833   2.630
 3132SOL     OW10294   5.560   6.113   6.070
 3132SOL    HW110295   5.543   6.040   6.004
 3132SOL    HW210296   5.513   6.196   6.041
 3133SOL     OW10297   2.302   1.590   3.713
 3133SOL    HW110298   2.340   1.681   3.730
 3133SOL    HW210299   2.351   1.523   3.769
 3134SOL     OW10300   5.128   3.089   1.615
 3134SOL    HW110301   5.058   3.118   1.680
 3134SOL    HW210302   5.097   3.008   1.566
 3135SOL     OW10303   4.154   1.949   4.012
 3135SOL    HW110304   4.130   1.868   3.959
 3135SOL    HW210305   4.095   2.025   3.985
 3136SOL     OW10306   5.858   5.328   6.022
 3136SOL    HW110307   5.808   5.283   6.096
 3136SOL    HW210308   5.912   5.404   6.059
 3137SOL     OW10309   5.581   2.225   4.152
 3137SOL    HW110310   5.502   2.211   4.092
 3137SOL    HW210311   5.626   2.137   4.168
 3138SOL     OW10312   6.130   1.431   4.643
 3138SOL    HW110313   6.113   1.364   4.715
 3138SOL    HW210314   6.182   1.388   4.569
 3139SOL     OW10315   4.940   6.062   5.646
 3139SOL    HW110316   5.028   6.072   5.599
 3139SOL    HW210317   4.867   6.093   5.586
 3140SOL     OW10318   6.554   6.599   6.786
 3140SOL    HW110319   6.571   6.514   6.736
 3140SOL    HW210320   6.641   6.646   6.802
 3141SOL     OW10321   1.174   6.046   0.444
 3141SOL    HW110322   1.238   6.117   0.474
 3141SOL    HW210323   1.223   5.975   0.394
 3142SOL     OW10324   4.830   6.545   6.618
 3142SOL    HW110325   4.761   6.476   6.596
 3142SOL    HW210326   4.799   6.598   6.697
 3143SOL     OW10327   0.297   2.060   6.569
 3143SOL    HW110328   0.337   2.151   6.578
 3143SOL    HW210329   0.199   2.068   6.554
 3144SOL     OW10330   1.672   3.632   6.959
 3144SOL    HW110331   1.590   3.575   6.952
 3144SOL    HW210332   1.649   3.727   6.937
 3145SOL     OW10333   2.933   5.415   3.001
 3145SOL    HW110334   2.865   5.393   3.070
 3145SOL    HW210335   2.891   5.471   2.929
 3146SOL     OW10336   1.119   0.447   3.314
 3146SOL    HW110337   1.160   0.387   3.245
 3146SOL    HW210338   1.022   0.461   3.293
 3147SOL     OW10339   4.239   3.778   0.358
 3147SOL    HW110340   4.306   3.841   0.399
 3147SOL    HW210341   4.148   3.798   0.395
 3148SOL     OW10342   4.041   5.279   4.168
 3148SOL    HW110343   3.999   5.190   4.185
 3148SOL    HW210344   4.137   5.267   4.144
 3149SOL     OW10345   3.054   0.285   5.842
 3149SOL    HW110346   3.115   0.224   5.893
 3149SOL    HW210347   3.107   0.353   5.793
 3150SOL     OW10348   5.436   6.978   4.876
 3150SOL    HW110349   5.344   6.949   4.849
 3150SOL    HW210350   5.502   6.949   4.806
 3151SOL     OW10351   4.562   1.720   6.247
 3151SOL    HW110352   4.556   1.689   6.152
 3151SOL    HW210353   4.652   1.761   6.263
 3152SOL     OW10354   0.733   5.549   1.569
 3152SOL    HW110355   0.710   5.534   1.473
 3152SOL    HW210356   0.766   5.643   1.582
 3153SOL     OW10357   5.867   3.975   2.097
 3153SOL    HW110358   5.917   3.974   2.184
 3153SOL    HW210359   5.787   4.034   2.105
 3154SOL     OW10360   6.196   2.592   5.832
 3154SOL    HW110361   6.220   2.635   5.745
 3154SOL    HW210362   6.263   2.616   5.901
 3155SOL     OW10363   6.072   5.608   0.684
 3155SOL    HW110364   6.047   5.568   0.773
 3155SOL    HW210365   6.073   5.536   0.615
 3156SOL     OW10366   3.446   3.778   3.256
 3156SOL    HW110367   3.389   3.733   3.187
 3156SOL    HW210368   3.538   3.791   3.220
 3157SOL     OW10369   2.079   3.424   4.629
 3157SOL    HW110370   2.021   3.379   4.697
 3157SOL    HW210371   2.124   3.503   4.670
 3158SOL     OW10372   5.125   6.376   1.452
 3158SOL    HW110373   5.220   6.370   1.482
 3158SOL    HW210374   5.106   6.469   1.420
 3159SOL     OW10375   4.433   5.851   6.788
 3159SOL    HW110376   4.417   5.802   6.873
 3159SOL    HW210377   4.352   5.846   6.730
 3160SOL     OW10378   4.780   4.052   6.471
 3160SOL    HW110379   4.741   4.019   6.386
 3160SOL    HW210380   4.743   3.999   6.548
 3161SOL     OW10381   1.512   0.783   2.825
 3161SOL    HW110382   1.525   0.696   2.778
 3161SOL    HW210383   1.600   0.832   2.827
 3162SOL     OW10384   0.410   5.409   6.319
 3162SOL    HW110385   0.337   5.475   6.336
 3162SOL    HW210386   0.407   5.337   6.389
 3163SOL     OW10387   3.691   2.976   6.655
 3163SOL    HW110388   3.755   3.016   6.721
 3163SOL    HW210389   3.625   2.919   6.704
 3164SOL     OW10390   5.134   3.802   0.138
 3164SOL    HW110391   5.118   3.777   0.234
 3164SOL    HW210392   5.082   3.739   0.079
 3165SOL     OW10393   0.883   0.495   2.065
 3165SOL    HW110394   0.936   0.413   2.086
 3165SOL    HW210395   0.938   0.576   2.084
 3166SOL     OW10396   4.453   3.644   6.084
 3166SOL    HW110397   4.388   3.699   6.137
 3166SOL    HW210398   4.420   3.637   5.990
 3167SOL     OW10399   0.538   4.653   1.341
 3167SOL    HW110400   0.577   4.679   1.253
 3167SOL    HW210401   0.583   4.570   1.374
 3168SOL     OW10402   5.657   3.275   0.692
 3168SOL    HW110403   5.565   3.236   0.679
 3168SOL    HW210404   5.654   3.344   0.764
 3169SOL     OW10405   0.960   2.441   5.002
 3169SOL    HW110406   1.040   2.495   5.028
 3169SOL    HW210407   0.965   2.351   5.045
 3170SOL     OW10408   4.266   0.963   6.868
 3170SOL    HW110409   4.353   0.913   6.866
 3170SOL    HW210410   4.196   0.910   6.822
 3171SOL     OW10411   6.395   6.712   2.787
 3171SOL    HW110412   6.375   6.727   2.884
 3171SOL    HW210413   6.316   6.670   2.743
 3172SOL     OW10414   6.053   6.691   5.596
 3172SOL    HW110415   6.055   6.593   5.576
 3172SOL    HW210416   6.145   6.721   5.620
 3173SOL     OW10417   1.964   0.769   1.836
 3173SOL    HW110418   2.004   0.828   1.766
 3173SOL    HW210419   2.008   0.679   1.833
 3174SOL     OW10420   2.878   2.725   6.142
 3174SOL    HW110421   2.968   2.767   6.155
 3174SOL    HW210422   2.866   2.650   6.207
 3175SOL     OW10423   1.358   6.222   0.558
 3175SOL    HW110424   1.439   6.204   0.503
 3175SOL    HW210425   1.363   6.315   0.595
 3176SOL     OW10426   1.492   4.206   6.627
 3176SOL    HW110427   1.568   4.157   6.669
 3176SOL    HW210428   1.467   4.161   6.541
 3177SOL     OW10429   5.446   5.253   5.837
 3177SOL    HW110430   5.513   5.180   5.826
 3177SOL    HW210431   5.481   5.320   5.902
 3178SOL     OW10432   0.324   4.301   1.512
 3178SOL    HW110433   0.375   4.225   1.471
 3178SOL    HW210434   0.253   4.265   1.573
 3179SOL     OW10435   1.674   1.796   2.318
 3179SOL    HW110436   1.580   1.791   2.285
 3179SOL    HW210437   1.687   1.882   2.368
 3180SOL     OW10438   5.750   0.193   5.824
 3180SOL    HW110439   5.743   0.116   5.888
 3180SOL    HW210440   5.844   0.200   5.791
 3181SOL     OW10441   0.932   0.478   3.554
 3181SOL    HW110442   0.977   0.508   3.638
 3181SOL    HW210443   0.917   0.558   3.495
 3182SOL     OW10444   1.195   5.821   5.313
 3182SOL    HW110445   1.099   5.793   5.316
 3182SOL    HW210446   1.253   5.742   5.336
 3183SOL     OW10447   4.517   4.296   1.155
 3183SOL    HW110448   4.581   4.372   1.142
 3183SOL    HW210449   4.507   4.279   1.253
 3184SOL     OW10450   2.840   1.879   2.147
 3184SOL    HW110451   2.915   1.830   2.103
 3184SOL    HW210452   2.802   1.946   2.084
 3185SOL     OW10453   6.859   6.983   5.855
 3185SOL    HW110454   6.809   6.904   5.822
 3185SOL    HW210455   6.820   7.013   5.942
 3186SOL     OW10456   3.321   1.536   2.841
 3186SOL    HW110457   3.366   1.461   2.889
 3186SOL    HW210458   3.259   1.499   2.772
 3187SOL     OW10459   3.314   4.750   0.541
 3187SOL    HW110460   3.385   4.680   0.543
 3187SOL    HW210461   3.279   4.760   0.448
 3188SOL     OW10462   4.097   6.304   3.762
 3188SOL    HW110463   4.096   6.204   3.768
 3188SOL    HW210464   4.062   6.332   3.672
 3189SOL     OW10465   1.939   0.022   3.480
 3189SOL    HW110466   1.841   0.018   3.459
 3189SOL    HW210467   1.976   0.109   3.448
 3190SOL     OW10468   1.756   6.238   2.729
 3190SOL    HW110469   1.738   6.271   2.636
 3190SOL    HW210470   1.854   6.246   2.748
 3191SOL     OW10471   3.830   0.379   1.081
 3191SOL    HW110472   3.730   0.374   1.078
 3191SOL    HW210473   3.864   0.316   1.151
 3192SOL     OW10474   0.222   2.661   2.165
 3192SOL    HW110475   0.167   2.726   2.113
 3192SOL    HW210476   0.300   2.708   2.206
 3193SOL     OW10477   4.434   2.662   5.551
 3193SOL    HW110478   4.433   2.715   5.466
 3193SOL    HW210479   4.510   2.597   5.549
 3194SOL     OW10480   1.176   3.002   5.878
 3194SOL    HW110481   1.097   3.063   5.882
 3194SOL    HW210482   1.148   2.913   5.845
 3195SOL     OW10483   0.458   2.770   3.617
 3195SOL    HW110484   0.420   2.688   3.574
 3195SOL    HW210485   0.470   2.753   3.715
 3196SOL     OW10486   6.889   6.627   5.185
 3196SOL    HW110487   6.950   6.628   5.264
 3196SOL    HW210488   6.819   6.556   5.197
 3197SOL     OW10489   1.304   4.291   3.978
 3197SOL    HW110490   1.214   4.334   3.982
 3197SOL    HW210491   1.296   4.195   4.003
 3198SOL     OW10492   0.545   2.559   6.091
 3198SOL    HW110493   0.620   2.577   6.155
 3198SOL    HW210494   0.576   2.494   6.022
 3199SOL     OW10495   4.825   2.074   1.900
 3199SOL    HW110496   4.808   1.991   1.847
 3199SOL    HW210497   4.746   2.134   1.894
 3200SOL     OW10498   6.630   2.288   0.072
 3200SOL    HW110499   6.617   2.349   0.150
 3200SOL    HW210500   6.564   2.213   0.076
 3201SOL     OW10501   4.830   4.557   3.944
 3201SOL    HW110502   4.854   4.581   3.849
 3201SOL    HW210503   4.913   4.552   3.999
 3202SOL     OW10504   1.921   4.933   1.994
 3202SOL    HW110505   1.840   4.942   2.052
 3202SOL    HW210506   1.968   4.847   2.017
 3203SOL     OW10507   6.783   0.621   1.028
 3203SOL    HW110508   6.811   0.540   1.080
 3203SOL    HW210509   6.764   0.594   0.933
 3204SOL     OW10510   0.072   5.691   1.748
 3204SOL    HW110511   0.028   5.607   1.779
 3204SOL    HW210512   0.062   5.698   1.649
 3205SOL     OW10513   0.377   3.740   4.302
 3205SOL    HW110514   0.281   3.720   4.324
 3205SOL    HW210515   0.433   3.659   4.320
 3206SOL     OW10516   0.904   6.652   6.173
 3206SOL    HW110517   0.970   6.625   6.242
 3206SOL    HW210518   0.912   6.592   6.093
 3207SOL     OW10519   0.436   0.879   4.879
 3207SOL    HW110520   0.351   0.853   4.924
 3207SOL    HW210521   0.418   0.951   4.812
 3208SOL     OW10522   4.870   6.376   4.810
 3208SOL    HW110523   4.941   6.308   4.794
 3208SOL    HW210524   4.782   6.339   4.780
 3209SOL     OW10525   2.304   0.508   4.132
 3209SOL    HW110526   2.210   0.505   4.166
 3209SOL    HW210527   2.367   0.474   4.202
 3210SOL     OW10528   6.421   4.701   2.599
 3210SOL    HW110529   6.412   4.801   2.595
 3210SOL    HW210530   6.469   4.676   2.683
 3211SOL     OW10531   1.723   4.569   2.112
 3211SOL    HW110532   1.705   4.582   2.210
 3211SOL    HW210533   1.747   4.474   2.095
 3212SOL     OW10534   5.637   1.854   6.894
 3212SOL    HW110535   5.681   1.914   6.961
 3212SOL    HW210536   5.561   1.902   6.852
 3213SOL     OW10537   6.155   6.337   2.169
 3213SOL    HW110538   6.233   6.287   2.207
 3213SOL    HW210539   6.075   6.277   2.165
 3214SOL     OW10540   3.740   5.410   6.343
 3214SOL    HW110541   3.800   5.482   6.308
 3214SOL    HW210542   3.656   5.406   6.289
 3215SOL     OW10543   5.798   1.697   6.709
 3215SOL    HW110544   5.724   1.730   6.768
 3215SOL    HW210545   5.839   1.615   6.750
 3216SOL     OW10546   5.743   0.036   3.229
 3216SOL    HW110547   5.656   0.055   3.182
 3216SOL    HW210548   5.818   0.044   3.164
 3217SOL     OW10549   6.565   4.471   2.176
 3217SOL    HW110550   6.640   4.447   2.114
 3217SOL    HW210551   6.482   4.422   2.149
 3218SOL     OW10552   3.778   1.003   3.912
 3218SOL    HW110553   3.697   0.973   3.962
 3218SOL    HW210554   3.773   0.969   3.818
 3219SOL     OW10555   6.517   0.953   3.948
 3219SOL    HW110556   6.493   0.882   3.883
 3219SOL    HW210557   6.585   1.015   3.907
 3220SOL     OW10558   6.695   4.256   5.765
 3220SOL    HW110559   6.635   4.323   5.721
 3220SOL    HW210560   6.672   4.249   5.862
 3221SOL     OW10561   3.024   6.689   3.396
 3221SOL    HW110562   2.951   6.730   3.451
 3221SOL    HW210563   2.988   6.664   3.307
 3222SOL     OW10564   6.067   2.425   3.005
 3222SOL    HW110565   6.091   2.418   2.908
 3222SOL    HW210566   5.982   2.375   3.022
 3223SOL     OW10567   1.960   4.867   5.371
 3223SOL    HW110568   1.983   4.805   5.446
 3223SOL    HW210569   2.039   4.876   5.310
 3224SOL     OW10570   4.050   4.810   0.395
 3224SOL    HW110571   4.128   4.872   0.385
 3224SOL    HW210572   3.973   4.846   0.343
 3225SOL     OW10573   2.241   3.539   0.511
 3225SOL    HW110574   2.262   3.495   0.424
 3225SOL    HW210575   2.272   3.634   0.509
 3226SOL     OW10576   1.137   0.840   3.861
 3226SOL    HW110577   1.051   0.791   3.843
 3226SOL    HW210578   1.185   0.855   3.775
 3227SOL     OW10579   3.326   1.416   5.821
 3227SOL    HW110580   3.422   1.422   5.793
 3227SOL    HW210581   3.304   1.321   5.842
 3228SOL     OW10582   5.751   4.073   4.657
 3228SOL    HW110583   5.698   3.987   4.655
 3228SOL    HW210584   5.848   4.052   4.643
 3229SOL     OW10585   3.976   1.851   5.592
 3229SOL    HW110586   3.897   1.798   5.621
 3229SOL    HW210587   4.058   1.794   5.598
 3230SOL     OW10588   1.278   0.401   3.747
 3230SOL    HW110589   1.365   0.450   3.734
 3230SOL    HW210590   1.296   0.303   3.752
 3231SOL     OW10591   5.874   6.183   0.758
 3231SOL    HW110592   5.816   6.101   0.754
 3231SOL    HW210593   5.874   6.229   0.669
 3232SOL     OW10594   2.378   4.953   3.948
 3232SOL    HW110595   2.300   4.914   3.900
 3232SOL    HW210596   2.461   4.938   3.894
 3233SOL     OW10597   0.825   3.890   1.425
 3233SOL    HW110598   0.843   3.808   1.480
 3233SOL    HW210599   0.895   3.958   1.444
 3234SOL     OW10600   0.468   1.779   5.737
 3234SOL    HW110601   0.486   1.856   5.676
 3234SOL    HW210602   0.515   1.794   5.824
 3235SOL     OW10603   5.270   6.762   2.654
 3235SOL    HW110604   5.244   6.807   2.569
 3235SOL    HW210605   5.202   6.692   2.677
 3236SOL     OW10606   0.496   2.912   1.941
 3236SOL    HW110607   0.465   2.991   1.993
 3236SOL    HW210608   0.526   2.840   2.004
 3237SOL     OW10609   3.004   0.380   4.276
 3237SOL    HW110610   3.040   0.343   4.361
 3237SOL    HW210611   3.020   0.315   4.201
 3238SOL     OW10612   0.303   6.217   6.400
 3238SOL    HW110613   0.287   6.172   6.488
 3238SOL    HW210614   0.366   6.161   6.346
 3239SOL     OW10615   6.255   6.850   5.267
 3239SOL    HW110616   6.311   6.769   5.252
 3239SOL    HW210617   6.160   6.823   5.284
 3240SOL     OW10618   1.497   0.708   4.437
 3240SOL    HW110619   1.594   0.706   4.412
 3240SOL    HW210620   1.446   0.647   4.376
 3241SOL     OW10621   5.259   0.966   3.567
 3241SOL    HW110622   5.203   0.885   3.549
 3241SOL    HW210623   5.268   1.020   3.483
 3242SOL     OW10624   3.746   0.028   0.056
 3242SOL    HW110625   3.663   0.001   0.008
 3242SOL    HW210626   3.786   6.973   0.102
 3243SOL     OW10627   3.780   5.049   0.965
 3243SOL    HW110628   3.731   4.962   0.974
 3243SOL    HW210629   3.839   5.046   0.884
 3244SOL     OW10630   2.948   6.003   6.677
 3244SOL    HW110631   2.905   5.956   6.601
 3244SOL    HW210632   2.883   6.067   6.718
 3245SOL     OW10633   3.532   2.454   6.506
 3245SOL    HW110634   3.477   2.480   6.586
 3245SOL    HW210635   3.573   2.364   6.521
 3246SOL     OW10636   5.588   6.420   2.913
 3246SOL    HW110637   5.495   6.395   2.940
 3246SOL    HW210638   5.596   6.520   2.909
 3247SOL     OW10639   0.874   2.395   4.337
 3247SOL    HW110640   0.854   2.411   4.241
 3247SOL    HW210641   0.796   2.424   4.393
 3248SOL     OW10642   6.448   3.297   2.286
 3248SOL    HW110643   6.387   3.375   2.298
 3248SOL    HW210644   6.396   3.212   2.295
 3249SOL     OW10645   1.920   3.994   4.869
 3249SOL    HW110646   1.966   4.029   4.787
 3249SOL    HW210647   1.982   4.002   4.947
 3250SOL     OW10648   4.825   6.534   2.018
 3250SOL    HW110649   4.885   6.471   1.969
 3250SOL    HW210650   4.831   6.516   2.116
 3251SOL     OW10651   3.400   1.047   3.056
 3251SOL    HW110652   3.491   1.016   3.026
 3251SOL    HW210653   3.356   0.974   3.109
 3252SOL     OW10654   2.784   1.626   2.976
 3252SOL    HW110655   2.867   1.664   2.936
 3252SOL    HW210656   2.706   1.685   2.956
 3253SOL     OW10657   4.746   3.456   1.169
 3253SOL    HW110658   4.772   3.545   1.206
 3253SOL    HW210659   4.766   3.384   1.235
 3254SOL     OW10660   5.193   4.233   2.832
 3254SOL    HW110661   5.238   4.157   2.879
 3254SOL    HW210662   5.094   4.227   2.846
 3255SOL     OW10663   4.429   5.312   0.433
 3255SOL    HW110664   4.365   5.307   0.510
 3255SOL    HW210665   4.390   5.266   0.354
 3256SOL     OW10666   6.096   6.130   5.493
 3256SOL    HW110667   6.071   6.215   5.446
 3256SOL    HW210668   6.015   6.093   5.538
 3257SOL     OW10669   1.605   2.808   1.145
 3257SOL    HW110670   1.640   2.744   1.213
 3257SOL    HW210671   1.662   2.891   1.145
 3258SOL     OW10672   5.436   6.924   1.959
 3258SOL    HW110673   5.392   6.837   1.982
 3258SOL    HW210674   5.528   6.926   1.999
 3259SOL     OW10675   4.262   6.920   4.086
 3259SOL    HW110676   4.300   6.910   3.994
 3259SOL    HW210677   4.195   6.993   4.087
 3260SOL     OW10678   1.427   2.479   0.348
 3260SOL    HW110679   1.521   2.512   0.355
 3260SOL    HW210680   1.415   2.398   0.405
 3261SOL     OW10681   4.087   0.128   1.933
 3261SOL    HW110682   4.152   0.063   1.895
 3261SOL    HW210683   4.016   0.146   1.865
 3262SOL     OW10684   4.091   1.982   2.997
 3262SOL    HW110685   4.079   2.063   3.054
 3262SOL    HW210686   4.144   2.007   2.915
 3263SOL     OW10687   3.679   6.363   1.530
 3263SOL    HW110688   3.725   6.296   1.588
 3263SOL    HW210689   3.620   6.421   1.588
 3264SOL     OW10690   5.106   5.222   6.623
 3264SOL    HW110691   5.026   5.220   6.564
 3264SOL    HW210692   5.086   5.175   6.709
 3265SOL     OW10693   4.870   0.486   6.282
 3265SOL    HW110694   4.947   0.505   6.221
 3265SOL    HW210695   4.804   0.426   6.236
 3266SOL     OW10696   1.165   1.738   6.343
 3266SOL    HW110697   1.263   1.743   6.328
 3266SOL    HW210698   1.133   1.645   6.326
 3267SOL     OW10699   3.164   2.620   1.259
 3267SOL    HW110700   3.226   2.694   1.234
 3267SOL    HW210701   3.213   2.554   1.316
 3268SOL     OW10702   0.684   4.263   6.208
 3268SOL    HW110703   0.668   4.166   6.192
 3268SOL    HW210704   0.757   4.274   6.275
 3269SOL     OW10705   4.487   3.641   1.239
 3269SOL    HW110706   4.486   3.553   1.191
 3269SOL    HW210707   4.422   3.704   1.196
 3270SOL     OW10708   1.276   6.214   4.591
 3270SOL    HW110709   1.284   6.134   4.651
 3270SOL    HW210710   1.251   6.184   4.499
 3271SOL     OW10711   5.785   1.674   0.912
 3271SOL    HW110712   5.866   1.729   0.929
 3271SOL    HW210713   5.742   1.705   0.827
 3272SOL     OW10714   5.040   0.529   0.569
 3272SOL    HW110715   5.093   0.449   0.540
 3272SOL    HW210716   4.966   0.500   0.629
 3273SOL     OW10717   6.995   6.525   2.640
 3273SOL    HW110718   6.910   6.483   2.607
 3273SOL    HW210719   6.988   6.542   2.738
 3274SOL     OW10720   3.395   2.310   6.017
 3274SOL    HW110721   3.414   2.266   5.929
 3274SOL    HW210722   3.439   2.257   6.090
 3275SOL     OW10723   3.073   1.179   6.287
 3275SOL    HW110724   3.144   1.113   6.261
 3275SOL    HW210725   2.983   1.140   6.266
 3276SOL     OW10726   3.124   6.566   0.319
 3276SOL    HW110727   3.174   6.509   0.385
 3276SOL    HW210728   3.125   6.521   0.229
 3277SOL     OW10729   0.020   6.657   4.955
 3277SOL    HW110730   0.115   6.653   4.983
 3277SOL    HW210731   6.986   6.616   5.026
 3278SOL     OW10732   1.171   0.441   6.410
 3278SOL    HW110733   1.131   0.352   6.384
 3278SOL    HW210734   1.127   0.514   6.358
 3279SOL     OW10735   1.303   6.763   1.024
 3279SOL    HW110736   1.226   6.743   0.964
 3279SOL    HW210737   1.270   6.782   1.116
 3280SOL     OW10738   1.870   4.577   6.282
 3280SOL    HW110739   1.821   4.656   6.318
 3280SOL    HW210740   1.844   4.495   6.334
 3281SOL     OW10741   2.433   5.549   0.450
 3281SOL    HW110742   2.449   5.637   0.406
 3281SOL    HW210743   2.367   5.560   0.525
 3282SOL     OW10744   2.348   5.339   2.645
 3282SOL    HW110745   2.288   5.400   2.698
 3282SOL    HW210746   2.293   5.277   2.590
 3283SOL     OW10747   2.157   0.545   3.568
 3283SOL    HW110748   2.088   0.615   3.551
 3283SOL    HW210749   2.205   0.524   3.482
 3284SOL     OW10750   6.511   3.782   6.867
 3284SOL    HW110751   6.480   3.703   6.920
 3284SOL    HW210752   6.512   3.758   6.770
 3285SOL     OW10753   0.665   1.540   3.835
 3285SOL    HW110754   0.697   1.481   3.909
 3285SOL    HW210755   0.628   1.624   3.874
 3286SOL     OW10756   3.536   3.818   5.073
 3286SOL    HW110757   3.545   3.885   5.146
 3286SOL    HW210758   3.463   3.847   5.010
 3287SOL     OW10759   1.520   5.335   1.138
 3287SOL    HW110760   1.549   5.384   1.056
 3287SOL    HW210761   1.573   5.367   1.217
 3288SOL     OW10762   0.108   6.425   6.503
 3288SOL    HW110763   0.102   6.366   6.583
 3288SOL    HW210764   0.171   6.384   6.437
 3289SOL     OW10765   1.961   5.846   4.584
 3289SOL    HW110766   1.930   5.939   4.562
 3289SOL    HW210767   1.886   5.782   4.573
 3290SOL     OW10768   6.772   4.864   1.428
 3290SOL    HW110769   6.686   4.900   1.393
 3290SOL    HW210770   6.765   4.849   1.527
 3291SOL     OW10771   1.598   6.486   1.170
 3291SOL    HW110772   1.532   6.519   1.102
 3291SOL    HW210773   1.559   6.409   1.220
 3292SOL     OW10774   0.665   6.017   6.503
 3292SOL    HW110775   0.614   6.029   6.589
 3292SOL    HW210776   0.698   6.106   6.472
 3293SOL     OW10777   0.064   0.969   2.641
 3293SOL    HW110778   0.036   1.053   2.688
 3293SOL    HW210779   0.106   0.993   2.554
 3294SOL     OW10780   0.656   0.796   0.400
 3294SOL    HW110781   0.667   0.889   0.364
 3294SOL    HW210782   0.580   0.751   0.354
 3295SOL     OW10783   1.356   2.790   6.711
 3295SOL    HW110784   1.297   2.778   6.791
 3295SOL    HW210785   1.321   2.865   6.655
 3296SOL     OW10786   1.466   6.579   2.564
 3296SOL    HW110787   1.392   6.644   2.581
 3296SOL    HW210788   1.434   6.486   2.583
 3297SOL     OW10789   3.401   2.524   6.734
 3297SOL    HW110790   3.449   2.468   6.801
 3297SOL    HW210791   3.314   2.555   6.773
 3298SOL     OW10792   6.369   3.462   2.908
 3298SOL    HW110793   6.409   3.455   2.999
 3298SOL    HW210794   6.388   3.379   2.856
 3299SOL     OW10795   2.011   6.839   5.163
 3299SOL    HW110796   2.076   6.895   5.112
 3299SOL    HW210797   2.055   6.805   5.246
 3300SOL     OW10798   6.591   0.104   5.322
 3300SOL    HW110799   6.686   0.116   5.349
 3300SOL    HW210800   6.583   0.110   5.223
 3301SOL     OW10801   0.619   3.684   3.123
 3301SOL    HW110802   0.585   3.642   3.207
 3301SOL    HW210803   0.692   3.748   3.145
 3302SOL     OW10804   0.921   4.005   4.074
 3302SOL    HW110805   0.889   3.960   4.157
 3302SOL    HW210806   1.002   4.061   4.095
 3303SOL     OW10807   4.075   3.780   2.823
 3303SOL    HW110808   4.107   3.732   2.905
 3303SOL    HW210809   4.129   3.751   2.744
 3304SOL     OW10810   0.392   6.157   4.319
 3304SOL    HW110811   0.350   6.123   4.234
 3304SOL    HW210812   0.320   6.189   4.380
 3305SOL     OW10813   1.844   1.122   2.383
 3305SOL    HW110814   1.831   1.027   2.352
 3305SOL    HW210815   1.942   1.145   2.377
 3306SOL     OW10816   1.053   4.167   3.655
 3306SOL    HW110817   1.153   4.173   3.662
 3306SOL    HW210818   1.024   4.073   3.672
 3307SOL     OW10819   0.550   6.029   6.777
 3307SOL    HW110820   0.629   6.085   6.799
 3307SOL    HW210821   0.530   5.968   6.854
 3308SOL     OW10822   4.498   5.934   0.641
 3308SOL    HW110823   4.451   6.021   0.654
 3308SOL    HW210824   4.457   5.865   0.701
 3309SOL     OW10825   6.440   5.211   3.235
 3309SOL    HW110826   6.411   5.127   3.280
 3309SOL    HW210827   6.359   5.267   3.214
 3310SOL     OW10828   1.310   5.950   1.796
 3310SOL    HW110829   1.296   5.863   1.748
 3310SOL    HW210830   1.311   6.024   1.729
 3311SOL     OW10831   4.458   6.461   1.221
 3311SOL    HW110832   4.477   6.503   1.132
 3311SOL    HW210833   4.538   6.409   1.251
 3312SOL     OW10834   3.043   3.599   0.190
 3312SOL    HW110835   3.127   3.605   0.136
 3312SOL    HW210836   3.065   3.607   0.287
 3313SOL     OW10837   6.715   5.595   3.947
 3313SOL    HW110838   6.758   5.679   3.916
 3313SOL    HW210839   6.649   5.616   4.019
 3314SOL     OW10840   0.984   3.796   5.223
 3314SOL    HW110841   0.937   3.881   5.199
 3314SOL    HW210842   0.932   3.719   5.187
 3315SOL     OW10843   6.734   1.790   3.396
 3315SOL    HW110844   6.793   1.840   3.460
 3315SOL    HW210845   6.783   1.710   3.361
 3316SOL     OW10846   4.615   1.560   0.482
 3316SOL    HW110847   4.526   1.544   0.526
 3316SOL    HW210848   4.658   1.472   0.462
 3317SOL     OW10849   3.922   2.453   1.711
 3317SOL    HW110850   3.827   2.472   1.735
 3317SOL    HW210851   3.973   2.539   1.709
 3318SOL     OW10852   2.402   5.862   5.637
 3318SOL    HW110853   2.354   5.785   5.679
 3318SOL    HW210854   2.416   5.844   5.540
 3319SOL     OW10855   0.783   5.624   5.234
 3319SOL    HW110856   0.862   5.564   5.236
 3319SOL    HW210857   0.758   5.644   5.139
 3320SOL     OW10858   0.185   0.810   6.219
 3320SOL    HW110859   0.154   0.745   6.150
 3320SOL    HW210860   0.231   0.761   6.293
 3321SOL     OW10861   3.171   4.091   3.210
 3321SOL    HW110862   3.235   4.121   3.139
 3321SOL    HW210863   3.100   4.035   3.168
 3322SOL     OW10864   4.230   1.801   0.931
 3322SOL    HW110865   4.194   1.708   0.920
 3322SOL    HW210866   4.262   1.835   0.843
 3323SOL     OW10867   2.397   4.880   0.024
 3323SOL    HW110868   2.366   4.941   6.975
 3323SOL    HW210869   2.435   4.933   0.099
 3324SOL     OW10870   0.452   2.000   0.839
 3324SOL    HW110871   0.528   2.031   0.783
 3324SOL    HW210872   0.411   2.078   0.886
 3325SOL     OW10873   1.798   2.822   0.535
 3325SOL    HW110874   1.791   2.828   0.634
 3325SOL    HW210875   1.706   2.819   0.495
 3326SOL     OW10876   6.249   1.467   1.241
 3326SOL    HW110877   6.344   1.435   1.249
 3326SOL    HW210878   6.189   1.405   1.290
 3327SOL     OW10879   3.430   6.469   2.418
 3327SOL    HW110880   3.484   6.432   2.493
 3327SOL    HW210881   3.461   6.430   2.331
 3328SOL     OW10882   4.535   0.699   2.732
 3328SOL    HW110883   4.468   0.766   2.700
 3328SOL    HW210884   4.518   0.611   2.687
 3329SOL     OW10885   4.936   0.430   5.350
 3329SOL    HW110886   4.954   0.332   5.343
 3329SOL    HW210887   4.972   0.465   5.436
 3330SOL     OW10888   6.945   5.550   2.433
 3330SOL    HW110889   6.958   5.632   2.378
 3330SOL    HW210890   6.919   5.473   2.374
 3331SOL     OW10891   2.064   3.405   3.021
 3331SOL    HW110892   2.115   3.337   2.967
 3331SOL    HW210893   1.987   3.361   3.065
 3332SOL     OW10894   3.908   5.417   1.356
 3332SOL    HW110895   3.965   5.452   1.430
 3332SOL    HW210896   3.811   5.430   1.379
 3333SOL     OW10897   2.766   3.177   1.768
 3333SOL    HW110898   2.748   3.080   1.750
 3333SOL    HW210899   2.865   3.191   1.776
 3334SOL     OW10900   2.022   2.353   2.589
 3334SOL    HW110901   1.942   2.371   2.646
 3334SOL    HW210902   2.024   2.256   2.565
 3335SOL     OW10903   3.884   4.645   5.417
 3335SOL    HW110904   3.921   4.557   5.387
 3335SOL    HW210905   3.945   4.685   5.486
 3336SOL     OW10906   5.201   5.733   4.140
 3336SOL    HW110907   5.108   5.733   4.105
 3336SOL    HW210908   5.265   5.724   4.064
 3337SOL     OW10909   3.674   2.920   3.296
 3337SOL    HW110910   3.772   2.927   3.277
 3337SOL    HW210911   3.660   2.911   3.395
 3338SOL     OW10912   2.498   2.402   1.639
 3338SOL    HW110913   2.446   2.345   1.703
 3338SOL    HW210914   2.594   2.406   1.667
 3339SOL     OW10915   2.000   6.521   5.944
 3339SOL    HW110916   1.907   6.548   5.969
 3339SOL    HW210917   2.062   6.541   6.020
 3340SOL     OW10918   4.045   0.889   4.512
 3340SOL    HW110919   4.121   0.877   4.447
 3340SOL    HW210920   3.986   0.963   4.481
 3341SOL     OW10921   1.590   4.019   3.064
 3341SOL    HW110922   1.659   4.083   3.098
 3341SOL    HW210923   1.541   4.060   2.987
 3342SOL     OW10924   0.077   0.551   2.079
 3342SOL    HW110925   0.159   0.496   2.093
 3342SOL    HW210926   0.001   0.492   2.053
 3343SOL     OW10927   4.652   5.268   5.699
 3343SOL    HW110928   4.653   5.219   5.787
 3343SOL    HW210929   4.558   5.278   5.667
 3344SOL     OW10930   0.558   3.128   2.544
 3344SOL    HW110931   0.533   3.044   2.592
 3344SOL    HW210932   0.550   3.113   2.445
 3345SOL     OW10933   6.424   4.389   7.015
 3345SOL    HW110934   6.433   4.306   6.960
 3345SOL    HW210935   6.490   4.387   0.067
 3346SOL     OW10936   2.184   0.820   0.211
 3346SOL    HW110937   2.159   0.894   0.274
 3346SOL    HW210938   2.217   0.859   0.125
 3347SOL     OW10939   6.793   3.549   6.716
 3347SOL    HW110940   6.799   3.572   6.813
 3347SOL    HW210941   6.838   3.620   6.662
 3348SOL     OW10942   3.648   3.629   6.499
 3348SOL    HW110943   3.635   3.710   6.557
 3348SOL    HW210944   3.679   3.657   6.409
 3349SOL     OW10945   1.751   4.482   3.620
 3349SOL    HW110946   1.703   4.552   3.568
 3349SOL    HW210947   1.801   4.524   3.696
 3350SOL     OW10948   0.612   4.384   4.832
 3350SOL    HW110949   0.614   4.340   4.922
 3350SOL    HW210950   0.551   4.332   4.771
 3351SOL     OW10951   4.856   1.043   1.433
 3351SOL    HW110952   4.872   1.122   1.492
 3351SOL    HW210953   4.860   0.959   1.488
 3352SOL     OW10954   6.490   1.523   6.584
 3352SOL    HW110955   6.556   1.460   6.543
 3352SOL    HW210956   6.464   1.489   6.675
 3353SOL     OW10957   2.572   0.292   1.141
 3353SOL    HW110958   2.618   0.276   1.053
 3353SOL    HW210959   2.485   0.243   1.143
 3354SOL     OW10960   3.322   4.303   6.448
 3354SOL    HW110961   3.318   4.379   6.383
 3354SOL    HW210962   3.287   4.220   6.405
 3355SOL     OW10963   1.970   0.693   4.921
 3355SOL    HW110964   2.021   0.758   4.864
 3355SOL    HW210965   2.017   0.682   5.009
 3356SOL     OW10966   1.618   6.854   5.503
 3356SOL    HW110967   1.543   6.793   5.476
 3356SOL    HW210968   1.690   6.800   5.547
 3357SOL     OW10969   3.006   3.228   2.180
 3357SOL    HW110970   3.058   3.182   2.109
 3357SOL    HW210971   2.942   3.292   2.138
 3358SOL     OW10972   6.831   0.808   1.586
 3358SOL    HW110973   6.854   0.795   1.683
 3358SOL    HW210974   6.771   0.887   1.576
 3359SOL     OW10975   6.844   6.257   3.852
 3359SOL    HW110976   6.751   6.284   3.829
 3359SOL    HW210977   6.862   6.165   3.816
 3360SOL     OW10978   0.668   3.652   4.719
 3360SOL    HW110979   0.638   3.721   4.654
 3360SOL    HW210980   0.612   3.570   4.710
 3361SOL     OW10981   6.539   0.244   5.039
 3361SOL    HW110982   6.572   0.229   4.946
 3361SOL    HW210983   6.540   0.341   5.060
 3362SOL     OW10984   3.826   0.876   4.193
 3362SOL    HW110985   3.895   0.813   4.157
 3362SOL    HW210986   3.810   0.949   4.128
 3363SOL     OW10987   5.667   3.841   0.187
 3363SOL    HW110988   5.591   3.776   0.193
 3363SOL    HW210989   5.630   3.934   0.176
 3364SOL     OW10990   1.661   3.667   3.656
 3364SOL    HW110991   1.735   3.707   3.601
 3364SOL    HW210992   1.605   3.740   3.695
 3365SOL     OW10993   2.228   4.055   4.235
 3365SOL    HW110994   2.269   4.098   4.155
 3365SOL    HW210995   2.151   3.998   4.207
 3366SOL     OW10996   5.952   3.680   3.741
 3366SOL    HW110997   6.043   3.670   3.700
 3366SOL    HW210998   5.913   3.769   3.715
 3367SOL     OW10999   3.453   3.304   3.723
 3367SOL    HW111000   3.518   3.261   3.785
 3367SOL    HW211001   3.415   3.386   3.766
 3368SOL     OW11002   1.874   6.481   1.798
 3368SOL    HW111003   1.904   6.510   1.889
 3368SOL    HW211004   1.845   6.561   1.745
 3369SOL     OW11005   5.044   3.112   0.952
 3369SOL    HW111006   5.100   3.035   0.920
 3369SOL    HW211007   4.949   3.097   0.925
 3370SOL     OW11008   1.118   5.651   3.083
 3370SOL    HW111009   1.025   5.689   3.090
 3370SOL    HW211010   1.183   5.717   3.121
 3371SOL     OW11011   2.132   2.592   2.756
 3371SOL    HW111012   2.163   2.585   2.850
 3371SOL    HW211013   2.059   2.524   2.739
 3372SOL     OW11014   6.108   3.755   2.308
 3372SOL    HW111015   6.114   3.686   2.380
 3372SOL    HW211016   6.088   3.709   2.221
 3373SOL     OW11017   6.437   3.400   1.552
 3373SOL    HW111018   6.536   3.388   1.558
 3373SOL    HW211019   6.410   3.481   1.604
 3374SOL     OW11020   0.374   6.944   3.722
 3374SOL    HW111021   0.440   6.979   3.655
 3374SOL    HW211022   0.417   6.944   3.813
 3375SOL     OW11023   6.507   5.006   6.014
 3375SOL    HW111024   6.430   4.998   6.078
 3375SOL    HW211025   6.487   4.954   5.931
 3376SOL     OW11026   3.141   4.080   4.572
 3376SOL    HW111027   3.142   4.165   4.624
 3376SOL    HW211028   3.205   4.015   4.614
 3377SOL     OW11029   6.152   5.160   3.529
 3377SOL    HW111030   6.148   5.253   3.566
 3377SOL    HW211031   6.105   5.157   3.441
 3378SOL     OW11032   1.471   6.185   0.866
 3378SOL    HW111033   1.386   6.145   0.900
 3378SOL    HW211034   1.451   6.241   0.785
 3379SOL     OW11035   6.570   4.021   3.382
 3379SOL    HW111036   6.597   3.967   3.303
 3379SOL    HW211037   6.494   3.976   3.429
 3380SOL     OW11038   2.936   5.139   6.844
 3380SOL    HW111039   3.032   5.144   6.819
 3380SOL    HW211040   2.908   5.225   6.887
 3381SOL     OW11041   1.693   3.482   6.603
 3381SOL    HW111042   1.766   3.428   6.560
 3381SOL    HW211043   1.733   3.546   6.668
 3382SOL     OW11044   6.826   2.849   0.977
 3382SOL    HW111045   6.902   2.804   0.930
 3382SOL    HW211046   6.805   2.800   1.062
 3383SOL     OW11047   4.889   5.382   0.298
 3383SOL    HW111048   4.889   5.338   0.388
 3383SOL    HW211049   4.897   5.313   0.226
 3384SOL     OW11050   2.425   3.919   6.701
 3384SOL    HW111051   2.352   3.956   6.644
 3384SOL    HW211052   2.480   3.995   6.739
 3385SOL     OW11053   0.137   1.786   4.320
 3385SOL    HW111054   0.232   1.770   4.346
 3385SOL    HW211055   0.128   1.781   4.221
 3386SOL     OW11056   0.170   4.162   5.271
 3386SOL    HW111057   0.090   4.222   5.269
 3386SOL    HW211058   0.244   4.209   5.319
 3387SOL     OW11059   6.594   0.607   3.352
 3387SOL    HW111060   6.620   0.645   3.263
 3387SOL    HW211061   6.656   0.642   3.423
 3388SOL     OW11062   6.601   3.535   1.217
 3388SOL    HW111063   6.661   3.498   1.146
 3388SOL    HW211064   6.531   3.467   1.240
 3389SOL     OW11065   6.067   6.239   0.934
 3389SOL    HW111066   6.109   6.149   0.925
 3389SOL    HW211067   6.002   6.252   0.859
 3390SOL     OW11068   3.283   6.680   5.902
 3390SOL    HW111069   3.196   6.701   5.944
 3390SOL    HW211070   3.337   6.621   5.963
 3391SOL     OW11071   5.871   3.159   4.089
 3391SOL    HW111072   5.779   3.177   4.124
 3391SOL    HW211073   5.865   3.114   3.999
 3392SOL     OW11074   4.610   6.355   5.782
 3392SOL    HW111075   4.516   6.380   5.760
 3392SOL    HW211076   4.626   6.367   5.880
 3393SOL     OW11077   5.108   5.932   1.269
 3393SOL    HW111078   5.074   5.977   1.187
 3393SOL    HW211079   5.140   6.001   1.334
 3394SOL     OW11080   3.214   5.589   0.946
 3394SOL    HW111081   3.293   5.572   1.006
 3394SOL    HW211082   3.186   5.684   0.955
 3395SOL     OW11083   2.559   0.067   3.851
 3395SOL    HW111084   2.548   0.054   3.752
 3395SOL    HW211085   2.629   0.136   3.868
 3396SOL     OW11086   5.212   1.828   4.642
 3396SOL    HW111087   5.175   1.736   4.631
 3396SOL    HW211088   5.203   1.878   4.555
 3397SOL     OW11089   1.996   6.623   6.967
 3397SOL    HW111090   1.987   6.666   0.033
 3397SOL    HW211091   1.945   6.537   6.965
 3398SOL     OW11092   6.946   2.259   4.859
 3398SOL    HW111093   7.016   2.312   4.810
 3398SOL    HW211094   6.862   2.257   4.804
 3399SOL     OW11095   6.630   5.801   1.509
 3399SOL    HW111096   6.669   5.889   1.481
 3399SOL    HW211097   6.618   5.800   1.608
 3400SOL     OW11098   5.040   1.694   6.351
 3400SOL    HW111099   5.008   1.614   6.403
 3400SOL    HW211100   4.963   1.734   6.301
 3401SOL     OW11101   6.398   3.313   5.497
 3401SOL    HW111102   6.358   3.288   5.585
 3401SOL    HW211103   6.357   3.258   5.425
 3402SOL     OW11104   6.003   3.446   1.650
 3402SOL    HW111105   5.947   3.498   1.586
 3402SOL    HW211106   5.945   3.382   1.700
 3403SOL     OW11107   5.045   6.618   6.810
 3403SOL    HW111108   5.042   6.702   6.757
 3403SOL    HW211109   5.039   6.640   6.908
 3404SOL     OW11110   5.079   4.525   5.082
 3404SOL    HW111111   5.177   4.520   5.102
 3404SOL    HW211112   5.066   4.543   4.985
 3405SOL     OW11113   5.168   5.941   6.542
 3405SOL    HW111114   5.194   5.845   6.557
 3405SOL    HW211115   5.233   6.001   6.589
 3406SOL     OW11116   2.466   5.009   1.359
 3406SOL    HW111117   2.447   5.102   1.328
 3406SOL    HW211118   2.562   5.002   1.388
 3407SOL     OW11119   1.046   3.760   0.334
 3407SOL    HW111120   1.011   3.852   0.321
 3407SOL    HW211121   0.971   3.694   0.328
 3408SOL     OW11122   4.768   1.921   3.749
 3408SOL    HW111123   4.833   1.978   3.700
 3408SOL    HW211124   4.675   1.948   3.724
 3409SOL     OW11125   4.150   0.059   0.582
 3409SOL    HW111126   4.070   0.107   0.544
 3409SOL    HW211127   4.144   0.059   0.682
 3410SOL     OW11128   5.887   0.540   2.857
 3410SOL    HW111129   5.916   0.534   2.762
 3410SOL    HW211130   5.791   0.514   2.864
 3411SOL     OW11131   6.044   1.904   0.041
 3411SOL    HW111132   6.094   1.823   0.072
 3411SOL    HW211133   6.068   1.924   6.969
 3412SOL     OW11134   6.402   2.809   2.112
 3412SOL    HW111135   6.327   2.744   2.128
 3412SOL    HW211136   6.451   2.784   2.029
 3413SOL     OW11137   6.819   2.965   6.366
 3413SOL    HW111138   6.744   2.951   6.302
 3413SOL    HW211139   6.866   2.878   6.382
 3414SOL     OW11140   2.974   4.341   1.132
 3414SOL    HW111141   3.046   4.285   1.174
 3414SOL    HW211142   3.016   4.415   1.080
 3415SOL     OW11143   1.882   1.848   6.241
 3415SOL    HW111144   1.950   1.780   6.267
 3415SOL    HW211145   1.838   1.884   6.323
 3416SOL     OW11146   5.954   0.297   6.779
 3416SOL    HW111147   5.906   0.318   6.864
 3416SOL    HW211148   6.049   0.327   6.786
 3417SOL     OW11149   5.933   6.522   3.494
 3417SOL    HW111150   5.882   6.437   3.484
 3417SOL    HW211151   5.875   6.592   3.537
 3418SOL     OW11152   4.794   5.178   1.116
 3418SOL    HW111153   4.739   5.204   1.037
 3418SOL    HW211154   4.882   5.226   1.113
 3419SOL     OW11155   2.441   5.809   5.367
 3419SOL    HW111156   2.403   5.727   5.324
 3419SOL    HW211157   2.529   5.830   5.325
 3420SOL     OW11158   4.630   2.564   2.628
 3420SOL    HW111159   4.640   2.547   2.530
 3420SOL    HW211160   4.700   2.628   2.658
 3421SOL     OW11161   6.606   2.307   3.070
 3421SOL    HW111162   6.526   2.312   3.011
 3421SOL    HW211163   6.638   2.400   3.090
 3422SOL     OW11164   1.913   6.553   0.601
 3422SOL    HW111165   1.915   6.540   0.700
 3422SOL    HW211166   2.001   6.528   0.562
 3423SOL     OW11167   1.469   4.433   5.983
 3423SOL    HW111168   1.372   4.411   5.997
 3423SOL    HW211169   1.478   4.491   5.902
 3424SOL     OW11170   4.474   0.651   1.972
 3424SOL    HW111171   4.414   0.644   2.051
 3424SOL    HW211172   4.561   0.606   1.992
 3425SOL     OW11173   5.518   3.675   0.774
 3425SOL    HW111174   5.536   3.726   0.690
 3425SOL    HW211175   5.473   3.735   0.840
 3426SOL     OW11176   5.424   3.003   6.517
 3426SOL    HW111177   5.372   3.026   6.434
 3426SOL    HW211178   5.386   2.920   6.558
 3427SOL     OW11179   1.401   2.462   1.198
 3427SOL    HW111180   1.348   2.531   1.247
 3427SOL    HW211181   1.381   2.468   1.100
 3428SOL     OW11182   4.973   6.409   5.577
 3428SOL    HW111183   5.046   6.468   5.544
 3428SOL    HW211184   4.895   6.415   5.515
 3429SOL     OW11185   6.195   0.246   1.149
 3429SOL    HW111186   6.134   0.258   1.070
 3429SOL    HW211187   6.277   0.198   1.119
 3430SOL     OW11188   1.812   4.526   5.168
 3430SOL    HW111189   1.901   4.517   5.125
 3430SOL    HW211190   1.790   4.622   5.181
 3431SOL     OW11191   0.565   4.760   3.101
 3431SOL    HW111192   0.478   4.719   3.074
 3431SOL    HW211193   0.637   4.728   3.040
 3432SOL     OW11194   1.610   3.928   0.161
 3432SOL    HW111195   1.650   3.910   0.251
 3432SOL    HW211196   1.511   3.930   0.168
 3433SOL     OW11197   2.671   1.821   6.525
 3433SOL    HW111198   2.632   1.736   6.560
 3433SOL    HW211199   2.625   1.845   6.439
 3434SOL     OW11200   3.100   2.656   1.599
 3434SOL    HW111201   3.152   2.596   1.538
 3434SOL    HW211202   3.004   2.657   1.571
 3435SOL     OW11203   2.335   1.427   1.056
 3435SOL    HW111204   2.346   1.481   1.139
 3435SOL    HW211205   2.303   1.485   0.981
 3436SOL     OW11206   3.442   6.713   6.649
 3436SOL    HW111207   3.386   6.660   6.586
 3436SOL    HW211208   3.384   6.761   6.714
 3437SOL     OW11209   1.117   0.179   6.304
 3437SOL    HW111210   1.209   0.167   6.266
 3437SOL    HW211211   1.050   0.133   6.245
 3438SOL     OW11212   1.665   4.046   1.490
 3438SOL    HW111213   1.605   4.057   1.411
 3438SOL    HW211214   1.627   3.977   1.551
 3439SOL     OW11215   2.889   5.547   1.606
 3439SOL    HW111216   2.813   5.609   1.589
 3439SOL    HW211217   2.864   5.455   1.577
 3440SOL     OW11218   4.110   3.663   4.685
 3440SOL    HW111219   4.133   3.587   4.746
 3440SOL    HW211220   4.106   3.630   4.591
 3441SOL     OW11221   5.592   5.018   5.492
 3441SOL    HW111222   5.637   4.935   5.525
 3441SOL    HW211223   5.590   5.017   5.392
 3442SOL     OW11224   2.890   3.131   1.379
 3442SOL    HW111225   2.816   3.065   1.386
 3442SOL    HW211226   2.976   3.088   1.407
 3443SOL     OW11227   1.149   6.004   2.233
 3443SOL    HW111228   1.067   6.007   2.175
 3443SOL    HW211229   1.217   5.944   2.191
 3444SOL     OW11230   5.847   3.658   6.625
 3444SOL    HW111231   5.913   3.660   6.549
 3444SOL    HW211232   5.821   3.564   6.644
 3445SOL     OW11233   6.165   4.764   3.116
 3445SOL    HW111234   6.242   4.710   3.151
 3445SOL    HW211235   6.079   4.721   3.142
 3446SOL     OW11236   4.878   1.091   1.037
 3446SOL    HW111237   4.937   1.128   1.109
 3446SOL    HW211238   4.906   0.996   1.018
 3447SOL     OW11239   5.213   0.793   6.791
 3447SOL    HW111240   5.299   0.845   6.801
 3447SOL    HW211241   5.232   0.706   6.746
 3448SOL     OW11242   1.362   5.735   4.692
 3448SOL    HW111243   1.405   5.744   4.782
 3448SOL    HW211244   1.268   5.769   4.697
 3449SOL     OW11245   6.594   4.153   5.296
 3449SOL    HW111246   6.628   4.079   5.354
 3449SOL    HW211247   6.667   4.183   5.234
 3450SOL     OW11248   2.294   6.858   1.676
 3450SOL    HW111249   2.388   6.828   1.661
 3450SOL    HW211250   2.273   6.853   1.773
 3451SOL     OW11251   2.150   1.484   1.349
 3451SOL    HW111252   2.138   1.521   1.442
 3451SOL    HW211253   2.107   1.394   1.343
 3452SOL     OW11254   4.352   0.852   4.876
 3452SOL    HW111255   4.431   0.848   4.937
 3452SOL    HW211256   4.382   0.871   4.783
 3453SOL     OW11257   4.087   6.372   6.109
 3453SOL    HW111258   4.108   6.333   6.198
 3453SOL    HW211259   4.154   6.444   6.088
 3454SOL     OW11260   0.796   2.861   1.338
 3454SOL    HW111261   0.780   2.881   1.242
 3454SOL    HW211262   0.741   2.924   1.394
 3455SOL     OW11263   0.601   2.853   4.906
 3455SOL    HW111264   0.683   2.803   4.879
 3455SOL    HW211265   0.624   2.921   4.975
 3456SOL     OW11266   5.701   4.923   2.999
 3456SOL    HW111267   5.758   4.848   2.964
 3456SOL    HW211268   5.756   4.982   3.058
 3457SOL     OW11269   3.513   4.553   6.165
 3457SOL    HW111270   3.581   4.532   6.236
 3457SOL    HW211271   3.550   4.530   6.075
 3458SOL     OW11272   3.916   1.404   2.199
 3458SOL    HW111273   3.964   1.426   2.284
 3458SOL    HW211274   3.944   1.466   2.127
 3459SOL     OW11275   4.297   6.438   3.026
 3459SOL    HW111276   4.239   6.382   2.967
 3459SOL    HW211277   4.307   6.529   2.985
 3460SOL     OW11278   4.456   1.578   4.788
 3460SOL    HW111279   4.437   1.513   4.861
 3460SOL    HW211280   4.372   1.595   4.736
 3461SOL     OW11281   6.062   5.617   4.925
 3461SOL    HW111282   6.042   5.521   4.908
 3461SOL    HW211283   6.161   5.630   4.935
 3462SOL     OW11284   1.431   3.798   6.551
 3462SOL    HW111285   1.529   3.777   6.558
 3462SOL    HW211286   1.379   3.729   6.600
 3463SOL     OW11287   5.515   4.326   0.988
 3463SOL    HW111288   5.459   4.259   0.939
 3463SOL    HW211289   5.539   4.401   0.926
 3464SOL     OW11290   0.027   4.612   5.374
 3464SOL    HW111291   0.011   4.611   5.472
 3464SOL    HW211292   0.040   4.706   5.343
 3465SOL     OW11293   1.358   1.363   0.989
 3465SOL    HW111294   1.388   1.296   0.920
 3465SOL    HW211295   1.413   1.353   1.071
 3466SOL     OW11296   6.726   3.683   5.917
 3466SOL    HW111297   6.702   3.614   5.849
 3466SOL    HW211298   6.737   3.639   6.007
 3467SOL     OW11299   2.001   2.236   0.066
 3467SOL    HW111300   2.064   2.187   0.006
 3467SOL    HW211301   1.930   2.173   0.099
 3468SOL     OW11302   3.608   6.693   3.705
 3468SOL    HW111303   3.526   6.687   3.762
 3468SOL    HW211304   3.670   6.761   3.743
 3469SOL     OW11305   5.392   3.116   2.986
 3469SOL    HW111306   5.344   3.138   3.071
 3469SOL    HW211307   5.491   3.128   3.000
 3470SOL     OW11308   0.260   5.150   1.196
 3470SOL    HW111309   0.205   5.202   1.260
 3470SOL    HW211310   0.343   5.201   1.174
 3471SOL     OW11311   4.107   6.711   5.022
 3471SOL    HW111312   4.017   6.674   5.047
 3471SOL    HW211313   4.109   6.730   4.924
 3472SOL     OW11314   3.354   1.130   5.658
 3472SOL    HW111315   3.434   1.104   5.604
 3472SOL    HW211316   3.305   1.204   5.612
 3473SOL     OW11317   5.342   0.966   5.577
 3473SOL    HW111318   5.346   1.002   5.484
 3473SOL    HW211319   5.384   1.032   5.640
 3474SOL     OW11320   4.570   4.574   0.423
 3474SOL    HW111321   4.660   4.530   0.423
 3474SOL    HW211322   4.580   4.671   0.399
 3475SOL     OW11323   2.074   5.618   4.943
 3475SOL    HW111324   2.041   5.602   5.036
 3475SOL    HW211325   2.042   5.544   4.884
 3476SOL     OW11326   4.937   0.957   4.416
 3476SOL    HW111327   4.900   1.040   4.458
 3476SOL    HW211328   4.864   0.908   4.367
 3477SOL     OW11329   4.561   5.931   1.593
 3477SOL    HW111330   4.578   5.931   1.494
 3477SOL    HW211331   4.580   5.840   1.629
 3478SOL     OW11332   3.868   4.183   0.089
 3478SOL    HW111333   3.903   4.274   0.068
 3478SOL    HW211334   3.795   4.159   0.025
 3479SOL     OW11335   1.033   0.257   1.796
 3479SOL    HW111336   1.011   0.298   1.707
 3479SOL    HW211337   1.127   0.280   1.821
 3480SOL     OW11338   1.106   1.375   3.603
 3480SOL    HW111339   1.164   1.422   3.537
 3480SOL    HW211340   1.148   1.381   3.694
 3481SOL     OW11341   2.406   6.913   6.884
 3481SOL    HW111342   2.323   6.858   6.895
 3481SOL    HW211343   2.411   6.947   6.790
 3482SOL     OW11344   0.629   1.725   0.565
 3482SOL    HW111345   0.560   1.717   0.637
 3482SOL    HW211346   0.590   1.695   0.478
 3483SOL     OW11347   3.701   0.003   1.361
 3483SOL    HW111348   3.763   6.980   1.424
 3483SOL    HW211349   3.635   0.057   1.413
 3484SOL     OW11350   3.662   3.346   3.494
 3484SOL    HW111351   3.703   3.437   3.495
 3484SOL    HW211352   3.577   3.346   3.547
 3485SOL     OW11353   0.373   2.054   4.941
 3485SOL    HW111354   0.395   2.137   4.993
 3485SOL    HW211355   0.458   2.011   4.911
 3486SOL     OW11356   4.294   1.560   2.282
 3486SOL    HW111357   4.317   1.654   2.306
 3486SOL    HW211358   4.208   1.534   2.326
 3487SOL     OW11359   7.002   0.570   6.605
 3487SOL    HW111360   0.027   0.656   6.621
 3487SOL    HW211361   6.945   0.548   6.685
 3488SOL     OW11362   6.263   3.399   3.848
 3488SOL    HW111363   6.285   3.495   3.831
 3488SOL    HW211364   6.169   3.392   3.881
 3489SOL     OW11365   2.876   7.005   0.996
 3489SOL    HW111366   2.779   6.981   0.991
 3489SOL    HW211367   2.913   6.979   1.085
 3490SOL     OW11368   3.871   3.515   0.789
 3490SOL    HW111369   3.821   3.511   0.702
 3490SOL    HW211370   3.922   3.431   0.803
 3491SOL     OW11371   0.395   2.996   4.435
 3491SOL    HW111372   0.402   3.080   4.382
 3491SOL    HW211373   0.469   2.992   4.502
 3492SOL     OW11374   5.701   4.797   6.610
 3492SOL    HW111375   5.625   4.861   6.624
 3492SOL    HW211376   5.699   4.727   6.682
 3493SOL     OW11377   6.624   4.823   7.016
 3493SOL    HW111378   6.647   4.840   0.088
 3493SOL    HW211379   6.614   4.725   7.000
 3494SOL     OW11380   3.127   0.252   0.630
 3494SOL    HW111381   3.138   0.311   0.710
 3494SOL    HW211382   3.039   0.205   0.635
 3495SOL     OW11383   5.011   4.942   0.066
 3495SOL    HW111384   4.994   4.894   0.152
 3495SOL    HW211385   5.011   5.040   0.081
 3496SOL     OW11386   1.713   3.912   0.434
 3496SOL    HW111387   1.684   3.969   0.511
 3496SOL    HW211388   1.799   3.867   0.458
 3497SOL     OW11389   4.778   6.865   3.573
 3497SOL    HW111390   4.740   6.942   3.625
 3497SOL    HW211391   4.788   6.891   3.477
 3498SOL     OW11392   2.659   1.171   2.067
 3498SOL    HW111393   2.680   1.156   2.164
 3498SOL    HW211394   2.744   1.183   2.016
 3499SOL     OW11395   6.444   3.308   3.663
 3499SOL    HW111396   6.380   3.330   3.736
 3499SOL    HW211397   6.530   3.357   3.678
 3500SOL     OW11398   6.625   3.482   0.715
 3500SOL    HW111399   6.685   3.557   0.745
 3500SOL    HW211400   6.650   3.398   0.764
 3501SOL     OW11401   1.370   4.673   4.149
 3501SOL    HW111402   1.371   4.665   4.049
 3501SOL    HW211403   1.450   4.726   4.179
 3502SOL     OW11404   0.387   3.449   1.755
 3502SOL    HW111405   0.406   3.545   1.776
 3502SOL    HW211406   0.289   3.437   1.742
 3503SOL     OW11407   4.860   6.532   4.263
 3503SOL    HW111408   4.880   6.630   4.260
 3503SOL    HW211409   4.938   6.481   4.226
 3504SOL     OW11410   2.069   3.575   2.228
 3504SOL    HW111411   2.154   3.561   2.176
 3504SOL    HW211412   1.991   3.544   2.174
 3505SOL     OW11413   4.736   5.706   5.218
 3505SOL    HW111414   4.823   5.754   5.211
 3505SOL    HW211415   4.753   5.608   5.232
 3506SOL     OW11416   5.128   4.841   2.361
 3506SOL    HW111417   5.223   4.834   2.389
 3506SOL    HW211418   5.095   4.751   2.332
 3507SOL     OW11419   0.829   0.341   6.022
 3507SOL    HW111420   0.877   0.300   5.944
 3507SOL    HW211421   0.758   0.404   5.987
 3508SOL     OW11422   5.983   3.288   6.473
 3508SOL    HW111423   5.954   3.359   6.537
 3508SOL    HW211424   5.926   3.293   6.391
 3509SOL     OW11425   6.645   6.035   1.069
 3509SOL    HW111426   6.739   6.009   1.090
 3509SOL    HW211427   6.589   6.030   1.152
 3510SOL     OW11428   1.679   3.159   2.517
 3510SOL    HW111429   1.582   3.183   2.515
 3510SOL    HW211430   1.733   3.234   2.481
 3511SOL     OW11431   0.776   0.925   5.475
 3511SOL    HW111432   0.750   1.001   5.535
 3511SOL    HW211433   0.700   0.862   5.467
 3512SOL     OW11434   3.090   3.668   1.036
 3512SOL    HW111435   3.027   3.591   1.021
 3512SOL    HW211436   3.090   3.727   0.956
 3513SOL     OW11437   5.878   4.972   1.013
 3513SOL    HW111438   5.823   4.889   1.005
 3513SOL    HW211439   5.821   5.052   0.993
 3514SOL     OW11440   1.570   6.365   1.751
 3514SOL    HW111441   1.589   6.351   1.849
 3514SOL    HW211442   1.619   6.445   1.719
 3515SOL     OW11443   2.815   5.956   3.384
 3515SOL    HW111444   2.915   5.957   3.385
 3515SOL    HW211445   2.783   5.884   3.322
 3516SOL     OW11446   2.783   1.296   0.479
 3516SOL    HW111447   2.794   1.203   0.515
 3516SOL    HW211448   2.731   1.351   0.544
 3517SOL     OW11449   1.515   1.148   6.388
 3517SOL    HW111450   1.605   1.188   6.404
 3517SOL    HW211451   1.444   1.212   6.419
 3518SOL     OW11452   4.335   3.066   5.966
 3518SOL    HW111453   4.304   3.046   5.873
 3518SOL    HW211454   4.357   2.980   6.013
 3519SOL     OW11455   2.419   6.604   0.897
 3519SOL    HW111456   2.401   6.701   0.912
 3519SOL    HW211457   2.341   6.550   0.930
 3520SOL     OW11458   4.444   5.599   1.054
 3520SOL    HW111459   4.377   5.608   1.128
 3520SOL    HW211460   4.461   5.502   1.036
 3521SOL     OW11461   5.563   2.390   0.700
 3521SOL    HW111462   5.551   2.469   0.760
 3521SOL    HW211463   5.474   2.357   0.670
 3522SOL     OW11464   3.418   4.943   2.339
 3522SOL    HW111465   3.405   5.041   2.325
 3522SOL    HW211466   3.347   4.892   2.290
 3523SOL     OW11467   2.342   5.054   5.962
 3523SOL    HW111468   2.276   5.110   6.011
 3523SOL    HW211469   2.295   4.979   5.916
 3524SOL     OW11470   2.499   7.006   1.234
 3524SOL    HW111471   2.423   6.943   1.222
 3524SOL    HW211472   2.491   0.026   1.324
 3525SOL     OW11473   1.237   2.998   2.621
 3525SOL    HW111474   1.219   3.017   2.718
 3525SOL    HW211475   1.204   2.907   2.598
 3526SOL     OW11476   2.241   0.733   2.804
 3526SOL    HW111477   2.271   0.733   2.708
 3526SOL    HW211478   2.311   0.777   2.861
 3527SOL     OW11479   4.698   3.373   5.814
 3527SOL    HW111480   4.765   3.409   5.879
 3527SOL    HW211481   4.645   3.301   5.858
 3528SOL     OW11482   0.313   6.954   4.567
 3528SOL    HW111483   0.299   6.942   4.666
 3528SOL    HW211484   0.227   6.934   4.519
 3529SOL     OW11485   3.649   6.517   6.679
 3529SOL    HW111486   3.649   6.510   6.579
 3529SOL    HW211487   3.587   6.590   6.708
 3530SOL     OW11488   2.211   6.048   2.864
 3530SOL    HW111489   2.182   6.006   2.778
 3530SOL    HW211490   2.153   6.013   2.938
 3531SOL     OW11491   3.976   3.258   6.941
 3531SOL    HW111492   4.060   3.205   6.955
 3531SOL    HW211493   3.999   3.344   6.895
 3532SOL     OW11494   1.679   6.872   0.352
 3532SOL    HW111495   1.583   6.893   0.370
 3532SOL    HW211496   1.726   6.955   0.321
 3533SOL     OW11497   1.232   1.502   3.378
 3533SOL    HW111498   1.225   1.407   3.348
 3533SOL    HW211499   1.193   1.561   3.307
 3534SOL     OW11500   5.358   1.475   4.601
 3534SOL    HW111501   5.377   1.515   4.511
 3534SOL    HW211502   5.298   1.396   4.590
 3535SOL     OW11503   4.690   5.742   6.668
 3535SOL    HW111504   4.768   5.694   6.708
 3535SOL    HW211505   4.620   5.755   6.738
 3536SOL     OW11506   0.792   4.227   3.747
 3536SOL    HW111507   0.889   4.212   3.726
 3536SOL    HW211508   0.777   4.323   3.770
 3537SOL     OW11509   2.522   4.792   0.457
 3537SOL    HW111510   2.476   4.708   0.484
 3537SOL    HW211511   2.561   4.837   0.538
 3538SOL     OW11512   2.680   0.808   4.757
 3538SOL    HW111513   2.749   0.864   4.804
 3538SOL    HW211514   2.683   0.828   4.659
 3539SOL     OW11515   5.657   5.784   6.447
 3539SOL    HW111516   5.580   5.785   6.382
 3539SOL    HW211517   5.654   5.700   6.500
 3540SOL     OW11518   2.865   3.847   6.838
 3540SOL    HW111519   2.904   3.895   6.760
 3540SOL    HW211520   2.766   3.836   6.824
 3541SOL     OW11521   2.153   2.683   1.448
 3541SOL    HW111522   2.244   2.725   1.443
 3541SOL    HW211523   2.148   2.607   1.384
 3542SOL     OW11524   5.280   1.563   6.361
 3542SOL    HW111525   5.289   1.564   6.262
 3542SOL    HW211526   5.195   1.608   6.387
 3543SOL     OW11527   0.551   2.457   3.052
 3543SOL    HW111528   0.608   2.444   3.133
 3543SOL    HW211529   0.575   2.388   2.983
 3544SOL     OW11530   2.952   4.019   6.636
 3544SOL    HW111531   2.990   3.985   6.550
 3544SOL    HW211532   2.990   4.109   6.657
 3545SOL     OW11533   3.396   6.425   1.405
 3545SOL    HW111534   3.397   6.367   1.324
 3545SOL    HW211535   3.468   6.494   1.397
 3546SOL     OW11536   6.818   4.447   2.948
 3546SOL    HW111537   6.784   4.533   2.988
 3546SOL    HW211538   6.900   4.466   2.894
 3547SOL     OW11539   0.841   4.150   5.561
 3547SOL    HW111540   0.847   4.188   5.469
 3547SOL    HW211541   0.812   4.054   5.556
 3548SOL     OW11542   5.415   0.551   4.939
 3548SOL    HW111543   5.425   0.474   5.002
 3548SOL    HW211544   5.505   0.583   4.911
 3549SOL     OW11545   2.789   6.466   0.172
 3549SOL    HW111546   2.820   6.512   0.089
 3549SOL    HW211547   2.694   6.490   0.191
 3550SOL     OW11548   5.551   0.916   5.337
 3550SOL    HW111549   5.459   0.931   5.299
 3550SOL    HW211550   5.572   0.989   5.401
 3551SOL     OW11551   4.654   2.336   4.257
 3551SOL    HW111552   4.722   2.337   4.330
 3551SOL    HW211553   4.652   2.245   4.215
 3552SOL     OW11554   0.231   7.008   2.837
 3552SOL    HW111555   0.286   6.975   2.914
 3552SOL    HW211556   0.164   0.051   2.869
 3553SOL     OW11557   5.403   5.755   7.015
 3553SOL    HW111558   5.407   5.720   0.085
 3553SOL    HW211559   5.489   5.802   6.994
 3554SOL     OW11560   5.522   3.071   0.964
 3554SOL    HW111561   5.605   3.034   0.922
 3554SOL    HW211562   5.546   3.118   1.048
 3555SOL     OW11563   3.046   2.229   4.758
 3555SOL    HW111564   3.042   2.312   4.702
 3555SOL    HW211565   3.076   2.253   4.850
 3556SOL     OW11566   5.560   1.131   5.508
 3556SOL    HW111567   5.516   1.195   5.444
 3556SOL    HW211568   5.558   1.170   5.600
 3557SOL     OW11569   6.061   0.823   0.639
 3557SOL    HW111570   6.119   0.849   0.563
 3557SOL    HW211571   6.117   0.811   0.721
 3558SOL     OW11572   3.534   5.992   2.082
 3558SOL    HW111573   3.532   6.044   1.996
 3558SOL    HW211574   3.443   5.958   2.103
 3559SOL     OW11575   4.961   6.645   5.957
 3559SOL    HW111576   4.918   6.704   5.888
 3559SOL    HW211577   4.979   6.555   5.917
 3560SOL     OW11578   1.950   5.229   3.969
 3560SOL    HW111579   1.864   5.225   3.917
 3560SOL    HW211580   1.930   5.232   4.067
 3561SOL     OW11581   4.753   3.629   5.384
 3561SOL    HW111582   4.713   3.587   5.302
 3561SOL    HW211583   4.713   3.720   5.396
 3562SOL     OW11584   2.230   1.599   5.992
 3562SOL    HW111585   2.288   1.664   6.041
 3562SOL    HW211586   2.197   1.529   6.055
 3563SOL     OW11587   6.017   2.831   5.065
 3563SOL    HW111588   6.095   2.853   5.123
 3563SOL    HW211589   6.034   2.744   5.018
 3564SOL     OW11590   6.011   3.849   1.652
 3564SOL    HW111591   5.923   3.857   1.699
 3564SOL    HW211592   6.051   3.759   1.672
 3565SOL     OW11593   3.824   5.964   3.792
 3565SOL    HW111594   3.837   5.864   3.790
 3565SOL    HW211595   3.782   5.990   3.879
 3566SOL     OW11596   1.176   0.026   5.376
 3566SOL    HW111597   1.272   7.021   5.374
 3566SOL    HW211598   1.131   7.023   5.291
 3567SOL     OW11599   6.435   3.693   6.613
 3567SOL    HW111600   6.487   3.630   6.555
 3567SOL    HW211601   6.392   3.763   6.555
 3568SOL     OW11602   5.459   3.702   6.079
 3568SOL    HW111603   5.446   3.738   5.986
 3568SOL    HW211604   5.507   3.770   6.134
 3569SOL     OW11605   2.103   1.248   4.785
 3569SOL    HW111606   2.012   1.285   4.770
 3569SOL    HW211607   2.098   1.168   4.844
 3570SOL     OW11608   6.303   1.655   3.113
 3570SOL    HW111609   6.381   1.688   3.167
 3570SOL    HW211610   6.303   1.555   3.112
 3571SOL     OW11611   6.667   6.329   5.712
 3571SOL    HW111612   6.751   6.277   5.726
 3571SOL    HW211613   6.619   6.337   5.800
 3572SOL     OW11614   6.143   5.940   4.222
 3572SOL    HW111615   6.131   5.985   4.310
 3572SOL    HW211616   6.147   6.008   4.149
 3573SOL     OW11617   0.944   2.557   3.353
 3573SOL    HW111618   0.997   2.519   3.429
 3573SOL    HW211619   1.006   2.605   3.290
 3574SOL     OW11620   6.794   3.703   0.733
 3574SOL    HW111621   6.821   3.800   0.732
 3574SOL    HW211622   6.846   3.654   0.663
 3575SOL     OW11623   6.316   4.998   1.872
 3575SOL    HW111624   6.373   4.918   1.892
 3575SOL    HW211625   6.365   5.059   1.809
 3576SOL     OW11626   0.773   1.601   5.961
 3576SOL    HW111627   0.712   1.588   5.883
 3576SOL    HW211628   0.728   1.659   6.029
 3577SOL     OW11629   1.760   3.055   0.201
 3577SOL    HW111630   1.794   3.083   0.112
 3577SOL    HW211631   1.834   3.060   0.268
 3578SOL     OW11632   3.887   5.548   0.879
 3578SOL    HW111633   3.983   5.565   0.857
 3578SOL    HW211634   3.840   5.509   0.800
 3579SOL     OW11635   0.318   4.644   4.519
 3579SOL    HW111636   0.347   4.586   4.443
 3579SOL    HW211637   0.236   4.694   4.494
 3580SOL     OW11638   6.330   2.374   2.186
 3580SOL    HW111639   6.278   2.459   2.181
 3580SOL    HW211640   6.387   2.375   2.267
 3581SOL     OW11641   6.683   0.435   2.739
 3581SOL    HW111642   6.675   0.500   2.663
 3581SOL    HW211643   6.731   0.353   2.708
 3582SOL     OW11644   1.326   0.940   6.309
 3582SOL    HW111645   1.403   0.993   6.344
 3582SOL    HW211646   1.353   0.893   6.224
 3583SOL     OW11647   1.510   5.382   0.525
 3583SOL    HW111648   1.554   5.294   0.512
 3583SOL    HW211649   1.458   5.380   0.611
 3584SOL     OW11650   4.793   5.903   6.242
 3584SOL    HW111651   4.698   5.882   6.268
 3584SOL    HW211652   4.839   5.948   6.319
 3585SOL     OW11653   2.603   4.879   3.785
 3585SOL    HW111654   2.617   4.790   3.740
 3585SOL    HW211655   2.684   4.901   3.840
 3586SOL     OW11656   6.347   2.642   6.337
 3586SOL    HW111657   6.410   2.720   6.331
 3586SOL    HW211658   6.392   2.567   6.385
 3587SOL     OW11659   4.293   6.952   6.516
 3587SOL    HW111660   4.386   6.976   6.542
 3587SOL    HW211661   4.282   6.853   6.520
 3588SOL     OW11662   1.709   1.560   5.600
 3588SOL    HW111663   1.618   1.599   5.610
 3588SOL    HW211664   1.749   1.592   5.514
 3589SOL     OW11665   3.156   0.630   5.342
 3589SOL    HW111666   3.198   0.694   5.278
 3589SOL    HW211667   3.225   0.566   5.376
 3590SOL     OW11668   1.980   5.555   6.769
 3590SOL    HW111669   1.950   5.532   6.676
 3590SOL    HW211670   2.064   5.608   6.765
 3591SOL     OW11671   5.001   2.616   5.553
 3591SOL    HW111672   5.079   2.653   5.502
 3591SOL    HW211673   4.976   2.527   5.516
 3592SOL     OW11674   4.996   2.968   2.432
 3592SOL    HW111675   4.973   2.999   2.340
 3592SOL    HW211676   5.056   2.888   2.428
 3593SOL     OW11677   1.808   5.882   3.889
 3593SOL    HW111678   1.867   5.931   3.824
 3593SOL    HW211679   1.729   5.940   3.911
 3594SOL     OW11680   3.015   1.143   3.917
 3594SOL    HW111681   3.025   1.063   3.857
 3594SOL    HW211682   2.965   1.117   3.999
 3595SOL     OW11683   3.211   6.135   5.816
 3595SOL    HW111684   3.160   6.146   5.731
 3595SOL    HW211685   3.237   6.225   5.851
 3596SOL     OW11686   6.909   2.487   2.678
 3596SOL    HW111687   6.980   2.544   2.637
 3596SOL    HW211688   6.931   2.390   2.663
 3597SOL     OW11689   3.735   5.425   4.041
 3597SOL    HW111690   3.769   5.360   3.973
 3597SOL    HW211691   3.640   5.449   4.019
 3598SOL     OW11692   0.950   0.122   6.703
 3598SOL    HW111693   0.990   0.062   6.635
 3598SOL    HW211694   1.001   0.115   6.789
 3599SOL     OW11695   0.295   1.309   4.585
 3599SOL    HW111696   0.241   1.333   4.665
 3599SOL    HW211697   0.323   1.213   4.591
 3600SOL     OW11698   6.082   1.459   0.807
 3600SOL    HW111699   6.081   1.527   0.733
 3600SOL    HW211700   6.005   1.397   0.796
 3601SOL     OW11701   6.323   3.930   6.462
 3601SOL    HW111702   6.396   3.987   6.425
 3601SOL    HW211703   6.239   3.983   6.469
 3602SOL     OW11704   2.055   1.005   0.373
 3602SOL    HW111705   2.044   1.081   0.436
 3602SOL    HW211706   2.016   0.922   0.413
 3603SOL     OW11707   4.402   4.954   4.127
 3603SOL    HW111708   4.376   4.883   4.061
 3603SOL    HW211709   4.475   5.011   4.088
 3604SOL     OW11710   0.372   2.907   2.735
 3604SOL    HW111711   0.437   2.948   2.799
 3604SOL    HW211712   0.300   2.973   2.714
 3605SOL     OW11713   5.676   3.557   6.919
 3605SOL    HW111714   5.628   3.569   6.833
 3605SOL    HW211715   5.669   3.462   6.949
 3606SOL     OW11716   0.738   4.588   5.027
 3606SOL    HW111717   0.698   4.501   4.997
 3606SOL    HW211718   0.806   4.618   4.959
 3607SOL     OW11719   5.514   6.881   0.342
 3607SOL    HW111720   5.582   6.953   0.353
 3607SOL    HW211721   5.556   6.803   0.296
 3608SOL     OW11722   0.596   2.388   2.136
 3608SOL    HW111723   0.692   2.407   2.152
 3608SOL    HW211724   0.581   2.368   2.039
 3609SOL     OW11725   6.636   0.092   4.239
 3609SOL    HW111726   6.676   0.120   4.152
 3609SOL    HW211727   6.636   0.169   4.302
 3610SOL     OW11728   1.295   6.509   5.977
 3610SOL    HW111729   1.234   6.487   6.054
 3610SOL    HW211730   1.285   6.441   5.906
 3611SOL     OW11731   3.434   4.969   5.427
 3611SOL    HW111732   3.528   4.960   5.459
 3611SOL    HW211733   3.418   4.903   5.353
 3612SOL     OW11734   1.063   6.951   1.307
 3612SOL    HW111735   0.992   6.910   1.250
 3612SOL    HW211736   1.106   6.881   1.363
 3613SOL     OW11737   5.541   5.364   6.690
 3613SOL    HW111738   5.585   5.452   6.674
 3613SOL    HW211739   5.610   5.292   6.693
 3614SOL     OW11740   3.516   2.924   3.578
 3614SOL    HW111741   3.466   2.984   3.640
 3614SOL    HW211742   3.603   2.898   3.620
 3615SOL     OW11743   6.431   5.950   6.409
 3615SOL    HW111744   6.402   5.866   6.454
 3615SOL    HW211745   6.358   5.983   6.349
 3616SOL     OW11746   0.054   2.383   5.305
 3616SOL    HW111747   0.047   2.291   5.344
 3616SOL    HW211748   7.009   2.394   5.233
 3617SOL     OW11749   0.241   1.261   6.466
 3617SOL    HW111750   0.158   1.237   6.517
 3617SOL    HW211751   0.270   1.184   6.410
 3618SOL     OW11752   2.180   2.051   6.970
 3618SOL    HW111753   2.158   1.980   0.013
 3618SOL    HW211754   2.178   2.013   6.878
 3619SOL     OW11755   6.151   2.128   4.455
 3619SOL    HW111756   6.083   2.168   4.516
 3619SOL    HW211757   6.109   2.052   4.404
 3620SOL     OW11758   5.982   6.829   5.383
 3620SOL    HW111759   6.009   6.773   5.461
 3620SOL    HW211760   5.902   6.884   5.408
 3621SOL     OW11761   2.471   3.654   5.642
 3621SOL    HW111762   2.394   3.651   5.578
 3621SOL    HW211763   2.513   3.564   5.648
 3622SOL     OW11764   0.831   2.648   1.940
 3622SOL    HW111765   0.806   2.589   1.863
 3622SOL    HW211766   0.794   2.740   1.925
 3623SOL     OW11767   5.386   4.897   3.343
 3623SOL    HW111768   5.367   4.856   3.433
 3623SOL    HW211769   5.380   4.996   3.350
 3624SOL     OW11770   2.500   6.465   2.276
 3624SOL    HW111771   2.538   6.550   2.312
 3624SOL    HW211772   2.519   6.459   2.178
 3625SOL     OW11773   6.382   3.459   5.137
 3625SOL    HW111774   6.402   3.368   5.099
 3625SOL    HW211775   6.300   3.453   5.193
 3626SOL     OW11776   2.210   3.706   5.112
 3626SOL    HW111777   2.246   3.800   5.106
 3626SOL    HW211778   2.110   3.708   5.108
 3627SOL     OW11779   3.067   3.788   3.763
 3627SOL    HW111780   3.010   3.773   3.683
 3627SOL    HW211781   3.104   3.700   3.795
 3628SOL     OW11782   2.948   5.148   2.377
 3628SOL    HW111783   2.912   5.101   2.458
 3628SOL    HW211784   2.934   5.091   2.296
 3629SOL     OW11785   6.025   1.865   5.309
 3629SOL    HW111786   6.059   1.869   5.215
 3629SOL    HW211787   6.101   1.842   5.371
 3630SOL     OW11788   6.768   2.010   4.434
 3630SOL    HW111789   6.842   1.948   4.461
 3630SOL    HW211790   6.752   2.001   4.335
 3631SOL     OW11791   2.408   0.926   4.696
 3631SOL    HW111792   2.394   1.019   4.661
 3631SOL    HW211793   2.414   0.929   4.796
 3632SOL     OW11794   4.883   0.738   0.502
 3632SOL    HW111795   4.843   0.778   0.419
 3632SOL    HW211796   4.940   0.660   0.477
 3633SOL     OW11797   2.384   2.965   6.006
 3633SOL    HW111798   2.378   2.877   5.958
 3633SOL    HW211799   2.444   3.026   5.955
 3634SOL     OW11800   1.710   5.940   4.880
 3634SOL    HW111801   1.711   6.013   4.812
 3634SOL    HW211802   1.800   5.934   4.923
 3635SOL     OW11803   2.699   1.623   5.591
 3635SOL    HW111804   2.795   1.650   5.588
 3635SOL    HW211805   2.676   1.571   5.508
 3636SOL     OW11806   0.478   5.294   5.674
 3636SOL    HW111807   0.394   5.257   5.715
 3636SOL    HW211808   0.546   5.221   5.667
 3637SOL     OW11809   5.183   1.134   1.128
 3637SOL    HW111810   5.168   1.058   1.192
 3637SOL    HW211811   5.279   1.134   1.099
 3638SOL     OW11812   0.030   4.509   3.499
 3638SOL    HW111813   6.962   4.504   3.461
 3638SOL    HW211814   0.041   4.440   3.570
 3639SOL     OW11815   2.348   4.973   1.012
 3639SOL    HW111816   2.272   4.963   1.077
 3639SOL    HW211817   2.429   5.005   1.061
 3640SOL     OW11818   3.641   5.941   1.389
 3640SOL    HW111819   3.645   5.950   1.290
 3640SOL    HW211820   3.705   5.870   1.419
 3641SOL     OW11821   3.101   1.263   4.882
 3641SOL    HW111822   3.023   1.312   4.842
 3641SOL    HW211823   3.123   1.304   4.971
 3642SOL     OW11824   5.360   0.518   4.008
 3642SOL    HW111825   5.438   0.503   3.947
 3642SOL    HW211826   5.371   0.605   4.056
 3643SOL     OW11827   2.732   4.745   4.826
 3643SOL    HW111828   2.764   4.663   4.873
 3643SOL    HW211829   2.732   4.822   4.890
 3644SOL     OW11830   6.721   1.222   0.708
 3644SOL    HW111831   6.736   1.294   0.776
 3644SOL    HW211832   6.751   1.254   0.618
 3645SOL     OW11833   4.563   1.449   3.767
 3645SOL    HW111834   4.603   1.472   3.856
 3645SOL    HW211835   4.469   1.483   3.763
 3646SOL     OW11836   6.969   5.056   5.528
 3646SOL    HW111837   6.904   5.126   5.558
 3646SOL    HW211838   0.037   5.079   5.561
 3647SOL     OW11839   1.665   2.936   0.794
 3647SOL    HW111840   1.625   2.996   0.863
 3647SOL    HW211841   1.594   2.875   0.759
 3648SOL     OW11842   3.720   5.469   1.953
 3648SOL    HW111843   3.735   5.424   2.041
 3648SOL    HW211844   3.693   5.564   1.968
 3649SOL     OW11845   4.432   3.474   0.813
 3649SOL    HW111846   4.433   3.384   0.769
 3649SOL    HW211847   4.440   3.462   0.912
 3650SOL     OW11848   0.695   5.925   1.683
 3650SOL    HW111849   0.645   5.914   1.769
 3650SOL    HW211850   0.655   5.865   1.614
 3651SOL     OW11851   1.109   6.270   2.742
 3651SOL    HW111852   1.093   6.254   2.645
 3651SOL    HW211853   1.021   6.270   2.791
 3652SOL     OW11854   4.606   6.051   3.528
 3652SOL    HW111855   4.604   6.151   3.531
 3652SOL    HW211856   4.576   6.015   3.616
 3653SOL     OW11857   6.950   1.443   2.934
 3653SOL    HW111858   0.020   1.435   2.899
 3653SOL    HW211859   6.900   1.510   2.879
 3654SOL     OW11860   1.682   6.627   0.858
 3654SOL    HW111861   1.680   6.713   0.807
 3654SOL    HW211862   1.592   6.609   0.897
 3655SOL     OW11863   1.898   0.315   4.457
 3655SOL    HW111864   1.951   0.256   4.519
 3655SOL    HW211865   1.852   0.386   4.510
 3656SOL     OW11866   1.950   2.696   2.399
 3656SOL    HW111867   1.951   2.794   2.377
 3656SOL    HW211868   1.977   2.683   2.494
 3657SOL     OW11869   3.703   5.612   1.127
 3657SOL    HW111870   3.703   5.572   1.218
 3657SOL    HW211871   3.793   5.603   1.086
 3658SOL     OW11872   0.916   6.027   5.664
 3658SOL    HW111873   0.831   6.073   5.689
 3658SOL    HW211874   0.896   5.932   5.639
 3659SOL     OW11875   2.227   4.462   6.954
 3659SOL    HW111876   2.222   4.423   0.022
 3659SOL    HW211877   2.142   4.445   6.905
 3660SOL     OW11878   4.479   5.758   2.224
 3660SOL    HW111879   4.468   5.659   2.220
 3660SOL    HW211880   4.389   5.801   2.238
 3661SOL     OW11881   4.674   1.119   0.598
 3661SOL    HW111882   4.751   1.068   0.637
 3661SOL    HW211883   4.595   1.111   0.659
 3662SOL     OW11884   3.338   0.439   5.442
 3662SOL    HW111885   3.276   0.447   5.520
 3662SOL    HW211886   3.430   0.470   5.468
 3663SOL     OW11887   1.475   2.134   0.102
 3663SOL    HW111888   1.451   2.081   0.183
 3663SOL    HW211889   1.527   2.215   0.130
 3664SOL     OW11890   5.196   1.640   1.064
 3664SOL    HW111891   5.122   1.706   1.076
 3664SOL    HW211892   5.281   1.688   1.043
 3665SOL     OW11893   0.655   6.946   5.219
 3665SOL    HW111894   0.697   6.888   5.150
 3665SOL    HW211895   0.677   0.018   5.200
 3666SOL     OW11896   1.423   3.547   4.437
 3666SOL    HW111897   1.357   3.621   4.447
 3666SOL    HW211898   1.393   3.486   4.364
 3667SOL     OW11899   6.674   0.776   6.121
 3667SOL    HW111900   6.639   0.835   6.049
 3667SOL    HW211901   6.731   0.705   6.081
 3668SOL     OW11902   1.787   0.143   2.681
 3668SOL    HW111903   1.778   0.224   2.739
 3668SOL    HW211904   1.710   0.082   2.696
 3669SOL     OW11905   6.599   2.186   3.307
 3669SOL    HW111906   6.620   2.247   3.231
 3669SOL    HW211907   6.533   2.117   3.277
 3670SOL     OW11908   2.071   5.864   5.801
 3670SOL    HW111909   2.021   5.880   5.716
 3670SOL    HW211910   2.101   5.952   5.839
 3671SOL     OW11911   1.010   0.256   2.972
 3671SOL    HW111912   0.960   0.225   2.891
 3671SOL    HW211913   0.972   0.211   3.053
 3672SOL     OW11914   6.710   1.530   6.810
 3672SOL    HW111915   6.666   1.477   6.882
 3672SOL    HW211916   6.768   1.601   6.852
 3673SOL     OW11917   4.574   1.284   6.784
 3673SOL    HW111918   4.534   1.376   6.779
 3673SOL    HW211919   4.642   1.273   6.712
 3674SOL     OW11920   0.997   0.048   0.212
 3674SOL    HW111921   0.905   0.083   0.228
 3674SOL    HW211922   1.063   0.123   0.220
 3675SOL     OW11923   2.053   2.387   5.390
 3675SOL    HW111924   2.064   2.454   5.464
 3675SOL    HW211925   2.116   2.409   5.316
 3676SOL     OW11926   3.414   5.434   4.300
 3676SOL    HW111927   3.500   5.421   4.348
 3676SOL    HW211928   3.340   5.389   4.349
 3677SOL     OW11929   6.543   6.467   3.424
 3677SOL    HW111930   6.559   6.464   3.325
 3677SOL    HW211931   6.617   6.419   3.471
 3678SOL     OW11932   1.244   1.817   4.137
 3678SOL    HW111933   1.242   1.916   4.154
 3678SOL    HW211934   1.152   1.780   4.149
 3679SOL     OW11935   0.372   0.856   1.917
 3679SOL    HW111936   0.382   0.868   2.016
 3679SOL    HW211937   0.453   0.810   1.881
 3680SOL     OW11938   6.647   2.788   3.824
 3680SOL    HW111939   6.630   2.777   3.726
 3680SOL    HW211940   6.593   2.864   3.859
 3681SOL     OW11941   0.603   0.019   5.965
 3681SOL    HW111942   0.647   6.969   6.015
 3681SOL    HW211943   0.669   0.058   5.900
 3682SOL     OW11944   6.570   2.046   5.829
 3682SOL    HW111945   6.560   1.949   5.849
 3682SOL    HW211946   6.504   2.073   5.758
 3683SOL     OW11947   6.101   6.381   4.367
 3683SOL    HW111948   6.026   6.315   4.354
 3683SOL    HW211949   6.063   6.473   4.374
 3684SOL     OW11950   1.579   3.397   2.188
 3684SOL    HW111951   1.569   3.324   2.256
 3684SOL    HW211952   1.490   3.416   2.146
 3685SOL     OW11953   6.481   6.285   6.747
 3685SOL    HW111954   6.391   6.317   6.776
 3685SOL    HW211955   6.477   6.255   6.652
 3686SOL     OW11956   6.312   4.969   1.488
 3686SOL    HW111957   6.360   5.011   1.564
 3686SOL    HW211958   6.378   4.927   1.425
 3687SOL     OW11959   3.169   0.411   6.665
 3687SOL    HW111960   3.240   0.461   6.713
 3687SOL    HW211961   3.079   0.440   6.697
 3688SOL     OW11962   0.981   3.295   6.935
 3688SOL    HW111963   1.056   3.321   6.995
 3688SOL    HW211964   0.894   3.321   6.977
 3689SOL     OW11965   1.789   1.095   4.839
 3689SOL    HW111966   1.806   1.025   4.770
 3689SOL    HW211967   1.778   1.052   4.928
 3690SOL     OW11968   5.283   0.701   5.922
 3690SOL    HW111969   5.247   0.794   5.911
 3690SOL    HW211970   5.341   0.696   6.003
 3691SOL     OW11971   2.985   3.667   0.475
 3691SOL    HW111972   2.968   3.741   0.541
 3691SOL    HW211973   2.986   3.580   0.523
 3692SOL     OW11974   1.605   6.597   5.151
 3692SOL    HW111975   1.662   6.674   5.120
 3692SOL    HW211976   1.656   6.544   5.219
 3693SOL     OW11977   2.997   2.261   3.204
 3693SOL    HW111978   3.077   2.236   3.150
 3693SOL    HW211979   2.981   2.191   3.274
 3694SOL     OW11980   1.370   6.191   3.380
 3694SOL    HW111981   1.362   6.093   3.365
 3694SOL    HW211982   1.410   6.208   3.470
 3695SOL     OW11983   2.177   1.554   2.387
 3695SOL    HW111984   2.240   1.606   2.445
 3695SOL    HW211985   2.206   1.561   2.292
 3696SOL     OW11986   4.470   6.775   5.609
 3696SOL    HW111987   4.532   6.697   5.599
 3696SOL    HW211988   4.512   6.842   5.671
 3697SOL     OW11989   6.877   6.571   3.394
 3697SOL    HW111990   6.865   6.666   3.422
 3697SOL    HW211991   6.826   6.511   3.457
 3698SOL     OW11992   2.956   0.313   6.122
 3698SOL    HW111993   2.984   0.228   6.166
 3698SOL    HW211994   2.980   0.310   6.025
 3699SOL     OW11995   6.704   3.944   3.027
 3699SOL    HW111996   6.656   4.007   2.966
 3699SOL    HW211997   6.802   3.949   3.010
 3700SOL     OW11998   6.552   0.582   4.333
 3700SOL    HW111999   6.617   0.639   4.284
 3700SOL    HW212000   6.474   0.637   4.362
 3701SOL     OW12001   6.974   0.812   4.814
 3701SOL    HW112002   0.005   0.839   4.735
 3701SOL    HW212003   6.877   0.809   4.789
 3702SOL     OW12004   3.681   6.727   1.504
 3702SOL    HW112005   3.662   6.660   1.576
 3702SOL    HW212006   3.744   6.796   1.539
 3703SOL     OW12007   3.633   4.502   6.426
 3703SOL    HW112008   3.599   4.436   6.493
 3703SOL    HW212009   3.638   4.592   6.468
 3704SOL     OW12010   2.737   1.076   2.852
 3704SOL    HW112011   2.739   1.175   2.862
 3704SOL    HW212012   2.828   1.043   2.826
 3705SOL     OW12013   4.919   0.542   3.507
 3705SOL    HW112014   4.930   0.539   3.408
 3705SOL    HW212015   4.950   0.455   3.546
 3706SOL     OW12016   1.816   2.849   4.444
 3706SOL    HW112017   1.819   2.940   4.487
 3706SOL    HW212018   1.739   2.798   4.482
 3707SOL     OW12019   4.781   2.226   6.046
 3707SOL    HW112020   4.801   2.316   6.008
 3707SOL    HW212021   4.692   2.195   6.015
 3708SOL     OW12022   5.937   0.635   6.632
 3708SOL    HW112023   5.957   0.558   6.572
 3708SOL    HW212024   5.947   0.721   6.582
 3709SOL     OW12025   3.808   0.440   6.059
 3709SOL    HW112026   3.715   0.405   6.067
 3709SOL    HW212027   3.853   0.439   6.148
 3710SOL     OW12028   6.603   5.244   0.630
 3710SOL    HW112029   6.657   5.308   0.575
 3710SOL    HW212030   6.525   5.211   0.576
 3711SOL     OW12031   0.072   5.578   2.137
 3711SOL    HW112032   0.167   5.567   2.165
 3711SOL    HW212033   0.033   5.659   2.181
 3712SOL     OW12034   0.803   6.832   6.828
 3712SOL    HW112035   0.733   6.881   6.776
 3712SOL    HW212036   0.876   6.803   6.765
 3713SOL     OW12037   3.305   6.134   5.457
 3713SOL    HW112038   3.322   6.052   5.511
 3713SOL    HW212039   3.262   6.108   5.370
 3714SOL     OW12040   4.312   0.383   4.736
 3714SOL    HW112041   4.279   0.290   4.750
 3714SOL    HW212042   4.392   0.399   4.794
 3715SOL     OW12043   5.140   5.199   4.381
 3715SOL    HW112044   5.099   5.148   4.456
 3715SOL    HW212045   5.211   5.260   4.417
 3716SOL     OW12046   6.957   0.039   4.658
 3716SOL    HW112047   6.885   0.086   4.711
 3716SOL    HW212048   6.969   6.970   4.694
 3717SOL     OW12049   6.170   6.008   0.913
 3717SOL    HW112050   6.263   5.971   0.920
 3717SOL    HW212051   6.110   5.939   0.872
 3718SOL     OW12052   0.990   6.506   0.074
 3718SOL    HW112053   1.046   6.475   0.151
 3718SOL    HW212054   1.009   6.602   0.054
 3719SOL     OW12055   4.538   4.887   0.082
 3719SOL    HW112056   4.448   4.872   0.042
 3719SOL    HW212057   4.531   4.949   0.160
 3720SOL     OW12058   6.647   1.638   6.195
 3720SOL    HW112059   6.698   1.676   6.119
 3720SOL    HW212060   6.680   1.546   6.215
 3721SOL     OW12061   5.661   5.208   0.464
 3721SOL    HW112062   5.715   5.152   0.400
 3721SOL    HW212063   5.687   5.186   0.558
 3722SOL     OW12064   7.006   6.042   2.681
 3722SOL    HW112065   7.008   6.115   2.613
 3722SOL    HW212066   6.992   6.082   2.772
 3723SOL     OW12067   5.029   0.037   1.478
 3723SOL    HW112068   5.099   7.013   1.425
 3723SOL    HW212069   5.056   0.133   1.491
 3724SOL     OW12070   1.449   5.303   0.147
 3724SOL    HW112071   1.403   5.370   0.205
 3724SOL    HW212072   1.392   5.282   0.068
 3725SOL     OW12073   0.298   6.078   6.656
 3725SOL    HW112074   0.213   6.082   6.709
 3725SOL    HW212075   0.369   6.035   6.711
 3726SOL     OW12076   5.796   3.895   1.837
 3726SOL    HW112077   5.818   3.938   1.924
 3726SOL    HW212078   5.727   3.824   1.851
 3727SOL     OW12079   1.325   2.677   4.897
 3727SOL    HW112080   1.335   2.776   4.901
 3727SOL    HW212081   1.413   2.633   4.913
 3728SOL     OW12082   2.256   2.929   0.254
 3728SOL    HW112083   2.241   2.831   0.264
 3728SOL    HW212084   2.172   2.973   0.222
 3729SOL     OW12085   0.941   1.758   3.067
 3729SOL    HW112086   0.945   1.857   3.085
 3729SOL    HW212087   0.847   1.726   3.080
 3730SOL     OW12088   3.265   1.613   6.949
 3730SOL    HW112089   3.245   1.664   6.865
 3730SOL    HW212090   3.179   1.585   6.992
 3731SOL     OW12091   4.412   0.622   1.183
 3731SOL    HW112092   4.466   0.689   1.233
 3731SOL    HW212093   4.417   0.642   1.085
 3732SOL     OW12094   2.353   3.570   6.042
 3732SOL    HW112095   2.332   3.526   6.129
 3732SOL    HW212096   2.284   3.545   5.974
 3733SOL     OW12097   2.799   3.988   1.665
 3733SOL    HW112098   2.798   4.006   1.566
 3733SOL    HW212099   2.708   4.002   1.703
 3734SOL     OW12100   4.502   1.009   2.662
 3734SOL    HW112101   4.489   1.019   2.563
 3734SOL    HW212102   4.599   0.999   2.682
 3735SOL     OW12103   2.276   2.364   2.694
 3735SOL    HW112104   2.299   2.461   2.694
 3735SOL    HW212105   2.195   2.349   2.637
 3736SOL     OW12106   6.582   2.096   0.748
 3736SOL    HW112107   6.501   2.107   0.805
 3736SOL    HW212108   6.655   2.055   0.802
 3737SOL     OW12109   5.008   0.240   2.971
 3737SOL    HW112110   4.951   0.274   2.896
 3737SOL    HW212111   4.959   0.167   3.019
 3738SOL     OW12112   6.567   6.568   3.686
 3738SOL    HW112113   6.558   6.549   3.588
 3738SOL    HW212114   6.573   6.667   3.701
 3739SOL     OW12115   0.780   3.942   2.495
 3739SOL    HW112116   0.736   3.854   2.512
 3739SOL    HW212117   0.776   3.963   2.398
 3740SOL     OW12118   5.170   1.309   6.637
 3740SOL    HW112119   5.209   1.219   6.617
 3740SOL    HW212120   5.197   1.337   6.729
 3741SOL     OW12121   4.484   3.402   1.093
 3741SOL    HW112122   4.581   3.382   1.081
 3741SOL    HW212123   4.450   3.352   1.173
 3742SOL     OW12124   3.729   2.411   5.876
 3742SOL    HW112125   3.668   2.398   5.798
 3742SOL    HW212126   3.820   2.434   5.843
 3743SOL     OW12127   6.497   4.992   6.669
 3743SOL    HW112128   6.496   5.044   6.754
 3743SOL    HW212129   6.584   5.008   6.621
 3744SOL     OW12130   0.090   5.086   3.715
 3744SOL    HW112131   0.105   5.184   3.703
 3744SOL    HW212132   0.178   5.039   3.712
 3745SOL     OW12133   3.599   5.602   2.383
 3745SOL    HW112134   3.583   5.503   2.373
 3745SOL    HW212135   3.512   5.651   2.381
 3746SOL     OW12136   4.516   1.964   1.823
 3746SOL    HW112137   4.420   1.949   1.798
 3746SOL    HW212138   4.571   1.971   1.739
 3747SOL     OW12139   3.484   0.739   6.793
 3747SOL    HW112140   3.537   0.663   6.754
 3747SOL    HW212141   3.500   0.744   6.892
 3748SOL     OW12142   5.929   0.591   1.670
 3748SOL    HW112143   6.012   0.558   1.714
 3748SOL    HW212144   5.921   0.690   1.683
 3749SOL     OW12145   1.548   6.551   4.537
 3749SOL    HW112146   1.615   6.618   4.568
 3749SOL    HW212147   1.470   6.598   4.497
 3750SOL     OW12148   0.141   3.772   0.690
 3750SOL    HW112149   0.058   3.826   0.676
 3750SOL    HW212150   0.163   3.769   0.787
 3751SOL     OW12151   0.289   4.664   2.977
 3751SOL    HW112152   0.276   4.705   2.886
 3751SOL    HW212153   0.209   4.684   3.034
 3752SOL     OW12154   6.794   0.541   6.043
 3752SOL    HW112155   6.727   0.520   5.971
 3752SOL    HW212156   6.808   0.460   6.100
 3753SOL     OW12157   6.900   0.663   3.937
 3753SOL    HW112158   6.953   0.745   3.915
 3753SOL    HW212159   6.957   0.598   3.987
 3754SOL     OW12160   1.673   1.679   1.273
 3754SOL    HW112161   1.702   1.769   1.304
 3754SOL    HW212162   1.574   1.678   1.259
 3755SOL     OW12163   2.285   4.465   4.110
 3755SOL    HW112164   2.257   4.384   4.059
 3755SOL    HW212165   2.309   4.538   4.046
 3756SOL     OW12166   2.797   6.402   6.572
 3756SOL    HW112167   2.819   6.372   6.665
 3756SOL    HW212168   2.879   6.441   6.530
 3757SOL     OW12169   6.358   4.543   1.252
 3757SOL    HW112170   6.376   4.539   1.153
 3757SOL    HW212171   6.263   4.571   1.267
 3758SOL     OW12172   2.300   0.144   3.334
 3758SOL    HW112173   2.297   0.049   3.366
 3758SOL    HW212174   2.369   0.152   3.262
 3759SOL     OW12175   5.299   0.447   4.251
 3759SOL    HW112176   5.311   0.431   4.153
 3759SOL    HW212177   5.223   0.511   4.265
 3760SOL     OW12178   0.092   0.544   3.652
 3760SOL    HW112179   0.175   0.498   3.619
 3760SOL    HW212180   0.073   0.623   3.595
 3761SOL     OW12181   5.137   1.120   4.103
 3761SOL    HW112182   5.132   1.079   4.012
 3761SOL    HW212183   5.184   1.058   4.165
 3762SOL     OW12184   0.777   3.296   2.471
 3762SOL    HW112185   0.862   3.247   2.489
 3762SOL    HW212186   0.700   3.241   2.504
 3763SOL     OW12187   6.954   4.775   0.209
 3763SOL    HW112188   6.892   4.699   0.229
 3763SOL    HW212189   6.906   4.861   0.223
 3764SOL     OW12190   1.872   6.706   2.503
 3764SOL    HW112191   1.772   6.702   2.498
 3764SOL    HW212192   1.901   6.687   2.596
 3765SOL     OW12193   6.151   2.041   1.827
 3765SOL    HW112194   6.133   1.962   1.886
 3765SOL    HW212195   6.186   2.009   1.739
 3766SOL     OW12196   1.044   3.817   3.546
 3766SOL    HW112197   1.088   3.744   3.494
 3766SOL    HW212198   1.097   3.837   3.628
 3767SOL     OW12199   1.915   5.015   6.027
 3767SOL    HW112200   1.931   5.106   5.987
 3767SOL    HW212201   1.830   4.978   5.991
 3768SOL     OW12202   1.667   0.314   4.684
 3768SOL    HW112203   1.737   0.384   4.699
 3768SOL    HW212204   1.577   0.351   4.706
 3769SOL     OW12205   5.352   6.162   4.461
 3769SOL    HW112206   5.297   6.212   4.395
 3769SOL    HW212207   5.412   6.098   4.413
 3770SOL     OW12208   1.221   0.672   0.785
 3770SOL    HW112209   1.219   0.590   0.842
 3770SOL    HW212210   1.134   0.720   0.794
 3771SOL     OW12211   0.162   4.658   0.370
 3771SOL    HW112212   0.091   4.704   0.317
 3771SOL    HW212213   0.249   4.665   0.322
 3772SOL     OW12214   1.407   5.848   0.352
 3772SOL    HW112215   1.466   5.861   0.272
 3772SOL    HW212216   1.330   5.790   0.327
 3773SOL     OW12217   5.370   3.440   5.863
 3773SOL    HW112218   5.447   3.376   5.863
 3773SOL    HW212219   5.331   3.445   5.954
 3774SOL     OW12220   6.104   5.828   1.144
 3774SOL    HW112221   6.195   5.863   1.120
 3774SOL    HW212222   6.096   5.734   1.113
 3775SOL     OW12223   4.580   5.204   4.034
 3775SOL    HW112224   4.613   5.232   4.124
 3775SOL    HW212225   4.644   5.139   3.994
 3776SOL     OW12226   3.366   2.962   6.483
 3776SOL    HW112227   3.398   2.897   6.551
 3776SOL    HW212228   3.373   2.923   6.392
 3777SOL     OW12229   2.615   6.325   4.027
 3777SOL    HW112230   2.610   6.419   3.995
 3777SOL    HW212231   2.709   6.303   4.051
 3778SOL     OW12232   2.953   5.266   4.870
 3778SOL    HW112233   2.935   5.200   4.797
 3778SOL    HW212234   3.032   5.235   4.924
 3779SOL     OW12235   6.562   5.431   6.655
 3779SOL    HW112236   6.577   5.372   6.734
 3779SOL    HW212237   6.649   5.444   6.606
 3780SOL     OW12238   6.112   3.960   1.436
 3780SOL    HW112239   6.073   3.923   1.520
 3780SOL    HW212240   6.100   3.895   1.361
 3781SOL     OW12241   2.407   5.901   4.991
 3781SOL    HW112242   2.443   5.833   5.056
 3781SOL    HW212243   2.412   5.863   4.898
 3782SOL     OW12244   5.415   5.686   1.698
 3782SOL    HW112245   5.377   5.621   1.765
 3782SOL    HW212246   5.506   5.715   1.728
 3783SOL     OW12247   4.851   5.260   5.085
 3783SOL    HW112248   4.798   5.177   5.066
 3783SOL    HW212249   4.823   5.298   5.173
 3784SOL     OW12250   5.745   2.418   4.087
 3784SOL    HW112251   5.681   2.347   4.116
 3784SOL    HW212252   5.826   2.375   4.047
 3785SOL     OW12253   1.259   3.785   4.425
 3785SOL    HW112254   1.180   3.728   4.451
 3785SOL    HW212255   1.246   3.877   4.461
 3786SOL     OW12256   2.623   2.325   4.660
 3786SOL    HW112257   2.541   2.355   4.612
 3786SOL    HW212258   2.700   2.326   4.597
 3787SOL     OW12259   4.631   6.948   3.013
 3787SOL    HW112260   4.655   6.942   3.109
 3787SOL    HW212261   4.624   6.856   2.974
 3788SOL     OW12262   0.058   3.484   5.838
 3788SOL    HW112263   0.131   3.416   5.828
 3788SOL    HW212264   0.064   3.527   5.928
 3789SOL     OW12265   1.808   3.087   2.767
 3789SOL    HW112266   1.756   3.111   2.685
 3789SOL    HW212267   1.855   3.001   2.752
 3790SOL     OW12268   0.555   6.264   1.106
 3790SOL    HW112269   0.503   6.327   1.164
 3790SOL    HW212270   0.507   6.251   1.020
 3791SOL     OW12271   5.492   1.139   6.361
 3791SOL    HW112272   5.569   1.200   6.379
 3791SOL    HW212273   5.416   1.191   6.323
 3792SOL     OW12274   0.644   0.856   4.102
 3792SOL    HW112275   0.711   0.789   4.132
 3792SOL    HW212276   0.603   0.827   4.015
 3793SOL     OW12277   5.417   5.581   0.209
 3793SOL    HW112278   5.339   5.521   0.228
 3793SOL    HW212279   5.487   5.530   0.158
 3794SOL     OW12280   1.874   3.640   6.741
 3794SOL    HW112281   1.841   3.679   6.827
 3794SOL    HW212282   1.971   3.616   6.749
 3795SOL     OW12283   2.658   5.683   1.570
 3795SOL    HW112284   2.658   5.778   1.538
 3795SOL    HW212285   2.592   5.630   1.517
 3796SOL     OW12286   3.944   2.082   6.727
 3796SOL    HW112287   3.961   2.007   6.791
 3796SOL    HW212288   4.031   2.127   6.705
 3797SOL     OW12289   1.225   4.581   3.009
 3797SOL    HW112290   1.273   4.594   2.922
 3797SOL    HW212291   1.195   4.670   3.044
 3798SOL     OW12292   1.905   6.897   3.250
 3798SOL    HW112293   1.852   6.960   3.193
 3798SOL    HW212294   1.933   6.944   3.334
 3799SOL     OW12295   0.202   2.307   2.725
 3799SOL    HW112296   0.294   2.292   2.688
 3799SOL    HW212297   0.151   2.221   2.723
 3800SOL     OW12298   5.748   2.050   2.405
 3800SOL    HW112299   5.847   2.047   2.393
 3800SOL    HW212300   5.727   2.052   2.503
 3801SOL     OW12301   5.106   0.571   1.851
 3801SOL    HW112302   5.128   0.511   1.929
 3801SOL    HW212303   5.007   0.576   1.839
 3802SOL     OW12304   5.983   2.042   2.085
 3802SOL    HW112305   6.079   2.036   2.113
 3802SOL    HW212306   5.958   2.139   2.076
 3803SOL     OW12307   3.229   3.719   4.168
 3803SOL    HW112308   3.278   3.781   4.107
 3803SOL    HW212309   3.130   3.728   4.153
 3804SOL     OW12310   3.534   6.390   3.818
 3804SOL    HW112311   3.487   6.478   3.817
 3804SOL    HW212312   3.588   6.380   3.734
 3805SOL     OW12313   2.425   2.605   0.179
 3805SOL    HW112314   2.369   2.639   0.255
 3805SOL    HW212315   2.482   2.529   0.211
 3806SOL     OW12316   3.776   4.035   0.516
 3806SOL    HW112317   3.731   3.992   0.595
 3806SOL    HW212318   3.732   4.004   0.432
 3807SOL     OW12319   1.495   4.397   4.284
 3807SOL    HW112320   1.437   4.420   4.205
 3807SOL    HW212321   1.489   4.470   4.352
 3808SOL     OW12322   3.926   6.976   6.587
 3808SOL    HW112323   3.917   6.883   6.551
 3808SOL    HW212324   3.881   6.982   6.676
 3809SOL     OW12325   5.084   2.370   1.466
 3809SOL    HW112326   5.084   2.278   1.505
 3809SOL    HW212327   5.144   2.374   1.387
 3810SOL     OW12328   6.652   2.467   2.016
 3810SOL    HW112329   6.557   2.475   1.985
 3810SOL    HW212330   6.694   2.386   1.975
 3811SOL     OW12331   0.356   6.088   4.853
 3811SOL    HW112332   0.266   6.058   4.887
 3811SOL    HW212333   0.354   6.186   4.835
 3812SOL     OW12334   4.395   6.875   0.143
 3812SOL    HW112335   4.375   6.863   0.240
 3812SOL    HW212336   4.419   6.970   0.125
 3813SOL     OW12337   6.422   3.927   0.488
 3813SOL    HW112338   6.401   3.925   0.390
 3813SOL    HW212339   6.342   3.899   0.540
 3814SOL     OW12340   6.501   0.237   4.628
 3814SOL    HW112341   6.552   0.272   4.550
 3814SOL    HW212342   6.479   0.141   4.614
 3815SOL     OW12343   5.044   3.568   6.976
 3815SOL    HW112344   5.120   3.512   7.009
 3815SOL    HW212345   5.073   3.621   6.896
 3816SOL     OW12346   0.801   5.344   5.785
 3816SOL    HW112347   0.750   5.261   5.762
 3816SOL    HW212348   0.891   5.340   5.742
 3817SOL     OW12349   5.067   3.388   2.385
 3817SOL    HW112350   4.992   3.434   2.432
 3817SOL    HW212351   5.110   3.322   2.446
 3818SOL     OW12352   0.331   0.412   2.059
 3818SOL    HW112353   0.420   0.446   2.031
 3818SOL    HW212354   0.327   0.313   2.042
 3819SOL     OW12355   6.504   4.611   4.036
 3819SOL    HW112356   6.440   4.668   3.984
 3819SOL    HW212357   6.530   4.532   3.981
 3820SOL     OW12358   5.194   0.025   4.319
 3820SOL    HW112359   5.258   0.058   4.388
 3820SOL    HW212360   5.111   7.016   4.364
 3821SOL     OW12361   1.237   0.161   0.195
 3821SOL    HW112362   1.308   0.227   0.170
 3821SOL    HW212363   1.237   0.149   0.294
 3822SOL     OW12364   4.537   1.581   1.160
 3822SOL    HW112365   4.609   1.511   1.162
 3822SOL    HW212366   4.522   1.609   1.065
 3823SOL     OW12367   5.018   4.767   5.699
 3823SOL    HW112368   5.031   4.697   5.769
 3823SOL    HW212369   4.929   4.756   5.656
 3824SOL     OW12370   2.079   3.116   0.089
 3824SOL    HW112371   2.012   3.190   0.087
 3824SOL    HW212372   2.039   3.034   0.048
 3825SOL     OW12373   2.033   4.077   6.119
 3825SOL    HW112374   2.036   4.019   6.200
 3825SOL    HW212375   2.012   4.022   6.039
 3826SOL     OW12376   5.897   4.271   2.884
 3826SOL    HW112377   5.840   4.223   2.819
 3826SOL    HW212378   5.853   4.357   2.911
 3827SOL     OW12379   1.318   1.330   1.630
 3827SOL    HW112380   1.340   1.324   1.532
 3827SOL    HW212381   1.244   1.267   1.652
 3828SOL     OW12382   3.969   3.964   4.638
 3828SOL    HW112383   3.924   4.016   4.711
 3828SOL    HW212384   4.039   3.905   4.677
 3829SOL     OW12385   0.418   4.260   3.071
 3829SOL    HW112386   0.326   4.296   3.083
 3829SOL    HW212387   0.415   4.181   3.010
 3830SOL     OW12388   0.199   0.802   4.975
 3830SOL    HW112389   0.102   0.795   4.952
 3830SOL    HW212390   0.211   0.788   5.074
 3831SOL     OW12391   4.473   1.651   3.252
 3831SOL    HW112392   4.491   1.592   3.331
 3831SOL    HW212393   4.377   1.643   3.226
 3832SOL     OW12394   0.963   0.724   2.456
 3832SOL    HW112395   0.941   0.635   2.417
 3832SOL    HW212396   1.060   0.743   2.445
 3833SOL     OW12397   0.934   0.070   6.141
 3833SOL    HW112398   0.866   7.021   6.152
 3833SOL    HW212399   0.898   0.142   6.082
 3834SOL     OW12400   4.687   4.072   0.989
 3834SOL    HW112401   4.717   3.985   1.027
 3834SOL    HW212402   4.651   4.130   1.063
 3835SOL     OW12403   3.969   5.756   5.405
 3835SOL    HW112404   3.970   5.855   5.389
 3835SOL    HW212405   4.063   5.721   5.404
 3836SOL     OW12406   7.018   5.761   6.537
 3836SOL    HW112407   7.006   5.807   6.625
 3836SOL    HW212408   7.018   5.662   6.551
 3837SOL     OW12409   4.171   4.821   5.017
 3837SOL    HW112410   4.077   4.850   4.997
 3837SOL    HW212411   4.235   4.881   4.969
 3838SOL     OW12412   1.614   1.583   3.168
 3838SOL    HW112413   1.695   1.569   3.226
 3838SOL    HW212414   1.641   1.629   3.084
 3839SOL     OW12415   4.131   0.785   2.881
 3839SOL    HW112416   4.151   0.804   2.785
 3839SOL    HW212417   4.170   0.697   2.908
 3840SOL     OW12418   2.717   0.582   0.308
 3840SOL    HW112419   2.636   0.629   0.344
 3840SOL    HW212420   2.746   0.626   0.223
 3841SOL     OW12421   6.264   4.542   3.471
 3841SOL    HW112422   6.170   4.570   3.487
 3841SOL    HW212423   6.321   4.572   3.547
 3842SOL     OW12424   2.256   2.965   5.310
 3842SOL    HW112425   2.202   2.926   5.235
 3842SOL    HW212426   2.332   3.017   5.273
 3843SOL     OW12427   5.515   2.562   0.891
 3843SOL    HW112428   5.465   2.648   0.878
 3843SOL    HW212429   5.463   2.503   0.952
 3844SOL     OW12430   1.699   5.270   0.195
 3844SOL    HW112431   1.600   5.286   0.188
 3844SOL    HW212432   1.733   5.236   0.108
 3845SOL     OW12433   2.330   6.295   0.564
 3845SOL    HW112434   2.319   6.390   0.536
 3845SOL    HW212435   2.270   6.276   0.642
 3846SOL     OW12436   0.939   2.933   3.784
 3846SOL    HW112437   1.002   2.995   3.832
 3846SOL    HW212438   0.873   2.895   3.850
 3847SOL     OW12439   6.205   1.073   5.583
 3847SOL    HW112440   6.107   1.083   5.603
 3847SOL    HW212441   6.222   1.098   5.488
 3848SOL     OW12442   5.215   3.604   2.266
 3848SOL    HW112443   5.148   3.558   2.324
 3848SOL    HW212444   5.283   3.538   2.235
 3849SOL     OW12445   6.985   5.847   6.293
 3849SOL    HW112446   0.041   5.904   6.274
 3849SOL    HW212447   6.992   5.810   6.386
 3850SOL     OW12448   2.536   1.959   1.085
 3850SOL    HW112449   2.499   2.051   1.096
 3850SOL    HW212450   2.473   1.905   1.027
 3851SOL     OW12451   6.847   5.730   3.685
 3851SOL    HW112452   6.884   5.648   3.641
 3851SOL    HW212453   6.771   5.766   3.631
 3852SOL     OW12454   3.003   6.281   4.676
 3852SOL    HW112455   3.101   6.294   4.662
 3852SOL    HW212456   2.977   6.189   4.648
 3853SOL     OW12457   2.107   1.149   3.693
 3853SOL    HW112458   2.063   1.059   3.699
 3853SOL    HW212459   2.204   1.140   3.713
 3854SOL     OW12460   1.396   2.524   2.714
 3854SOL    HW112461   1.399   2.470   2.630
 3854SOL    HW212462   1.415   2.465   2.792
 3855SOL     OW12463   4.372   6.777   0.431
 3855SOL    HW112464   4.290   6.729   0.399
 3855SOL    HW212465   4.453   6.729   0.399
 3856SOL     OW12466   0.299   2.221   6.131
 3856SOL    HW112467   0.367   2.239   6.202
 3856SOL    HW212468   0.259   2.307   6.100
 3857SOL     OW12469   2.170   0.677   6.123
 3857SOL    HW112470   2.101   0.750   6.115
 3857SOL    HW212471   2.127   0.594   6.158
 3858SOL     OW12472   3.269   1.509   5.402
 3858SOL    HW112473   3.354   1.534   5.355
 3858SOL    HW212474   3.210   1.590   5.409
 3859SOL     OW12475   5.539   0.156   1.172
 3859SOL    HW112476   5.465   0.222   1.184
 3859SOL    HW212477   5.627   0.204   1.171
 3860SOL     OW12478   1.856   0.621   4.587
 3860SOL    HW112479   1.788   0.596   4.656
 3860SOL    HW212480   1.811   0.630   4.498
 3861SOL     OW12481   4.330   5.331   2.275
 3861SOL    HW112482   4.230   5.322   2.274
 3861SOL    HW212483   4.372   5.243   2.255
 3862SOL     OW12484   0.441   6.806   4.101
 3862SOL    HW112485   0.341   6.798   4.103
 3862SOL    HW212486   0.481   6.726   4.056
 3863SOL     OW12487   4.330   0.705   0.631
 3863SOL    HW112488   4.349   0.649   0.551
 3863SOL    HW212489   4.316   0.800   0.602
 3864SOL     OW12490   2.106   0.867   4.667
 3864SOL    HW112491   2.116   0.777   4.627
 3864SOL    HW212492   2.189   0.892   4.716
 3865SOL     OW12493   4.420   0.610   6.960
 3865SOL    HW112494   4.378   0.638   0.022
 3865SOL    HW212495   4.435   0.691   6.903
 3866SOL     OW12496   3.092   2.447   6.958
 3866SOL    HW112497   3.101   2.409   6.866
 3866SOL    HW212498   3.041   2.533   6.954
 3867SOL     OW12499   1.021   4.388   3.009
 3867SOL    HW112500   0.938   4.425   3.050
 3867SOL    HW212501   1.094   4.456   3.015
 3868SOL     OW12502   3.463   1.020   6.825
 3868SOL    HW112503   3.497   0.937   6.781
 3868SOL    HW212504   3.443   1.089   6.755
 3869SOL     OW12505   6.889   3.238   3.386
 3869SOL    HW112506   6.818   3.307   3.403
 3869SOL    HW212507   6.866   3.188   3.303
 3870SOL     OW12508   6.648   7.006   3.292
 3870SOL    HW112509   6.642   0.078   3.320
 3870SOL    HW212510   6.567   6.957   3.325
 3871SOL     OW12511   3.388   6.106   4.002
 3871SOL    HW112512   3.335   6.186   3.972
 3871SOL    HW212513   3.395   6.040   3.927
 3872SOL     OW12514   3.504   3.212   4.429
 3872SOL    HW112515   3.589   3.233   4.381
 3872SOL    HW212516   3.427   3.250   4.379
 3873SOL     OW12517   5.310   3.339   0.260
 3873SOL    HW112518   5.309   3.240   0.276
 3873SOL    HW212519   5.309   3.388   0.347
 3874SOL     OW12520   4.286   6.554   0.834
 3874SOL    HW112521   4.329   6.612   0.765
 3874SOL    HW212522   4.323   6.577   0.924
 3875SOL     OW12523   2.073   2.468   4.702
 3875SOL    HW112524   2.132   2.480   4.622
 3875SOL    HW212525   2.128   2.437   4.780
 3876SOL     OW12526   4.453   6.759   0.734
 3876SOL    HW112527   4.461   6.858   0.723
 3876SOL    HW212528   4.533   6.714   0.693
 3877SOL     OW12529   6.454   2.085   0.469
 3877SOL    HW112530   6.532   2.092   0.408
 3877SOL    HW212531   6.485   2.071   0.563
 3878SOL     OW12532   4.940   0.297   4.387
 3878SOL    HW112533   4.880   0.276   4.464
 3878SOL    HW212534   5.036   0.290   4.417
 3879SOL     OW12535   5.464   4.859   6.989
 3879SOL    HW112536   5.393   4.846   6.920
 3879SOL    HW212537   5.422   4.856   0.056
 3880SOL     OW12538   5.574   4.701   5.142
 3880SOL    HW112539   5.573   4.602   5.156
 3880SOL    HW212540   5.569   4.720   5.044
 3881SOL     OW12541   0.959   3.438   0.612
 3881SOL    HW112542   0.997   3.530   0.603
 3881SOL    HW212543   0.863   3.438   0.584
 3882SOL     OW12544   1.220   1.008   0.267
 3882SOL    HW112545   1.150   1.058   0.317
 3882SOL    HW212546   1.232   1.049   0.177
 3883SOL     OW12547   4.799   0.307   2.836
 3883SOL    HW112548   4.752   0.229   2.794
 3883SOL    HW212549   4.732   0.370   2.874
 3884SOL     OW12550   0.549   6.211   3.311
 3884SOL    HW112551   0.488   6.158   3.369
 3884SOL    HW212552   0.497   6.247   3.233
 3885SOL     OW12553   5.760   6.958   2.720
 3885SOL    HW112554   5.750   6.893   2.795
 3885SOL    HW212555   5.854   6.991   2.716
 3886SOL     OW12556   4.437   6.278   6.042
 3886SOL    HW112557   4.456   6.258   6.138
 3886SOL    HW212558   4.399   6.370   6.033
 3887SOL     OW12559   1.067   6.266   0.673
 3887SOL    HW112560   1.130   6.340   0.650
 3887SOL    HW212561   1.017   6.238   0.592
 3888SOL     OW12562   5.558   6.498   4.806
 3888SOL    HW112563   5.507   6.566   4.860
 3888SOL    HW212564   5.496   6.455   4.740
 3889SOL     OW12565   5.826   2.283   6.841
 3889SOL    HW112566   5.729   2.281   6.819
 3889SOL    HW212567   5.839   2.327   6.930
 3890SOL     OW12568   5.526   4.444   4.494
 3890SOL    HW112569   5.550   4.383   4.419
 3890SOL    HW212570   5.595   4.437   4.566
 3891SOL     OW12571   5.172   4.243   3.635
 3891SOL    HW112572   5.097   4.292   3.591
 3891SOL    HW212573   5.253   4.301   3.637
 3892SOL     OW12574   0.319   2.864   1.297
 3892SOL    HW112575   0.371   2.784   1.329
 3892SOL    HW212576   0.264   2.838   1.218
 3893SOL     OW12577   4.722   3.236   1.394
 3893SOL    HW112578   4.714   3.179   1.476
 3893SOL    HW212579   4.631   3.260   1.361
 3894SOL     OW12580   5.149   0.546   6.901
 3894SOL    HW112581   5.090   0.480   6.855
 3894SOL    HW212582   5.130   0.638   6.866
 3895SOL     OW12583   1.423   0.363   5.197
 3895SOL    HW112584   1.331   0.399   5.212
 3895SOL    HW212585   1.482   0.390   5.273
 3896SOL     OW12586   0.889   0.751   6.693
 3896SOL    HW112587   0.816   0.811   6.724
 3896SOL    HW212588   0.940   0.716   6.772
 3897SOL     OW12589   4.641   5.971   2.337
 3897SOL    HW112590   4.686   5.957   2.425
 3897SOL    HW212591   4.613   5.883   2.300
 3898SOL     OW12592   4.108   2.763   7.006
 3898SOL    HW112593   4.154   2.832   6.950
 3898SOL    HW212594   4.011   2.760   6.983
 3899SOL     OW12595   4.526   6.773   6.527
 3899SOL    HW112596   4.504   6.707   6.598
 3899SOL    HW212597   4.557   6.725   6.445
 3900SOL     OW12598   5.481   2.864   3.829
 3900SOL    HW112599   5.531   2.780   3.851
 3900SOL    HW212600   5.534   2.917   3.763
 3901SOL     OW12601   3.422   0.319   5.797
 3901SOL    HW112602   3.337   0.274   5.769
 3901SOL    HW212603   3.403   0.411   5.830
 3902SOL     OW12604   6.140   3.174   2.185
 3902SOL    HW112605   6.181   3.189   2.096
 3902SOL    HW212606   6.190   3.102   2.233
 3903SOL     OW12607   4.081   6.749   0.552
 3903SOL    HW112608   4.094   6.716   0.458
 3903SOL    HW212609   4.168   6.780   0.589
 3904SOL     OW12610   1.475   0.115   6.457
 3904SOL    HW112611   1.493   0.023   6.490
 3904SOL    HW212612   1.561   0.165   6.449
 3905SOL     OW12613   6.837   0.272   6.557
 3905SOL    HW112614   6.789   0.356   6.532
 3905SOL    HW212615   6.863   0.275   6.653
 3906SOL     OW12616   5.660   6.489   6.091
 3906SOL    HW112617   5.692   6.582   6.074
 3906SOL    HW212618   5.631   6.480   6.187
 3907SOL     OW12619   5.512   1.050   3.972
 3907SOL    HW112620   5.532   1.143   3.941
 3907SOL    HW212621   5.598   1.000   3.984
 3908SOL     OW12622   0.874   2.612   0.348
 3908SOL    HW112623   0.916   2.527   0.315
 3908SOL    HW212624   0.789   2.591   0.395
 3909SOL     OW12625   5.362   6.238   4.755
 3909SOL    HW112626   5.406   6.162   4.802
 3909SOL    HW212627   5.372   6.227   4.656
 3910SOL     OW12628   3.760   4.052   2.576
 3910SOL    HW112629   3.774   4.050   2.675
 3910SOL    HW212630   3.835   4.004   2.531
 3911SOL     OW12631   6.142   2.150   5.170
 3911SOL    HW112632   6.142   2.061   5.125
 3911SOL    HW212633   6.133   2.223   5.102
 3912SOL     OW12634   5.250   1.455   4.858
 3912SOL    HW112635   5.270   1.517   4.783
 3912SOL    HW212636   5.324   1.389   4.869
 3913SOL     OW12637   1.950   0.119   6.420
 3913SOL    HW112638   1.932   0.022   6.441
 3913SOL    HW212639   2.018   0.154   6.483
 3914SOL     OW12640   2.977   0.522   0.739
 3914SOL    HW112641   3.017   0.445   0.788
 3914SOL    HW212642   3.047   0.591   0.722
 3915SOL     OW12643   5.443   5.942   0.787
 3915SOL    HW112644   5.380   5.998   0.841
 3915SOL    HW212645   5.417   5.947   0.691
 3916SOL     OW12646   1.236   0.029   3.334
 3916SOL    HW112647   1.151   0.024   3.281
 3916SOL    HW212648   1.217   0.072   3.422
 3917SOL     OW12649   0.684   6.637   6.983
 3917SOL    HW112650   0.741   6.701   6.933
 3917SOL    HW212651   0.608   6.686   0.003
 3918SOL     OW12652   5.658   5.473   1.767
 3918SOL    HW112653   5.734   5.428   1.719
 3918SOL    HW212654   5.660   5.571   1.748
 3919SOL     OW12655   4.570   0.123   0.338
 3919SOL    HW112656   4.571   0.083   0.430
 3919SOL    HW212657   4.476   0.143   0.311
 3920SOL     OW12658   2.456   3.725   0.584
 3920SOL    HW112659   2.451   3.642   0.640
 3920SOL    HW212660   2.525   3.713   0.513
 3921SOL     OW12661   0.238   3.753   1.435
 3921SOL    HW112662   0.215   3.679   1.499
 3921SOL    HW212663   0.158   3.773   1.378
 3922SOL     OW12664   6.866   4.122   1.927
 3922SOL    HW112665   6.825   4.036   1.958
 3922SOL    HW212666   6.955   4.134   1.971
 3923SOL     OW12667   6.825   0.666   0.399
 3923SOL    HW112668   6.878   0.605   0.340
 3923SOL    HW212669   6.878   0.688   0.481
 3924SOL     OW12670   5.839   5.001   3.894
 3924SOL    HW112671   5.788   5.011   3.809
 3924SOL    HW212672   5.785   5.037   3.970
 3925SOL     OW12673   1.520   4.864   1.408
 3925SOL    HW112674   1.476   4.886   1.321
 3925SOL    HW212675   1.489   4.774   1.439
 3926SOL     OW12676   4.857   4.728   2.550
 3926SOL    HW112677   4.905   4.725   2.638
 3926SOL    HW212678   4.804   4.812   2.544
 3927SOL     OW12679   6.252   2.814   5.195
 3927SOL    HW112680   6.282   2.720   5.174
 3927SOL    HW212681   6.333   2.872   5.208
 3928SOL     OW12682   4.400   6.434   6.976
 3928SOL    HW112683   4.499   6.433   6.969
 3928SOL    HW212684   4.365   6.523   6.947
 3929SOL     OW12685   0.874   0.698   4.527
 3929SOL    HW112686   0.795   0.718   4.468
 3929SOL    HW212687   0.869   0.755   4.609
 3930SOL     OW12688   2.927   2.073   4.553
 3930SOL    HW112689   2.986   2.097   4.630
 3930SOL    HW212690   2.847   2.023   4.587
 3931SOL     OW12691   1.531   1.555   1.977
 3931SOL    HW112692   1.539   1.560   1.877
 3931SOL    HW212693   1.605   1.607   2.019
 3932SOL     OW12694   0.889   3.754   3.935
 3932SOL    HW112695   0.975   3.705   3.931
 3932SOL    HW212696   0.905   3.849   3.963
 3933SOL     OW12697   1.899   6.801   6.226
 3933SOL    HW112698   1.867   6.832   6.315
 3933SOL    HW212699   1.823   6.761   6.174
 3934SOL     OW12700   6.440   0.357   6.772
 3934SOL    HW112701   6.484   0.338   6.684
 3934SOL    HW212702   6.504   0.336   6.846
 3935SOL     OW12703   3.166   0.166   6.939
 3935SOL    HW112704   3.079   0.129   6.973
 3935SOL    HW212705   3.209   0.220   7.011
 3936SOL     OW12706   6.594   5.125   5.255
 3936SOL    HW112707   6.632   5.103   5.345
 3936SOL    HW212708   6.660   5.100   5.184
 3937SOL     OW12709   0.449   1.803   2.867
 3937SOL    HW112710   0.468   1.866   2.791
 3937SOL    HW212711   0.354   1.813   2.895
 3938SOL     OW12712   1.133   2.056   3.285
 3938SOL    HW112713   1.145   1.957   3.275
 3938SOL    HW212714   1.096   2.094   3.200
 3939SOL     OW12715   2.383   2.627   2.984
 3939SOL    HW112716   2.459   2.597   3.042
 3939SOL    HW212717   2.296   2.612   3.032
 3940SOL     OW12718   4.459   4.366   0.910
 3940SOL    HW112719   4.543   4.391   0.861
 3940SOL    HW212720   4.481   4.340   1.004
 3941SOL     OW12721   5.340   4.188   5.673
 3941SOL    HW112722   5.388   4.275   5.677
 3941SOL    HW212723   5.322   4.155   5.766
 3942SOL     OW12724   0.273   6.228   0.030
 3942SOL    HW112725   0.246   6.138   7.022
 3942SOL    HW212726   0.201   6.267   0.086
 3943SOL     OW12727   0.151   2.660   3.820
 3943SOL    HW112728   0.160   2.636   3.916
 3943SOL    HW212729   0.069   2.715   3.807
 3944SOL     OW12730   5.049   2.814   4.849
 3944SOL    HW112731   5.117   2.878   4.886
 3944SOL    HW212732   4.958   2.848   4.870
 3945SOL     OW12733   0.175   1.983   0.255
 3945SOL    HW112734   0.168   1.893   0.298
 3945SOL    HW212735   0.207   1.972   0.161
 3946SOL     OW12736   5.246   4.392   4.592
 3946SOL    HW112737   5.342   4.400   4.565
 3946SOL    HW212738   5.200   4.329   4.530
 3947SOL     OW12739   4.751   6.155   6.781
 3947SOL    HW112740   4.690   6.103   6.841
 3947SOL    HW212741   4.840   6.109   6.776
 3948SOL     OW12742   0.108   4.570   1.759
 3948SOL    HW112743   0.087   4.647   1.698
 3948SOL    HW212744   0.184   4.595   1.819
 3949SOL     OW12745   4.826   6.643   3.331
 3949SOL    HW112746   4.906   6.614   3.383
 3949SOL    HW212747   4.855   6.682   3.244
 3950SOL     OW12748   1.458   4.520   0.446
 3950SOL    HW112749   1.449   4.618   0.467
 3950SOL    HW212750   1.411   4.467   0.516
 3951SOL     OW12751   4.309   6.961   1.538
 3951SOL    HW112752   4.393   6.907   1.526
 3951SOL    HW212753   4.307   0.011   1.471
 3952SOL     OW12754   6.775   2.492   1.491
 3952SOL    HW112755   6.853   2.474   1.432
 3952SOL    HW212756   6.800   2.559   1.562
 3953SOL     OW12757   4.061   4.655   1.381
 3953SOL    HW112758   4.130   4.614   1.322
 3953SOL    HW212759   3.974   4.607   1.369
 3954SOL     OW12760   4.070   5.377   5.852
 3954SOL    HW112761   3.994   5.335   5.803
 3954SOL    HW212762   4.091   5.466   5.812
 3955SOL     OW12763   2.864   0.766   6.188
 3955SOL    HW112764   2.776   0.807   6.213
 3955SOL    HW212765   2.886   0.788   6.093
 3956SOL     OW12766   1.417   0.456   2.281
 3956SOL    HW112767   1.453   0.439   2.373
 3956SOL    HW212768   1.472   0.407   2.214
 3957SOL     OW12769   4.100   0.182   4.550
 3957SOL    HW112770   4.078   0.278   4.567
 3957SOL    HW212771   4.183   0.157   4.599
 3958SOL     OW12772   5.806   1.724   4.180
 3958SOL    HW112773   5.849   1.660   4.243
 3958SOL    HW212774   5.752   1.674   4.113
 3959SOL     OW12775   5.332   6.034   0.255
 3959SOL    HW112776   5.247   5.985   0.237
 3959SOL    HW212777   5.408   5.968   0.255
 3960SOL     OW12778   4.979   0.852   6.303
 3960SOL    HW112779   4.967   0.841   6.402
 3960SOL    HW212780   5.025   0.940   6.285
 3961SOL     OW12781   4.539   0.820   2.983
 3961SOL    HW112782   4.548   0.785   2.889
 3961SOL    HW212783   4.489   0.753   3.038
 3962SOL     OW12784   1.745   5.084   6.255
 3962SOL    HW112785   1.665   5.120   6.208
 3962SOL    HW212786   1.813   5.054   6.188
 3963SOL     OW12787   4.250   5.100   2.487
 3963SOL    HW112788   4.204   5.022   2.531
 3963SOL    HW212789   4.318   5.067   2.422
 3964SOL     OW12790   4.879   4.562   3.666
 3964SOL    HW112791   4.916   4.652   3.642
 3964SOL    HW212792   4.907   4.495   3.598
 3965SOL     OW12793   4.934   3.529   4.247
 3965SOL    HW112794   4.973   3.437   4.242
 3965SOL    HW212795   4.910   3.561   4.155
 3966SOL     OW12796   4.107   6.001   6.375
 3966SOL    HW112797   4.094   5.904   6.357
 3966SOL    HW212798   4.081   6.022   6.469
 3967SOL     OW12799   1.881   4.273   2.037
 3967SOL    HW112800   1.930   4.186   2.050
 3967SOL    HW212801   1.942   4.340   1.995
 3968SOL     OW12802   4.140   0.203   1.120
 3968SOL    HW112803   4.133   0.285   1.065
 3968SOL    HW212804   4.067   0.201   1.188
 3969SOL     OW12805   1.112   4.890   2.026
 3969SOL    HW112806   1.174   4.891   2.104
 3969SOL    HW212807   1.054   4.809   2.030
 3970SOL     OW12808   4.837   5.904   3.005
 3970SOL    HW112809   4.820   5.806   3.015
 3970SOL    HW212810   4.804   5.952   3.087
 3971SOL     OW12811   3.099   5.395   4.133
 3971SOL    HW112812   3.062   5.366   4.221
 3971SOL    HW212813   3.116   5.493   4.134
 3972SOL     OW12814   1.700   3.991   6.757
 3972SOL    HW112815   1.626   3.944   6.805
 3972SOL    HW212816   1.785   3.978   6.808
 3973SOL     OW12817   1.198   5.695   0.277
 3973SOL    HW112818   1.249   5.618   0.317
 3973SOL    HW212819   1.113   5.707   0.328
 3974SOL     OW12820   1.759   0.101   6.005
 3974SOL    HW112821   1.825   0.036   5.968
 3974SOL    HW212822   1.786   0.194   5.981
 3975SOL     OW12823   5.044   1.117   6.284
 3975SOL    HW112824   5.014   1.149   6.374
 3975SOL    HW212825   5.127   1.166   6.257
 3976SOL     OW12826   2.098   6.049   3.266
 3976SOL    HW112827   2.173   6.114   3.279
 3976SOL    HW212828   2.132   5.956   3.282
 3977SOL     OW12829   1.297   2.932   6.345
 3977SOL    HW112830   1.334   3.021   6.320
 3977SOL    HW212831   1.362   2.860   6.320
 3978SOL     OW12832   5.664   5.177   3.413
 3978SOL    HW112833   5.683   5.108   3.483
 3978SOL    HW212834   5.568   5.172   3.386
 3979SOL     OW12835   3.758   0.819   6.623
 3979SOL    HW112836   3.741   0.734   6.674
 3979SOL    HW212837   3.709   0.817   6.537
 3980SOL     OW12838   5.433   6.662   6.665
 3980SOL    HW112839   5.415   6.746   6.716
 3980SOL    HW212840   5.531   6.643   6.667
 3981SOL     OW12841   4.559   5.807   0.377
 3981SOL    HW112842   4.555   5.850   0.467
 3981SOL    HW212843   4.568   5.708   0.388
 3982SOL     OW12844   2.432   6.835   2.971
 3982SOL    HW112845   2.354   6.898   2.962
 3982SOL    HW212846   2.398   6.741   2.976
 3983SOL     OW12847   5.202   5.158   3.860
 3983SOL    HW112848   5.189   5.225   3.786
 3983SOL    HW212849   5.193   5.204   3.948
 3984SOL     OW12850   6.479   0.891   1.643
 3984SOL    HW112851   6.532   0.857   1.565
 3984SOL    HW212852   6.541   0.915   1.717
 3985SOL     OW12853   3.209   5.729   6.836
 3985SOL    HW112854   3.276   5.659   6.810
 3985SOL    HW212855   3.212   5.804   6.770
 3986SOL     OW12856   4.988   1.958   2.532
 3986SOL    HW112857   4.895   1.934   2.559
 3986SOL    HW212858   5.002   1.935   2.435
 3987SOL     OW12859   3.420   4.999   4.314
 3987SOL    HW112860   3.420   4.977   4.216
 3987SOL    HW212861   3.457   5.091   4.327
 3988SOL     OW12862   3.736   5.436   6.883
 3988SOL    HW112863   3.768   5.500   6.953
 3988SOL    HW212864   3.640   5.414   6.899
 3989SOL     OW12865   0.051   2.191   6.837
 3989SOL    HW112866   6.983   2.222   6.863
 3989SOL    HW212867   0.113   2.269   6.831
 3990SOL     OW12868   5.176   2.764   2.407
 3990SOL    HW112869   5.220   2.818   2.335
 3990SOL    HW212870   5.225   2.778   2.493
 3991SOL     OW12871   6.726   1.413   1.587
 3991SOL    HW112872   6.743   1.417   1.488
 3991SOL    HW212873   6.637   1.454   1.607
 3992SOL     OW12874   2.764   2.269   0.426
 3992SOL    HW112875   2.772   2.171   0.444
 3992SOL    HW212876   2.842   2.317   0.467
 3993SOL     OW12877   1.573   2.901   2.473
 3993SOL    HW112878   1.616   2.991   2.477
 3993SOL    HW212879   1.502   2.895   2.544
 3994SOL     OW12880   2.779   0.237   5.831
 3994SOL    HW112881   2.753   0.153   5.880
 3994SOL    HW212882   2.878   0.248   5.834
 3995SOL     OW12883   2.017   3.657   5.621
 3995SOL    HW112884   2.079   3.703   5.684
 3995SOL    HW212885   1.929   3.642   5.666
 3996SOL     OW12886   0.126   6.585   5.330
 3996SOL    HW112887   0.170   6.568   5.241
 3996SOL    HW212888   0.162   6.671   5.369
 3997SOL     OW12889   5.485   1.618   3.818
 3997SOL    HW112890   5.456   1.560   3.742
 3997SOL    HW212891   5.571   1.663   3.795
 3998SOL     OW12892   3.715   1.159   4.584
 3998SOL    HW112893   3.675   1.210   4.508
 3998SOL    HW212894   3.646   1.102   4.627
 3999SOL     OW12895   5.883   2.225   3.916
 3999SOL    HW112896   5.959   2.216   3.852
 3999SOL    HW212897   5.813   2.156   3.893
 4000SOL     OW12898   2.824   6.671   4.183
 4000SOL    HW112899   2.841   6.706   4.275
 4000SOL    HW212900   2.756   6.729   4.138
 4001SOL     OW12901   2.680   1.562   4.234
 4001SOL    HW112902   2.625   1.536   4.155
 4001SOL    HW212903   2.740   1.638   4.209
 4002SOL     OW12904   2.812   3.649   1.704
 4002SOL    HW112905   2.766   3.566   1.737
 4002SOL    HW212906   2.839   3.636   1.609
 4003SOL     OW12907   3.327   0.266   4.027
 4003SOL    HW112908   3.317   0.216   3.941
 4003SOL    HW212909   3.383   0.213   4.090
 4004SOL     OW12910   6.551   2.262   4.234
 4004SOL    HW112911   6.474   2.242   4.173
 4004SOL    HW212912   6.521   2.253   4.329
 4005SOL     OW12913   4.419   5.639   5.947
 4005SOL    HW112914   4.337   5.599   5.987
 4005SOL    HW212915   4.492   5.640   6.015
 4006SOL     OW12916   3.904   5.102   2.026
 4006SOL    HW112917   3.829   5.168   2.025
 4006SOL    HW212918   3.932   5.082   1.932
 4007SOL     OW12919   0.149   2.856   6.769
 4007SOL    HW112920   0.169   2.938   6.822
 4007SOL    HW212921   0.116   2.882   6.678
 4008SOL     OW12922   2.757   2.381   4.966
 4008SOL    HW112923   2.708   2.295   4.951
 4008SOL    HW212924   2.801   2.409   4.880
 4009SOL     OW12925   3.952   3.315   2.153
 4009SOL    HW112926   3.881   3.373   2.193
 4009SOL    HW212927   4.017   3.287   2.223
 4010SOL     OW12928   2.356   3.044   1.602
 4010SOL    HW112929   2.386   3.045   1.506
 4010SOL    HW212930   2.342   3.137   1.634
 4011SOL     OW12931   0.901   2.050   2.310
 4011SOL    HW112932   0.833   2.055   2.383
 4011SOL    HW212933   0.949   1.962   2.316
 4012SOL     OW12934   6.887   4.205   2.316
 4012SOL    HW112935   6.791   4.202   2.346
 4012SOL    HW212936   6.913   4.300   2.299
 4013SOL     OW12937   3.977   2.091   4.653
 4013SOL    HW112938   4.035   2.158   4.701
 4013SOL    HW212939   3.978   2.110   4.555
 4014SOL     OW12940   6.111   6.644   2.684
 4014SOL    HW112941   6.077   6.671   2.774
 4014SOL    HW212942   6.049   6.577   2.643
 4015SOL     OW12943   4.184   4.297   6.266
 4015SOL    HW112944   4.201   4.372   6.330
 4015SOL    HW212945   4.094   4.257   6.284
 4016SOL     OW12946   2.615   6.276   5.878
 4016SOL    HW112947   2.551   6.344   5.914
 4016SOL    HW212948   2.674   6.243   5.951
 4017SOL     OW12949   7.008   5.470   0.397
 4017SOL    HW112950   0.048   5.427   0.334
 4017SOL    HW212951   0.035   5.524   0.464
 4018SOL     OW12952   4.605   5.651   1.742
 4018SOL    HW112953   4.705   5.650   1.742
 4018SOL    HW212954   4.571   5.663   1.835
 4019SOL     OW12955   5.317   4.295   2.308
 4019SOL    HW112956   5.235   4.252   2.347
 4019SOL    HW212957   5.294   4.339   2.221
 4020SOL     OW12958   4.631   2.701   5.178
 4020SOL    HW112959   4.695   2.702   5.254
 4020SOL    HW212960   4.560   2.632   5.195
 4021SOL     OW12961   3.009   5.355   6.035
 4021SOL    HW112962   3.006   5.259   6.007
 4021SOL    HW212963   3.050   5.362   6.126
 4022SOL     OW12964   5.019   1.558   0.148
 4022SOL    HW112965   4.980   1.614   0.221
 4022SOL    HW212966   5.102   1.602   0.113
 4023SOL     OW12967   6.563   1.959   4.980
 4023SOL    HW112968   6.503   1.880   4.970
 4023SOL    HW212969   6.554   1.997   5.072
 4024SOL     OW12970   3.939   5.516   4.186
 4024SOL    HW112971   3.856   5.504   4.133
 4024SOL    HW212972   3.985   5.428   4.197
 4025SOL     OW12973   0.663   3.756   4.186
 4025SOL    HW112974   0.689   3.672   4.138
 4025SOL    HW212975   0.570   3.748   4.220
 4026SOL     OW12976   5.216   5.931   3.840
 4026SOL    HW112977   5.137   5.972   3.885
 4026SOL    HW212978   5.201   5.930   3.741
 4027SOL     OW12979   4.281   4.650   1.701
 4027SOL    HW112980   4.306   4.622   1.608
 4027SOL    HW212981   4.328   4.592   1.767
 4028SOL     OW12982   2.389   1.626   3.450
 4028SOL    HW112983   2.391   1.638   3.549
 4028SOL    HW212984   2.481   1.638   3.413
 4029SOL     OW12985   1.779   4.736   5.856
 4029SOL    HW112986   1.796   4.806   5.787
 4029SOL    HW212987   1.866   4.697   5.886
 4030SOL     OW12988   0.809   1.981   5.422
 4030SOL    HW112989   0.879   1.946   5.359
 4030SOL    HW212990   0.825   1.943   5.513
 4031SOL     OW12991   4.199   5.641   4.246
 4031SOL    HW112992   4.136   5.580   4.198
 4031SOL    HW212993   4.148   5.709   4.298
 4032SOL     OW12994   5.619   0.132   4.000
 4032SOL    HW112995   5.530   0.116   3.957
 4032SOL    HW212996   5.692   0.104   3.938
 4033SOL     OW12997   3.047   3.373   4.947
 4033SOL    HW112998   3.045   3.283   4.903
 4033SOL    HW212999   3.084   3.364   5.039
 4034SOL     OW13000   6.730   2.047   3.883
 4034SOL    HW113001   6.803   2.104   3.844
 4034SOL    HW213002   6.670   2.014   3.810
 4035SOL     OW13003   0.527   4.409   6.922
 4035SOL    HW113004   0.616   4.383   6.884
 4035SOL    HW213005   0.479   4.467   6.857
 4036SOL     OW13006   6.326   0.047   2.712
 4036SOL    HW113007   6.359   0.137   2.739
 4036SOL    HW213008   6.382   7.000   2.756
 4037SOL     OW13009   0.543   3.437   6.964
 4037SOL    HW113010   0.589   3.501   6.902
 4037SOL    HW213011   0.470   3.390   6.914
 4038SOL     OW13012   5.426   4.336   3.719
 4038SOL    HW113013   5.526   4.345   3.714
 4038SOL    HW213014   5.392   4.390   3.796
 4039SOL     OW13015   5.253   6.536   0.184
 4039SOL    HW113016   5.180   6.548   0.251
 4039SOL    HW213017   5.305   6.454   0.206
 4040SOL     OW13018   3.161   6.754   1.373
 4040SOL    HW113019   3.187   6.729   1.280
 4040SOL    HW213020   3.205   6.691   1.438
 4041SOL     OW13021   1.513   6.194   3.643
 4041SOL    HW113022   1.539   6.287   3.667
 4041SOL    HW213023   1.461   6.153   3.718
 4042SOL     OW13024   6.188   5.224   1.945
 4042SOL    HW113025   6.243   5.141   1.939
 4042SOL    HW213026   6.202   5.280   1.864
 4043SOL     OW13027   6.243   2.195   0.750
 4043SOL    HW113028   6.153   2.164   0.720
 4043SOL    HW213029   6.289   2.240   0.673
 4044SOL     OW13030   5.635   0.208   3.439
 4044SOL    HW113031   5.712   0.187   3.378
 4044SOL    HW213032   5.592   0.123   3.469
 4045SOL     OW13033   2.479   5.534   6.110
 4045SOL    HW113034   2.558   5.515   6.168
 4045SOL    HW213035   2.487   5.483   6.025
 4046SOL     OW13036   1.047   3.195   1.607
 4046SOL    HW113037   1.115   3.237   1.547
 4046SOL    HW213038   0.955   3.219   1.576
 4047SOL     OW13039   3.072   3.950   1.704
 4047SOL    HW113040   2.977   3.981   1.700
 4047SOL    HW213041   3.112   3.954   1.613
 4048SOL     OW13042   4.807   0.392   1.012
 4048SOL    HW113043   4.851   0.333   1.080
 4048SOL    HW213044   4.875   0.456   0.975
 4049SOL     OW13045   5.074   0.144   4.786
 4049SOL    HW113046   5.138   0.068   4.777
 4049SOL    HW213047   4.985   0.118   4.749
 4050SOL     OW13048   2.094   0.424   0.895
 4050SOL    HW113049   2.158   0.388   0.963
 4050SOL    HW213050   2.145   0.449   0.812
 4051SOL     OW13051   3.463   4.003   1.602
 4051SOL    HW113052   3.557   4.034   1.614
 4051SOL    HW213053   3.440   3.937   1.674
 4052SOL     OW13054   0.855   0.404   1.181
 4052SOL    HW113055   0.859   0.333   1.110
 4052SOL    HW213056   0.760   0.432   1.194
 4053SOL     OW13057   3.816   4.855   3.538
 4053SOL    HW113058   3.837   4.764   3.571
 4053SOL    HW213059   3.891   4.888   3.480
 4054SOL     OW13060   4.319   2.513   1.195
 4054SOL    HW113061   4.371   2.497   1.279
 4054SOL    HW213062   4.338   2.605   1.161
 4055SOL     OW13063   3.934   1.473   6.721
 4055SOL    HW113064   3.936   1.539   6.645
 4055SOL    HW213065   3.946   1.381   6.685
 4056SOL     OW13066   4.003   3.288   0.865
 4056SOL    HW113067   4.036   3.337   0.945
 4056SOL    HW213068   3.964   3.201   0.892
 4057SOL     OW13069   5.243   2.924   6.789
 4057SOL    HW113070   5.271   3.017   6.767
 4057SOL    HW213071   5.215   2.919   6.884
 4058SOL     OW13072   1.612   0.864   5.339
 4058SOL    HW113073   1.537   0.896   5.397
 4058SOL    HW213074   1.635   0.934   5.271
 4059SOL     OW13075   0.190   1.373   4.322
 4059SOL    HW113076   0.190   1.285   4.274
 4059SOL    HW213077   0.202   1.358   4.420
 4060SOL     OW13078   4.442   5.067   4.372
 4060SOL    HW113079   4.534   5.107   4.373
 4060SOL    HW213080   4.429   5.016   4.287
 4061SOL     OW13081   3.132   3.041   1.377
 4061SOL    HW113082   3.164   3.046   1.472
 4061SOL    HW213083   3.180   3.109   1.322
 4062SOL     OW13084   2.589   0.392   3.485
 4062SOL    HW113085   2.499   0.369   3.523
 4062SOL    HW213086   2.577   0.431   3.394
 4063SOL     OW13087   2.992   5.129   6.349
 4063SOL    HW113088   2.932   5.170   6.417
 4063SOL    HW213089   2.940   5.064   6.293
 4064SOL     OW13090   6.925   0.383   3.783
 4064SOL    HW113091   6.966   0.364   3.872
 4064SOL    HW213092   6.988   0.438   3.728
 4065SOL     OW13093   5.673   5.724   6.972
 4065SOL    HW113094   5.758   5.728   6.919
 4065SOL    HW213095   5.644   5.628   6.979
 4066SOL     OW13096   6.125   4.232   1.519
 4066SOL    HW113097   6.099   4.140   1.490
 4066SOL    HW213098   6.124   4.237   1.619
 4067SOL     OW13099   5.806   0.879   2.058
 4067SOL    HW113100   5.795   0.843   2.151
 4067SOL    HW213101   5.722   0.866   2.007
 4068SOL     OW13102   6.254   0.409   3.474
 4068SOL    HW113103   6.209   0.454   3.552
 4068SOL    HW213104   6.344   0.377   3.502
 4069SOL     OW13105   6.397   5.482   1.075
 4069SOL    HW113106   6.491   5.512   1.087
 4069SOL    HW213107   6.361   5.448   1.162
 4070SOL     OW13108   1.593   3.185   2.940
 4070SOL    HW113109   1.613   3.230   3.027
 4070SOL    HW213110   1.679   3.149   2.901
 4071SOL     OW13111   1.630   6.439   4.045
 4071SOL    HW113112   1.644   6.523   4.097
 4071SOL    HW213113   1.603   6.365   4.107
 4072SOL     OW13114   1.338   0.283   4.407
 4072SOL    HW113115   1.312   0.328   4.492
 4072SOL    HW213116   1.289   0.196   4.400
 4073SOL     OW13117   2.169   5.731   6.472
 4073SOL    HW113118   2.119   5.657   6.427
 4073SOL    HW213119   2.198   5.798   6.403
 4074SOL     OW13120   1.861   3.290   0.576
 4074SOL    HW113121   1.774   3.304   0.624
 4074SOL    HW213122   1.862   3.199   0.535
 4075SOL     OW13123   4.608   1.558   3.497
 4075SOL    HW113124   4.700   1.596   3.485
 4075SOL    HW213125   4.610   1.492   3.573
 4076SOL     OW13126   1.708   2.981   4.194
 4076SOL    HW113127   1.745   2.949   4.281
 4076SOL    HW213128   1.611   3.002   4.205
 4077SOL     OW13129   3.126   1.558   0.179
 4077SOL    HW113130   3.125   1.459   0.191
 4077SOL    HW213131   3.161   1.601   0.263
 4078SOL     OW13132   5.959   3.634   1.894
 4078SOL    HW113133   5.862   3.656   1.885
 4078SOL    HW213134   5.982   3.559   1.831
 4079SOL     OW13135   0.657   0.672   3.696
 4079SOL    HW113136   0.741   0.723   3.677
 4079SOL    HW213137   0.642   0.605   3.624
 4080SOL     OW13138   3.283   3.198   1.602
 4080SOL    HW113139   3.319   3.286   1.631
 4080SOL    HW213140   3.186   3.192   1.623
 4081SOL     OW13141   2.451   2.089   5.964
 4081SOL    HW113142   2.415   2.169   6.011
 4081SOL    HW213143   2.522   2.117   5.900
 4082SOL     OW13144   1.153   2.497   4.603
 4082SOL    HW113145   1.062   2.460   4.625
 4082SOL    HW213146   1.221   2.452   4.661
 4083SOL     OW13147   5.418   5.324   3.044
 4083SOL    HW113148   5.478   5.403   3.050
 4083SOL    HW213149   5.472   5.241   3.041
 4084SOL     OW13150   4.789   1.027   3.810
 4084SOL    HW113151   4.702   1.004   3.768
 4084SOL    HW213152   4.784   1.013   3.909
 4085SOL     OW13153   4.091   4.887   2.589
 4085SOL    HW113154   4.154   4.845   2.655
 4085SOL    HW213155   3.997   4.868   2.618
 4086SOL     OW13156   6.153   5.008   5.922
 4086SOL    HW113157   6.193   5.070   5.990
 4086SOL    HW213158   6.069   4.968   5.959
 4087SOL     OW13159   2.169   6.897   2.626
 4087SOL    HW113160   2.141   6.878   2.720
 4087SOL    HW213161   2.249   6.841   2.603
 4088SOL     OW13162   0.379   1.863   5.451
 4088SOL    HW113163   0.450   1.792   5.448
 4088SOL    HW213164   0.357   1.892   5.357
 4089SOL     OW13165   0.980   0.507   2.875
 4089SOL    HW113166   1.077   0.527   2.859
 4089SOL    HW213167   0.972   0.426   2.934
 4090SOL     OW13168   3.104   1.437   6.240
 4090SOL    HW113169   3.188   1.468   6.196
 4090SOL    HW213170   3.113   1.342   6.266
 4091SOL     OW13171   2.940   6.070   1.516
 4091SOL    HW113172   2.974   6.097   1.607
 4091SOL    HW213173   2.943   6.148   1.455
 4092SOL     OW13174   5.545   2.912   4.174
 4092SOL    HW113175   5.638   2.895   4.207
 4092SOL    HW213176   5.542   2.897   4.076
 4093SOL     OW13177   5.079   5.082   3.444
 4093SOL    HW113178   5.092   5.055   3.349
 4093SOL    HW213179   5.158   5.052   3.498
 4094SOL     OW13180   6.830   5.591   6.890
 4094SOL    HW113181   6.830   5.522   6.818
 4094SOL    HW213182   6.895   5.565   6.961
 4095SOL     OW13183   0.840   5.004   6.816
 4095SOL    HW113184   0.808   5.012   6.910
 4095SOL    HW213185   0.844   4.907   6.790
 4096SOL     OW13186   1.161   1.310   6.836
 4096SOL    HW113187   1.082   1.337   6.781
 4096SOL    HW213188   1.245   1.338   6.791
 4097SOL     OW13189   6.800   4.705   5.516
 4097SOL    HW113190   6.765   4.661   5.434
 4097SOL    HW213191   6.840   4.636   5.577
 4098SOL     OW13192   2.202   4.502   3.337
 4098SOL    HW113193   2.245   4.445   3.267
 4098SOL    HW213194   2.117   4.459   3.368
 4099SOL     OW13195   4.356   4.427   6.070
 4099SOL    HW113196   4.302   4.369   6.131
 4099SOL    HW213197   4.348   4.523   6.100
 4100SOL     OW13198   1.493   0.037   3.880
 4100SOL    HW113199   1.463   0.095   3.956
 4100SOL    HW213200   1.585   0.066   3.852
 4101SOL     OW13201   6.085   6.180   0.076
 4101SOL    HW113202   6.074   6.206   7.003
 4101SOL    HW213203   6.143   6.247   0.122
 4102SOL     OW13204   1.484   1.011   0.441
 4102SOL    HW113205   1.396   1.028   0.398
 4102SOL    HW213206   1.555   1.065   0.395
 4103SOL     OW13207   1.390   6.573   3.150
 4103SOL    HW113208   1.483   6.556   3.119
 4103SOL    HW213209   1.369   6.671   3.140
 4104SOL     OW13210   1.441   5.991   4.243
 4104SOL    HW113211   1.449   5.914   4.307
 4104SOL    HW213212   1.345   6.004   4.218
 4105SOL     OW13213   4.699   1.243   0.878
 4105SOL    HW113214   4.739   1.169   0.931
 4105SOL    HW213215   4.631   1.206   0.814
 4106SOL     OW13216   1.117   1.766   3.267
 4106SOL    HW113217   1.060   1.759   3.349
 4106SOL    HW213218   1.067   1.730   3.189
 4107SOL     OW13219   0.746   6.395   0.128
 4107SOL    HW113220   0.843   6.403   0.103
 4107SOL    HW213221   0.694   6.468   0.083
 4108SOL     OW13222   6.883   6.011   4.573
 4108SOL    HW113223   6.908   6.098   4.615
 4108SOL    HW213224   6.965   5.955   4.561
 4109SOL     OW13225   6.245   6.203   3.091
 4109SOL    HW113226   6.241   6.231   3.187
 4109SOL    HW213227   6.179   6.256   3.038
 4110SOL     OW13228   4.988   2.741   0.399
 4110SOL    HW113229   5.086   2.761   0.396
 4110SOL    HW213230   4.958   2.710   0.309
 4111SOL     OW13231   6.605   4.195   4.104
 4111SOL    HW113232   6.593   4.214   4.006
 4111SOL    HW213233   6.695   4.227   4.133
 4112SOL     OW13234   4.955   6.921   5.384
 4112SOL    HW113235   4.965   6.827   5.352
 4112SOL    HW213236   4.868   6.929   5.434
 4113SOL     OW13237   4.014   5.376   5.270
 4113SOL    HW113238   3.916   5.374   5.250
 4113SOL    HW213239   4.051   5.284   5.258
 4114SOL     OW13240   6.994   1.816   1.767
 4114SOL    HW113241   0.022   1.895   1.734
 4114SOL    HW213242   6.986   1.748   1.694
 4115SOL     OW13243   5.077   5.878   4.313
 4115SOL    HW113244   5.114   5.879   4.406
 4115SOL    HW213245   5.140   5.829   4.252
 4116SOL     OW13246   5.153   3.385   3.518
 4116SOL    HW113247   5.193   3.459   3.464
 4116SOL    HW213248   5.088   3.423   3.584
 4117SOL     OW13249   1.429   1.841   3.235
 4117SOL    HW113250   1.498   1.773   3.210
 4117SOL    HW213251   1.338   1.805   3.214
 4118SOL     OW13252   0.472   6.089   6.238
 4118SOL    HW113253   0.508   6.177   6.206
 4118SOL    HW213254   0.539   6.017   6.218
 4119SOL     OW13255   0.756   1.059   3.604
 4119SOL    HW113256   0.780   1.126   3.534
 4119SOL    HW213257   0.820   0.983   3.601
 4120SOL     OW13258   1.796   1.277   6.378
 4120SOL    HW113259   1.777   1.209   6.308
 4120SOL    HW213260   1.780   1.369   6.342
 4121SOL     OW13261   6.207   6.765   1.945
 4121SOL    HW113262   6.223   6.860   1.973
 4121SOL    HW213263   6.206   6.706   2.026
 4122SOL     OW13264   6.555   4.273   3.242
 4122SOL    HW113265   6.513   4.317   3.321
 4122SOL    HW213266   6.557   4.174   3.255
 4123SOL     OW13267   4.418   4.913   2.034
 4123SOL    HW113268   4.457   4.822   2.043
 4123SOL    HW213269   4.402   4.934   1.938
 4124SOL     OW13270   6.121   5.623   0.055
 4124SOL    HW113271   6.114   5.528   0.026
 4124SOL    HW213272   6.061   5.639   0.133
 4125SOL     OW13273   6.143   1.832   1.420
 4125SOL    HW113274   6.074   1.857   1.488
 4125SOL    HW213275   6.204   1.910   1.404
 4126SOL     OW13276   1.789   3.389   2.410
 4126SOL    HW113277   1.885   3.366   2.424
 4126SOL    HW213278   1.775   3.419   2.315
 4127SOL     OW13279   4.003   1.720   4.363
 4127SOL    HW113280   4.084   1.755   4.411
 4127SOL    HW213281   3.937   1.795   4.352
 4128SOL     OW13282   0.708   3.241   0.340
 4128SOL    HW113283   0.777   3.213   0.407
 4128SOL    HW213284   0.634   3.173   0.337
 4129SOL     OW13285   2.474   2.740   0.651
 4129SOL    HW113286   2.558   2.724   0.599
 4129SOL    HW213287   2.402   2.682   0.615
 4130SOL     OW13288   5.958   3.299   1.106
 4130SOL    HW113289   5.969   3.203   1.080
 4130SOL    HW213290   5.864   3.315   1.136
 4131SOL     OW13291   4.893   6.959   2.916
 4131SOL    HW113292   4.793   6.948   2.918
 4131SOL    HW213293   4.918   7.022   2.842
 4132SOL     OW13294   0.578   5.091   4.206
 4132SOL    HW113295   0.610   5.008   4.251
 4132SOL    HW213296   0.564   5.074   4.109
 4133SOL     OW13297   5.606   0.477   2.825
 4133SOL    HW113298   5.579   0.410   2.756
 4133SOL    HW213299   5.594   0.569   2.788
 4134SOL     OW13300   1.658   3.305   1.269
 4134SOL    HW113301   1.564   3.330   1.243
 4134SOL    HW213302   1.722   3.350   1.207
 4135SOL     OW13303   0.184   1.727   1.965
 4135SOL    HW113304   0.269   1.779   1.957
 4135SOL    HW213305   0.129   1.741   1.882
 4136SOL     OW13306   1.563   4.500   1.642
 4136SOL    HW113307   1.561   4.556   1.724
 4136SOL    HW213308   1.515   4.547   1.568
 4137SOL     OW13309   1.221   2.630   0.543
 4137SOL    HW113310   1.196   2.623   0.446
 4137SOL    HW213311   1.320   2.641   0.551
 4138SOL     OW13312   5.032   0.743   0.763
 4138SOL    HW113313   4.971   0.790   0.699
 4138SOL    HW213314   5.077   0.667   0.716
 4139SOL     OW13315   1.777   3.603   2.615
 4139SOL    HW113316   1.752   3.527   2.555
 4139SOL    HW213317   1.821   3.568   2.698
 4140SOL     OW13318   2.114   1.137   6.080
 4140SOL    HW113319   2.134   1.068   6.010
 4140SOL    HW213320   2.027   1.115   6.124
 4141SOL     OW13321   4.617   0.142   6.305
 4141SOL    HW113322   4.676   0.069   6.270
 4141SOL    HW213323   4.638   0.228   6.259
 4142SOL     OW13324   0.274   4.295   2.393
 4142SOL    HW113325   0.193   4.250   2.357
 4142SOL    HW213326   0.268   4.393   2.377
 4143SOL     OW13327   5.403   3.167   0.739
 4143SOL    HW113328   5.328   3.223   0.775
 4143SOL    HW213329   5.435   3.104   0.810
 4144SOL     OW13330   6.159   1.593   0.577
 4144SOL    HW113331   6.133   1.504   0.541
 4144SOL    HW213332   6.251   1.587   0.618
 4145SOL     OW13333   6.936   0.049   1.310
 4145SOL    HW113334   7.008   0.073   1.245
 4145SOL    HW213335   6.945   6.977   1.337
 4146SOL     OW13336   4.439   6.467   3.533
 4146SOL    HW113337   4.415   6.436   3.625
 4146SOL    HW213338   4.372   6.431   3.467
 4147SOL     OW13339   4.442   4.381   5.803
 4147SOL    HW113340   4.375   4.398   5.730
 4147SOL    HW213341   4.411   4.422   5.888
 4148SOL     OW13342   2.642   1.676   6.133
 4148SOL    HW113343   2.617   1.604   6.197
 4148SOL    HW213344   2.703   1.639   6.063
 4149SOL     OW13345   2.531   2.912   6.681
 4149SOL    HW113346   2.589   2.993   6.678
 4149SOL    HW213347   2.453   2.929   6.741
 4150SOL     OW13348   5.619   1.895   6.013
 4150SOL    HW113349   5.716   1.876   6.027
 4150SOL    HW213350   5.576   1.815   5.971
 4151SOL     OW13351   2.325   6.583   4.287
 4151SOL    HW113352   2.287   6.518   4.221
 4151SOL    HW213353   2.425   6.581   4.281
 4152SOL     OW13354   3.088   5.032   0.996
 4152SOL    HW113355   2.989   5.042   0.999
 4152SOL    HW213356   3.131   5.122   1.003
 4153SOL     OW13357   0.071   5.311   1.332
 4153SOL    HW113358   0.039   5.234   1.387
 4153SOL    HW213359   7.022   5.338   1.268
 4154SOL     OW13360   1.060   6.323   3.287
 4154SOL    HW113361   1.092   6.385   3.358
 4154SOL    HW213362   1.137   6.296   3.229
 4155SOL     OW13363   0.351   1.137   0.810
 4155SOL    HW113364   0.264   1.133   0.860
 4155SOL    HW213365   0.399   1.050   0.819
 4156SOL     OW13366   6.906   5.642   6.118
 4156SOL    HW113367   6.916   5.719   6.181
 4156SOL    HW213368   6.965   5.656   6.039
 4157SOL     OW13369   6.760   6.020   1.934
 4157SOL    HW113370   6.805   6.081   1.868
 4157SOL    HW213371   6.830   5.966   1.982
 4158SOL     OW13372   1.235   3.173   2.038
 4158SOL    HW113373   1.281   3.192   1.952
 4158SOL    HW213374   1.183   3.253   2.067
 4159SOL     OW13375   3.528   1.402   4.059
 4159SOL    HW113376   3.596   1.353   4.005
 4159SOL    HW213377   3.441   1.405   4.009
 4160SOL     OW13378   6.285   6.695   6.807
 4160SOL    HW113379   6.382   6.679   6.794
 4160SOL    HW213380   6.266   6.793   6.807
 4161SOL     OW13381   3.494   3.048   1.710
 4161SOL    HW113382   3.411   3.095   1.679
 4161SOL    HW213383   3.468   2.968   1.763
 4162SOL     OW13384   4.911   5.855   1.581
 4162SOL    HW113385   4.902   5.839   1.679
 4162SOL    HW213386   5.004   5.831   1.552
 4163SOL     OW13387   3.589   6.561   1.266
 4163SOL    HW113388   3.634   6.646   1.293
 4163SOL    HW213389   3.652   6.484   1.277
 4164SOL     OW13390   6.601   0.355   5.471
 4164SOL    HW113391   6.518   0.405   5.445
 4164SOL    HW213392   6.599   0.264   5.430
 4165SOL     OW13393   3.981   1.333   5.244
 4165SOL    HW113394   4.010   1.428   5.245
 4165SOL    HW213395   4.061   1.273   5.249
 4166SOL     OW13396   5.647   0.905   1.553
 4166SOL    HW113397   5.567   0.962   1.570
 4166SOL    HW213398   5.626   0.840   1.479
 4167SOL     OW13399   4.077   5.110   4.864
 4167SOL    HW113400   3.997   5.067   4.906
 4167SOL    HW213401   4.056   5.134   4.769
 4168SOL     OW13402   4.449   4.096   6.932
 4168SOL    HW113403   4.422   4.016   6.986
 4168SOL    HW213404   4.441   4.178   6.988
 4169SOL     OW13405   4.986   3.691   4.888
 4169SOL    HW113406   4.959   3.692   4.792
 4169SOL    HW213407   4.907   3.669   4.945
 4170SOL     OW13408   6.796   3.645   3.708
 4170SOL    HW113409   6.763   3.552   3.727
 4170SOL    HW213410   6.826   3.651   3.613
 4171SOL     OW13411   0.755   2.924   1.088
 4171SOL    HW113412   0.668   2.956   1.050
 4171SOL    HW213413   0.830   2.960   1.032
 4172SOL     OW13414   2.857   5.031   0.364
 4172SOL    HW113415   2.842   4.974   0.446
 4172SOL    HW213416   2.821   5.123   0.381
 4173SOL     OW13417   5.277   2.947   4.976
 4173SOL    HW113418   5.343   2.881   5.012
 4173SOL    HW213419   5.326   3.021   4.930
 4174SOL     OW13420   3.890   0.557   5.031
 4174SOL    HW113421   3.849   0.508   4.954
 4174SOL    HW213422   3.911   0.651   5.004
 4175SOL     OW13423   1.757   4.379   6.635
 4175SOL    HW113424   1.694   4.339   6.702
 4175SOL    HW213425   1.748   4.331   6.548
 4176SOL     OW13426   5.029   0.018   6.268
 4176SOL    HW113427   4.929   0.015   6.269
 4176SOL    HW213428   5.065   6.977   6.335
 4177SOL     OW13429   4.542   4.357   3.426
 4177SOL    HW113430   4.473   4.386   3.359
 4177SOL    HW213431   4.628   4.337   3.378
 4178SOL     OW13432   4.305   5.618   1.961
 4178SOL    HW113433   4.383   5.562   1.987
 4178SOL    HW213434   4.242   5.563   1.904
 4179SOL     OW13435   5.426   3.168   4.847
 4179SOL    HW113436   5.444   3.117   4.763
 4179SOL    HW213437   5.392   3.259   4.824
 4180SOL     OW13438   4.872   4.010   6.986
 4180SOL    HW113439   4.959   3.990   6.940
 4180SOL    HW213440   4.851   4.107   6.978
 4181SOL     OW13441   4.478   0.580   5.613
 4181SOL    HW113442   4.524   0.528   5.541
 4181SOL    HW213443   4.380   0.587   5.592
 4182SOL     OW13444   6.867   6.788   4.323
 4182SOL    HW113445   6.848   6.823   4.231
 4182SOL    HW213446   6.865   6.688   4.321
 4183SOL     OW13447   3.682   2.038   1.317
 4183SOL    HW113448   3.656   2.075   1.406
 4183SOL    HW213449   3.782   2.035   1.310
 4184SOL     OW13450   3.290   5.176   3.628
 4184SOL    HW113451   3.324   5.268   3.607
 4184SOL    HW213452   3.198   5.166   3.589
 4185SOL     OW13453   6.467   3.724   2.836
 4185SOL    HW113454   6.561   3.709   2.807
 4185SOL    HW213455   6.419   3.637   2.845
 4186SOL     OW13456   1.713   5.964   0.372
 4186SOL    HW113457   1.740   5.879   0.327
 4186SOL    HW213458   1.679   5.943   0.464
 4187SOL     OW13459   1.747   3.673   6.413
 4187SOL    HW113460   1.712   3.620   6.490
 4187SOL    HW213461   1.773   3.764   6.444
 4188SOL     OW13462   5.248   7.019   0.015
 4188SOL    HW113463   5.185   0.071   0.030
 4188SOL    HW213464   5.264   6.971   0.101
 4189SOL     OW13465   4.824   5.024   3.292
 4189SOL    HW113466   4.903   5.044   3.234
 4189SOL    HW213467   4.748   4.992   3.236
 4190SOL     OW13468   0.142   6.196   0.909
 4190SOL    HW113469   0.087   6.238   0.838
 4190SOL    HW213470   0.234   6.236   0.909
 4191SOL     OW13471   4.269   4.711   5.854
 4191SOL    HW113472   4.310   4.674   5.937
 4191SOL    HW213473   4.261   4.638   5.786
 4192SOL     OW13474   1.307   3.230   1.780
 4192SOL    HW113475   1.342   3.222   1.686
 4192SOL    HW213476   1.208   3.246   1.777
 4193SOL     OW13477   7.010   0.180   0.607
 4193SOL    HW113478   0.081   0.204   0.626
 4193SOL    HW213479   7.007   0.094   0.556
 4194SOL     OW13480   4.422   0.958   5.228
 4194SOL    HW113481   4.401   1.031   5.162
 4194SOL    HW213482   4.416   0.994   5.321
 4195SOL     OW13483   4.289   5.597   1.265
 4195SOL    HW113484   4.324   5.588   1.358
 4195SOL    HW213485   4.211   5.661   1.265
 4196SOL     OW13486   6.780   2.200   2.460
 4196SOL    HW113487   6.825   2.219   2.548
 4196SOL    HW213488   6.722   2.119   2.469
 4197SOL     OW13489   3.390   6.489   6.056
 4197SOL    HW113490   3.336   6.411   6.087
 4197SOL    HW213491   3.477   6.491   6.105
 4198SOL     OW13492   6.091   1.029   2.494
 4198SOL    HW113493   6.163   1.098   2.486
 4198SOL    HW213494   6.023   1.059   2.561
 4199SOL     OW13495   0.841   3.641   6.544
 4199SOL    HW113496   0.846   3.656   6.445
 4199SOL    HW213497   0.853   3.729   6.591
 4200SOL     OW13498   4.876   1.335   3.881
 4200SOL    HW113499   4.849   1.238   3.877
 4200SOL    HW213500   4.804   1.388   3.926
 4201SOL     OW13501   5.536   0.013   3.046
 4201SOL    HW113502   5.513   0.109   3.029
 4201SOL    HW213503   5.508   6.981   2.968
 4202SOL     OW13504   4.695   4.965   0.748
 4202SOL    HW113505   4.605   4.927   0.727
 4202SOL    HW213506   4.728   4.926   0.834
 4203SOL     OW13507   6.110   5.410   6.743
 4203SOL    HW113508   6.195   5.443   6.783
 4203SOL    HW213509   6.047   5.384   6.817
 4204SOL     OW13510   2.812   3.613   5.826
 4204SOL    HW113511   2.772   3.563   5.750
 4204SOL    HW213512   2.888   3.560   5.864
 4205SOL     OW13513   3.987   5.807   4.919
 4205SOL    HW113514   4.021   5.729   4.972
 4205SOL    HW213515   3.961   5.880   4.981
 4206SOL     OW13516   1.715   2.072   4.344
 4206SOL    HW113517   1.764   2.013   4.408
 4206SOL    HW213518   1.625   2.033   4.325
 4207SOL     OW13519   1.430   2.957   1.609
 4207SOL    HW113520   1.431   3.048   1.568
 4207SOL    HW213521   1.452   2.964   1.707
 4208SOL     OW13522   2.172   3.630   4.786
 4208SOL    HW113523   2.256   3.609   4.836
 4208SOL    HW213524   2.098   3.647   4.851
 4209SOL     OW13525   6.869   6.050   3.026
 4209SOL    HW113526   6.868   6.083   3.121
 4209SOL    HW213527   6.928   6.109   2.971
 4210SOL     OW13528   4.139   3.509   4.914
 4210SOL    HW113529   4.232   3.506   4.950
 4210SOL    HW213530   4.080   3.558   4.978
 4211SOL     OW13531   4.162   2.349   5.426
 4211SOL    HW113532   4.131   2.430   5.376
 4211SOL    HW213533   4.194   2.376   5.517
 4212SOL     OW13534   0.023   1.814   2.964
 4212SOL    HW113535   0.088   1.788   3.035
 4212SOL    HW213536   6.969   1.862   3.005
 4213SOL     OW13537   3.409   0.789   2.659
 4213SOL    HW113538   3.412   0.823   2.565
 4213SOL    HW213539   3.465   0.706   2.667
 4214SOL     OW13540   0.985   5.047   4.376
 4214SOL    HW113541   0.935   4.961   4.361
 4214SOL    HW213542   1.060   5.053   4.310
 4215SOL     OW13543   4.777   6.436   5.388
 4215SOL    HW113544   4.817   6.522   5.359
 4215SOL    HW213545   4.679   6.435   5.365
 4216SOL     OW13546   2.493   6.346   2.715
 4216SOL    HW113547   2.491   6.281   2.639
 4216SOL    HW213548   2.587   6.372   2.734
 4217SOL     OW13549   0.884   0.677   1.694
 4217SOL    HW113550   0.896   0.584   1.730
 4217SOL    HW213551   0.924   0.682   1.602
 4218SOL     OW13552   2.806   1.039   1.464
 4218SOL    HW113553   2.707   1.033   1.476
 4218SOL    HW213554   2.841   0.948   1.441
 4219SOL     OW13555   3.933   6.479   4.044
 4219SOL    HW113556   3.966   6.385   4.035
 4219SOL    HW213557   3.943   6.526   3.956
 4220SOL     OW13558   4.871   1.970   1.436
 4220SOL    HW113559   4.783   1.924   1.431
 4220SOL    HW213560   4.901   1.975   1.531
 4221SOL     OW13561   0.558   5.660   6.736
 4221SOL    HW113562   0.650   5.649   6.698
 4221SOL    HW213563   0.563   5.715   6.819
 4222SOL     OW13564   4.631   2.141   3.313
 4222SOL    HW113565   4.618   2.197   3.231
 4222SOL    HW213566   4.553   2.079   3.322
 4223SOL     OW13567   4.109   3.730   2.139
 4223SOL    HW113568   4.072   3.733   2.046
 4223SOL    HW213569   4.192   3.785   2.145
 4224SOL     OW13570   4.875   3.696   4.580
 4224SOL    HW113571   4.950   3.645   4.621
 4224SOL    HW213572   4.792   3.640   4.582
 4225SOL     OW13573   0.165   3.192   5.203
 4225SOL    HW113574   0.244   3.252   5.215
 4225SOL    HW213575   0.108   3.226   5.128
 4226SOL     OW13576   0.785   5.233   4.478
 4226SOL    HW113577   0.847   5.174   4.427
 4226SOL    HW213578   0.745   5.301   4.417
 4227SOL     OW13579   5.560   5.570   2.128
 4227SOL    HW113580   5.633   5.633   2.152
 4227SOL    HW213581   5.598   5.491   2.080
 4228SOL     OW13582   1.099   5.332   3.712
 4228SOL    HW113583   1.142   5.244   3.734
 4228SOL    HW213584   1.136   5.403   3.771
 4229SOL     OW13585   6.021   5.177   5.585
 4229SOL    HW113586   5.938   5.228   5.608
 4229SOL    HW213587   5.998   5.081   5.570
 4230SOL     OW13588   1.272   0.893   2.210
 4230SOL    HW113589   1.323   0.946   2.143
 4230SOL    HW213590   1.217   0.954   2.266
 4231SOL     OW13591   5.439   1.337   5.707
 4231SOL    HW113592   5.498   1.324   5.786
 4231SOL    HW213593   5.448   1.431   5.673
 4232SOL     OW13594   2.320   5.151   4.238
 4232SOL    HW113595   2.255   5.087   4.196
 4232SOL    HW213596   2.275   5.239   4.252
 4233SOL     OW13597   5.388   6.549   3.649
 4233SOL    HW113598   5.473   6.522   3.603
 4233SOL    HW213599   5.321   6.577   3.581
 4234SOL     OW13600   1.789   5.519   5.682
 4234SOL    HW113601   1.853   5.543   5.755
 4234SOL    HW213602   1.826   5.441   5.631
 4235SOL     OW13603   0.088   5.030   6.063
 4235SOL    HW113604   0.039   5.087   6.127
 4235SOL    HW213605   0.129   5.087   5.992
 4236SOL     OW13606   0.672   5.150   1.538
 4236SOL    HW113607   0.622   5.078   1.586
 4236SOL    HW213608   0.657   5.238   1.583
 4237SOL     OW13609   6.374   4.266   3.697
 4237SOL    HW113610   6.415   4.328   3.631
 4237SOL    HW213611   6.436   4.188   3.712
 4238SOL     OW13612   2.480   0.515   3.257
 4238SOL    HW113613   2.562   0.518   3.200
 4238SOL    HW213614   2.431   0.601   3.250
 4239SOL     OW13615   3.904   1.116   2.724
 4239SOL    HW113616   3.925   1.207   2.689
 4239SOL    HW213617   3.961   1.097   2.804
 4240SOL     OW13618   1.055   5.351   0.598
 4240SOL    HW113619   1.084   5.368   0.693
 4240SOL    HW213620   1.047   5.252   0.584
 4241SOL     OW13621   6.463   1.897   6.877
 4241SOL    HW113622   6.423   1.805   6.878
 4241SOL    HW213623   6.472   1.928   6.783
 4242SOL     OW13624   2.383   2.250   4.122
 4242SOL    HW113625   2.301   2.280   4.073
 4242SOL    HW213626   2.407   2.317   4.192
 4243SOL     OW13627   5.655   1.083   2.809
 4243SOL    HW113628   5.617   1.142   2.737
 4243SOL    HW213629   5.584   1.019   2.840
 4244SOL     OW13630   3.873   3.580   2.451
 4244SOL    HW113631   3.960   3.569   2.402
 4244SOL    HW213632   3.889   3.566   2.549
 4245SOL     OW13633   5.821   2.650   5.817
 4245SOL    HW113634   5.861   2.596   5.743
 4245SOL    HW213635   5.725   2.668   5.796
 4246SOL     OW13636   0.356   4.025   2.093
 4246SOL    HW113637   0.422   3.960   2.131
 4246SOL    HW213638   0.382   4.118   2.119
 4247SOL     OW13639   6.777   5.917   5.132
 4247SOL    HW113640   6.702   5.876   5.080
 4247SOL    HW213641   6.817   5.992   5.079
 4248SOL     OW13642   1.245   2.394   5.473
 4248SOL    HW113643   1.279   2.307   5.439
 4248SOL    HW213644   1.147   2.402   5.454
 4249SOL     OW13645   5.509   2.901   5.584
 4249SOL    HW113646   5.490   2.882   5.487
 4249SOL    HW213647   5.550   2.992   5.593
 4250SOL     OW13648   6.270   5.424   3.621
 4250SOL    HW113649   6.345   5.460   3.566
 4250SOL    HW213650   6.296   5.428   3.718
 4251SOL     OW13651   5.861   4.424   0.501
 4251SOL    HW113652   5.940   4.364   0.490
 4251SOL    HW213653   5.795   4.406   0.428
 4252SOL     OW13654   0.213   5.566   5.552
 4252SOL    HW113655   0.205   5.508   5.471
 4252SOL    HW213656   0.166   5.522   5.629
 4253SOL     OW13657   4.151   1.075   1.723
 4253SOL    HW113658   4.110   1.166   1.725
 4253SOL    HW213659   4.246   1.080   1.755
 4254SOL     OW13660   1.916   3.572   1.277
 4254SOL    HW113661   1.926   3.477   1.246
 4254SOL    HW213662   1.964   3.633   1.213
 4255SOL     OW13663   6.207   3.178   4.306
 4255SOL    HW113664   6.231   3.110   4.235
 4255SOL    HW213665   6.229   3.269   4.273
 4256SOL     OW13666   1.926   0.011   1.324
 4256SOL    HW113667   1.960   6.940   1.327
 4256SOL    HW213668   1.866   0.021   1.245
 4257SOL     OW13669   3.316   1.736   4.824
 4257SOL    HW113670   3.320   1.692   4.914
 4257SOL    HW213671   3.269   1.824   4.833
 4258SOL     OW13672   5.800   6.625   1.961
 4258SOL    HW113673   5.782   6.723   1.959
 4258SOL    HW213674   5.834   6.600   2.052
 4259SOL     OW13675   2.664   2.115   6.897
 4259SOL    HW113676   2.580   2.169   6.902
 4259SOL    HW213677   2.725   2.155   6.828
 4260SOL     OW13678   4.842   5.892   3.456
 4260SOL    HW113679   4.854   5.805   3.408
 4260SOL    HW213680   4.768   5.885   3.522
 4261SOL     OW13681   2.520   6.394   2.008
 4261SOL    HW113682   2.515   6.460   1.933
 4261SOL    HW213683   2.490   6.305   1.977
 4262SOL     OW13684   1.681   5.092   6.538
 4262SOL    HW113685   1.586   5.075   6.562
 4262SOL    HW213686   1.686   5.139   6.450
 4263SOL     OW13687   2.505   4.836   5.511
 4263SOL    HW113688   2.475   4.931   5.515
 4263SOL    HW213689   2.543   4.809   5.600
 4264SOL     OW13690   0.303   1.505   7.019
 4264SOL    HW113691   0.315   1.421   6.966
 4264SOL    HW213692   0.348   1.581   6.972
 4265SOL     OW13693   6.685   2.049   0.328
 4265SOL    HW113694   6.703   1.953   0.310
 4265SOL    HW213695   6.771   2.097   0.345
 4266SOL     OW13696   2.244   5.283   0.236
 4266SOL    HW113697   2.200   5.193   0.234
 4266SOL    HW213698   2.300   5.291   0.318
 4267SOL     OW13699   1.948   3.606   4.965
 4267SOL    HW113700   1.935   3.689   5.020
 4267SOL    HW213701   1.862   3.557   4.957
 4268SOL     OW13702   2.094   1.002   0.755
 4268SOL    HW113703   2.045   0.915   0.746
 4268SOL    HW213704   2.069   1.063   0.680
 4269SOL     OW13705   3.208   3.156   0.525
 4269SOL    HW113706   3.282   3.090   0.515
 4269SOL    HW213707   3.188   3.170   0.622
 4270SOL     OW13708   3.443   2.939   4.916
 4270SOL    HW113709   3.408   2.931   5.010
 4270SOL    HW213710   3.533   2.896   4.910
 4271SOL     OW13711   0.702   6.773   5.942
 4271SOL    HW113712   0.801   6.759   5.950
 4271SOL    HW213713   0.677   6.776   5.845
 4272SOL     OW13714   6.582   4.674   5.308
 4272SOL    HW113715   6.507   4.698   5.369
 4272SOL    HW213716   6.604   4.577   5.318
 4273SOL     OW13717   4.670   6.774   5.192
 4273SOL    HW113718   4.767   6.750   5.202
 4273SOL    HW213719   4.639   6.824   5.272
 4274SOL     OW13720   1.985   6.567   3.624
 4274SOL    HW113721   1.998   6.618   3.539
 4274SOL    HW213722   1.913   6.611   3.678
 4275SOL     OW13723   0.211   0.650   5.515
 4275SOL    HW113724   0.226   0.563   5.467
 4275SOL    HW213725   0.228   0.637   5.612
 4276SOL     OW13726   2.174   4.783   3.296
 4276SOL    HW113727   2.180   4.687   3.322
 4276SOL    HW213728   2.128   4.791   3.208
 4277SOL     OW13729   6.895   4.992   3.548
 4277SOL    HW113730   6.953   5.010   3.627
 4277SOL    HW213731   6.884   5.077   3.496
 4278SOL     OW13732   6.665   5.978   4.755
 4278SOL    HW113733   6.764   5.965   4.742
 4278SOL    HW213734   6.639   6.069   4.723
 4279SOL     OW13735   2.939   6.230   5.202
 4279SOL    HW113736   2.876   6.205   5.129
 4279SOL    HW213737   3.011   6.289   5.166
 4280SOL     OW13738   6.528   2.255   5.417
 4280SOL    HW113739   6.568   2.338   5.455
 4280SOL    HW213740   6.484   2.203   5.491
 4281SOL     OW13741   1.747   4.817   5.202
 4281SOL    HW113742   1.821   4.834   5.267
 4281SOL    HW213743   1.767   4.864   5.116
 4282SOL     OW13744   2.306   2.849   0.879
 4282SOL    HW113745   2.247   2.837   0.799
 4282SOL    HW213746   2.377   2.916   0.858
 4283SOL     OW13747   1.941   0.426   4.218
 4283SOL    HW113748   1.920   0.371   4.299
 4283SOL    HW213749   2.022   0.389   4.173
 4284SOL     OW13750   5.485   1.074   1.946
 4284SOL    HW113751   5.537   0.996   1.980
 4284SOL    HW213752   5.488   1.148   2.013
 4285SOL     OW13753   0.988   0.486   5.581
 4285SOL    HW113754   1.003   0.479   5.679
 4285SOL    HW213755   1.046   0.421   5.533
 4286SOL     OW13756   4.638   5.594   0.099
 4286SOL    HW113757   4.726   5.569   0.059
 4286SOL    HW213758   4.644   5.591   0.199
 4287SOL     OW13759   5.719   0.282   4.637
 4287SOL    HW113760   5.640   0.252   4.690
 4287SOL    HW213761   5.765   0.357   4.686
 4288SOL     OW13762   1.479   6.986   3.213
 4288SOL    HW113763   1.450   6.935   3.132
 4288SOL    HW213764   1.401   0.010   3.253
 4289SOL     OW13765   5.794   2.466   1.248
 4289SOL    HW113766   5.777   2.517   1.163
 4289SOL    HW213767   5.706   2.442   1.290
 4290SOL     OW13768   2.252   0.514   2.358
 4290SOL    HW113769   2.184   0.584   2.376
 4290SOL    HW213770   2.259   0.453   2.437
 4291SOL     OW13771   5.381   2.950   0.526
 4291SOL    HW113772   5.331   2.983   0.606
 4291SOL    HW213773   5.479   2.963   0.540
 4292SOL     OW13774   6.197   4.086   5.545
 4292SOL    HW113775   6.164   3.998   5.579
 4292SOL    HW213776   6.228   4.076   5.451
 4293SOL     OW13777   6.381   3.432   6.638
 4293SOL    HW113778   6.312   3.416   6.708
 4293SOL    HW213779   6.384   3.529   6.614
 4294SOL     OW13780   4.193   2.228   5.693
 4294SOL    HW113781   4.202   2.315   5.740
 4294SOL    HW213782   4.107   2.185   5.718
 4295SOL     OW13783   3.611   0.194   4.530
 4295SOL    HW113784   3.526   0.147   4.506
 4295SOL    HW213785   3.673   0.194   4.451
 4296SOL     OW13786   2.233   1.790   0.774
 4296SOL    HW113787   2.228   1.857   0.701
 4296SOL    HW213788   2.214   1.834   0.862
 4297SOL     OW13789   5.189   0.263   5.005
 4297SOL    HW113790   5.146   0.349   5.033
 4297SOL    HW213791   5.161   0.239   4.913
 4298SOL     OW13792   2.646   5.935   1.193
 4298SOL    HW113793   2.601   6.012   1.149
 4298SOL    HW213794   2.635   5.941   1.292
 4299SOL     OW13795   0.670   3.602   6.200
 4299SOL    HW113796   0.620   3.640   6.278
 4299SOL    HW213797   0.769   3.611   6.218
 4300SOL     OW13798   3.447   1.218   6.609
 4300SOL    HW113799   3.352   1.211   6.579
 4300SOL    HW213800   3.508   1.191   6.535
 4301SOL     OW13801   1.957   1.903   0.569
 4301SOL    HW113802   1.903   1.950   0.640
 4301SOL    HW213803   2.046   1.947   0.561
 4302SOL     OW13804   1.030   6.311   6.888
 4302SOL    HW113805   1.056   6.383   6.953
 4302SOL    HW213806   1.103   6.243   6.883
 4303SOL     OW13807   6.629   4.097   2.783
 4303SOL    HW113808   6.529   4.108   2.784
 4303SOL    HW213809   6.671   4.180   2.748
 4304SOL     OW13810   3.250   3.288   4.307
 4304SOL    HW113811   3.204   3.247   4.229
 4304SOL    HW213812   3.205   3.259   4.392
 4305SOL     OW13813   6.254   1.275   3.732
 4305SOL    HW113814   6.220   1.196   3.783
 4305SOL    HW213815   6.331   1.247   3.674
 4306SOL     OW13816   6.873   4.198   6.339
 4306SOL    HW113817   6.873   4.293   6.369
 4306SOL    HW213818   6.849   4.194   6.242
 4307SOL     OW13819   4.680   4.030   5.682
 4307SOL    HW113820   4.698   4.024   5.584
 4307SOL    HW213821   4.650   3.941   5.716
 4308SOL     OW13822   5.241   5.916   5.137
 4308SOL    HW113823   5.182   5.877   5.067
 4308SOL    HW213824   5.239   5.857   5.218
 4309SOL     OW13825   1.749   1.274   0.594
 4309SOL    HW113826   1.721   1.370   0.597
 4309SOL    HW213827   1.705   1.228   0.517
 4310SOL     OW13828   1.848   2.289   2.931
 4310SOL    HW113829   1.793   2.372   2.934
 4310SOL    HW213830   1.788   2.210   2.914
 4311SOL     OW13831   1.078   5.876   3.436
 4311SOL    HW113832   1.053   5.811   3.364
 4311SOL    HW213833   1.167   5.916   3.416
 4312SOL     OW13834   2.382   5.791   2.072
 4312SOL    HW113835   2.465   5.837   2.104
 4312SOL    HW213836   2.363   5.817   1.978
 4313SOL     OW13837   5.187   1.138   1.513
 4313SOL    HW113838   5.108   1.184   1.553
 4313SOL    HW213839   5.249   1.206   1.474
 4314SOL     OW13840   4.883   2.723   3.108
 4314SOL    HW113841   4.841   2.762   3.026
 4314SOL    HW213842   4.845   2.632   3.125
 4315SOL     OW13843   2.532   0.717   1.998
 4315SOL    HW113844   2.475   0.636   2.005
 4315SOL    HW213845   2.513   0.779   2.074
 4316SOL     OW13846   5.374   0.385   1.019
 4316SOL    HW113847   5.283   0.427   1.022
 4316SOL    HW213848   5.418   0.405   0.932
 4317SOL     OW13849   3.393   1.462   4.524
 4317SOL    HW113850   3.308   1.459   4.577
 4317SOL    HW213851   3.378   1.514   4.440
 4318SOL     OW13852   0.756   3.652   3.663
 4318SOL    HW113853   0.744   3.653   3.564
 4318SOL    HW213854   0.809   3.732   3.691
 4319SOL     OW13855   2.696   3.140   6.677
 4319SOL    HW113856   2.744   3.188   6.603
 4319SOL    HW213857   2.763   3.109   6.745
 4320SOL     OW13858   1.268   6.741   2.662
 4320SOL    HW113859   1.220   6.817   2.616
 4320SOL    HW213860   1.251   6.746   2.760
 4321SOL     OW13861   6.365   0.473   5.393
 4321SOL    HW113862   6.351   0.539   5.319
 4321SOL    HW213863   6.294   0.403   5.389
 4322SOL     OW13864   6.596   1.146   6.531
 4322SOL    HW113865   6.643   1.111   6.612
 4322SOL    HW213866   6.595   1.075   6.460
 4323SOL     OW13867   5.725   2.866   2.560
 4323SOL    HW113868   5.630   2.841   2.538
 4323SOL    HW213869   5.735   2.874   2.659
 4324SOL     OW13870   5.536   3.985   6.612
 4324SOL    HW113871   5.590   3.949   6.688
 4324SOL    HW213872   5.523   3.914   6.543
 4325SOL     OW13873   2.143   0.942   6.682
 4325SOL    HW113874   2.224   0.941   6.624
 4325SOL    HW213875   2.077   0.875   6.647
 4326SOL     OW13876   6.272   3.148   5.299
 4326SOL    HW113877   6.313   3.112   5.216
 4326SOL    HW213878   6.173   3.155   5.287
 4327SOL     OW13879   5.768   5.438   2.396
 4327SOL    HW113880   5.828   5.365   2.429
 4327SOL    HW213881   5.722   5.408   2.313
 4328SOL     OW13882   4.796   4.633   6.041
 4328SOL    HW113883   4.741   4.552   6.063
 4328SOL    HW213884   4.760   4.676   5.958
 4329SOL     OW13885   4.037   1.614   5.182
 4329SOL    HW113886   4.052   1.709   5.155
 4329SOL    HW213887   4.125   1.567   5.190
 4330SOL     OW13888   1.806   0.348   5.878
 4330SOL    HW113889   1.778   0.438   5.913
 4330SOL    HW213890   1.796   0.346   5.779
 4331SOL     OW13891   5.258   2.769   0.330
 4331SOL    HW113892   5.277   2.804   0.238
 4331SOL    HW213893   5.294   2.832   0.398
 4332SOL     OW13894   4.963   3.072   2.191
 4332SOL    HW113895   4.894   3.038   2.127
 4332SOL    HW213896   4.949   3.169   2.207
 4333SOL     OW13897   5.639   1.687   4.762
 4333SOL    HW113898   5.620   1.638   4.847
 4333SOL    HW213899   5.699   1.632   4.705
 4334SOL     OW13900   3.061   2.132   1.935
 4334SOL    HW113901   3.013   2.045   1.918
 4334SOL    HW213902   2.997   2.198   1.973
 4335SOL     OW13903   2.969   3.804   4.442
 4335SOL    HW113904   2.981   3.897   4.476
 4335SOL    HW213905   2.937   3.745   4.517
 4336SOL     OW13906   1.455   6.309   5.413
 4336SOL    HW113907   1.411   6.291   5.325
 4336SOL    HW213908   1.471   6.223   5.461
 4337SOL     OW13909   0.422   5.019   6.877
 4337SOL    HW113910   0.354   5.022   6.803
 4337SOL    HW213911   0.408   5.097   6.938
 4338SOL     OW13912   5.907   6.155   4.339
 4338SOL    HW113913   5.913   6.078   4.276
 4338SOL    HW213914   5.813   6.187   4.343
 4339SOL     OW13915   6.616   2.326   5.133
 4339SOL    HW113916   6.568   2.322   5.221
 4339SOL    HW213917   6.554   2.361   5.063
 4340SOL     OW13918   5.691   3.629   1.924
 4340SOL    HW113919   5.723   3.654   2.015
 4340SOL    HW213920   5.711   3.532   1.907
 4341SOL     OW13921   1.629   3.737   2.177
 4341SOL    HW113922   1.687   3.671   2.225
 4341SOL    HW213923   1.684   3.787   2.110
 4342SOL     OW13924   0.278   2.739   2.970
 4342SOL    HW113925   0.280   2.804   2.894
 4342SOL    HW213926   0.198   2.679   2.960
 4343SOL     OW13927   3.123   1.048   0.409
 4343SOL    HW113928   3.117   0.957   0.368
 4343SOL    HW213929   3.169   1.042   0.497
 4344SOL     OW13930   1.384   3.855   3.129
 4344SOL    HW113931   1.324   3.914   3.183
 4344SOL    HW213932   1.470   3.902   3.110
 4345SOL     OW13933   2.197   2.626   5.650
 4345SOL    HW113934   2.245   2.681   5.582
 4345SOL    HW213935   2.128   2.682   5.696
 4346SOL     OW13936   2.072   3.091   1.847
 4346SOL    HW113937   2.098   3.053   1.936
 4346SOL    HW213938   2.040   3.018   1.787
 4347SOL     OW13939   6.393   0.224   2.167
 4347SOL    HW113940   6.314   0.213   2.228
 4347SOL    HW213941   6.401   0.143   2.108
 4348SOL     OW13942   1.171   3.963   1.568
 4348SOL    HW113943   1.256   4.006   1.599
 4348SOL    HW213944   1.140   3.898   1.638
 4349SOL     OW13945   0.218   1.176   3.752
 4349SOL    HW113946   0.125   1.193   3.784
 4349SOL    HW213947   0.272   1.260   3.758
 4350SOL     OW13948   5.147   2.302   4.622
 4350SOL    HW113949   5.153   2.395   4.659
 4350SOL    HW213950   5.112   2.307   4.528
 4351SOL     OW13951   3.039   5.744   2.736
 4351SOL    HW113952   3.104   5.682   2.779
 4351SOL    HW213953   3.078   5.778   2.650
 4352SOL     OW13954   0.591   2.219   1.897
 4352SOL    HW113955   0.643   2.153   1.952
 4352SOL    HW213956   0.504   2.177   1.869
 4353SOL     OW13957   2.197   6.002   6.927
 4353SOL    HW113958   2.227   6.067   6.997
 4353SOL    HW213959   2.142   5.931   6.970
 4354SOL     OW13960   2.137   0.012   6.989
 4354SOL    HW113961   2.165   6.971   6.918
 4354SOL    HW213962   2.139   0.105   6.952
 4355SOL     OW13963   4.058   0.403   0.942
 4355SOL    HW113964   4.083   0.490   0.899
 4355SOL    HW213965   3.984   0.418   1.008
 4356SOL     OW13966   4.389   4.096   0.936
 4356SOL    HW113967   4.294   4.082   0.910
 4356SOL    HW213968   4.421   4.185   0.903
 4357SOL     OW13969   6.259   0.118   0.459
 4357SOL    HW113970   6.169   0.091   0.424
 4357SOL    HW213971   6.258   0.215   0.484
 4358SOL     OW13972   0.810   6.103   1.543
 4358SOL    HW113973   0.768   6.179   1.493
 4358SOL    HW213974   0.739   6.055   1.595
 4359SOL     OW13975   0.633   2.032   4.330
 4359SOL    HW113976   0.655   1.999   4.238
 4359SOL    HW213977   0.593   1.957   4.383
 4360SOL     OW13978   0.850   3.636   1.540
 4360SOL    HW113979   0.829   3.622   1.637
 4360SOL    HW213980   0.849   3.548   1.493
 4361SOL     OW13981   4.852   2.408   2.074
 4361SOL    HW113982   4.892   2.475   2.135
 4361SOL    HW213983   4.752   2.416   2.076
 4362SOL     OW13984   6.315   4.118   5.244
 4362SOL    HW113985   6.408   4.094   5.272
 4362SOL    HW213986   6.291   4.070   5.160
 4363SOL     OW13987   5.045   3.080   5.296
 4363SOL    HW113988   5.107   3.115   5.226
 4363SOL    HW213989   5.094   3.018   5.356
 4364SOL     OW13990   3.574   3.965   4.430
 4364SOL    HW113991   3.532   3.986   4.342
 4364SOL    HW213992   3.648   3.899   4.417
 4365SOL     OW13993   4.241   2.255   2.628
 4365SOL    HW113994   4.147   2.244   2.597
 4365SOL    HW213995   4.299   2.278   2.550
 4366SOL     OW13996   6.463   6.298   1.527
 4366SOL    HW113997   6.444   6.227   1.596
 4366SOL    HW213998   6.396   6.371   1.537
 4367SOL     OW13999   1.090   5.375   5.680
 4367SOL    HW114000   1.102   5.420   5.591
 4367SOL    HW214001   1.155   5.415   5.745
 4368SOL     OW14002   5.346   4.540   1.676
 4368SOL    HW114003   5.314   4.586   1.758
 4368SOL    HW214004   5.399   4.459   1.702
 4369SOL     OW14005   4.824   4.590   2.287
 4369SOL    HW114006   4.923   4.605   2.298
 4369SOL    HW214007   4.805   4.570   2.191
 4370SOL     OW14008   5.822   4.181   4.050
 4370SOL    HW114009   5.818   4.274   4.012
 4370SOL    HW214010   5.732   4.156   4.086
 4371SOL     OW14011   6.224   0.557   1.722
 4371SOL    HW114012   6.187   0.529   1.811
 4371SOL    HW214013   6.303   0.616   1.737
 4372SOL     OW14014   4.911   1.669   2.996
 4372SOL    HW114015   4.839   1.717   3.048
 4372SOL    HW214016   4.956   1.603   3.055
 4373SOL     OW14017   6.774   2.089   6.562
 4373SOL    HW114018   6.705   2.016   6.555
 4373SOL    HW214019   6.865   2.050   6.549
 4374SOL     OW14020   1.733   2.062   2.440
 4374SOL    HW114021   1.702   2.129   2.508
 4374SOL    HW214022   1.780   2.110   2.365
 4375SOL     OW14023   2.510   6.190   4.294
 4375SOL    HW114024   2.509   6.218   4.198
 4375SOL    HW214025   2.581   6.241   4.343
 4376SOL     OW14026   6.655   0.642   2.542
 4376SOL    HW114027   6.640   0.606   2.450
 4376SOL    HW214028   6.726   0.713   2.538
 4377SOL     OW14029   5.874   3.891   7.019
 4377SOL    HW114030   5.970   3.914   0.010
 4377SOL    HW214031   5.828   3.883   0.084
 4378SOL     OW14032   2.205   0.389   3.807
 4378SOL    HW114033   2.158   0.301   3.812
 4378SOL    HW214034   2.183   0.433   3.720
 4379SOL     OW14035   2.623   1.266   4.678
 4379SOL    HW114036   2.712   1.227   4.655
 4379SOL    HW214037   2.600   1.241   4.772
 4380SOL     OW14038   1.171   1.546   1.577
 4380SOL    HW114039   1.232   1.471   1.601
 4380SOL    HW214040   1.217   1.633   1.592
 4381SOL     OW14041   1.782   5.896   5.258
 4381SOL    HW114042   1.771   5.924   5.354
 4381SOL    HW214043   1.709   5.832   5.235
 4382SOL     OW14044   6.724   3.915   4.993
 4382SOL    HW114045   6.707   3.914   4.895
 4382SOL    HW214046   6.650   3.866   5.040
 4383SOL     OW14047   5.468   2.614   6.000
 4383SOL    HW114048   5.470   2.652   5.907
 4383SOL    HW214049   5.462   2.514   5.996
 4384SOL     OW14050   0.251   6.616   3.023
 4384SOL    HW114051   0.314   6.693   3.038
 4384SOL    HW214052   0.198   6.599   3.106
 4385SOL     OW14053   5.873   1.921   4.421
 4385SOL    HW114054   5.868   1.870   4.335
 4385SOL    HW214055   5.786   1.967   4.437
 4386SOL     OW14056   1.289   3.448   5.643
 4386SOL    HW114057   1.349   3.519   5.607
 4386SOL    HW214058   1.345   3.372   5.678
 4387SOL     OW14059   0.286   2.648   0.678
 4387SOL    HW114060   0.209   2.628   0.739
 4387SOL    HW214061   0.310   2.566   0.627
 4388SOL     OW14062   4.919   2.001   6.168
 4388SOL    HW114063   4.863   2.075   6.134
 4388SOL    HW214064   5.016   2.026   6.160
 4389SOL     OW14065   0.150   3.557   1.590
 4389SOL    HW114066   0.116   3.464   1.608
 4389SOL    HW214067   0.114   3.619   1.660
 4390SOL     OW14068   5.656   0.676   0.935
 4390SOL    HW114069   5.669   0.773   0.955
 4390SOL    HW214070   5.717   0.649   0.861
 4391SOL     OW14071   1.717   5.559   6.105
 4391SOL    HW114072   1.694   5.556   6.203
 4391SOL    HW214073   1.645   5.608   6.056
 4392SOL     OW14074   1.261   1.403   3.873
 4392SOL    HW114075   1.324   1.467   3.918
 4392SOL    HW214076   1.172   1.407   3.917
 4393SOL     OW14077   5.393   0.261   1.485
 4393SOL    HW114078   5.428   0.288   1.395
 4393SOL    HW214079   5.458   0.198   1.528
 4394SOL     OW14080   1.563   6.976   1.162
 4394SOL    HW114081   1.647   6.983   1.108
 4394SOL    HW214082   1.578   6.912   1.238
 4395SOL     OW14083   2.716   6.306   1.173
 4395SOL    HW114084   2.717   6.404   1.189
 4395SOL    HW214085   2.664   6.261   1.245
 4396SOL     OW14086   1.816   0.702   3.332
 4396SOL    HW114087   1.827   0.695   3.431
 4396SOL    HW214088   1.740   0.644   3.303
 4397SOL     OW14089   2.912   1.841   3.864
 4397SOL    HW114090   2.965   1.790   3.795
 4397SOL    HW214091   2.830   1.790   3.887
 4398SOL     OW14092   2.013   3.151   6.169
 4398SOL    HW114093   2.030   3.105   6.256
 4398SOL    HW214094   2.093   3.207   6.146
 4399SOL     OW14095   2.834   6.479   2.472
 4399SOL    HW114096   2.775   6.527   2.536
 4399SOL    HW214097   2.831   6.380   2.491
 4400SOL     OW14098   1.916   6.252   4.142
 4400SOL    HW114099   1.965   6.183   4.196
 4400SOL    HW214100   1.818   6.230   4.143
 4401SOL     OW14101   3.427   6.352   5.565
 4401SOL    HW114102   3.504   6.319   5.620
 4401SOL    HW214103   3.384   6.275   5.518
 4402SOL     OW14104   1.278   0.300   3.142
 4402SOL    HW114105   1.228   0.241   3.079
 4402SOL    HW214106   1.376   0.296   3.120
 4403SOL     OW14107   1.233   5.324   1.124
 4403SOL    HW114108   1.332   5.311   1.131
 4403SOL    HW214109   1.199   5.372   1.205
 4404SOL     OW14110   0.953   5.554   6.261
 4404SOL    HW114111   0.856   5.543   6.286
 4404SOL    HW214112   0.989   5.637   6.304
 4405SOL     OW14113   2.208   4.641   3.613
 4405SOL    HW114114   2.253   4.600   3.693
 4405SOL    HW214115   2.256   4.612   3.530
 4406SOL     OW14116   6.325   3.540   2.283
 4406SOL    HW114117   6.229   3.521   2.265
 4406SOL    HW214118   6.343   3.637   2.267
 4407SOL     OW14119   0.186   6.510   2.275
 4407SOL    HW114120   0.144   6.479   2.189
 4407SOL    HW214121   0.237   6.595   2.258
 4408SOL     OW14122   4.197   0.146   0.820
 4408SOL    HW114123   4.282   0.097   0.840
 4408SOL    HW214124   4.187   0.221   0.885
 4409SOL     OW14125   3.895   0.936   2.253
 4409SOL    HW114126   3.900   0.857   2.193
 4409SOL    HW214127   3.844   1.009   2.207
 4410SOL     OW14128   1.058   6.010   1.150
 4410SOL    HW114129   1.067   6.034   1.247
 4410SOL    HW214130   1.073   5.912   1.138
 4411SOL     OW14131   3.184   4.713   5.390
 4411SOL    HW114132   3.240   4.751   5.317
 4411SOL    HW214133   3.092   4.696   5.356
 4412SOL     OW14134   4.305   6.764   3.285
 4412SOL    HW114135   4.399   6.749   3.316
 4412SOL    HW214136   4.275   6.855   3.311
 4413SOL     OW14137   3.711   0.203   4.276
 4413SOL    HW114138   3.735   0.272   4.208
 4413SOL    HW214139   3.631   0.152   4.245
 4414SOL     OW14140   4.759   4.402   1.585
 4414SOL    HW114141   4.736   4.486   1.636
 4414SOL    HW214142   4.805   4.427   1.500
 4415SOL     OW14143   3.330   3.449   1.726
 4415SOL    HW114144   3.308   3.529   1.670
 4415SOL    HW214145   3.287   3.459   1.816
 4416SOL     OW14146   4.190   2.321   3.968
 4416SOL    HW114147   4.101   2.313   4.014
 4416SOL    HW214148   4.178   2.312   3.869
 4417SOL     OW14149   0.335   3.537   3.834
 4417SOL    HW114150   0.290   3.465   3.782
 4417SOL    HW214151   0.387   3.596   3.771
 4418SOL     OW14152   6.350   0.417   0.518
 4418SOL    HW114153   6.317   0.437   0.611
 4418SOL    HW214154   6.438   0.462   0.504
 4419SOL     OW14155   6.266   5.424   6.157
 4419SOL    HW114156   6.259   5.486   6.078
 4419SOL    HW214157   6.321   5.467   6.228
 4420SOL     OW14158   3.655   2.287   0.850
 4420SOL    HW114159   3.751   2.314   0.840
 4420SOL    HW214160   3.623   2.311   0.942
 4421SOL     OW14161   1.404   2.546   4.460
 4421SOL    HW114162   1.409   2.468   4.397
 4421SOL    HW214163   1.309   2.575   4.470
 4422SOL     OW14164   0.235   4.962   6.676
 4422SOL    HW114165   0.193   4.872   6.686
 4422SOL    HW214166   0.174   5.021   6.623
 4423SOL     OW14167   5.592   4.030   5.448
 4423SOL    HW114168   5.596   4.048   5.547
 4423SOL    HW214169   5.600   4.116   5.398
 4424SOL     OW14170   4.937   6.100   4.315
 4424SOL    HW114171   5.005   6.027   4.310
 4424SOL    HW214172   4.904   6.108   4.409
 4425SOL     OW14173   1.973   5.891   1.310
 4425SOL    HW114174   1.938   5.908   1.218
 4425SOL    HW214175   2.034   5.965   1.337
 4426SOL     OW14176   1.056   0.135   3.726
 4426SOL    HW114177   1.019   0.055   3.775
 4426SOL    HW214178   1.151   0.116   3.700
 4427SOL     OW14179   3.557   6.091   3.264
 4427SOL    HW114180   3.469   6.123   3.299
 4427SOL    HW214181   3.607   6.046   3.339
 4428SOL     OW14182   5.653   0.986   3.598
 4428SOL    HW114183   5.730   1.021   3.650
 4428SOL    HW214184   5.587   0.943   3.661
 4429SOL     OW14185   3.041   5.924   3.689
 4429SOL    HW114186   3.086   5.957   3.606
 4429SOL    HW214187   3.021   5.827   3.680
 4430SOL     OW14188   5.273   4.943   4.838
 4430SOL    HW114189   5.344   4.873   4.825
 4430SOL    HW214190   5.189   4.899   4.869
 4431SOL     OW14191   3.559   0.769   3.797
 4431SOL    HW114192   3.551   0.697   3.729
 4431SOL    HW214193   3.484   0.762   3.862
 4432SOL     OW14194   1.589   3.368   6.005
 4432SOL    HW114195   1.556   3.436   6.070
 4432SOL    HW214196   1.553   3.390   5.914
 4433SOL     OW14197   1.061   1.047   4.743
 4433SOL    HW114198   1.030   1.052   4.648
 4433SOL    HW214199   1.084   1.139   4.775
 4434SOL     OW14200   6.985   1.569   1.644
 4434SOL    HW114201   0.010   1.530   1.722
 4434SOL    HW214202   6.907   1.510   1.620
 4435SOL     OW14203   2.514   4.092   0.461
 4435SOL    HW114204   2.423   4.116   0.430
 4435SOL    HW214205   2.575   4.079   0.382
 4436SOL     OW14206   4.625   1.894   1.425
 4436SOL    HW114207   4.586   1.982   1.450
 4436SOL    HW214208   4.551   1.827   1.414
 4437SOL     OW14209   0.383   3.707   1.867
 4437SOL    HW114210   0.437   3.788   1.842
 4437SOL    HW214211   0.373   3.704   1.967
 4438SOL     OW14212   4.095   0.017   6.323
 4438SOL    HW114213   4.008   7.002   6.294
 4438SOL    HW214214   4.128   6.991   6.403
 4439SOL     OW14215   2.572   6.745   2.327
 4439SOL    HW114216   2.669   6.731   2.306
 4439SOL    HW214217   2.564   6.803   2.408
 4440SOL     OW14218   1.732   4.717   0.509
 4440SOL    HW114219   1.825   4.697   0.480
 4440SOL    HW214220   1.731   4.740   0.607
 4441SOL     OW14221   0.631   1.333   7.012
 4441SOL    HW114222   0.571   1.316   6.934
 4441SOL    HW214223   0.670   1.424   7.005
 4442SOL     OW14224   1.968   4.418   6.834
 4442SOL    HW114225   1.915   4.437   6.916
 4442SOL    HW214226   1.909   4.429   6.753
 4443SOL     OW14227   0.315   5.250   6.532
 4443SOL    HW114228   0.369   5.172   6.565
 4443SOL    HW214229   0.218   5.229   6.543
 4444SOL     OW14230   5.368   4.175   0.210
 4444SOL    HW114231   5.413   4.192   0.122
 4444SOL    HW214232   5.280   4.221   0.212
 4445SOL     OW14233   0.500   5.868   0.016
 4445SOL    HW114234   0.499   5.783   0.069
 4445SOL    HW214235   0.407   5.904   0.008
 4446SOL     OW14236   5.103   1.111   0.758
 4446SOL    HW114237   5.119   1.126   0.856
 4446SOL    HW214238   5.118   1.197   0.709
 4447SOL     OW14239   5.378   5.203   5.514
 4447SOL    HW114240   5.457   5.142   5.503
 4447SOL    HW214241   5.369   5.227   5.611
 4448SOL     OW14242   3.362   6.603   2.071
 4448SOL    HW114243   3.430   6.535   2.099
 4448SOL    HW214244   3.270   6.566   2.087
 4449SOL     OW14245   3.771   1.125   6.259
 4449SOL    HW114246   3.832   1.095   6.333
 4449SOL    HW214247   3.759   1.224   6.264
 4450SOL     OW14248   3.332   0.623   0.476
 4450SOL    HW114249   3.263   0.648   0.545
 4450SOL    HW214250   3.361   0.529   0.491
 4451SOL     OW14251   4.745   4.245   3.583
 4451SOL    HW114252   4.651   4.267   3.558
 4451SOL    HW214253   4.772   4.297   3.664
 4452SOL     OW14254   5.157   6.458   4.527
 4452SOL    HW114255   5.117   6.547   4.545
 4452SOL    HW214256   5.123   6.392   4.595
 4453SOL     OW14257   0.621   3.184   1.210
 4453SOL    HW114258   0.586   3.123   1.139
 4453SOL    HW214259   0.630   3.277   1.174
 4454SOL     OW14260   0.974   2.212   0.487
 4454SOL    HW114261   1.016   2.279   0.548
 4454SOL    HW214262   0.902   2.162   0.537
 4455SOL     OW14263   6.879   6.089   4.972
 4455SOL    HW114264   6.781   6.109   4.977
 4455SOL    HW214265   6.930   6.159   5.023
 4456SOL     OW14266   1.932   0.029   4.310
 4456SOL    HW114267   1.962   0.124   4.306
 4456SOL    HW214268   1.867   0.018   4.385
 4457SOL     OW14269   0.913   2.185   5.089
 4457SOL    HW114270   0.867   2.099   5.064
 4457SOL    HW214271   1.000   2.164   5.134
 4458SOL     OW14272   2.307   3.788   0.979
 4458SOL    HW114273   2.211   3.788   1.005
 4458SOL    HW214274   2.317   3.834   0.890
 4459SOL     OW14275   1.527   2.618   3.769
 4459SOL    HW114276   1.493   2.659   3.685
 4459SOL    HW214277   1.452   2.574   3.819
 4460SOL     OW14278   6.826   3.310   4.099
 4460SOL    HW114279   6.739   3.355   4.118
 4460SOL    HW214280   6.893   3.377   4.068
 4461SOL     OW14281   2.650   0.837   1.015
 4461SOL    HW114282   2.676   0.752   1.060
 4461SOL    HW214283   2.575   0.820   0.951
 4462SOL     OW14284   5.930   4.685   1.883
 4462SOL    HW114285   6.008   4.671   1.822
 4462SOL    HW214286   5.902   4.598   1.922
 4463SOL     OW14287   6.200   2.100   1.061
 4463SOL    HW114288   6.165   2.061   0.976
 4463SOL    HW214289   6.130   2.159   1.102
 4464SOL     OW14290   0.548   5.760   0.410
 4464SOL    HW114291   0.456   5.788   0.383
 4464SOL    HW214292   0.582   5.691   0.346
 4465SOL     OW14293   1.936   5.740   0.409
 4465SOL    HW114294   1.879   5.741   0.327
 4465SOL    HW214295   2.014   5.679   0.395
 4466SOL     OW14296   1.912   2.120   3.472
 4466SOL    HW114297   1.946   2.028   3.487
 4466SOL    HW214298   1.929   2.177   3.553
 4467SOL     OW14299   3.779   5.579   3.146
 4467SOL    HW114300   3.799   5.550   3.053
 4467SOL    HW214301   3.842   5.652   3.173
 4468SOL     OW14302   1.344   3.495   2.080
 4468SOL    HW114303   1.254   3.479   2.121
 4468SOL    HW214304   1.383   3.579   2.119
 4469SOL     OW14305   2.726   6.951   1.377
 4469SOL    HW114306   2.656   6.982   1.313
 4469SOL    HW214307   2.738   6.852   1.369
 4470SOL     OW14308   1.251   0.501   1.921
 4470SOL    HW114309   1.313   0.543   1.987
 4470SOL    HW214310   1.223   0.569   1.853
 4471SOL     OW14311   1.804   1.521   6.247
 4471SOL    HW114312   1.901   1.544   6.253
 4471SOL    HW214313   1.769   1.544   6.156
 4472SOL     OW14314   1.552   3.123   0.968
 4472SOL    HW114315   1.465   3.147   1.011
 4472SOL    HW214316   1.622   3.112   1.039
 4473SOL     OW14317   0.256   3.528   4.575
 4473SOL    HW114318   0.214   3.603   4.626
 4473SOL    HW214319   0.328   3.564   4.515
 4474SOL     OW14320   3.053   0.022   1.756
 4474SOL    HW114321   3.125   0.046   1.821
 4474SOL    HW214322   2.995   0.102   1.741
 4475SOL     OW14323   1.068   3.821   1.786
 4475SOL    HW114324   1.054   3.904   1.839
 4475SOL    HW214325   0.979   3.784   1.757
 4476SOL     OW14326   4.973   1.608   3.960
 4476SOL    HW114327   5.008   1.655   3.879
 4476SOL    HW214328   4.985   1.510   3.950
 4477SOL     OW14329   2.022   0.149   6.162
 4477SOL    HW114330   2.007   0.070   6.103
 4477SOL    HW214331   1.981   0.132   6.252
 4478SOL     OW14332   1.417   0.228   7.007
 4478SOL    HW114333   1.479   0.201   6.934
 4478SOL    HW214334   1.324   0.237   6.969
 4479SOL     OW14335   1.077   2.971   0.411
 4479SOL    HW114336   1.115   2.885   0.446
 4479SOL    HW214337   1.038   3.023   0.487
 4480SOL     OW14338   0.611   6.502   4.378
 4480SOL    HW114339   0.654   6.526   4.291
 4480SOL    HW214340   0.610   6.402   4.387
 4481SOL     OW14341   2.566   4.680   6.459
 4481SOL    HW114342   2.480   4.637   6.435
 4481SOL    HW214343   2.601   4.733   6.381
 4482SOL     OW14344   2.773   5.480   6.525
 4482SOL    HW114345   2.736   5.393   6.557
 4482SOL    HW214346   2.812   5.530   6.602
 4483SOL     OW14347   0.672   2.787   1.761
 4483SOL    HW114348   0.738   2.861   1.750
 4483SOL    HW214349   0.586   2.824   1.797
 4484SOL     OW14350   2.407   2.396   6.702
 4484SOL    HW114351   2.495   2.415   6.745
 4484SOL    HW214352   2.400   2.299   6.683
 4485SOL     OW14353   5.393   2.980   4.592
 4485SOL    HW114354   5.301   2.956   4.562
 4485SOL    HW214355   5.457   2.969   4.516
 4486SOL     OW14356   4.643   4.982   5.295
 4486SOL    HW114357   4.602   5.059   5.246
 4486SOL    HW214358   4.677   4.914   5.230
 4487SOL     OW14359   1.283   2.770   0.289
 4487SOL    HW114360   1.373   2.742   0.320
 4487SOL    HW214361   1.241   2.695   0.237
 4488SOL     OW14362   0.018   4.091   4.337
 4488SOL    HW114363   0.116   4.077   4.351
 4488SOL    HW214364   6.993   4.006   4.355
 4489SOL     OW14365   3.768   5.583   5.495
 4489SOL    HW114366   3.842   5.651   5.493
 4489SOL    HW214367   3.770   5.530   5.410
 4490SOL     OW14368   5.136   1.947   1.054
 4490SOL    HW114369   5.234   1.958   1.073
 4490SOL    HW214370   5.082   1.992   1.125
 4491SOL     OW14371   1.085   2.743   3.219
 4491SOL    HW114372   1.123   2.730   3.128
 4491SOL    HW214373   1.020   2.819   3.217
 4492SOL     OW14374   5.618   0.641   1.426
 4492SOL    HW114375   5.696   0.612   1.480
 4492SOL    HW214376   5.572   0.561   1.387
 4493SOL     OW14377   5.014   0.914   5.405
 4493SOL    HW114378   4.915   0.929   5.403
 4493SOL    HW214379   5.061   0.997   5.373
 4494SOL     OW14380   0.702   0.685   0.770
 4494SOL    HW114381   0.718   0.782   0.752
 4494SOL    HW214382   0.682   0.638   0.684
 4495SOL     OW14383   4.415   6.096   1.975
 4495SOL    HW114384   4.421   6.104   1.875
 4495SOL    HW214385   4.338   6.035   1.998
 4496SOL     OW14386   3.435   5.903   6.346
 4496SOL    HW114387   3.463   5.941   6.434
 4496SOL    HW214388   3.447   5.972   6.274
 4497SOL     OW14389   4.068   1.636   6.146
 4497SOL    HW114390   4.026   1.709   6.092
 4497SOL    HW214391   4.126   1.676   6.216
 4498SOL     OW14392   0.740   5.618   5.754
 4498SOL    HW114393   0.768   5.522   5.761
 4498SOL    HW214394   0.649   5.623   5.712
 4499SOL     OW14395   5.779   2.043   1.884
 4499SOL    HW114396   5.710   2.065   1.953
 4499SOL    HW214397   5.853   1.990   1.926
 4500SOL     OW14398   3.490   6.091   6.977
 4500SOL    HW114399   3.433   6.078   0.034
 4500SOL    HW214400   3.579   6.047   6.990
 4501SOL     OW14401   5.533   1.157   2.380
 4501SOL    HW114402   5.440   1.121   2.382
 4501SOL    HW214403   5.550   1.201   2.292
 4502SOL     OW14404   0.331   3.351   6.799
 4502SOL    HW114405   0.292   3.440   6.823
 4502SOL    HW214406   0.361   3.353   6.704
 4503SOL     OW14407   3.159   0.235   2.499
 4503SOL    HW114408   3.248   0.202   2.466
 4503SOL    HW214409   3.118   0.166   2.558
 4504SOL     OW14410   0.542   1.926   3.222
 4504SOL    HW114411   0.490   2.011   3.234
 4504SOL    HW214412   0.609   1.938   3.149
 4505SOL     OW14413   5.662   3.692   2.587
 4505SOL    HW114414   5.562   3.695   2.584
 4505SOL    HW214415   5.693   3.600   2.564
 4506SOL     OW14416   5.146   3.154   4.686
 4506SOL    HW114417   5.237   3.159   4.645
 4506SOL    HW214418   5.106   3.064   4.669
 4507SOL     OW14419   6.607   2.863   3.283
 4507SOL    HW114420   6.591   2.959   3.305
 4507SOL    HW214421   6.626   2.854   3.185
 4508SOL     OW14422   0.922   5.135   0.399
 4508SOL    HW114423   0.898   5.038   0.411
 4508SOL    HW214424   0.865   5.191   0.459
 4509SOL     OW14425   4.800   2.945   2.652
 4509SOL    HW114426   4.729   3.000   2.609
 4509SOL    HW214427   4.875   2.931   2.588
 4510SOL     OW14428   4.606   1.324   4.649
 4510SOL    HW114429   4.672   1.262   4.609
 4510SOL    HW214430   4.529   1.337   4.585
 4511SOL     OW14431   0.557   4.551   0.848
 4511SOL    HW114432   0.509   4.500   0.919
 4511SOL    HW214433   0.578   4.491   0.771
 4512SOL     OW14434   3.320   2.568   5.711
 4512SOL    HW114435   3.266   2.580   5.795
 4512SOL    HW214436   3.284   2.491   5.659
 4513SOL     OW14437   1.577   6.222   0.356
 4513SOL    HW114438   1.632   6.297   0.320
 4513SOL    HW214439   1.634   6.140   0.365
 4514SOL     OW14440   3.050   3.571   6.789
 4514SOL    HW114441   2.956   3.560   6.756
 4514SOL    HW214442   3.053   3.646   6.855
 4515SOL     OW14443   4.590   6.818   5.921
 4515SOL    HW114444   4.617   6.784   6.010
 4515SOL    HW214445   4.508   6.875   5.930
 4516SOL     OW14446   3.779   1.634   5.126
 4516SOL    HW114447   3.754   1.571   5.053
 4516SOL    HW214448   3.872   1.615   5.156
 4517SOL     OW14449   4.148   0.540   5.726
 4517SOL    HW114450   4.051   0.514   5.735
 4517SOL    HW214451   4.158   0.602   5.648
 4518SOL     OW14452   1.753   0.558   0.746
 4518SOL    HW114453   1.715   0.515   0.828
 4518SOL    HW214454   1.769   0.655   0.764
 4519SOL     OW14455   5.248   6.485   6.584
 4519SOL    HW114456   5.294   6.422   6.521
 4519SOL    HW214457   5.314   6.552   6.619
 4520SOL     OW14458   4.302   6.604   5.163
 4520SOL    HW114459   4.225   6.634   5.108
 4520SOL    HW214460   4.283   6.621   5.260
 4521SOL     OW14461   4.613   2.656   4.739
 4521SOL    HW114462   4.546   2.623   4.805
 4521SOL    HW214463   4.678   2.716   4.785
 4522SOL     OW14464   5.052   3.961   3.106
 4522SOL    HW114465   4.954   3.982   3.105
 4522SOL    HW214466   5.090   3.986   3.195
 4523SOL     OW14467   0.492   3.384   6.552
 4523SOL    HW114468   0.469   3.305   6.495
 4523SOL    HW214469   0.591   3.394   6.557
 4524SOL     OW14470   0.749   3.254   3.090
 4524SOL    HW114471   0.772   3.332   3.032
 4524SOL    HW214472   0.651   3.251   3.105
 4525SOL     OW14473   2.848   1.823   5.183
 4525SOL    HW114474   2.924   1.882   5.153
 4525SOL    HW214475   2.773   1.881   5.216
 4526SOL     OW14476   0.437   0.022   5.581
 4526SOL    HW114477   0.373   7.017   5.653
 4526SOL    HW214478   0.402   7.016   5.492
 4527SOL     OW14479   6.334   0.343   3.033
 4527SOL    HW114480   6.387   0.331   3.117
 4527SOL    HW214481   6.246   0.386   3.055
 4528SOL     OW14482   3.800   0.832   5.444
 4528SOL    HW114483   3.730   0.898   5.416
 4528SOL    HW214484   3.863   0.875   5.508
 4529SOL     OW14485   2.529   1.128   5.616
 4529SOL    HW114486   2.472   1.086   5.687
 4529SOL    HW214487   2.625   1.122   5.643
 4530SOL     OW14488   2.893   5.979   5.493
 4530SOL    HW114489   2.807   5.992   5.444
 4530SOL    HW214490   2.917   6.063   5.541
 4531SOL     OW14491   0.803   5.037   6.117
 4531SOL    HW114492   0.896   5.072   6.107
 4531SOL    HW214493   0.783   4.975   6.041
 4532SOL     OW14494   5.824   0.830   2.700
 4532SOL    HW114495   5.905   0.812   2.643
 4532SOL    HW214496   5.843   0.804   2.794
 4533SOL     OW14497   2.514   0.636   2.314
 4533SOL    HW114498   2.485   0.726   2.280
 4533SOL    HW214499   2.439   0.593   2.363
 4534SOL     OW14500   4.731   1.616   4.265
 4534SOL    HW114501   4.737   1.615   4.365
 4534SOL    HW214502   4.824   1.614   4.227
 4535SOL     OW14503   2.724   1.765   0.329
 4535SOL    HW114504   2.814   1.728   0.351
 4535SOL    HW214505   2.657   1.691   0.327
 4536SOL     OW14506   2.918   1.370   5.860
 4536SOL    HW114507   2.987   1.312   5.904
 4536SOL    HW214508   2.866   1.316   5.795
 4537SOL     OW14509   4.059   3.281   3.558
 4537SOL    HW114510   3.977   3.226   3.544
 4537SOL    HW214511   4.090   3.271   3.652
 4538SOL     OW14512   6.925   2.487   0.495
 4538SOL    HW114513   6.961   2.396   0.514
 4538SOL    HW214514   6.974   2.527   0.417
 4539SOL     OW14515   1.091   5.532   5.466
 4539SOL    HW114516   1.036   5.603   5.510
 4539SOL    HW214517   1.081   5.538   5.367
 4540SOL     OW14518   0.436   0.914   6.987
 4540SOL    HW114519   0.457   0.823   6.949
 4540SOL    HW214520   0.499   0.933   0.038
 4541SOL     OW14521   4.354   2.522   6.031
 4541SOL    HW114522   4.418   2.555   5.962
 4541SOL    HW214523   4.349   2.589   6.106
 4542SOL     OW14524   6.998   2.801   1.223
 4542SOL    HW114525   0.026   2.854   1.156
 4542SOL    HW214526   0.030   2.725   1.256
 4543SOL     OW14527   3.542   2.380   6.926
 4543SOL    HW114528   3.608   2.313   6.893
 4543SOL    HW214529   3.525   2.365   0.000
 4544SOL     OW14530   5.987   5.868   0.764
 4544SOL    HW114531   5.888   5.878   0.760
 4544SOL    HW214532   6.011   5.774   0.741
 4545SOL     OW14533   2.042   3.138   5.424
 4545SOL    HW114534   2.107   3.073   5.385
 4545SOL    HW214535   2.091   3.214   5.466
 4546SOL     OW14536   3.161   1.482   6.662
 4546SOL    HW114537   3.193   1.566   6.619
 4546SOL    HW214538   3.125   1.420   6.592
 4547SOL     OW14539   6.521   0.336   0.225
 4547SOL    HW114540   6.565   0.247   0.232
 4547SOL    HW214541   6.530   0.384   0.313
 4548SOL     OW14542   2.268   2.838   2.841
 4548SOL    HW114543   2.304   2.812   2.751
 4548SOL    HW214544   2.319   2.789   2.912
 4549SOL     OW14545   5.838   3.543   3.511
 4549SOL    HW114546   5.850   3.594   3.597
 4549SOL    HW214547   5.834   3.445   3.531
 4550SOL     OW14548   0.785   4.484   3.108
 4550SOL    HW114549   0.708   4.530   3.063
 4550SOL    HW214550   0.833   4.549   3.167
 4551SOL     OW14551   1.087   3.783   4.685
 4551SOL    HW114552   1.109   3.854   4.752
 4551SOL    HW214553   1.029   3.714   4.727
 4552SOL     OW14554   5.602   1.020   1.184
 4552SOL    HW114555   5.671   0.982   1.122
 4552SOL    HW214556   5.555   0.946   1.231
 4553SOL     OW14557   5.960   4.919   6.093
 4553SOL    HW114558   5.994   4.945   6.184
 4553SOL    HW214559   5.862   4.934   6.089
 4554SOL     OW14560   0.497   6.080   2.443
 4554SOL    HW114561   0.486   6.160   2.502
 4554SOL    HW214562   0.457   6.100   2.353
 4555SOL     OW14563   1.129   1.045   6.544
 4555SOL    HW114564   1.044   1.033   6.597
 4555SOL    HW214565   1.106   1.075   6.452
 4556SOL     OW14566   5.915   3.638   5.923
 4556SOL    HW114567   5.912   3.684   6.011
 4556SOL    HW214568   5.994   3.578   5.919
 4557SOL     OW14569   6.183   4.999   2.981
 4557SOL    HW114570   6.095   5.015   2.935
 4557SOL    HW214571   6.180   4.910   3.028
 4558SOL     OW14572   6.810   3.367   5.558
 4558SOL    HW114573   6.828   3.454   5.604
 4558SOL    HW214574   6.774   3.385   5.467
 4559SOL     OW14575   0.186   2.628   2.497
 4559SOL    HW114576   0.111   2.597   2.438
 4559SOL    HW214577   0.149   2.683   2.572
 4560SOL     OW14578   6.107   4.828   2.551
 4560SOL    HW114579   6.083   4.789   2.640
 4560SOL    HW214580   6.125   4.754   2.486
 4561SOL     OW14581   3.690   2.060   4.637
 4561SOL    HW114582   3.687   1.968   4.674
 4561SOL    HW214583   3.783   2.081   4.607
 4562SOL     OW14584   2.580   1.257   0.946
 4562SOL    HW114585   2.622   1.215   1.026
 4562SOL    HW214586   2.502   1.313   0.975
 4563SOL     OW14587   0.381   3.045   1.676
 4563SOL    HW114588   0.413   3.066   1.768
 4563SOL    HW214589   0.385   3.129   1.620
 4564SOL     OW14590   0.508   3.949   1.791
 4564SOL    HW114591   0.485   4.022   1.856
 4564SOL    HW214592   0.436   3.941   1.722
 4565SOL     OW14593   1.786   6.334   5.167
 4565SOL    HW114594   1.719   6.267   5.135
 4565SOL    HW214595   1.786   6.336   5.267
 4566SOL     OW14596   6.376   4.330   2.105
 4566SOL    HW114597   6.306   4.398   2.082
 4566SOL    HW214598   6.387   4.267   2.028
 4567SOL     OW14599   0.310   0.662   6.429
 4567SOL    HW114600   0.327   0.566   6.450
 4567SOL    HW214601   0.297   0.713   6.514
 4568SOL     OW14602   0.582   5.458   3.310
 4568SOL    HW114603   0.592   5.389   3.238
 4568SOL    HW214604   0.520   5.530   3.278
 4569SOL     OW14605   2.602   0.868   3.340
 4569SOL    HW114606   2.643   0.916   3.262
 4569SOL    HW214607   2.507   0.845   3.318
 4570SOL     OW14608   5.933   5.524   1.671
 4570SOL    HW114609   5.948   5.595   1.602
 4570SOL    HW214610   5.957   5.560   1.761
 4571SOL     OW14611   3.211   3.200   6.430
 4571SOL    HW114612   3.247   3.106   6.432
 4571SOL    HW214613   3.201   3.229   6.335
 4572SOL     OW14614   2.771   2.908   1.707
 4572SOL    HW114615   2.766   2.935   1.611
 4572SOL    HW214616   2.741   2.813   1.717
 4573SOL     OW14617   1.997   6.171   1.238
 4573SOL    HW114618   1.913   6.147   1.189
 4573SOL    HW214619   2.076   6.152   1.180
 4574SOL     OW14620   5.813   2.065   1.071
 4574SOL    HW114621   5.866   1.984   1.048
 4574SOL    HW214622   5.777   2.057   1.164
 4575SOL     OW14623   6.582   6.631   4.534
 4575SOL    HW114624   6.486   6.641   4.561
 4575SOL    HW214625   6.627   6.720   4.533
 4576SOL     OW14626   2.540   4.511   5.100
 4576SOL    HW114627   2.631   4.553   5.107
 4576SOL    HW214628   2.485   4.537   5.180
 4577SOL     OW14629   2.010   1.461   2.956
 4577SOL    HW114630   2.084   1.487   2.893
 4577SOL    HW214631   1.984   1.366   2.940
 4578SOL     OW14632   1.129   1.148   1.732
 4578SOL    HW114633   1.050   1.109   1.685
 4578SOL    HW214634   1.128   1.121   1.828
 4579SOL     OW14635   3.669   1.364   2.407
 4579SOL    HW114636   3.643   1.419   2.328
 4579SOL    HW214637   3.750   1.310   2.384
 4580SOL     OW14638   0.080   2.871   0.187
 4580SOL    HW114639   0.137   2.909   0.259
 4580SOL    HW214640   0.021   2.943   0.149
 4581SOL     OW14641   3.437   7.019   1.829
 4581SOL    HW114642   3.412   6.958   1.754
 4581SOL    HW214643   3.355   0.039   1.866
 4582SOL     OW14644   6.087   1.118   3.126
 4582SOL    HW114645   6.137   1.162   3.051
 4582SOL    HW214646   5.988   1.127   3.111
 4583SOL     OW14647   1.904   6.886   6.504
 4583SOL    HW114648   1.810   6.920   6.513
 4583SOL    HW214649   1.938   6.857   6.593
 4584SOL     OW14650   1.594   0.639   5.652
 4584SOL    HW114651   1.548   0.641   5.563
 4584SOL    HW214652   1.525   0.626   5.724
 4585SOL     OW14653   1.190   3.566   3.421
 4585SOL    HW114654   1.136   3.554   3.337
 4585SOL    HW214655   1.173   3.488   3.482
 4586SOL     OW14656   5.157   4.572   6.783
 4586SOL    HW114657   5.230   4.521   6.738
 4586SOL    HW214658   5.074   4.568   6.727
 4587SOL     OW14659   3.218   3.629   4.446
 4587SOL    HW114660   3.243   3.649   4.352
 4587SOL    HW214661   3.162   3.704   4.482
 4588SOL     OW14662   2.827   4.266   5.539
 4588SOL    HW114663   2.752   4.314   5.585
 4588SOL    HW214664   2.895   4.239   5.607
 4589SOL     OW14665   5.265   6.994   2.377
 4589SOL    HW114666   5.288   0.041   2.310
 4589SOL    HW214667   5.306   6.907   2.349
 4590SOL     OW14668   3.361   5.449   1.657
 4590SOL    HW114669   3.421   5.513   1.705
 4590SOL    HW214670   3.335   5.374   1.719
 4591SOL     OW14671   1.824   0.506   5.331
 4591SOL    HW114672   1.829   0.582   5.266
 4591SOL    HW214673   1.915   0.489   5.368
 4592SOL     OW14674   2.273   1.600   4.182
 4592SOL    HW114675   2.241   1.671   4.245
 4592SOL    HW214676   2.251   1.510   4.220
 4593SOL     OW14677   0.688   6.030   3.935
 4593SOL    HW114678   0.649   6.121   3.928
 4593SOL    HW214679   0.668   5.992   4.026
 4594SOL     OW14680   1.910   0.479   2.526
 4594SOL    HW114681   1.981   0.466   2.596
 4594SOL    HW214682   1.927   0.566   2.479
 4595SOL     OW14683   4.900   1.742   6.019
 4595SOL    HW114684   4.890   1.659   6.073
 4595SOL    HW214685   4.914   1.820   6.080
 4596SOL     OW14686   0.984   1.002   2.255
 4596SOL    HW114687   1.054   1.059   2.298
 4596SOL    HW214688   0.893   1.032   2.285
 4597SOL     OW14689   2.749   6.167   6.752
 4597SOL    HW114690   2.798   6.169   6.839
 4597SOL    HW214691   2.672   6.230   6.756
 4598SOL     OW14692   1.985   5.555   0.118
 4598SOL    HW114693   1.948   5.512   0.201
 4598SOL    HW214694   1.915   5.556   0.047
 4599SOL     OW14695   2.143   5.298   3.232
 4599SOL    HW114696   2.213   5.277   3.164
 4599SOL    HW214697   2.186   5.313   3.321
 4600SOL     OW14698   6.772   6.218   5.992
 4600SOL    HW114699   6.821   6.244   5.909
 4600SOL    HW214700   6.789   6.121   6.012
 4601SOL     OW14701   1.037   1.311   4.875
 4601SOL    HW114702   1.038   1.342   4.971
 4601SOL    HW214703   0.959   1.352   4.828
 4602SOL     OW14704   2.876   2.010   0.020
 4602SOL    HW114705   2.910   2.083   0.079
 4602SOL    HW214706   2.799   2.044   6.990
 4603SOL     OW14707   5.140   6.326   1.021
 4603SOL    HW114708   5.044   6.302   1.009
 4603SOL    HW214709   5.173   6.290   1.108
 4604SOL     OW14710   5.227   0.300   5.958
 4604SOL    HW114711   5.197   0.246   5.880
 4604SOL    HW214712   5.327   0.309   5.956
 4605SOL     OW14713   3.362   0.063   2.374
 4605SOL    HW114714   3.446   0.010   2.379
 4605SOL    HW214715   3.289   0.017   2.424
 4606SOL     OW14716   6.619   6.824   3.721
 4606SOL    HW114717   6.586   6.889   3.790
 4606SOL    HW214718   6.715   6.842   3.701
 4607SOL     OW14719   1.572   3.021   2.143
 4607SOL    HW114720   1.656   3.071   2.120
 4607SOL    HW214721   1.506   3.083   2.184
 4608SOL     OW14722   6.873   3.609   4.892
 4608SOL    HW114723   6.794   3.656   4.931
 4608SOL    HW214724   6.841   3.537   4.830
 4609SOL     OW14725   4.590   6.029   6.931
 4609SOL    HW114726   4.564   6.064   7.021
 4609SOL    HW214727   4.514   5.978   6.891
 4610SOL     OW14728   5.371   2.837   0.914
 4610SOL    HW114729   5.300   2.842   0.844
 4610SOL    HW214730   5.406   2.929   0.933
 4611SOL     OW14731   1.154   0.399   6.097
 4611SOL    HW114732   1.116   0.483   6.136
 4611SOL    HW214733   1.131   0.321   6.155
 4612SOL     OW14734   1.853   6.886   1.861
 4612SOL    HW114735   1.777   6.859   1.921
 4612SOL    HW214736   1.925   6.929   1.915
 4613SOL     OW14737   1.584   5.088   1.962
 4613SOL    HW114738   1.657   5.124   1.904
 4613SOL    HW214739   1.538   5.163   2.009
 4614SOL     OW14740   6.482   3.645   4.442
 4614SOL    HW114741   6.451   3.722   4.498
 4614SOL    HW214742   6.417   3.569   4.450
 4615SOL     OW14743   0.837   2.632   0.771
 4615SOL    HW114744   0.813   2.635   0.868
 4615SOL    HW214745   0.754   2.617   0.717
 4616SOL     OW14746   5.920   3.061   4.674
 4616SOL    HW114747   6.017   3.084   4.662
 4616SOL    HW214748   5.912   2.969   4.711
 4617SOL     OW14749   0.775   2.329   2.458
 4617SOL    HW114750   0.747   2.389   2.533
 4617SOL    HW214751   0.835   2.379   2.396
 4618SOL     OW14752   2.573   4.415   5.622
 4618SOL    HW114753   2.631   4.468   5.559
 4618SOL    HW214754   2.582   4.453   5.714
 4619SOL     OW14755   3.677   6.228   5.312
 4619SOL    HW114756   3.610   6.302   5.316
 4619SOL    HW214757   3.767   6.265   5.288
 4620SOL     OW14758   1.424   5.465   2.751
 4620SOL    HW114759   1.488   5.538   2.726
 4620SOL    HW214760   1.435   5.389   2.688
 4621SOL     OW14761   4.711   0.538   2.048
 4621SOL    HW114762   4.706   0.575   2.141
 4621SOL    HW214763   4.744   0.444   2.051
 4622SOL     OW14764   4.667   5.635   1.246
 4622SOL    HW114765   4.581   5.623   1.198
 4622SOL    HW214766   4.690   5.551   1.296
 4623SOL     OW14767   2.786   5.155   1.244
 4623SOL    HW114768   2.777   5.091   1.320
 4623SOL    HW214769   2.808   5.106   1.160
 4624SOL     OW14770   4.286   1.096   2.480
 4624SOL    HW114771   4.236   1.072   2.397
 4624SOL    HW214772   4.278   1.195   2.496
 4625SOL     OW14773   2.093   5.635   1.263
 4625SOL    HW114774   2.074   5.554   1.318
 4625SOL    HW214775   2.033   5.710   1.291
 4626SOL     OW14776   4.008   3.912   1.807
 4626SOL    HW114777   3.990   3.951   1.897
 4626SOL    HW214778   4.083   3.962   1.763
 4627SOL     OW14779   5.939   6.749   5.130
 4627SOL    HW114780   5.967   6.773   5.223
 4627SOL    HW214781   5.928   6.832   5.076
 4628SOL     OW14782   5.633   5.035   4.089
 4628SOL    HW114783   5.635   4.942   4.054
 4628SOL    HW214784   5.565   5.042   4.161
 4629SOL     OW14785   2.179   6.143   6.403
 4629SOL    HW114786   2.148   6.197   6.325
 4629SOL    HW214787   2.206   6.205   6.477
 4630SOL     OW14788   1.292   3.861   2.479
 4630SOL    HW114789   1.313   3.774   2.436
 4630SOL    HW214790   1.308   3.935   2.414
 4631SOL     OW14791   0.313   0.428   3.566
 4631SOL    HW114792   0.386   0.464   3.507
 4631SOL    HW214793   0.351   0.364   3.632
 4632SOL     OW14794   3.461   4.928   2.662
 4632SOL    HW114795   3.452   5.023   2.632
 4632SOL    HW214796   3.463   4.868   2.582
 4633SOL     OW14797   5.066   1.566   4.574
 4633SOL    HW114798   5.026   1.508   4.645
 4633SOL    HW214799   5.080   1.512   4.491
 4634SOL     OW14800   3.326   3.822   4.867
 4634SOL    HW114801   3.267   3.894   4.905
 4634SOL    HW214802   3.331   3.833   4.767
 4635SOL     OW14803   5.205   5.784   0.596
 4635SOL    HW114804   5.211   5.713   0.526
 4635SOL    HW214805   5.260   5.863   0.569
 4636SOL     OW14806   1.748   5.768   0.193
 4636SOL    HW114807   1.789   5.802   0.108
 4636SOL    HW214808   1.670   5.710   0.171
 4637SOL     OW14809   1.970   0.246   1.999
 4637SOL    HW114810   2.014   0.218   1.914
 4637SOL    HW214811   2.037   0.289   2.059
 4638SOL     OW14812   3.476   5.415   6.916
 4638SOL    HW114813   3.431   5.470   6.845
 4638SOL    HW214814   3.410   5.395   6.988
 4639SOL     OW14815   2.185   2.273   1.063
 4639SOL    HW114816   2.132   2.314   0.990
 4639SOL    HW214817   2.268   2.232   1.025
 4640SOL     OW14818   6.619   3.054   5.866
 4640SOL    HW114819   6.621   3.091   5.773
 4640SOL    HW214820   6.540   3.092   5.915
 4641SOL     OW14821   0.635   5.604   4.068
 4641SOL    HW114822   0.725   5.564   4.055
 4641SOL    HW214823   0.582   5.548   4.132
 4642SOL     OW14824   0.542   1.663   3.605
 4642SOL    HW114825   0.583   1.630   3.690
 4642SOL    HW214826   0.497   1.588   3.558
 4643SOL     OW14827   0.518   2.088   6.998
 4643SOL    HW114828   0.546   2.049   0.063
 4643SOL    HW214829   0.527   2.018   6.927
 4644SOL     OW14830   1.446   1.128   0.885
 4644SOL    HW114831   1.398   1.119   0.797
 4644SOL    HW214832   1.542   1.148   0.868
 4645SOL     OW14833   1.412   1.644   3.519
 4645SOL    HW114834   1.326   1.612   3.481
 4645SOL    HW214835   1.469   1.565   3.543
 4646SOL     OW14836   1.693   4.662   3.412
 4646SOL    HW114837   1.790   4.687   3.421
 4646SOL    HW214838   1.640   4.744   3.391
 4647SOL     OW14839   1.454   6.854   2.978
 4647SOL    HW114840   1.537   6.802   2.960
 4647SOL    HW214841   1.375   6.803   2.944
 4648SOL     OW14842   2.512   1.742   4.397
 4648SOL    HW114843   2.426   1.701   4.366
 4648SOL    HW214844   2.585   1.715   4.335
 4649SOL     OW14845   5.742   0.442   0.519
 4649SOL    HW114846   5.816   0.509   0.524
 4649SOL    HW214847   5.660   0.485   0.483
 4650SOL     OW14848   5.536   6.113   1.141
 4650SOL    HW114849   5.551   6.025   1.096
 4650SOL    HW214850   5.611   6.175   1.118
 4651SOL     OW14851   5.936   3.261   6.081
 4651SOL    HW114852   5.896   3.333   6.136
 4651SOL    HW214853   5.934   3.175   6.132
 4652SOL     OW14854   0.390   6.351   4.080
 4652SOL    HW114855   0.374   6.258   4.049
 4652SOL    HW214856   0.488   6.372   4.074
 4653SOL     OW14857   5.447   5.680   0.852
 4653SOL    HW114858   5.420   5.771   0.823
 4653SOL    HW214859   5.366   5.627   0.877
 4654SOL     OW14860   0.259   6.622   5.074
 4654SOL    HW114861   0.333   6.564   5.108
 4654SOL    HW214862   0.296   6.688   5.009
 4655SOL     OW14863   4.594   2.751   1.369
 4655SOL    HW114864   4.657   2.795   1.433
 4655SOL    HW214865   4.515   2.811   1.353
 4656SOL     OW14866   0.757   1.024   1.372
 4656SOL    HW114867   0.657   1.020   1.366
 4656SOL    HW214868   0.797   0.995   1.285
 4657SOL     OW14869   5.162   6.734   1.728
 4657SOL    HW114870   5.241   6.794   1.726
 4657SOL    HW214871   5.192   6.639   1.735
 4658SOL     OW14872   2.709   2.524   5.974
 4658SOL    HW114873   2.780   2.588   6.002
 4658SOL    HW214874   2.729   2.433   6.010
 4659SOL     OW14875   3.460   4.984   0.496
 4659SOL    HW114876   3.442   4.887   0.484
 4659SOL    HW214877   3.373   5.032   0.511
 4660SOL     OW14878   1.362   6.676   4.096
 4660SOL    HW114879   1.370   6.719   4.186
 4660SOL    HW214880   1.320   6.740   4.032
 4661SOL     OW14881   1.174   3.133   5.543
 4661SOL    HW114882   1.259   3.184   5.536
 4661SOL    HW214883   1.138   3.113   5.452
 4662SOL     OW14884   2.672   6.085   4.729
 4662SOL    HW114885   2.701   6.091   4.634
 4662SOL    HW214886   2.573   6.077   4.734
 4663SOL     OW14887   1.440   6.983   0.081
 4663SOL    HW114888   1.537   7.007   0.086
 4663SOL    HW214889   1.385   0.041   0.096
 4664SOL     OW14890   6.575   6.179   6.991
 4664SOL    HW114891   6.550   6.247   6.922
 4664SOL    HW214892   6.577   6.088   6.949
 4665SOL     OW14893   2.457   0.647   4.571
 4665SOL    HW114894   2.463   0.723   4.636
 4665SOL    HW214895   2.360   0.624   4.556
 4666SOL     OW14896   2.236   2.110   5.601
 4666SOL    HW114897   2.233   2.051   5.682
 4666SOL    HW214898   2.314   2.172   5.607
 4667SOL     OW14899   6.817   3.570   1.375
 4667SOL    HW114900   6.751   3.572   1.299
 4667SOL    HW214901   6.841   3.475   1.396
 4668SOL     OW14902   4.367   2.346   4.487
 4668SOL    HW114903   4.395   2.255   4.519
 4668SOL    HW214904   4.321   2.337   4.399
 4669SOL     OW14905   5.331   6.813   6.861
 4669SOL    HW114906   5.329   6.904   6.902
 4669SOL    HW214907   5.268   6.810   6.784
 4670SOL     OW14908   0.766   3.168   0.838
 4670SOL    HW114909   0.768   3.267   0.852
 4670SOL    HW214910   0.844   3.127   0.885
 4671SOL     OW14911   0.033   3.891   0.139
 4671SOL    HW114912   6.958   3.883   0.149
 4671SOL    HW214913   0.061   3.986   0.150
 4672SOL     OW14914   3.149   3.904   5.988
 4672SOL    HW114915   3.169   3.927   5.893
 4672SOL    HW214916   3.054   3.875   5.996
 4673SOL     OW14917   5.814   0.365   6.995
 4673SOL    HW114918   5.752   0.293   0.002
 4673SOL    HW214919   5.828   0.431   0.046
 4674SOL     OW14920   0.815   1.915   0.523
 4674SOL    HW114921   0.748   1.841   0.512
 4674SOL    HW214922   0.802   1.959   0.611
 4675SOL     OW14923   2.545   6.272   0.196
 4675SOL    HW114924   2.573   6.295   0.103
 4675SOL    HW214925   2.548   6.354   0.253
 4676SOL     OW14926   0.725   5.744   3.696
 4676SOL    HW114927   0.637   5.790   3.704
 4676SOL    HW214928   0.712   5.645   3.706
 4677SOL     OW14929   4.408   0.770   6.494
 4677SOL    HW114930   4.439   0.776   6.399
 4677SOL    HW214931   4.466   0.704   6.544
 4678SOL     OW14932   2.278   4.889   0.307
 4678SOL    HW114933   2.364   4.894   0.357
 4678SOL    HW214934   2.293   4.849   0.217
 4679SOL     OW14935   3.012   0.557   6.257
 4679SOL    HW114936   2.960   0.628   6.211
 4679SOL    HW214937   2.996   0.469   6.212
 4680SOL     OW14938   1.667   4.817   0.796
 4680SOL    HW114939   1.588   4.863   0.835
 4680SOL    HW214940   1.750   4.845   0.844
 4681SOL     OW14941   0.139   5.514   5.141
 4681SOL    HW114942   0.093   5.486   5.226
 4681SOL    HW214943   0.238   5.508   5.153
 4682SOL     OW14944   4.010   6.445   0.853
 4682SOL    HW114945   4.017   6.416   0.948
 4682SOL    HW214946   4.099   6.474   0.819
 4683SOL     OW14947   6.210   4.010   2.353
 4683SOL    HW114948   6.154   4.069   2.296
 4683SOL    HW214949   6.181   3.915   2.342
 4684SOL     OW14950   1.371   2.122   4.690
 4684SOL    HW114951   1.394   2.206   4.739
 4684SOL    HW214952   1.407   2.043   4.740
 4685SOL     OW14953   5.110   5.357   4.979
 4685SOL    HW114954   5.019   5.391   5.002
 4685SOL    HW214955   5.162   5.341   5.063
 4686SOL     OW14956   4.580   5.495   6.224
 4686SOL    HW114957   4.670   5.540   6.225
 4686SOL    HW214958   4.573   5.438   6.142
 4687SOL     OW14959   6.302   5.377   4.805
 4687SOL    HW114960   6.381   5.421   4.847
 4687SOL    HW214961   6.333   5.306   4.742
 4688SOL     OW14962   0.217   3.022   6.442
 4688SOL    HW114963   0.282   3.041   6.516
 4688SOL    HW214964   0.253   3.058   6.356
 4689SOL     OW14965   0.086   6.333   4.925
 4689SOL    HW114966   0.062   6.331   5.022
 4689SOL    HW214967   0.175   6.376   4.914
 4690SOL     OW14968   1.661   1.699   0.081
 4690SOL    HW114969   1.630   1.632   0.014
 4690SOL    HW214970   1.684   1.785   0.034
 4691SOL     OW14971   2.628   5.145   0.768
 4691SOL    HW114972   2.662   5.235   0.741
 4691SOL    HW214973   2.530   5.152   0.790
 4692SOL     OW14974   0.278   5.395   3.323
 4692SOL    HW114975   0.236   5.421   3.236
 4692SOL    HW214976   0.253   5.461   3.393
 4693SOL     OW14977   0.633   1.078   4.255
 4693SOL    HW114978   0.645   1.000   4.193
 4693SOL    HW214979   0.553   1.061   4.314
 4694SOL     OW14980   1.755   1.581   0.316
 4694SOL    HW114981   1.705   1.614   0.236
 4694SOL    HW214982   1.838   1.534   0.287
 4695SOL     OW14983   3.744   3.028   2.306
 4695SOL    HW114984   3.816   3.017   2.237
 4695SOL    HW214985   3.656   3.038   2.260
 4696SOL     OW14986   6.827   3.382   6.505
 4696SOL    HW114987   6.925   3.375   6.483
 4696SOL    HW214988   6.816   3.431   6.592
 4697SOL     OW14989   0.849   4.742   0.084
 4697SOL    HW114990   0.881   4.648   0.086
 4697SOL    HW214991   0.773   4.750   0.020
 4698SOL     OW14992   5.205   3.912   0.786
 4698SOL    HW114993   5.148   3.832   0.808
 4698SOL    HW214994   5.260   3.892   0.705
 4699SOL     OW14995   0.092   0.591   2.520
 4699SOL    HW114996   0.180   0.598   2.474
 4699SOL    HW214997   0.076   0.496   2.546
 4700SOL     OW14998   4.705   1.355   1.142
 4700SOL    HW114999   4.801   1.367   1.166
 4700SOL    HW215000   4.697   1.295   1.062
 4701SOL     OW15001   0.712   1.242   0.622
 4701SOL    HW115002   0.752   1.288   0.543
 4701SOL    HW215003   0.785   1.205   0.680
 4702SOL     OW15004   3.563   3.683   0.647
 4702SOL    HW115005   3.525   3.630   0.723
 4702SOL    HW215006   3.632   3.746   0.682
 4703SOL     OW15007   1.784   0.777   2.545
 4703SOL    HW115008   1.703   0.835   2.548
 4703SOL    HW215009   1.791   0.725   2.631
 4704SOL     OW15010   6.564   6.520   0.875
 4704SOL    HW115011   6.522   6.460   0.808
 4704SOL    HW215012   6.580   6.469   0.960
 4705SOL     OW15013   3.392   3.507   3.866
 4705SOL    HW115014   3.454   3.585   3.855
 4705SOL    HW215015   3.394   3.476   3.961
 4706SOL     OW15016   4.277   6.240   6.839
 4706SOL    HW115017   4.348   6.194   6.785
 4706SOL    HW215018   4.319   6.308   6.899
 4707SOL     OW15019   2.010   5.304   1.038
 4707SOL    HW115020   2.048   5.217   1.005
 4707SOL    HW215021   1.962   5.288   1.125
 4708SOL     OW15022   2.446   2.682   1.505
 4708SOL    HW115023   2.451   2.631   1.591
 4708SOL    HW215024   2.476   2.777   1.521
 4709SOL     OW15025   4.194   5.139   5.308
 4709SOL    HW115026   4.151   5.189   5.384
 4709SOL    HW215027   4.186   5.041   5.325
 4710SOL     OW15028   4.356   1.399   0.192
 4710SOL    HW115029   4.421   1.323   0.191
 4710SOL    HW215030   4.399   1.480   0.151
 4711SOL     OW15031   3.580   6.999   2.614
 4711SOL    HW115032   3.507   6.978   2.680
 4711SOL    HW215033   3.663   0.002   2.663
 4712SOL     OW15034   2.192   4.420   0.582
 4712SOL    HW115035   2.183   4.474   0.666
 4712SOL    HW215036   2.158   4.474   0.505
 4713SOL     OW15037   1.775   5.684   0.880
 4713SOL    HW115038   1.737   5.776   0.878
 4713SOL    HW215039   1.810   5.661   0.789
 4714SOL     OW15040   3.058   2.421   1.069
 4714SOL    HW115041   2.963   2.403   1.096
 4714SOL    HW215042   3.107   2.462   1.146
 4715SOL     OW15043   6.754   2.517   3.498
 4715SOL    HW115044   6.789   2.459   3.572
 4715SOL    HW215045   6.716   2.601   3.538
 4716SOL     OW15046   3.425   5.932   0.406
 4716SOL    HW115047   3.346   5.986   0.375
 4716SOL    HW215048   3.496   5.933   0.335
 4717SOL     OW15049   1.321   5.919   3.340
 4717SOL    HW115050   1.352   5.831   3.376
 4717SOL    HW215051   1.324   5.917   3.240
 4718SOL     OW15052   5.800   0.880   6.113
 4718SOL    HW115053   5.801   0.949   6.185
 4718SOL    HW215054   5.707   0.849   6.096
 4719SOL     OW15055   4.367   3.520   1.676
 4719SOL    HW115056   4.324   3.590   1.732
 4719SOL    HW215057   4.410   3.563   1.596
 4720SOL     OW15058   2.278   0.485   5.775
 4720SOL    HW115059   2.241   0.554   5.713
 4720SOL    HW215060   2.203   0.431   5.814
 4721SOL     OW15061   1.856   1.907   1.405
 4721SOL    HW115062   1.806   1.990   1.431
 4721SOL    HW215063   1.895   1.919   1.313
 4722SOL     OW15064   2.153   6.731   0.719
 4722SOL    HW115065   2.245   6.727   0.680
 4722SOL    HW215066   2.089   6.764   0.650
 4723SOL     OW15067   3.051   6.727   0.071
 4723SOL    HW115068   3.068   6.737   0.169
 4723SOL    HW215069   2.953   6.737   0.053
 4724SOL     OW15070   4.128   6.535   1.920
 4724SOL    HW115071   4.148   6.531   2.018
 4724SOL    HW215072   4.162   6.452   1.876
 4725SOL     OW15073   4.947   6.705   3.694
 4725SOL    HW115074   4.879   6.758   3.644
 4725SOL    HW215075   4.902   6.628   3.740
 4726SOL     OW15076   0.646   4.131   6.546
 4726SOL    HW115077   0.563   4.079   6.523
 4726SOL    HW215078   0.647   4.150   6.644
 4727SOL     OW15079   6.849   5.806   0.020
 4727SOL    HW115080   6.775   5.839   0.079
 4727SOL    HW215081   6.816   5.732   6.986
 4728SOL     OW15082   0.441   0.962   6.550
 4728SOL    HW115083   0.473   0.893   6.485
 4728SOL    HW215084   0.358   0.930   6.595
 4729SOL     OW15085   3.468   0.414   1.961
 4729SOL    HW115086   3.396   0.477   1.988
 4729SOL    HW215087   3.487   0.351   2.036
 4730SOL     OW15088   2.127   6.587   5.304
 4730SOL    HW115089   2.127   6.575   5.205
 4730SOL    HW215090   2.197   6.528   5.345
 4731SOL     OW15091   5.911   1.545   5.079
 4731SOL    HW115092   5.817   1.558   5.112
 4731SOL    HW215093   5.918   1.582   4.986
 4732SOL     OW15094   0.268   3.195   0.097
 4732SOL    HW115095   0.263   3.141   0.181
 4732SOL    HW215096   0.226   3.284   0.112
 4733SOL     OW15097   7.016   3.930   2.945
 4733SOL    HW115098   0.047   3.848   2.934
 4733SOL    HW215099   0.008   3.991   2.867
 4734SOL     OW15100   3.964   4.145   6.347
 4734SOL    HW115101   3.895   4.217   6.340
 4734SOL    HW215102   3.925   4.067   6.396
 4735SOL     OW15103   1.346   4.693   3.889
 4735SOL    HW115104   1.252   4.700   3.856
 4735SOL    HW215105   1.406   4.749   3.832
 4736SOL     OW15106   0.896   0.682   0.252
 4736SOL    HW115107   0.885   0.715   0.158
 4736SOL    HW215108   0.810   0.696   0.302
 4737SOL     OW15109   2.222   5.578   1.565
 4737SOL    HW115110   2.156   5.543   1.499
 4737SOL    HW215111   2.289   5.635   1.518
 4738SOL     OW15112   0.378   6.679   2.552
 4738SOL    HW115113   0.347   6.749   2.487
 4738SOL    HW215114   0.313   6.603   2.554
 4739SOL     OW15115   4.559   0.754   1.731
 4739SOL    HW115116   4.650   0.790   1.710
 4739SOL    HW215117   4.551   0.734   1.828
 4740SOL     OW15118   1.327   1.649   2.518
 4740SOL    HW115119   1.318   1.623   2.615
 4740SOL    HW215120   1.238   1.637   2.473
 4741SOL     OW15121   4.219   3.794   1.375
 4741SOL    HW115122   4.308   3.751   1.358
 4741SOL    HW215123   4.230   3.893   1.383
 4742SOL     OW15124   2.973   0.037   0.728
 4742SOL    HW115125   2.893   7.009   0.697
 4742SOL    HW215126   2.997   0.009   0.821
 4743SOL     OW15127   2.409   4.750   1.621
 4743SOL    HW115128   2.471   4.776   1.695
 4743SOL    HW215129   2.447   4.780   1.533
 4744SOL     OW15130   2.194   6.290   0.785
 4744SOL    HW115131   2.190   6.367   0.849
 4744SOL    HW215132   2.112   6.234   0.796
 4745SOL     OW15133   1.489   4.193   0.128
 4745SOL    HW115134   1.405   4.210   0.180
 4745SOL    HW215135   1.527   4.105   0.154
 4746SOL     OW15136   4.778   6.115   4.538
 4746SOL    HW115137   4.706   6.049   4.517
 4746SOL    HW215138   4.772   6.141   4.634
 4747SOL     OW15139   1.553   2.119   1.263
 4747SOL    HW115140   1.466   2.162   1.288
 4747SOL    HW215141   1.626   2.152   1.323
 4748SOL     OW15142   1.630   7.007   3.461
 4748SOL    HW115143   1.577   6.992   3.377
 4748SOL    HW215144   1.594   6.950   3.534
 4749SOL     OW15145   2.067   0.481   0.296
 4749SOL    HW115146   2.155   0.520   0.268
 4749SOL    HW215147   2.083   0.397   0.348
 4750SOL     OW15148   5.488   3.347   5.487
 4750SOL    HW115149   5.406   3.360   5.432
 4750SOL    HW215150   5.496   3.420   5.554
 4751SOL     OW15151   4.622   0.553   3.428
 4751SOL    HW115152   4.629   0.543   3.527
 4751SOL    HW215153   4.679   0.486   3.383
 4752SOL     OW15154   4.408   2.005   0.076
 4752SOL    HW115155   4.432   1.968   7.010
 4752SOL    HW215156   4.492   2.022   0.129
 4753SOL     OW15157   3.094   6.002   5.291
 4753SOL    HW115158   3.023   5.955   5.343
 4753SOL    HW215159   3.058   6.086   5.252
 4754SOL     OW15160   4.886   4.957   6.041
 4754SOL    HW115161   4.863   4.861   6.024
 4754SOL    HW215162   4.972   4.979   5.996
 4755SOL     OW15163   1.614   0.904   1.523
 4755SOL    HW115164   1.661   0.857   1.597
 4755SOL    HW215165   1.583   0.994   1.553
 4756SOL     OW15166   5.991   4.007   6.672
 4756SOL    HW115167   6.013   4.104   6.682
 4756SOL    HW215168   5.892   3.994   6.680
 4757SOL     OW15169   2.004   3.775   1.603
 4757SOL    HW115170   2.096   3.761   1.641
 4757SOL    HW215171   1.984   3.873   1.601
 4758SOL     OW15172   2.286   6.720   3.191
 4758SOL    HW115173   2.307   6.630   3.154
 4758SOL    HW215174   2.291   6.788   3.118
 4759SOL     OW15175   1.100   4.742   1.040
 4759SOL    HW115176   1.051   4.744   1.126
 4759SOL    HW215177   1.038   4.716   0.966
 4760SOL     OW15178   1.978   6.104   0.809
 4760SOL    HW115179   1.988   6.082   0.712
 4760SOL    HW215180   1.895   6.158   0.823
 4761SOL     OW15181   6.743   6.259   1.504
 4761SOL    HW115182   6.655   6.304   1.520
 4761SOL    HW215183   6.796   6.312   1.438
 4762SOL     OW15184   2.248   6.444   2.203
 4762SOL    HW115185   2.242   6.473   2.108
 4762SOL    HW215186   2.344   6.449   2.233
 4763SOL     OW15187   5.080   5.044   1.657
 4763SOL    HW115188   5.075   4.945   1.649
 4763SOL    HW215189   5.110   5.068   1.750
 4764SOL     OW15190   3.909   4.018   6.100
 4764SOL    HW115191   3.983   4.011   6.033
 4764SOL    HW215192   3.938   4.076   6.177
 4765SOL     OW15193   3.174   1.521   4.686
 4765SOL    HW115194   3.117   1.477   4.755
 4765SOL    HW215195   3.203   1.611   4.720
 4766SOL     OW15196   0.500   0.022   3.975
 4766SOL    HW115197   0.579   0.074   4.007
 4766SOL    HW215198   0.485   6.967   4.035
 4767SOL     OW15199   1.697   4.168   4.846
 4767SOL    HW115200   1.777   4.113   4.870
 4767SOL    HW215201   1.660   4.137   4.759
 4768SOL     OW15202   3.958   2.554   6.856
 4768SOL    HW115203   4.058   2.556   6.864
 4768SOL    HW215204   3.932   2.563   6.760
 4769SOL     OW15205   3.139   5.540   1.492
 4769SOL    HW115206   3.193   5.533   1.577
 4769SOL    HW215207   3.044   5.558   1.515
 4770SOL     OW15208   0.239   1.240   5.809
 4770SOL    HW115209   0.183   1.243   5.892
 4770SOL    HW215210   0.336   1.241   5.834
 4771SOL     OW15211   2.230   6.921   4.921
 4771SOL    HW115212   2.293   6.997   4.904
 4771SOL    HW215213   2.137   6.949   4.900
 4772SOL     OW15214   2.933   5.937   2.133
 4772SOL    HW115215   2.911   5.901   2.223
 4772SOL    HW215216   2.947   5.861   2.069
 4773SOL     OW15217   2.060   4.918   5.071
 4773SOL    HW115218   2.117   4.864   5.131
 4773SOL    HW215219   2.097   4.916   4.978
 4774SOL     OW15220   1.530   3.874   6.922
 4774SOL    HW115221   1.432   3.868   6.905
 4774SOL    HW215222   1.548   3.874   7.020
 4775SOL     OW15223   5.913   6.561   4.940
 4775SOL    HW115224   5.880   6.467   4.949
 4775SOL    HW215225   5.908   6.606   5.029
 4776SOL     OW15226   0.720   0.875   5.988
 4776SOL    HW115227   0.705   0.840   6.080
 4776SOL    HW215228   0.637   0.918   5.954
 4777SOL     OW15229   1.018   6.421   1.730
 4777SOL    HW115230   0.953   6.354   1.767
 4777SOL    HW215231   1.044   6.486   1.802
 4778SOL     OW15232   1.614   2.559   5.560
 4778SOL    HW115233   1.536   2.621   5.550
 4778SOL    HW215234   1.697   2.607   5.532
 4779SOL     OW15235   4.943   1.414   3.427
 4779SOL    HW115236   4.873   1.352   3.462
 4779SOL    HW215237   5.012   1.430   3.499
 4780SOL     OW15238   6.210   3.059   4.951
 4780SOL    HW115239   6.187   2.963   4.935
 4780SOL    HW215240   6.129   3.115   4.939
 4781SOL     OW15241   2.426   6.204   2.967
 4781SOL    HW115242   2.355   6.148   2.925
 4781SOL    HW215243   2.473   6.257   2.897
 4782SOL     OW15244   6.745   5.825   4.195
 4782SOL    HW115245   6.801   5.907   4.181
 4782SOL    HW215246   6.655   5.852   4.231
 4783SOL     OW15247   6.298   3.368   1.108
 4783SOL    HW115248   6.293   3.293   1.042
 4783SOL    HW215249   6.230   3.438   1.085
 4784SOL     OW15250   5.131   2.698   6.660
 4784SOL    HW115251   5.215   2.667   6.616
 4784SOL    HW215252   5.152   2.772   6.724
 4785SOL     OW15253   0.916   5.482   4.049
 4785SOL    HW115254   0.909   5.406   3.984
 4785SOL    HW215255   1.003   5.529   4.036
 4786SOL     OW15256   1.875   6.321   6.978
 4786SOL    HW115257   1.896   6.265   6.898
 4786SOL    HW215258   1.866   6.262   0.035
 4787SOL     OW15259   3.575   1.286   4.395
 4787SOL    HW115260   3.525   1.351   4.452
 4787SOL    HW215261   3.510   1.238   4.335
 4788SOL     OW15262   5.515   6.274   6.742
 4788SOL    HW115263   5.489   6.178   6.736
 4788SOL    HW215264   5.521   6.313   6.650
 4789SOL     OW15265   5.246   0.985   2.682
 4789SOL    HW115266   5.196   1.070   2.700
 4789SOL    HW215267   5.183   0.908   2.680
 4790SOL     OW15268   6.487   2.420   4.906
 4790SOL    HW115269   6.523   2.328   4.886
 4790SOL    HW215270   6.417   2.443   4.839
 4791SOL     OW15271   6.986   1.591   0.052
 4791SOL    HW115272   0.036   1.555   7.019
 4791SOL    HW215273   7.006   1.571   0.148
 4792SOL     OW15274   1.968   2.774   3.142
 4792SOL    HW115275   1.905   2.843   3.104
 4792SOL    HW215276   1.994   2.802   3.235
 4793SOL     OW15277   0.366   4.105   5.774
 4793SOL    HW115278   0.286   4.121   5.717
 4793SOL    HW215279   0.380   4.182   5.835
 4794SOL     OW15280   4.267   0.865   4.353
 4794SOL    HW115281   4.325   0.944   4.335
 4794SOL    HW215282   4.269   0.803   4.274
 4795SOL     OW15283   0.804   0.581   5.406
 4795SOL    HW115284   0.846   0.558   5.494
 4795SOL    HW215285   0.800   0.681   5.396
 4796SOL     OW15286   3.687   1.462   4.934
 4796SOL    HW115287   3.741   1.401   4.876
 4796SOL    HW215288   3.647   1.534   4.877
 4797SOL     OW15289   0.870   5.883   4.710
 4797SOL    HW115290   0.793   5.825   4.683
 4797SOL    HW215291   0.956   5.839   4.684
 4798SOL     OW15292   4.312   4.710   6.119
 4798SOL    HW115293   4.232   4.698   6.178
 4798SOL    HW215294   4.367   4.786   6.151
 4799SOL     OW15295   3.542   3.147   6.321
 4799SOL    HW115296   3.633   3.123   6.354
 4799SOL    HW215297   3.473   3.101   6.375
 4800SOL     OW15298   0.887   4.872   0.361
 4800SOL    HW115299   0.896   4.842   0.266
 4800SOL    HW215300   0.941   4.811   0.420
 4801SOL     OW15301   4.929   2.780   1.694
 4801SOL    HW115302   4.966   2.792   1.602
 4801SOL    HW215303   4.966   2.696   1.734
 4802SOL     OW15304   6.843   6.843   3.434
 4802SOL    HW115305   6.787   6.911   3.387
 4802SOL    HW215306   6.861   6.872   3.528
 4803SOL     OW15307   5.050   3.684   6.184
 4803SOL    HW115308   5.056   3.660   6.280
 4803SOL    HW215309   4.956   3.672   6.151
 4804SOL     OW15310   5.135   1.866   0.782
 4804SOL    HW115311   5.219   1.852   0.730
 4804SOL    HW215312   5.157   1.902   0.873
 4805SOL     OW15313   5.987   1.849   1.003
 4805SOL    HW115314   6.040   1.879   0.924
 4805SOL    HW215315   6.048   1.803   1.069
 4806SOL     OW15316   1.027   0.866   2.701
 4806SOL    HW115317   0.970   0.830   2.628
 4806SOL    HW215318   1.123   0.844   2.682
 4807SOL     OW15319   0.990   3.190   5.976
 4807SOL    HW115320   0.906   3.150   6.013
 4807SOL    HW215321   1.057   3.201   6.050
 4808SOL     OW15322   3.903   5.963   0.285
 4808SOL    HW115323   3.969   6.038   0.277
 4808SOL    HW215324   3.952   5.878   0.302
 4809SOL     OW15325   3.625   4.829   1.566
 4809SOL    HW115326   3.538   4.790   1.597
 4809SOL    HW215327   3.612   4.877   1.480
 4810SOL     OW15328   0.394   4.354   3.399
 4810SOL    HW115329   0.311   4.324   3.445
 4810SOL    HW215330   0.402   4.308   3.310
 4811SOL     OW15331   3.362   4.046   4.247
 4811SOL    HW115332   3.292   4.080   4.310
 4811SOL    HW215333   3.379   4.114   4.176
 4812SOL     OW15334   0.324   0.193   2.481
 4812SOL    HW115335   0.395   0.203   2.411
 4812SOL    HW215336   0.362   0.147   2.561
 4813SOL     OW15337   6.135   1.515   5.907
 4813SOL    HW115338   6.082   1.507   5.823
 4813SOL    HW215339   6.180   1.428   5.927
 4814SOL     OW15340   6.732   4.280   1.766
 4814SOL    HW115341   6.798   4.227   1.818
 4814SOL    HW215342   6.705   4.228   1.684
 4815SOL     OW15343   4.979   5.140   2.860
 4815SOL    HW115344   4.951   5.126   2.765
 4815SOL    HW215345   4.898   5.149   2.917
 4816SOL     OW15346   1.436   0.670   2.112
 4816SOL    HW115347   1.402   0.762   2.128
 4816SOL    HW215348   1.400   0.608   2.182
 4817SOL     OW15349   4.327   1.935   1.140
 4817SOL    HW115350   4.259   2.005   1.164
 4817SOL    HW215351   4.295   1.884   1.060
 4818SOL     OW15352   3.493   0.028   4.983
 4818SOL    HW115353   3.489   0.128   4.985
 4818SOL    HW215354   3.513   7.017   5.075
 4819SOL     OW15355   2.609   7.012   0.815
 4819SOL    HW115356   2.512   0.011   0.823
 4819SOL    HW215357   2.630   6.987   0.721
 4820SOL     OW15358   6.352   3.868   2.043
 4820SOL    HW115359   6.385   3.867   2.137
 4820SOL    HW215360   6.252   3.870   2.043
 4821SOL     OW15361   6.522   4.568   1.680
 4821SOL    HW115362   6.549   4.582   1.585
 4821SOL    HW215363   6.595   4.520   1.729
 4822SOL     OW15364   2.242   3.949   3.175
 4822SOL    HW115365   2.332   3.977   3.208
 4822SOL    HW215366   2.227   3.988   3.084
 4823SOL     OW15367   1.057   0.870   4.213
 4823SOL    HW115368   1.107   0.797   4.166
 4823SOL    HW215369   1.033   0.942   4.148
 4824SOL     OW15370   5.487   2.765   2.510
 4824SOL    HW115371   5.418   2.749   2.580
 4824SOL    HW215372   5.465   2.710   2.429
 4825SOL     OW15373   0.785   3.536   2.696
 4825SOL    HW115374   0.760   3.486   2.613
 4825SOL    HW215375   0.877   3.574   2.687
 4826SOL     OW15376   6.842   5.851   0.439
 4826SOL    HW115377   6.775   5.852   0.364
 4826SOL    HW215378   6.886   5.941   0.445
 4827SOL     OW15379   4.647   0.953   1.274
 4827SOL    HW115380   4.719   0.999   1.326
 4827SOL    HW215381   4.687   0.885   1.213
 4828SOL     OW15382   4.971   4.025   0.907
 4828SOL    HW115383   5.041   3.972   0.860
 4828SOL    HW215384   4.892   4.037   0.847
 4829SOL     OW15385   3.211   0.986   6.127
 4829SOL    HW115386   3.292   0.928   6.117
 4829SOL    HW215387   3.129   0.929   6.117
 4830SOL     OW15388   4.560   0.182   4.840
 4830SOL    HW115389   4.537   0.110   4.774
 4830SOL    HW215390   4.550   0.146   4.933
 4831SOL     OW15391   5.892   3.863   5.741
 4831SOL    HW115392   5.967   3.830   5.684
 4831SOL    HW215393   5.875   3.797   5.815
 4832SOL     OW15394   2.612   3.679   6.019
 4832SOL    HW115395   2.641   3.676   5.923
 4832SOL    HW215396   2.524   3.633   6.028
 4833SOL     OW15397   4.145   1.307   2.585
 4833SOL    HW115398   4.221   1.366   2.612
 4833SOL    HW215399   4.144   1.226   2.644
 4834SOL     OW15400   4.769   1.732   2.188
 4834SOL    HW115401   4.686   1.772   2.148
 4834SOL    HW215402   4.749   1.641   2.224
 4835SOL     OW15403   1.862   0.063   6.751
 4835SOL    HW115404   1.918   7.005   6.764
 4835SOL    HW215405   1.914   0.132   6.700
 4836SOL     OW15406   5.362   1.933   4.199
 4836SOL    HW115407   5.319   1.909   4.112
 4836SOL    HW215408   5.460   1.951   4.184
 4837SOL     OW15409   2.241   3.282   6.971
 4837SOL    HW115410   2.339   3.277   6.990
 4837SOL    HW215411   2.191   3.225   0.014
 4838SOL     OW15412   3.736   5.332   2.304
 4838SOL    HW115413   3.777   5.268   2.369
 4838SOL    HW215414   3.687   5.280   2.233
 4839SOL     OW15415   0.265   5.613   6.069
 4839SOL    HW115416   0.350   5.562   6.077
 4839SOL    HW215417   0.213   5.605   6.155
 4840SOL     OW15418   6.813   6.390   7.009
 4840SOL    HW115419   6.842   6.443   0.065
 4840SOL    HW215420   6.753   6.316   0.015
 4841SOL     OW15421   2.851   5.058   2.626
 4841SOL    HW115422   2.851   4.965   2.590
 4841SOL    HW215423   2.821   5.057   2.721
 4842SOL     OW15424   5.310   6.218   1.216
 4842SOL    HW115425   5.395   6.184   1.177
 4842SOL    HW215426   5.294   6.174   1.304
 4843SOL     OW15427   6.680   3.565   0.283
 4843SOL    HW115428   6.657   3.611   0.369
 4843SOL    HW215429   6.767   3.599   0.249
 4844SOL     OW15430   5.767   2.077   6.390
 4844SOL    HW115431   5.825   2.006   6.429
 4844SOL    HW215432   5.686   2.036   6.349
 4845SOL     OW15433   5.798   5.632   3.673
 4845SOL    HW115434   5.840   5.582   3.597
 4845SOL    HW215435   5.805   5.578   3.757
 4846SOL     OW15436   1.421   3.302   0.736
 4846SOL    HW115437   1.462   3.252   0.812
 4846SOL    HW215438   1.487   3.307   0.660
 4847SOL     OW15439   3.675   1.859   5.022
 4847SOL    HW115440   3.694   1.779   5.080
 4847SOL    HW215441   3.729   1.853   4.938
 4848SOL     OW15442   2.514   2.161   2.205
 4848SOL    HW115443   2.502   2.254   2.237
 4848SOL    HW215444   2.596   2.155   2.147
 4849SOL     OW15445   0.653   6.914   0.579
 4849SOL    HW115446   0.724   6.972   0.618
 4849SOL    HW215447   0.694   6.828   0.546
 4850SOL     OW15448   4.260   0.922   2.075
 4850SOL    HW115449   4.278   0.829   2.105
 4850SOL    HW215450   4.302   0.937   1.986
 4851SOL     OW15451   4.663   6.194   4.770
 4851SOL    HW115452   4.590   6.255   4.740
 4851SOL    HW215453   4.637   6.152   4.857
 4852SOL     OW15454   2.039   0.700   6.878
 4852SOL    HW115455   2.011   0.705   6.782
 4852SOL    HW215456   2.024   0.788   6.922
 4853SOL     OW15457   3.376   1.458   2.412
 4853SOL    HW115458   3.441   1.441   2.338
 4853SOL    HW215459   3.392   1.548   2.451
 4854SOL     OW15460   5.305   6.709   2.286
 4854SOL    HW115461   5.400   6.705   2.253
 4854SOL    HW215462   5.243   6.716   2.207
 4855SOL     OW15463   6.275   1.715   2.473
 4855SOL    HW115464   6.197   1.744   2.529
 4855SOL    HW215465   6.240   1.674   2.388
 4856SOL     OW15466   2.683   4.932   3.452
 4856SOL    HW115467   2.596   4.968   3.485
 4856SOL    HW215468   2.749   4.929   3.527
 4857SOL     OW15469   0.146   2.521   5.841
 4857SOL    HW115470   0.104   2.601   5.799
 4857SOL    HW215471   0.197   2.469   5.771
 4858SOL     OW15472   1.841   2.309   4.370
 4858SOL    HW115473   1.938   2.316   4.345
 4858SOL    HW215474   1.806   2.220   4.342
 4859SOL     OW15475   1.970   6.309   4.725
 4859SOL    HW115476   1.922   6.235   4.678
 4859SOL    HW215477   2.060   6.323   4.683
 4860SOL     OW15478   4.833   4.542   1.369
 4860SOL    HW115479   4.842   4.640   1.387
 4860SOL    HW215480   4.918   4.508   1.327
 4861SOL     OW15481   4.765   4.213   5.325
 4861SOL    HW115482   4.780   4.267   5.242
 4861SOL    HW215483   4.846   4.219   5.384
 4862SOL     OW15484   2.203   6.151   2.150
 4862SOL    HW115485   2.267   6.133   2.076
 4862SOL    HW215486   2.178   6.248   2.150
 4863SOL     OW15487   5.638   4.153   0.376
 4863SOL    HW115488   5.559   4.188   0.325
 4863SOL    HW215489   5.718   4.208   0.355
 4864SOL     OW15490   3.195   1.061   3.547
 4864SOL    HW115491   3.229   1.147   3.587
 4864SOL    HW215492   3.158   1.079   3.456
 4865SOL     OW15493   2.717   5.645   4.517
 4865SOL    HW115494   2.794   5.654   4.453
 4865SOL    HW215495   2.688   5.550   4.521
 4866SOL     OW15496   6.671   4.082   1.112
 4866SOL    HW115497   6.647   4.179   1.109
 4866SOL    HW215498   6.588   4.027   1.103
 4867SOL     OW15499   4.602   6.678   2.892
 4867SOL    HW115500   4.511   6.662   2.930
 4867SOL    HW215501   4.652   6.592   2.887
 4868SOL     OW15502   6.454   4.755   1.888
 4868SOL    HW115503   6.536   4.754   1.946
 4868SOL    HW215504   6.469   4.697   1.808
 4869SOL     OW15505   0.831   1.374   6.411
 4869SOL    HW115506   0.790   1.461   6.437
 4869SOL    HW215507   0.772   1.326   6.347
 4870SOL     OW15508   1.006   5.936   1.950
 4870SOL    HW115509   1.065   6.016   1.942
 4870SOL    HW215510   0.921   5.951   1.901
 4871SOL     OW15511   1.507   1.025   4.037
 4871SOL    HW115512   1.467   1.082   4.109
 4871SOL    HW215513   1.454   0.941   4.027
 4872SOL     OW15514   6.118   0.204   3.311
 4872SOL    HW115515   6.099   0.126   3.370
 4872SOL    HW215516   6.147   0.282   3.366
 4873SOL     OW15517   6.707   6.401   5.250
 4873SOL    HW115518   6.659   6.446   5.175
 4873SOL    HW215519   6.641   6.357   5.311
 4874SOL     OW15520   4.748   2.864   3.312
 4874SOL    HW115521   4.760   2.955   3.272
 4874SOL    HW215522   4.807   2.799   3.265
 4875SOL     OW15523   5.449   6.324   6.467
 4875SOL    HW115524   5.528   6.356   6.415
 4875SOL    HW215525   5.440   6.225   6.455
 4876SOL     OW15526   1.549   1.438   2.804
 4876SOL    HW115527   1.612   1.496   2.753
 4876SOL    HW215528   1.553   1.345   2.768
 4877SOL     OW15529   1.111   1.235   4.194
 4877SOL    HW115530   1.018   1.238   4.232
 4877SOL    HW215531   1.109   1.193   4.104
 4878SOL     OW15532   6.593   1.515   2.860
 4878SOL    HW115533   6.528   1.574   2.812
 4878SOL    HW215534   6.649   1.570   2.922
 4879SOL     OW15535   4.684   1.760   3.138
 4879SOL    HW115536   4.659   1.848   3.179
 4879SOL    HW215537   4.622   1.689   3.171
 4880SOL     OW15538   6.174   2.745   6.512
 4880SOL    HW115539   6.245   2.700   6.459
 4880SOL    HW215540   6.172   2.706   6.604
 4881SOL     OW15541   1.553   2.978   1.845
 4881SOL    HW115542   1.522   3.016   1.932
 4881SOL    HW215543   1.642   3.017   1.821
 4882SOL     OW15544   4.394   2.482   4.840
 4882SOL    HW115545   4.404   2.382   4.833
 4882SOL    HW215546   4.352   2.505   4.927
 4883SOL     OW15547   5.438   3.725   1.079
 4883SOL    HW115548   5.416   3.630   1.058
 4883SOL    HW215549   5.357   3.782   1.065
 4884SOL     OW15550   2.157   6.122   1.574
 4884SOL    HW115551   2.144   6.094   1.669
 4884SOL    HW215552   2.123   6.216   1.562
 4885SOL     OW15553   1.437   4.971   0.892
 4885SOL    HW115554   1.402   4.957   0.985
 4885SOL    HW215555   1.397   5.054   0.853
 4886SOL     OW15556   3.482   1.180   2.038
 4886SOL    HW115557   3.464   1.177   1.940
 4886SOL    HW215558   3.407   1.227   2.084
 4887SOL     OW15559   0.992   6.660   1.874
 4887SOL    HW115560   1.085   6.697   1.866
 4887SOL    HW215561   0.978   6.624   1.966
 4888SOL     OW15562   3.161   6.595   2.737
 4888SOL    HW115563   3.163   6.570   2.641
 4888SOL    HW215564   3.237   6.657   2.756
 4889SOL     OW15565   6.316   1.988   3.700
 4889SOL    HW115566   6.405   1.952   3.672
 4889SOL    HW215567   6.328   2.082   3.734
 4890SOL     OW15568   0.489   0.668   4.687
 4890SOL    HW115569   0.441   0.733   4.746
 4890SOL    HW215570   0.569   0.633   4.736
 4891SOL     OW15571   2.458   5.302   5.887
 4891SOL    HW115572   2.553   5.319   5.864
 4891SOL    HW215573   2.442   5.203   5.893
 4892SOL     OW15574   5.659   6.670   2.784
 4892SOL    HW115575   5.751   6.656   2.821
 4892SOL    HW215576   5.656   6.635   2.690
 4893SOL     OW15577   0.159   3.555   1.913
 4893SOL    HW115578   0.117   3.535   2.002
 4893SOL    HW215579   0.245   3.603   1.926
 4894SOL     OW15580   4.226   6.530   2.173
 4894SOL    HW115581   4.308   6.475   2.153
 4894SOL    HW215582   4.254   6.620   2.204
 4895SOL     OW15583   6.766   4.840   3.279
 4895SOL    HW115584   6.732   4.854   3.372
 4895SOL    HW215585   6.857   4.881   3.270
 4896SOL     OW15586   1.489   4.891   3.736
 4896SOL    HW115587   1.507   4.977   3.783
 4896SOL    HW215588   1.555   4.878   3.662
 4897SOL     OW15589   1.633   6.136   5.126
 4897SOL    HW115590   1.631   6.129   5.026
 4897SOL    HW215591   1.643   6.044   5.165
 4898SOL     OW15592   3.656   2.120   4.146
 4898SOL    HW115593   3.596   2.062   4.091
 4898SOL    HW215594   3.614   2.136   4.235
 4899SOL     OW15595   0.210   5.320   1.800
 4899SOL    HW115596   0.233   5.262   1.879
 4899SOL    HW215597   0.289   5.379   1.779
 4900SOL     OW15598   3.948   6.040   5.712
 4900SOL    HW115599   3.966   6.054   5.809
 4900SOL    HW215600   4.021   5.984   5.672
 4901SOL     OW15601   0.472   1.296   5.910
 4901SOL    HW115602   0.485   1.325   6.005
 4901SOL    HW215603   0.516   1.361   5.849
 4902SOL     OW15604   2.076   0.556   6.443
 4902SOL    HW115605   2.164   0.510   6.456
 4902SOL    HW215606   2.042   0.537   6.351
 4903SOL     OW15607   5.539   4.944   1.381
 4903SOL    HW115608   5.630   4.944   1.340
 4903SOL    HW215609   5.518   5.036   1.414
 4904SOL     OW15610   1.359   0.583   0.039
 4904SOL    HW115611   1.326   0.510   0.099
 4904SOL    HW215612   1.373   0.546   6.971
 4905SOL     OW15613   3.308   6.307   2.783
 4905SOL    HW115614   3.252   6.388   2.764
 4905SOL    HW215615   3.370   6.327   2.859
 4906SOL     OW15616   5.635   2.810   4.798
 4906SOL    HW115617   5.690   2.733   4.765
 4906SOL    HW215618   5.576   2.842   4.724
 4907SOL     OW15619   4.511   1.545   6.807
 4907SOL    HW115620   4.531   1.575   6.901
 4907SOL    HW215621   4.513   1.625   6.746
 4908SOL     OW15622   4.970   0.224   0.194
 4908SOL    HW115623   4.981   0.238   0.095
 4908SOL    HW215624   4.906   0.149   0.210
 4909SOL     OW15625   5.716   4.061   3.601
 4909SOL    HW115626   5.641   4.014   3.555
 4909SOL    HW215627   5.794   4.000   3.609
 4910SOL     OW15628   4.816   1.165   6.137
 4910SOL    HW115629   4.835   1.160   6.039
 4910SOL    HW215630   4.902   1.176   6.186
 4911SOL     OW15631   1.151   2.437   1.954
 4911SOL    HW115632   1.235   2.445   1.899
 4911SOL    HW215633   1.115   2.528   1.973
 4912SOL     OW15634   6.420   2.572   5.125
 4912SOL    HW115635   6.469   2.541   5.043
 4912SOL    HW215636   6.482   2.571   5.203
 4913SOL     OW15637   6.602   2.951   4.868
 4913SOL    HW115638   6.651   2.909   4.792
 4913SOL    HW215639   6.624   3.049   4.871
 4914SOL     OW15640   4.444   1.052   4.293
 4914SOL    HW115641   4.474   1.107   4.216
 4914SOL    HW215642   4.522   1.032   4.352
 4915SOL     OW15643   3.483   5.692   5.395
 4915SOL    HW115644   3.568   5.745   5.383
 4915SOL    HW215645   3.406   5.755   5.405
 4916SOL     OW15646   6.356   1.375   3.964
 4916SOL    HW115647   6.376   1.472   3.951
 4916SOL    HW215648   6.347   1.331   3.875
 4917SOL     OW15649   4.615   6.342   0.610
 4917SOL    HW115650   4.568   6.380   0.690
 4917SOL    HW215651   4.554   6.280   0.562
 4918SOL     OW15652   6.764   5.662   2.018
 4918SOL    HW115653   6.666   5.677   2.002
 4918SOL    HW215654   6.815   5.742   1.986
 4919SOL     OW15655   3.832   3.652   1.989
 4919SOL    HW115656   3.785   3.739   2.004
 4919SOL    HW215657   3.769   3.576   2.007
 4920SOL     OW15658   6.111   1.148   4.796
 4920SOL    HW115659   6.204   1.157   4.760
 4920SOL    HW215660   6.048   1.196   4.735
 4921SOL     OW15661   0.363   0.120   1.996
 4921SOL    HW115662   0.297   0.045   2.004
 4921SOL    HW215663   0.453   0.083   1.976
 4922SOL     OW15664   3.902   2.100   5.727
 4922SOL    HW115665   3.927   2.007   5.698
 4922SOL    HW215666   3.898   2.160   5.647
 4923SOL     OW15667   3.758   1.812   2.975
 4923SOL    HW115668   3.792   1.842   2.885
 4923SOL    HW215669   3.661   1.789   2.967
 4924SOL     OW15670   2.743   1.573   5.890
 4924SOL    HW115671   2.724   1.602   5.796
 4924SOL    HW215672   2.800   1.491   5.889
 4925SOL     OW15673   4.333   0.041   3.360
 4925SOL    HW115674   4.326   0.111   3.289
 4925SOL    HW215675   4.425   0.044   3.400
 4926SOL     OW15676   5.486   2.084   1.601
 4926SOL    HW115677   5.572   2.125   1.570
 4926SOL    HW215678   5.486   2.079   1.700
 4927SOL     OW15679   3.556   1.483   6.602
 4927SOL    HW115680   3.484   1.415   6.615
 4927SOL    HW215681   3.595   1.507   6.692
 4928SOL     OW15682   0.788   2.311   1.010
 4928SOL    HW115683   0.759   2.233   1.065
 4928SOL    HW215684   0.888   2.314   1.008
 4929SOL     OW15685   6.747   6.579   3.949
 4929SOL    HW115686   6.702   6.504   3.997
 4929SOL    HW215687   6.695   6.603   3.868
 4930SOL     OW15688   5.628   6.805   1.707
 4930SOL    HW115689   5.545   6.772   1.662
 4930SOL    HW215690   5.675   6.868   1.646
 4931SOL     OW15691   6.346   6.308   1.883
 4931SOL    HW115692   6.287   6.335   1.807
 4931SOL    HW215693   6.291   6.288   1.964
 4932SOL     OW15694   2.889   3.660   2.282
 4932SOL    HW115695   2.945   3.733   2.244
 4932SOL    HW215696   2.882   3.672   2.381
 4933SOL     OW15697   3.224   6.012   4.888
 4933SOL    HW115698   3.289   5.974   4.954
 4933SOL    HW215699   3.133   5.973   4.904
 4934SOL     OW15700   3.634   5.258   3.466
 4934SOL    HW115701   3.729   5.285   3.450
 4934SOL    HW215702   3.595   5.314   3.539
 4935SOL     OW15703   0.771   1.907   6.187
 4935SOL    HW115704   0.726   1.996   6.191
 4935SOL    HW215705   0.827   1.894   6.269
 4936SOL     OW15706   2.929   3.923   1.149
 4936SOL    HW115707   2.987   3.847   1.121
 4936SOL    HW215708   2.905   3.979   1.069
 4937SOL     OW15709   5.203   3.454   5.008
 4937SOL    HW115710   5.277   3.519   5.024
 4937SOL    HW215711   5.139   3.491   4.940
 4938SOL     OW15712   3.617   5.684   6.310
 4938SOL    HW115713   3.548   5.755   6.304
 4938SOL    HW215714   3.616   5.629   6.227
 4939SOL     OW15715   4.809   3.049   5.669
 4939SOL    HW115716   4.854   3.105   5.739
 4939SOL    HW215717   4.724   3.013   5.706
 4940SOL     OW15718   2.386   6.054   4.727
 4940SOL    HW115719   2.319   6.128   4.729
 4940SOL    HW215720   2.344   5.971   4.691
 4941SOL     OW15721   4.775   1.069   0.332
 4941SOL    HW115722   4.728   1.078   0.419
 4941SOL    HW215723   4.757   0.978   0.294
 4942SOL     OW15724   4.972   3.449   5.185
 4942SOL    HW115725   5.051   3.433   5.126
 4942SOL    HW215726   4.909   3.512   5.140
 4943SOL     OW15727   4.013   2.543   1.219
 4943SOL    HW115728   4.102   2.515   1.255
 4943SOL    HW215729   4.007   2.643   1.217
 4944SOL     OW15730   2.275   4.719   2.277
 4944SOL    HW115731   2.202   4.673   2.327
 4944SOL    HW215732   2.330   4.651   2.229
 4945SOL     OW15733   0.276   6.365   3.817
 4945SOL    HW115734   0.215   6.441   3.794
 4945SOL    HW215735   0.299   6.369   3.914
 4946SOL     OW15736   1.332   3.525   2.602
 4946SOL    HW115737   1.402   3.548   2.534
 4946SOL    HW215738   1.375   3.515   2.691
 4947SOL     OW15739   0.812   6.558   0.921
 4947SOL    HW115740   0.808   6.545   1.020
 4947SOL    HW215741   0.824   6.469   0.876
 4948SOL     OW15742   2.379   1.140   1.973
 4948SOL    HW115743   2.473   1.148   2.006
 4948SOL    HW215744   2.343   1.050   1.996
 4949SOL     OW15745   5.621   1.552   4.981
 4949SOL    HW115746   5.654   1.462   4.951
 4949SOL    HW215747   5.537   1.541   5.033
 4950SOL     OW15748   3.071   5.542   4.818
 4950SOL    HW115749   3.023   5.459   4.846
 4950SOL    HW215750   3.066   5.610   4.891
 4951SOL     OW15751   4.406   2.115   4.616
 4951SOL    HW115752   4.484   2.105   4.677
 4951SOL    HW215753   4.363   2.025   4.601
 4952SOL     OW15754   0.244   6.539   5.673
 4952SOL    HW115755   0.235   6.638   5.664
 4952SOL    HW215756   0.329   6.518   5.722
 4953SOL     OW15757   2.183   5.335   1.954
 4953SOL    HW115758   2.137   5.416   1.990
 4953SOL    HW215759   2.262   5.363   1.899
 4954SOL     OW15760   5.648   5.623   6.679
 4954SOL    HW115761   5.736   5.653   6.717
 4954SOL    HW215762   5.577   5.690   6.703
 4955SOL     OW15763   1.620   6.885   1.473
 4955SOL    HW115764   1.675   6.968   1.469
 4955SOL    HW215765   1.536   6.903   1.524
 4956SOL     OW15766   4.422   6.715   4.908
 4956SOL    HW115767   4.401   6.713   5.006
 4956SOL    HW215768   4.401   6.805   4.871
 4957SOL     OW15769   0.668   0.306   3.646
 4957SOL    HW115770   0.667   0.358   3.732
 4957SOL    HW215771   0.762   0.285   3.620
 4958SOL     OW15772   0.736   5.643   7.019
 4958SOL    HW115773   0.731   5.564   6.958
 4958SOL    HW215774   0.779   5.719   6.970
 4959SOL     OW15775   1.089   1.459   1.328
 4959SOL    HW115776   1.109   1.501   1.417
 4959SOL    HW215777   1.018   1.389   1.340
 4960SOL     OW15778   4.163   6.767   4.767
 4960SOL    HW115779   4.215   6.697   4.718
 4960SOL    HW215780   4.124   6.831   4.701
 4961SOL     OW15781   5.167   0.958   4.548
 4961SOL    HW115782   5.088   0.959   4.487
 4961SOL    HW215783   5.160   0.879   4.609
 4962SOL     OW15784   6.998   2.217   0.579
 4962SOL    HW115785   6.990   2.157   0.499
 4962SOL    HW215786   6.997   2.162   0.662
 4963SOL     OW15787   0.508   4.967   1.642
 4963SOL    HW115788   0.417   5.009   1.633
 4963SOL    HW215789   0.500   4.868   1.630
 4964SOL     OW15790   3.294   6.428   3.227
 4964SOL    HW115791   3.345   6.417   3.142
 4964SOL    HW215792   3.238   6.511   3.222
 4965SOL     OW15793   6.034   0.505   4.620
 4965SOL    HW115794   6.030   0.407   4.602
 4965SOL    HW215795   5.964   0.530   4.686
 4966SOL     OW15796   2.996   5.054   4.236
 4966SOL    HW115797   3.062   4.997   4.284
 4966SOL    HW215798   2.967   5.129   4.295
 4967SOL     OW15799   3.951   2.748   5.584
 4967SOL    HW115800   4.031   2.796   5.619
 4967SOL    HW215801   3.978   2.690   5.507
 4968SOL     OW15802   6.020   3.185   5.202
 4968SOL    HW115803   5.956   3.123   5.249
 4968SOL    HW215804   5.989   3.198   5.108
 4969SOL     OW15805   1.533   1.127   2.347
 4969SOL    HW115806   1.575   1.125   2.256
 4969SOL    HW215807   1.531   1.222   2.380
 4970SOL     OW15808   0.713   2.252   5.274
 4970SOL    HW115809   0.774   2.246   5.195
 4970SOL    HW215810   0.738   2.181   5.340
 4971SOL     OW15811   5.141   6.659   3.492
 4971SOL    HW115812   5.088   6.633   3.573
 4971SOL    HW215813   5.125   6.756   3.472
 4972SOL     OW15814   1.595   3.308   6.826
 4972SOL    HW115815   1.620   3.365   6.748
 4972SOL    HW215816   1.678   3.271   6.868
 4973SOL     OW15817   5.644   6.324   2.680
 4973SOL    HW115818   5.641   6.353   2.775
 4973SOL    HW215819   5.556   6.345   2.636
 4974SOL     OW15820   5.569   6.670   2.497
 4974SOL    HW115821   5.497   6.734   2.522
 4974SOL    HW215822   5.594   6.683   2.401
 4975SOL     OW15823   6.139   5.733   0.403
 4975SOL    HW115824   6.053   5.731   0.351
 4975SOL    HW215825   6.125   5.689   0.491
 4976SOL     OW15826   3.892   0.292   5.273
 4976SOL    HW115827   3.944   0.238   5.339
 4976SOL    HW215828   3.942   0.376   5.253
 4977SOL     OW15829   3.387   3.134   0.910
 4977SOL    HW115830   3.396   3.043   0.870
 4977SOL    HW215831   3.315   3.184   0.863
 4978SOL     OW15832   5.402   2.739   6.364
 4978SOL    HW115833   5.449   2.764   6.448
 4978SOL    HW215834   5.462   2.754   6.286
 4979SOL     OW15835   1.352   0.463   5.557
 4979SOL    HW115836   1.302   0.378   5.541
 4979SOL    HW215837   1.372   0.507   5.469
 4980SOL     OW15838   3.374   5.313   2.085
 4980SOL    HW115839   3.331   5.330   2.174
 4980SOL    HW215840   3.360   5.392   2.026
 4981SOL     OW15841   3.960   6.380   5.681
 4981SOL    HW115842   3.929   6.470   5.650
 4981SOL    HW215843   3.889   6.337   5.736
 4982SOL     OW15844   2.493   3.286   0.573
 4982SOL    HW115845   2.446   3.209   0.616
 4982SOL    HW215846   2.438   3.322   0.498
 4983SOL     OW15847   5.102   3.307   4.266
 4983SOL    HW115848   5.151   3.284   4.350
 4983SOL    HW215849   5.121   3.237   4.197
 4984SOL     OW15850   4.922   3.609   3.399
 4984SOL    HW115851   4.853   3.646   3.337
 4984SOL    HW215852   4.896   3.516   3.426
 4985SOL     OW15853   5.417   4.837   2.329
 4985SOL    HW115854   5.432   4.741   2.352
 4985SOL    HW215855   5.468   4.895   2.393
 4986SOL     OW15856   5.258   4.705   2.647
 4986SOL    HW115857   5.220   4.661   2.729
 4986SOL    HW215858   5.213   4.794   2.634
 4987SOL     OW15859   6.950   2.937   1.637
 4987SOL    HW115860   6.894   2.957   1.556
 4987SOL    HW215861   0.023   2.934   1.610
 4988SOL     OW15862   0.611   1.370   4.221
 4988SOL    HW115863   0.632   1.275   4.241
 4988SOL    HW215864   0.610   1.423   4.306
 4989SOL     OW15865   0.358   1.039   0.284
 4989SOL    HW115866   0.388   1.023   0.378
 4989SOL    HW215867   0.433   1.021   0.221
 4990SOL     OW15868   1.530   1.875   5.378
 4990SOL    HW115869   1.601   1.945   5.375
 4990SOL    HW215870   1.516   1.838   5.286
 4991SOL     OW15871   0.794   2.845   4.030
 4991SOL    HW115872   0.699   2.878   4.030
 4991SOL    HW215873   0.818   2.813   4.121
 4992SOL     OW15874   3.593   0.533   5.499
 4992SOL    HW115875   3.615   0.440   5.469
 4992SOL    HW215876   3.643   0.599   5.443
 4993SOL     OW15877   3.046   6.133   3.868
 4993SOL    HW115878   3.116   6.203   3.853
 4993SOL    HW215879   3.046   6.070   3.791
 4994SOL     OW15880   0.442   0.059   2.685
 4994SOL    HW115881   0.363   0.033   2.740
 4994SOL    HW215882   0.511   7.011   2.691
 4995SOL     OW15883   5.664   2.333   6.485
 4995SOL    HW115884   5.734   2.390   6.528
 4995SOL    HW215885   5.701   2.241   6.470
 4996SOL     OW15886   0.949   1.332   3.151
 4996SOL    HW115887   0.864   1.375   3.182
 4996SOL    HW215888   0.978   1.264   3.219
 4997SOL     OW15889   0.506   2.987   3.259
 4997SOL    HW115890   0.519   2.984   3.358
 4997SOL    HW215891   0.438   2.919   3.233
 4998SOL     OW15892   1.364   5.390   4.565
 4998SOL    HW115893   1.382   5.299   4.527
 4998SOL    HW215894   1.282   5.387   4.622
 4999SOL     OW15895   5.906   5.492   0.881
 4999SOL    HW115896   5.813   5.519   0.908
 4999SOL    HW215897   5.903   5.407   0.829
 5000SOL     OW15898   0.340   6.402   4.550
 5000SOL    HW115899   0.264   6.340   4.532
 5000SOL    HW215900   0.335   6.480   4.488
 5001SOL     OW15901   3.347   4.434   5.393
 5001SOL    HW115902   3.329   4.486   5.476
 5001SOL    HW215903   3.261   4.394   5.360
 5002SOL     OW15904   2.188   0.971   2.150
 5002SOL    HW115905   2.104   0.927   2.180
 5002SOL    HW215906   2.170   1.067   2.128
 5003SOL     OW15907   6.359   5.637   2.803
 5003SOL    HW115908   6.407   5.721   2.775
 5003SOL    HW215909   6.370   5.624   2.901
 5004SOL     OW15910   3.309   6.151   0.139
 5004SOL    HW115911   3.249   6.097   0.197
 5004SOL    HW215912   3.345   6.229   0.191
 5005SOL     OW15913   4.916   2.631   0.103
 5005SOL    HW115914   4.932   2.647   0.006
 5005SOL    HW215915   4.995   2.585   0.143
 5006SOL     OW15916   5.191   5.973   4.571
 5006SOL    HW115917   5.266   6.025   4.527
 5006SOL    HW215918   5.221   5.942   4.661
 5007SOL     OW15919   3.818   1.141   5.413
 5007SOL    HW115920   3.833   1.203   5.336
 5007SOL    HW215921   3.888   1.156   5.483
 5008SOL     OW15922   5.811   1.040   3.836
 5008SOL    HW115923   5.864   0.958   3.813
 5008SOL    HW215924   5.833   1.069   3.929
 5009SOL     OW15925   1.227   6.356   3.081
 5009SOL    HW115926   1.278   6.327   3.000
 5009SOL    HW215927   1.263   6.444   3.113
 5010SOL     OW15928   3.936   3.817   4.227
 5010SOL    HW115929   4.010   3.750   4.225
 5010SOL    HW215930   3.943   3.876   4.147
 5011SOL     OW15931   0.924   2.938   2.942
 5011SOL    HW115932   0.867   2.928   3.024
 5011SOL    HW215933   0.934   2.849   2.898
 5012SOL     OW15934   6.746   2.359   6.558
 5012SOL    HW115935   6.833   2.403   6.581
 5012SOL    HW215936   6.756   2.260   6.561
 5013SOL     OW15937   4.218   1.721   6.392
 5013SOL    HW115938   4.230   1.695   6.488
 5013SOL    HW215939   4.213   1.820   6.385
 5014SOL     OW15940   5.891   6.314   0.239
 5014SOL    HW115941   5.923   6.241   0.177
 5014SOL    HW215942   5.854   6.389   0.185
 5015SOL     OW15943   4.638   2.584   3.753
 5015SOL    HW115944   4.636   2.633   3.666
 5015SOL    HW215945   4.733   2.574   3.783
 5016SOL     OW15946   2.472   0.186   3.113
 5016SOL    HW115947   2.570   0.171   3.104
 5016SOL    HW215948   2.441   0.248   3.041
 5017SOL     OW15949   2.415   2.591   1.238
 5017SOL    HW115950   2.341   2.646   1.198
 5017SOL    HW215951   2.418   2.607   1.336
 5018SOL     OW15952   6.003   5.341   3.740
 5018SOL    HW115953   6.062   5.413   3.776
 5018SOL    HW215954   6.006   5.262   3.801
 5019SOL     OW15955   1.879   4.615   7.019
 5019SOL    HW115956   1.862   4.583   0.089
 5019SOL    HW215957   1.932   4.700   7.022
 5020SOL     OW15958   5.467   4.911   6.617
 5020SOL    HW115959   5.405   4.895   6.694
 5020SOL    HW215960   5.439   4.994   6.568
 5021SOL     OW15961   1.720   4.352   6.063
 5021SOL    HW115962   1.631   4.393   6.040
 5021SOL    HW215963   1.792   4.420   6.050
 5022SOL     OW15964   1.365   5.501   0.346
 5022SOL    HW115965   1.411   5.444   0.413
 5022SOL    HW215966   1.433   5.549   0.290
 5023SOL     OW15967   6.319   3.065   2.376
 5023SOL    HW115968   6.416   3.062   2.399
 5023SOL    HW215969   6.289   2.974   2.345
 5024SOL     OW15970   6.154   3.890   4.537
 5024SOL    HW115971   6.098   3.852   4.463
 5024SOL    HW215972   6.113   3.975   4.570
 5025SOL     OW15973   5.277   1.179   3.084
 5025SOL    HW115974   5.257   1.238   3.161
 5025SOL    HW215975   5.311   1.234   3.007
 5026SOL     OW15976   0.159   6.550   4.110
 5026SOL    HW115977   0.219   6.471   4.120
 5026SOL    HW215978   0.085   6.529   4.046
 5027SOL     OW15979   1.275   6.772   3.361
 5027SOL    HW115980   1.300   6.867   3.383
 5027SOL    HW215981   1.336   6.710   3.410
 5028SOL     OW15982   0.139   0.638   3.066
 5028SOL    HW115983   0.143   0.709   2.996
 5028SOL    HW215984   0.111   0.552   3.025
 5029SOL     OW15985   0.012   1.534   1.098
 5029SOL    HW115986   0.074   1.611   1.112
 5029SOL    HW215987   0.059   1.462   1.046
 5030SOL     OW15988   1.136   6.406   0.271
 5030SOL    HW115989   1.193   6.327   0.247
 5030SOL    HW215990   1.110   6.400   0.367
 5031SOL     OW15991   5.650   0.577   4.328
 5031SOL    HW115992   5.608   0.656   4.284
 5031SOL    HW215993   5.635   0.496   4.272
 5032SOL     OW15994   2.144   5.768   1.017
 5032SOL    HW115995   2.144   5.729   1.109
 5032SOL    HW215996   2.085   5.848   1.014
 5033SOL     OW15997   1.925   4.068   5.420
 5033SOL    HW115998   1.857   3.998   5.443
 5033SOL    HW215999   2.011   4.046   5.465
 5034SOL     OW16000   6.493   3.001   0.928
 5034SOL    HW116001   6.591   2.981   0.931
 5034SOL    HW216002   6.442   2.922   0.961
 5035SOL     OW16003   5.075   4.586   0.283
 5035SOL    HW116004   5.158   4.620   0.327
 5035SOL    HW216005   5.074   4.614   0.187
 5036SOL     OW16006   1.224   0.156   1.351
 5036SOL    HW116007   1.178   0.070   1.328
 5036SOL    HW216008   1.157   0.230   1.352
 5037SOL     OW16009   4.394   2.230   4.207
 5037SOL    HW116010   4.336   2.276   4.140
 5037SOL    HW216011   4.474   2.287   4.226
 5038SOL     OW16012   1.983   6.491   5.593
 5038SOL    HW116013   2.008   6.508   5.497
 5038SOL    HW216014   1.950   6.397   5.602
 5039SOL     OW16015   2.120   2.134   5.164
 5039SOL    HW116016   2.147   2.038   5.161
 5039SOL    HW216017   2.122   2.167   5.258
 5040SOL     OW16018   3.244   3.896   5.709
 5040SOL    HW116019   3.160   3.848   5.684
 5040SOL    HW216020   3.251   3.980   5.655
 5041SOL     OW16021   1.336   4.164   0.940
 5041SOL    HW116022   1.436   4.159   0.944
 5041SOL    HW216023   1.301   4.091   0.881
 5042SOL     OW16024   5.194   2.593   6.068
 5042SOL    HW116025   5.289   2.588   6.036
 5042SOL    HW216026   5.190   2.564   6.163
 5043SOL     OW16027   3.701   1.038   3.575
 5043SOL    HW116028   3.779   1.100   3.585
 5043SOL    HW216029   3.617   1.086   3.600
 5044SOL     OW16030   6.135   4.901   3.488
 5044SOL    HW116031   6.071   4.881   3.413
 5044SOL    HW216032   6.122   4.995   3.517
 5045SOL     OW16033   6.063   2.234   6.726
 5045SOL    HW116034   6.104   2.148   6.754
 5045SOL    HW216035   5.966   2.234   6.748
 5046SOL     OW16036   3.743   2.891   4.958
 5046SOL    HW116037   3.768   2.794   4.963
 5046SOL    HW216038   3.801   2.943   5.021
 5047SOL     OW16039   0.998   0.736   2.114
 5047SOL    HW116040   1.032   0.813   2.169
 5047SOL    HW216041   0.958   0.770   2.029
 5048SOL     OW16042   6.440   2.872   1.269
 5048SOL    HW116043   6.517   2.817   1.237
 5048SOL    HW216044   6.367   2.812   1.302
 5049SOL     OW16045   1.070   2.271   2.589
 5049SOL    HW116046   1.121   2.185   2.596
 5049SOL    HW216047   1.047   2.288   2.494
 5050SOL     OW16048   1.108   3.379   2.151
 5050SOL    HW116049   1.136   3.377   2.247
 5050SOL    HW216050   1.008   3.386   2.145
 5051SOL     OW16051   2.865   5.565   0.633
 5051SOL    HW116052   2.769   5.583   0.613
 5051SOL    HW216053   2.878   5.467   0.648
 5052SOL     OW16054   5.700   4.763   1.067
 5052SOL    HW116055   5.744   4.701   1.002
 5052SOL    HW216056   5.651   4.710   1.136
 5053SOL     OW16057   2.471   4.507   0.541
 5053SOL    HW116058   2.385   4.465   0.570
 5053SOL    HW216059   2.536   4.505   0.617
 5054SOL     OW16060   3.785   5.780   4.761
 5054SOL    HW116061   3.865   5.767   4.820
 5054SOL    HW216062   3.771   5.877   4.746
 5055SOL     OW16063   1.040   1.585   5.200
 5055SOL    HW116064   1.076   1.596   5.292
 5055SOL    HW216065   1.061   1.666   5.146
 5056SOL     OW16066   0.945   2.747   5.189
 5056SOL    HW116067   0.994   2.671   5.231
 5056SOL    HW216068   1.003   2.791   5.121
 5057SOL     OW16069   0.159   5.217   2.635
 5057SOL    HW116070   0.059   5.221   2.644
 5057SOL    HW216071   0.201   5.245   2.721
 5058SOL     OW16072   4.346   4.826   6.616
 5058SOL    HW116073   4.394   4.909   6.644
 5058SOL    HW216074   4.374   4.802   6.523
 5059SOL     OW16075   3.707   1.887   3.717
 5059SOL    HW116076   3.697   1.979   3.753
 5059SOL    HW216077   3.804   1.862   3.718
 5060SOL     OW16078   0.572   3.505   5.336
 5060SOL    HW116079   0.636   3.452   5.391
 5060SOL    HW216080   0.607   3.513   5.243
 5061SOL     OW16081   3.482   2.846   5.368
 5061SOL    HW116082   3.569   2.804   5.344
 5061SOL    HW216083   3.462   2.829   5.465
 5062SOL     OW16084   5.155   1.247   2.626
 5062SOL    HW116085   5.191   1.335   2.595
 5062SOL    HW216086   5.068   1.261   2.672
 5063SOL     OW16087   1.232   0.223   2.740
 5063SOL    HW116088   1.267   0.217   2.646
 5063SOL    HW216089   1.176   0.142   2.759
 5064SOL     OW16090   4.682   5.647   0.882
 5064SOL    HW116091   4.591   5.685   0.862
 5064SOL    HW216092   4.714   5.683   0.970
 5065SOL     OW16093   2.135   6.881   2.911
 5065SOL    HW116094   2.116   6.972   2.948
 5065SOL    HW216095   2.062   6.818   2.940
 5066SOL     OW16096   2.417   4.530   1.866
 5066SOL    HW116097   2.502   4.578   1.845
 5066SOL    HW216098   2.339   4.588   1.844
 5067SOL     OW16099   4.245   3.065   1.610
 5067SOL    HW116100   4.164   3.091   1.558
 5067SOL    HW216101   4.268   3.138   1.675
 5068SOL     OW16102   3.162   6.032   0.356
 5068SOL    HW116103   3.171   6.068   0.449
 5068SOL    HW216104   3.067   6.005   0.339
 5069SOL     OW16105   3.278   5.101   5.636
 5069SOL    HW116106   3.342   5.072   5.564
 5069SOL    HW216107   3.319   5.085   5.726
 5070SOL     OW16108   6.256   2.833   3.743
 5070SOL    HW116109   6.193   2.765   3.707
 5070SOL    HW216110   6.263   2.910   3.680
 5071SOL     OW16111   3.159   0.639   4.250
 5071SOL    HW116112   3.105   0.555   4.264
 5071SOL    HW216113   3.218   0.628   4.170
 5072SOL     OW16114   1.364   1.364   0.286
 5072SOL    HW116115   1.316   1.304   0.350
 5072SOL    HW216116   1.413   1.435   0.338
 5073SOL     OW16117   2.423   0.105   2.368
 5073SOL    HW116118   2.442   0.099   2.270
 5073SOL    HW216119   2.504   0.079   2.420
 5074SOL     OW16120   3.432   2.148   1.781
 5074SOL    HW116121   3.390   2.115   1.865
 5074SOL    HW216122   3.521   2.189   1.802
 5075SOL     OW16123   1.169   3.345   0.101
 5075SOL    HW116124   1.134   3.420   0.156
 5075SOL    HW216125   1.196   3.270   0.161
 5076SOL     OW16126   5.623   6.861   6.772
 5076SOL    HW116127   5.545   6.862   6.835
 5076SOL    HW216128   5.674   6.777   6.784
 5077SOL     OW16129   1.023   4.429   3.884
 5077SOL    HW116130   0.976   4.418   3.971
 5077SOL    HW216131   0.967   4.391   3.811
 5078SOL     OW16132   0.310   1.249   4.088
 5078SOL    HW116133   0.333   1.307   4.010
 5078SOL    HW216134   0.390   1.197   4.116
 5079SOL     OW16135   1.654   2.494   6.134
 5079SOL    HW116136   1.574   2.479   6.076
 5079SOL    HW216137   1.737   2.471   6.082
 5080SOL     OW16138   5.747   5.196   6.226
 5080SOL    HW116139   5.827   5.173   6.281
 5080SOL    HW216140   5.669   5.142   6.256
 5081SOL     OW16141   2.952   5.497   5.558
 5081SOL    HW116142   3.036   5.496   5.503
 5081SOL    HW216143   2.957   5.569   5.626
 5082SOL     OW16144   6.005   6.197   1.902
 5082SOL    HW116145   5.949   6.187   1.984
 5082SOL    HW216146   5.945   6.203   1.822
 5083SOL     OW16147   2.345   6.879   3.395
 5083SOL    HW116148   2.319   6.817   3.321
 5083SOL    HW216149   2.427   6.845   3.440
 5084SOL     OW16150   1.253   4.763   5.378
 5084SOL    HW116151   1.251   4.667   5.348
 5084SOL    HW216152   1.347   4.788   5.400
 5085SOL     OW16153   0.086   3.941   6.249
 5085SOL    HW116154   0.155   3.878   6.283
 5085SOL    HW216155   0.120   4.035   6.254
 5086SOL     OW16156   2.485   5.032   2.394
 5086SOL    HW116157   2.386   5.023   2.396
 5086SOL    HW216158   2.522   4.980   2.317
 5087SOL     OW16159   6.616   4.991   2.083
 5087SOL    HW116160   6.629   4.892   2.075
 5087SOL    HW216161   6.550   5.010   2.155
 5088SOL     OW16162   4.834   5.835   1.839
 5088SOL    HW116163   4.748   5.869   1.875
 5088SOL    HW216164   4.905   5.842   1.909
 5089SOL     OW16165   5.668   4.993   4.760
 5089SOL    HW116166   5.689   5.088   4.735
 5089SOL    HW216167   5.747   4.935   4.740
 5090SOL     OW16168   3.221   0.247   5.020
 5090SOL    HW116169   3.295   0.268   5.085
 5090SOL    HW216170   3.199   0.150   5.025
 5091SOL     OW16171   6.355   6.898   0.320
 5091SOL    HW116172   6.335   6.984   0.368
 5091SOL    HW216173   6.274   6.871   0.267
 5092SOL     OW16174   2.903   3.631   4.632
 5092SOL    HW116175   2.886   3.622   4.731
 5092SOL    HW216176   2.949   3.550   4.599
 5093SOL     OW16177   1.966   1.907   2.151
 5093SOL    HW116178   1.922   1.996   2.158
 5093SOL    HW216179   1.947   1.854   2.234
 5094SOL     OW16180   2.472   5.813   6.023
 5094SOL    HW116181   2.530   5.869   6.082
 5094SOL    HW216182   2.462   5.722   6.063
 5095SOL     OW16183   6.925   0.576   2.872
 5095SOL    HW116184   6.846   0.564   2.812
 5095SOL    HW216185   6.955   0.672   2.869
 5096SOL     OW16186   4.974   2.681   5.967
 5096SOL    HW116187   4.993   2.767   5.919
 5096SOL    HW216188   5.059   2.645   6.005
 5097SOL     OW16189   0.909   6.431   6.601
 5097SOL    HW116190   0.906   6.455   6.698
 5097SOL    HW216191   0.972   6.493   6.553
 5098SOL     OW16192   3.878   2.199   1.773
 5098SOL    HW116193   3.917   2.291   1.763
 5098SOL    HW216194   3.794   2.205   1.826
 5099SOL     OW16195   1.390   6.741   1.692
 5099SOL    HW116196   1.360   6.833   1.717
 5099SOL    HW216197   1.326   6.701   1.627
 5100SOL     OW16198   4.999   3.778   2.598
 5100SOL    HW116199   4.964   3.803   2.508
 5100SOL    HW216200   5.044   3.689   2.593
 5101SOL     OW16201   4.103   6.893   5.914
 5101SOL    HW116202   4.191   6.927   5.947
 5101SOL    HW216203   4.029   6.954   5.945
 5102SOL     OW16204   5.022   5.034   4.571
 5102SOL    HW116205   5.030   5.069   4.664
 5102SOL    HW216206   5.055   4.940   4.567
 5103SOL     OW16207   1.394   0.574   5.824
 5103SOL    HW116208   1.373   0.541   5.732
 5103SOL    HW216209   1.311   0.610   5.866
 5104SOL     OW16210   3.783   4.535   1.576
 5104SOL    HW116211   3.798   4.558   1.480
 5104SOL    HW216212   3.856   4.473   1.607
 5105SOL     OW16213   3.710   2.675   6.597
 5105SOL    HW116214   3.639   2.743   6.616
 5105SOL    HW216215   3.667   2.592   6.561
 5106SOL     OW16216   4.533   2.993   1.187
 5106SOL    HW116217   4.543   3.005   1.088
 5106SOL    HW216218   4.623   2.973   1.227
 5107SOL     OW16219   5.019   3.394   0.574
 5107SOL    HW116220   5.094   3.459   0.562
 5107SOL    HW216221   5.001   3.347   0.488
 5108SOL     OW16222   4.454   4.627   6.392
 5108SOL    HW116223   4.371   4.571   6.389
 5108SOL    HW216224   4.528   4.574   6.433
 5109SOL     OW16225   1.685   2.558   1.292
 5109SOL    HW116226   1.740   2.491   1.342
 5109SOL    HW216227   1.610   2.511   1.245
 5110SOL     OW16228   5.412   0.387   6.394
 5110SOL    HW116229   5.392   0.422   6.485
 5110SOL    HW216230   5.333   0.338   6.358
 5111SOL     OW16231   0.829   6.589   5.275
 5111SOL    HW116232   0.814   6.651   5.198
 5111SOL    HW216233   0.750   6.529   5.284
 5112SOL     OW16234   0.464   0.307   2.789
 5112SOL    HW116235   0.412   0.373   2.736
 5112SOL    HW216236   0.451   0.215   2.751
 5113SOL     OW16237   2.206   4.496   0.304
 5113SOL    HW116238   2.149   4.430   0.255
 5113SOL    HW216239   2.301   4.464   0.305
 5114SOL     OW16240   4.519   5.945   1.057
 5114SOL    HW116241   4.501   5.958   1.155
 5114SOL    HW216242   4.602   5.891   1.046
 5115SOL     OW16243   1.574   3.916   1.002
 5115SOL    HW116244   1.538   3.857   0.930
 5115SOL    HW216245   1.622   3.993   0.961
 5116SOL     OW16246   1.889   6.819   6.769
 5116SOL    HW116247   1.791   6.813   6.787
 5116SOL    HW216248   1.935   6.741   6.812
 5117SOL     OW16249   1.215   2.311   4.092
 5117SOL    HW116250   1.285   2.354   4.150
 5117SOL    HW216251   1.171   2.237   4.142
 5118SOL     OW16252   5.480   5.839   6.716
 5118SOL    HW116253   5.395   5.882   6.685
 5118SOL    HW216254   5.515   5.886   6.797
 5119SOL     OW16255   4.921   1.512   0.519
 5119SOL    HW116256   4.926   1.592   0.460
 5119SOL    HW216257   4.856   1.446   0.482
 5120SOL     OW16258   5.011   0.156   5.235
 5120SOL    HW116259   5.100   0.140   5.194
 5120SOL    HW216260   4.982   0.074   5.285
 5121SOL     OW16261   2.130   3.859   6.682
 5121SOL    HW116262   2.080   3.927   6.628
 5121SOL    HW216263   2.223   3.850   6.646
 5122SOL     OW16264   5.153   5.394   3.709
 5122SOL    HW116265   5.108   5.430   3.791
 5122SOL    HW216266   5.107   5.430   3.627
 5123SOL     OW16267   4.907   2.582   2.270
 5123SOL    HW116268   5.002   2.552   2.277
 5123SOL    HW216269   4.901   2.658   2.205
 5124SOL     OW16270   2.282   6.583   3.584
 5124SOL    HW116271   2.234   6.641   3.519
 5124SOL    HW216272   2.214   6.535   3.641
 5125SOL     OW16273   0.050   1.766   4.044
 5125SOL    HW116274   0.127   1.797   3.988
 5125SOL    HW216275   6.988   1.792   3.998
 5126SOL     OW16276   2.389   6.733   0.573
 5126SOL    HW116277   2.383   6.830   0.547
 5126SOL    HW216278   2.483   6.702   0.564
 5127SOL     OW16279   1.815   5.437   0.379
 5127SOL    HW116280   1.777   5.388   0.301
 5127SOL    HW216281   1.750   5.505   0.411
 5128SOL     OW16282   6.578   5.863   1.796
 5128SOL    HW116283   6.644   5.929   1.832
 5128SOL    HW216284   6.539   5.809   1.871
 5129SOL     OW16285   5.910   6.985   1.111
 5129SOL    HW116286   5.916   0.057   1.083
 5129SOL    HW216287   5.938   6.926   1.035
 5130SOL     OW16288   5.819   5.098   3.193
 5130SOL    HW116289   5.755   5.131   3.262
 5130SOL    HW216290   5.911   5.130   3.215
 5131SOL     OW16291   2.106   2.523   3.727
 5131SOL    HW116292   2.032   2.562   3.673
 5131SOL    HW216293   2.189   2.578   3.716
 5132SOL     OW16294   2.921   5.019   5.693
 5132SOL    HW116295   2.966   5.057   5.612
 5132SOL    HW216296   2.959   4.928   5.712
 5133SOL     OW16297   3.983   6.319   6.540
 5133SOL    HW116298   3.901   6.352   6.586
 5133SOL    HW216299   3.958   6.271   6.457
 5134SOL     OW16300   0.418   3.895   1.124
 5134SOL    HW116301   0.472   3.841   1.189
 5134SOL    HW216302   0.351   3.835   1.078
 5135SOL     OW16303   6.746   1.456   5.127
 5135SOL    HW116304   6.786   1.533   5.178
 5135SOL    HW216305   6.678   1.490   5.063
 5136SOL     OW16306   4.682   1.302   4.337
 5136SOL    HW116307   4.627   1.385   4.343
 5136SOL    HW216308   4.642   1.240   4.269
 5137SOL     OW16309   4.050   4.602   6.192
 5137SOL    HW116310   4.067   4.549   6.110
 5137SOL    HW216311   3.955   4.633   6.194
 5138SOL     OW16312   2.595   4.047   5.520
 5138SOL    HW116313   2.598   4.020   5.616
 5138SOL    HW216314   2.686   4.076   5.490
 5139SOL     OW16315   1.256   6.753   3.674
 5139SOL    HW116316   1.243   6.659   3.706
 5139SOL    HW216317   1.227   6.760   3.579
 5140SOL     OW16318   3.521   2.670   1.306
 5140SOL    HW116319   3.548   2.634   1.217
 5140SOL    HW216320   3.474   2.758   1.293
 5141SOL     OW16321   5.687   3.005   6.893
 5141SOL    HW116322   5.769   2.995   6.837
 5141SOL    HW216323   5.651   2.914   6.916
 5142SOL     OW16324   5.560   4.110   4.881
 5142SOL    HW116325   5.506   4.052   4.820
 5142SOL    HW216326   5.614   4.174   4.827
 5143SOL     OW16327   6.670   5.570   4.237
 5143SOL    HW116328   6.717   5.564   4.325
 5143SOL    HW216329   6.669   5.665   4.206
 5144SOL     OW16330   1.459   1.004   5.587
 5144SOL    HW116331   1.505   1.084   5.549
 5144SOL    HW216332   1.378   0.983   5.533
 5145SOL     OW16333   2.179   5.381   5.896
 5145SOL    HW116334   2.268   5.337   5.886
 5145SOL    HW216335   2.180   5.471   5.853
 5146SOL     OW16336   2.935   4.693   6.894
 5146SOL    HW116337   2.963   4.637   6.971
 5146SOL    HW216338   2.838   4.678   6.875
 5147SOL     OW16339   6.038   4.284   6.694
 5147SOL    HW116340   5.987   4.338   6.627
 5147SOL    HW216341   6.119   4.334   6.723
 5148SOL     OW16342   0.015   6.044   1.263
 5148SOL    HW116343   0.082   5.990   1.314
 5148SOL    HW216344   7.023   6.002   1.174
 5149SOL     OW16345   6.373   1.631   4.195
 5149SOL    HW116346   6.339   1.621   4.289
 5149SOL    HW216347   6.472   1.635   4.195
 5150SOL     OW16348   1.734   5.539   4.163
 5150SOL    HW116349   1.784   5.574   4.084
 5150SOL    HW216350   1.640   5.519   4.137
 5151SOL     OW16351   5.020   1.047   6.578
 5151SOL    HW116352   4.987   0.954   6.563
 5151SOL    HW216353   5.117   1.044   6.601
 5152SOL     OW16354   0.924   4.200   0.068
 5152SOL    HW116355   0.983   4.159   7.023
 5152SOL    HW216356   0.835   4.154   0.070
 5153SOL     OW16357   1.407   2.042   0.687
 5153SOL    HW116358   1.443   1.955   0.719
 5153SOL    HW216359   1.307   2.042   0.696
 5154SOL     OW16360   1.859   2.688   5.491
 5154SOL    HW116361   1.871   2.743   5.409
 5154SOL    HW216362   1.905   2.731   5.568
 5155SOL     OW16363   3.741   6.956   2.132
 5155SOL    HW116364   3.683   6.939   2.212
 5155SOL    HW216365   3.760   0.030   2.124
 5156SOL     OW16366   6.256   2.426   5.452
 5156SOL    HW116367   6.196   2.504   5.435
 5156SOL    HW216368   6.331   2.454   5.512
 5157SOL     OW16369   5.043   2.830   3.520
 5157SOL    HW116370   5.126   2.869   3.560
 5157SOL    HW216371   4.963   2.869   3.565
 5158SOL     OW16372   3.871   1.512   1.254
 5158SOL    HW116373   3.940   1.585   1.252
 5158SOL    HW216374   3.881   1.455   1.172
 5159SOL     OW16375   1.255   3.163   4.393
 5159SOL    HW116376   1.324   3.223   4.354
 5159SOL    HW216377   1.246   3.081   4.336
 5160SOL     OW16378   1.838   3.694   4.711
 5160SOL    HW116379   1.928   3.656   4.732
 5160SOL    HW216380   1.777   3.682   4.789
 5161SOL     OW16381   1.092   2.913   5.034
 5161SOL    HW116382   1.036   2.955   4.963
 5161SOL    HW216383   1.187   2.910   5.004
 5162SOL     OW16384   6.568   6.335   3.844
 5162SOL    HW116385   6.558   6.426   3.803
 5162SOL    HW216386   6.501   6.324   3.917
 5163SOL     OW16387   5.375   4.646   1.387
 5163SOL    HW116388   5.389   4.612   1.480
 5163SOL    HW216389   5.297   4.709   1.386
 5164SOL     OW16390   5.747   3.568   5.629
 5164SOL    HW116391   5.792   3.564   5.717
 5164SOL    HW216392   5.648   3.580   5.642
 5165SOL     OW16393   6.108   4.526   3.878
 5165SOL    HW116394   6.163   4.512   3.961
 5165SOL    HW216395   6.143   4.604   3.827
 5166SOL     OW16396   2.185   5.161   2.209
 5166SOL    HW116397   2.226   5.231   2.150
 5166SOL    HW216398   2.187   5.073   2.162
 5167SOL     OW16399   0.420   6.413   5.823
 5167SOL    HW116400   0.390   6.324   5.858
 5167SOL    HW216401   0.496   6.447   5.877
 5168SOL     OW16402   4.262   2.327   2.964
 5168SOL    HW116403   4.328   2.340   2.889
 5168SOL    HW216404   4.283   2.392   3.038
 5169SOL     OW16405   3.416   3.897   6.033
 5169SOL    HW116406   3.320   3.899   6.004
 5169SOL    HW216407   3.448   3.802   6.036
 5170SOL     OW16408   5.864   4.448   4.858
 5170SOL    HW116409   5.832   4.508   4.931
 5170SOL    HW216410   5.910   4.368   4.898
 5171SOL     OW16411   2.159   5.389   4.395
 5171SOL    HW116412   2.144   5.472   4.449
 5171SOL    HW216413   2.075   5.364   4.347
 5172SOL     OW16414   0.941   4.946   2.502
 5172SOL    HW116415   0.870   4.984   2.442
 5172SOL    HW216416   0.931   4.846   2.506
 5173SOL     OW16417   5.371   2.504   6.815
 5173SOL    HW116418   5.400   2.578   6.754
 5173SOL    HW216419   5.300   2.538   6.876
 5174SOL     OW16420   1.381   4.864   6.145
 5174SOL    HW116421   1.377   4.847   6.244
 5174SOL    HW216422   1.319   4.800   6.099
 5175SOL     OW16423   0.987   4.452   0.156
 5175SOL    HW116424   1.086   4.467   0.156
 5175SOL    HW216425   0.967   4.367   0.107
 5176SOL     OW16426   4.671   3.522   0.479
 5176SOL    HW116427   4.670   3.583   0.558
 5176SOL    HW216428   4.750   3.544   0.421
 5177SOL     OW16429   5.089   6.627   6.300
 5177SOL    HW116430   4.997   6.603   6.329
 5177SOL    HW216431   5.143   6.543   6.287
 5178SOL     OW16432   2.398   2.609   1.834
 5178SOL    HW116433   2.343   2.558   1.900
 5178SOL    HW216434   2.344   2.686   1.798
 5179SOL     OW16435   3.681   6.516   5.705
 5179SOL    HW116436   3.648   6.589   5.765
 5179SOL    HW216437   3.706   6.436   5.761
 5180SOL     OW16438   2.908   2.721   1.283
 5180SOL    HW116439   2.890   2.700   1.187
 5180SOL    HW216440   2.996   2.681   1.310
 5181SOL     OW16441   4.326   6.705   3.003
 5181SOL    HW116442   4.325   6.735   3.099
 5181SOL    HW216443   4.240   6.732   2.960
 5182SOL     OW16444   5.772   4.513   1.666
 5182SOL    HW116445   5.749   4.606   1.692
 5182SOL    HW216446   5.689   4.460   1.652
 5183SOL     OW16447   4.776   0.285   1.907
 5183SOL    HW116448   4.707   0.346   1.868
 5183SOL    HW216449   4.835   0.250   1.834
 5184SOL     OW16450   0.787   0.599   2.687
 5184SOL    HW116451   0.839   0.616   2.604
 5184SOL    HW216452   0.849   0.566   2.759
 5185SOL     OW16453   3.540   0.237   2.193
 5185SOL    HW116454   3.551   0.139   2.209
 5185SOL    HW216455   3.629   0.278   2.173
 5186SOL     OW16456   6.640   4.146   0.078
 5186SOL    HW116457   6.629   4.186   0.169
 5186SOL    HW216458   6.728   4.174   0.039
 5187SOL     OW16459   5.744   1.900   3.528
 5187SOL    HW116460   5.824   1.959   3.539
 5187SOL    HW216461   5.724   1.888   3.431
 5188SOL     OW16462   0.868   4.112   5.968
 5188SOL    HW116463   0.807   4.167   5.911
 5188SOL    HW216464   0.962   4.122   5.935
 5189SOL     OW16465   4.497   5.311   6.423
 5189SOL    HW116466   4.522   5.359   6.339
 5189SOL    HW216467   4.498   5.212   6.407
 5190SOL     OW16468   1.319   2.428   3.856
 5190SOL    HW116469   1.273   2.368   3.921
 5190SOL    HW216470   1.331   2.381   3.769
 5191SOL     OW16471   3.461   0.733   1.330
 5191SOL    HW116472   3.390   0.717   1.398
 5191SOL    HW216473   3.473   0.831   1.316
 5192SOL     OW16474   6.182   5.517   2.614
 5192SOL    HW116475   6.085   5.539   2.607
 5192SOL    HW216476   6.231   5.596   2.651
 5193SOL     OW16477   4.879   3.786   3.612
 5193SOL    HW116478   4.899   3.719   3.541
 5193SOL    HW216479   4.922   3.873   3.589
 5194SOL     OW16480   5.493   0.661   5.423
 5194SOL    HW116481   5.393   0.664   5.432
 5194SOL    HW216482   5.527   0.753   5.403
 5195SOL     OW16483   6.088   6.462   5.442
 5195SOL    HW116484   6.091   6.486   5.345
 5195SOL    HW216485   6.181   6.461   5.479
 5196SOL     OW16486   0.309   3.936   1.609
 5196SOL    HW116487   0.285   3.860   1.549
 5196SOL    HW216488   0.236   3.950   1.675
 5197SOL     OW16489   2.793   5.553   5.213
 5197SOL    HW116490   2.764   5.459   5.198
 5197SOL    HW216491   2.814   5.566   5.310
 5198SOL     OW16492   3.917   6.386   5.198
 5198SOL    HW116493   3.918   6.483   5.174
 5198SOL    HW216494   3.960   6.374   5.287
 5199SOL     OW16495   2.009   5.453   1.454
 5199SOL    HW116496   1.982   5.370   1.404
 5199SOL    HW216497   1.933   5.484   1.511
 5200SOL     OW16498   0.384   1.273   5.209
 5200SOL    HW116499   0.295   1.319   5.205
 5200SOL    HW216500   0.374   1.187   5.259
 5201SOL     OW16501   6.114   5.038   3.789
 5201SOL    HW116502   6.073   5.064   3.701
 5201SOL    HW216503   6.042   5.010   3.852
 5202SOL     OW16504   3.854   2.769   5.871
 5202SOL    HW116505   3.891   2.690   5.919
 5202SOL    HW216506   3.918   2.799   5.801
 5203SOL     OW16507   1.935   0.475   0.577
 5203SOL    HW116508   1.877   0.497   0.655
 5203SOL    HW216509   1.969   0.559   0.535
 5204SOL     OW16510   3.071   0.864   0.179
 5204SOL    HW116511   3.114   0.909   0.101
 5204SOL    HW216512   3.112   0.773   0.191
 5205SOL     OW16513   0.246   5.598   0.703
 5205SOL    HW116514   0.167   5.631   0.651
 5205SOL    HW216515   0.214   5.533   0.773
 5206SOL     OW16516   0.896   4.660   4.534
 5206SOL    HW116517   0.915   4.563   4.520
 5206SOL    HW216518   0.967   4.701   4.590
 5207SOL     OW16519   0.344   0.458   3.980
 5207SOL    HW116520   0.306   0.525   3.916
 5207SOL    HW216521   0.277   0.385   3.996
 5208SOL     OW16522   4.661   1.984   0.198
 5208SOL    HW116523   4.676   2.038   0.280
 5208SOL    HW216524   4.615   1.898   0.222
 5209SOL     OW16525   5.279   5.665   2.741
 5209SOL    HW116526   5.185   5.636   2.722
 5209SOL    HW216527   5.341   5.588   2.727
 5210SOL     OW16528   5.298   4.706   0.391
 5210SOL    HW116529   5.294   4.753   0.303
 5210SOL    HW216530   5.390   4.711   0.428
 5211SOL     OW16531   4.825   3.180   4.529
 5211SOL    HW116532   4.806   3.164   4.626
 5211SOL    HW216533   4.823   3.093   4.480
 5212SOL     OW16534   0.992   3.561   1.062
 5212SOL    HW116535   1.047   3.526   0.987
 5212SOL    HW216536   1.006   3.660   1.071
 5213SOL     OW16537   4.126   3.387   2.627
 5213SOL    HW116538   4.132   3.486   2.623
 5213SOL    HW216539   4.036   3.361   2.662
 5214SOL     OW16540   5.347   3.736   5.520
 5214SOL    HW116541   5.255   3.735   5.481
 5214SOL    HW216542   5.414   3.733   5.447
 5215SOL     OW16543   6.657   3.831   4.683
 5215SOL    HW116544   6.569   3.864   4.647
 5215SOL    HW216545   6.677   3.741   4.644
 5216SOL     OW16546   4.971   5.584   0.990
 5216SOL    HW116547   5.006   5.657   0.932
 5216SOL    HW216548   4.892   5.616   1.041
 5217SOL     OW16549   4.215   6.274   4.218
 5217SOL    HW116550   4.305   6.247   4.185
 5217SOL    HW216551   4.154   6.289   4.140
 5218SOL     OW16552   0.439   6.952   0.734
 5218SOL    HW116553   0.508   6.940   0.663
 5218SOL    HW216554   0.354   6.984   0.693
 5219SOL     OW16555   3.063   1.647   4.977
 5219SOL    HW116556   3.017   1.736   4.974
 5219SOL    HW216557   3.001   1.576   4.944
 5220SOL     OW16558   2.046   4.437   3.918
 5220SOL    HW116559   2.052   4.454   4.016
 5220SOL    HW216560   2.054   4.524   3.869
 5221SOL     OW16561   6.845   6.761   1.063
 5221SOL    HW116562   6.902   6.702   1.006
 5221SOL    HW216563   6.760   6.781   1.015
 5222SOL     OW16564   4.986   4.466   0.695
 5222SOL    HW116565   5.047   4.396   0.657
 5222SOL    HW216566   4.942   4.430   0.777
 5223SOL     OW16567   0.524   2.625   1.095
 5223SOL    HW116568   0.622   2.641   1.104
 5223SOL    HW216569   0.484   2.691   1.031
 5224SOL     OW16570   0.325   2.970   5.168
 5224SOL    HW116571   0.251   3.033   5.189
 5224SOL    HW216572   0.403   2.989   5.227
 5225SOL     OW16573   0.337   1.688   4.837
 5225SOL    HW116574   0.395   1.765   4.865
 5225SOL    HW216575   0.251   1.723   4.799
 5226SOL     OW16576   0.652   6.579   3.699
 5226SOL    HW116577   0.673   6.549   3.606
 5226SOL    HW216578   0.602   6.507   3.747
 5227SOL     OW16579   0.018   2.857   5.415
 5227SOL    HW116580   7.021   2.759   5.411
 5227SOL    HW216581   0.115   2.870   5.432
 5228SOL     OW16582   1.578   2.354   5.727
 5228SOL    HW116583   1.664   2.309   5.751
 5228SOL    HW216584   1.596   2.426   5.659
 5229SOL     OW16585   4.249   0.647   5.967
 5229SOL    HW116586   4.272   0.743   5.957
 5229SOL    HW216587   4.214   0.611   5.880
 5230SOL     OW16588   6.877   6.759   2.048
 5230SOL    HW116589   6.929   6.806   2.119
 5230SOL    HW216590   6.826   6.826   1.994
 5231SOL     OW16591   6.828   2.011   2.104
 5231SOL    HW116592   6.732   2.017   2.134
 5231SOL    HW216593   6.842   1.923   2.057
 5232SOL     OW16594   2.337   2.799   5.506
 5232SOL    HW116595   2.299   2.846   5.426
 5232SOL    HW216596   2.435   2.814   5.511
 5233SOL     OW16597   3.159   6.964   2.914
 5233SOL    HW116598   3.255   6.953   2.887
 5233SOL    HW216599   3.118   6.873   2.926
 5234SOL     OW16600   2.406   1.901   0.222
 5234SOL    HW116601   2.468   1.913   0.145
 5234SOL    HW216602   2.313   1.885   0.188
 5235SOL     OW16603   2.611   1.944   1.341
 5235SOL    HW116604   2.576   1.944   1.247
 5235SOL    HW216605   2.689   2.007   1.346
 5236SOL     OW16606   3.929   5.658   1.756
 5236SOL    HW116607   3.883   5.642   1.843
 5236SOL    HW216608   3.974   5.747   1.758
 5237SOL     OW16609   2.070   1.901   3.489
 5237SOL    HW116610   2.072   1.841   3.409
 5237SOL    HW216611   2.148   1.964   3.485
 5238SOL     OW16612   1.014   6.522   3.056
 5238SOL    HW116613   0.927   6.485   3.023
 5238SOL    HW216614   1.085   6.452   3.048
 5239SOL     OW16615   2.477   3.642   1.402
 5239SOL    HW116616   2.419   3.565   1.375
 5239SOL    HW216617   2.510   3.689   1.321
 5240SOL     OW16618   2.235   3.676   5.459
 5240SOL    HW116619   2.135   3.676   5.460
 5240SOL    HW216620   2.267   3.711   5.372
 5241SOL     OW16621   1.258   5.618   2.250
 5241SOL    HW116622   1.261   5.684   2.175
 5241SOL    HW216623   1.343   5.622   2.302
 5242SOL     OW16624   4.758   0.414   6.518
 5242SOL    HW116625   4.709   0.331   6.490
 5242SOL    HW216626   4.810   0.449   6.439
 5243SOL     OW16627   2.683   0.105   2.461
 5243SOL    HW116628   2.728   0.151   2.537
 5243SOL    HW216629   2.714   0.145   2.375
 5244SOL     OW16630   4.915   2.933   0.662
 5244SOL    HW116631   4.850   2.987   0.716
 5244SOL    HW216632   4.867   2.858   0.617
 5245SOL     OW16633   4.221   3.705   1.792
 5245SOL    HW116634   4.121   3.696   1.801
 5245SOL    HW216635   4.244   3.801   1.778
 5246SOL     OW16636   5.865   3.208   1.435
 5246SOL    HW116637   5.961   3.181   1.442
 5246SOL    HW216638   5.845   3.239   1.342
 5247SOL     OW16639   3.782   1.931   6.331
 5247SOL    HW116640   3.731   1.846   6.318
 5247SOL    HW216641   3.786   1.953   6.429
 5248SOL     OW16642   6.716   1.152   3.839
 5248SOL    HW116643   6.701   1.180   3.933
 5248SOL    HW216644   6.644   1.190   3.780
 5249SOL     OW16645   0.590   4.875   6.589
 5249SOL    HW116646   0.546   4.965   6.587
 5249SOL    HW216647   0.592   4.837   6.497
 5250SOL     OW16648   2.383   5.999   0.943
 5250SOL    HW116649   2.450   6.071   0.928
 5250SOL    HW216650   2.429   5.916   0.976
 5251SOL     OW16651   0.694   4.712   0.442
 5251SOL    HW116652   0.664   4.704   0.537
 5251SOL    HW216653   0.756   4.790   0.433
 5252SOL     OW16654   3.838   0.199   2.109
 5252SOL    HW116655   3.866   0.232   2.199
 5252SOL    HW216656   3.873   0.261   2.039
 5253SOL     OW16657   6.339   5.628   4.499
 5253SOL    HW116658   6.412   5.559   4.503
 5253SOL    HW216659   6.355   5.688   4.421
 5254SOL     OW16660   5.985   0.063   3.098
 5254SOL    HW116661   6.033   0.124   3.161
 5254SOL    HW216662   6.003   0.092   3.004
 5255SOL     OW16663   6.099   1.897   5.026
 5255SOL    HW116664   6.117   1.931   4.934
 5255SOL    HW216665   6.158   1.818   5.045
 5256SOL     OW16666   6.424   1.467   2.593
 5256SOL    HW116667   6.419   1.566   2.603
 5256SOL    HW216668   6.501   1.432   2.646
 5257SOL     OW16669   3.884   0.779   6.062
 5257SOL    HW116670   3.929   0.814   6.144
 5257SOL    HW216671   3.881   0.679   6.067
 5258SOL     OW16672   4.198   1.652   3.236
 5258SOL    HW116673   4.110   1.665   3.191
 5258SOL    HW216674   4.212   1.554   3.254
 5259SOL     OW16675   6.151   5.287   2.922
 5259SOL    HW116676   6.164   5.193   2.953
 5259SOL    HW216677   6.193   5.299   2.832
 5260SOL     OW16678   2.179   1.124   0.986
 5260SOL    HW116679   2.155   1.114   0.889
 5260SOL    HW216680   2.178   1.221   1.010
 5261SOL     OW16681   6.094   4.284   0.516
 5261SOL    HW116682   6.111   4.209   0.580
 5261SOL    HW216683   6.120   4.255   0.424
 5262SOL     OW16684   2.035   0.941   2.760
 5262SOL    HW116685   2.095   0.861   2.755
 5262SOL    HW216686   2.078   1.017   2.711
 5263SOL     OW16687   2.094   0.143   2.613
 5263SOL    HW116688   1.996   0.160   2.604
 5263SOL    HW216689   2.112   0.045   2.609
 5264SOL     OW16690   6.550   2.131   1.708
 5264SOL    HW116691   6.522   2.179   1.791
 5264SOL    HW216692   6.474   2.077   1.673
 5265SOL     OW16693   6.432   4.641   4.391
 5265SOL    HW116694   6.513   4.688   4.425
 5265SOL    HW216695   6.435   4.545   4.419
 5266SOL     OW16696   2.050   0.687   0.990
 5266SOL    HW116697   1.966   0.722   0.949
 5266SOL    HW216698   2.073   0.599   0.948
 5267SOL     OW16699   5.073   2.882   4.103
 5267SOL    HW116700   5.000   2.938   4.142
 5267SOL    HW216701   5.035   2.825   4.029
 5268SOL     OW16702   5.468   0.665   6.110
 5268SOL    HW116703   5.528   0.660   6.030
 5268SOL    HW216704   5.477   0.755   6.152
 5269SOL     OW16705   0.438   6.083   3.561
 5269SOL    HW116706   0.343   6.115   3.571
 5269SOL    HW216707   0.438   5.988   3.530
 5270SOL     OW16708   0.544   2.346   6.296
 5270SOL    HW116709   0.576   2.332   6.390
 5270SOL    HW216710   0.607   2.407   6.248
 5271SOL     OW16711   6.875   5.228   3.381
 5271SOL    HW116712   6.957   5.280   3.354
 5271SOL    HW216713   6.796   5.261   3.329
 5272SOL     OW16714   4.727   0.813   0.268
 5272SOL    HW116715   4.680   0.734   0.308
 5272SOL    HW216716   4.677   0.845   0.188
 5273SOL     OW16717   0.447   2.548   3.376
 5273SOL    HW116718   0.456   2.491   3.295
 5273SOL    HW216719   0.489   2.502   3.454
 5274SOL     OW16720   4.604   5.132   1.963
 5274SOL    HW116721   4.557   5.063   2.018
 5274SOL    HW216722   4.702   5.123   1.976
 5275SOL     OW16723   4.394   1.516   6.321
 5275SOL    HW116724   4.315   1.551   6.371
 5275SOL    HW216725   4.465   1.586   6.319
 5276SOL     OW16726   4.215   5.921   2.852
 5276SOL    HW116727   4.266   5.974   2.783
 5276SOL    HW216728   4.117   5.937   2.839
 5277SOL     OW16729   2.049   2.265   1.678
 5277SOL    HW116730   2.034   2.213   1.763
 5277SOL    HW216731   2.021   2.360   1.692
 5278SOL     OW16732   4.629   4.742   0.946
 5278SOL    HW116733   4.539   4.752   0.988
 5278SOL    HW216734   4.620   4.696   0.858
 5279SOL     OW16735   2.972   5.375   2.103
 5279SOL    HW116736   2.890   5.324   2.128
 5279SOL    HW216737   2.983   5.373   2.003
 5280SOL     OW16738   4.779   6.671   4.494
 5280SOL    HW116739   4.786   6.594   4.430
 5280SOL    HW216740   4.693   6.719   4.478
 5281SOL     OW16741   0.254   1.836   1.566
 5281SOL    HW116742   0.228   1.755   1.514
 5281SOL    HW216743   0.326   1.812   1.632
 5282SOL     OW16744   3.980   1.938   2.667
 5282SOL    HW116745   4.016   1.943   2.574
 5282SOL    HW216746   4.050   1.972   2.731
 5283SOL     OW16747   5.040   4.601   5.897
 5283SOL    HW116748   5.033   4.621   5.994
 5283SOL    HW216749   5.136   4.588   5.872
 5284SOL     OW16750   5.507   3.031   3.415
 5284SOL    HW116751   5.492   2.936   3.387
 5284SOL    HW216752   5.421   3.070   3.448
 5285SOL     OW16753   3.341   5.607   3.349
 5285SOL    HW116754   3.267   5.541   3.336
 5285SOL    HW216755   3.366   5.646   3.260
 5286SOL     OW16756   2.195   4.564   1.516
 5286SOL    HW116757   2.107   4.523   1.540
 5286SOL    HW216758   2.213   4.642   1.577
 5287SOL     OW16759   1.421   1.862   1.224
 5287SOL    HW116760   1.368   1.859   1.139
 5287SOL    HW216761   1.490   1.935   1.218
 5288SOL     OW16762   3.692   6.830   1.164
 5288SOL    HW116763   3.788   6.804   1.165
 5288SOL    HW216764   3.682   6.922   1.200
 5289SOL     OW16765   1.884   5.247   1.279
 5289SOL    HW116766   1.893   5.147   1.280
 5289SOL    HW216767   1.798   5.273   1.322
 5290SOL     OW16768   4.970   6.044   0.806
 5290SOL    HW116769   4.943   6.107   0.879
 5290SOL    HW216770   4.889   6.013   0.757
 5291SOL     OW16771   1.673   5.284   5.996
 5291SOL    HW116772   1.672   5.380   6.023
 5291SOL    HW216773   1.767   5.257   5.974
 5292SOL     OW16774   4.567   2.862   6.265
 5292SOL    HW116775   4.504   2.795   6.303
 5292SOL    HW216776   4.661   2.836   6.287
 5293SOL     OW16777   0.696   0.210   4.050
 5293SOL    HW116778   0.679   0.215   4.149
 5293SOL    HW216779   0.637   0.275   4.003
 5294SOL     OW16780   5.233   2.037   5.292
 5294SOL    HW116781   5.151   2.080   5.254
 5294SOL    HW216782   5.215   1.939   5.307
 5295SOL     OW16783   6.341   1.133   1.691
 5295SOL    HW116784   6.385   1.045   1.677
 5295SOL    HW216785   6.370   1.196   1.619
 5296SOL     OW16786   1.001   4.440   0.543
 5296SOL    HW116787   1.003   4.377   0.465
 5296SOL    HW216788   1.026   4.390   0.626
 5297SOL     OW16789   1.912   2.778   1.341
 5297SOL    HW116790   1.997   2.750   1.387
 5297SOL    HW216791   1.837   2.777   1.407
 5298SOL     OW16792   0.891   5.196   1.061
 5298SOL    HW116793   0.901   5.273   1.124
 5298SOL    HW216794   0.853   5.118   1.110
 5299SOL     OW16795   2.956   0.433   2.497
 5299SOL    HW116796   3.011   0.515   2.512
 5299SOL    HW216797   3.015   0.352   2.502
 5300SOL     OW16798   6.652   5.368   3.253
 5300SOL    HW116799   6.674   5.426   3.175
 5300SOL    HW216800   6.566   5.319   3.236
 5301SOL     OW16801   4.150   1.546   0.418
 5301SOL    HW116802   4.077   1.478   0.414
 5301SOL    HW216803   4.113   1.636   0.396
 5302SOL     OW16804   6.450   4.494   3.050
 5302SOL    HW116805   6.439   4.542   3.137
 5302SOL    HW216806   6.469   4.397   3.068
 5303SOL     OW16807   0.747   4.868   3.379
 5303SOL    HW116808   0.694   4.951   3.401
 5303SOL    HW216809   0.690   4.788   3.397
 5304SOL     OW16810   5.254   2.122   5.873
 5304SOL    HW116811   5.290   2.036   5.837
 5304SOL    HW216812   5.159   2.133   5.844
 5305SOL     OW16813   2.991   1.149   3.228
 5305SOL    HW116814   2.893   1.134   3.216
 5305SOL    HW216815   3.028   1.198   3.149
 5306SOL     OW16816   2.441   0.317   5.582
 5306SOL    HW116817   2.362   0.335   5.641
 5306SOL    HW216818   2.518   0.374   5.611
 5307SOL     OW16819   5.105   6.895   6.701
 5307SOL    HW116820   5.163   6.969   6.735
 5307SOL    HW216821   5.113   6.890   6.601
 5308SOL     OW16822   0.040   0.827   2.882
 5308SOL    HW116823   0.029   0.881   2.966
 5308SOL    HW216824   0.064   0.888   2.806
 5309SOL     OW16825   3.517   3.728   3.786
 5309SOL    HW116826   3.464   3.733   3.702
 5309SOL    HW216827   3.483   3.796   3.851
 5310SOL     OW16828   4.850   2.217   1.049
 5310SOL    HW116829   4.789   2.142   1.074
 5310SOL    HW216830   4.924   2.182   0.991
 5311SOL     OW16831   1.327   6.205   0.243
 5311SOL    HW116832   1.422   6.198   0.274
 5311SOL    HW216833   1.309   6.136   0.173
 5312SOL     OW16834   0.493   3.537   2.294
 5312SOL    HW116835   0.493   3.554   2.392
 5312SOL    HW216836   0.503   3.439   2.276
 5313SOL     OW16837   1.407   5.834   0.854
 5313SOL    HW116838   1.327   5.775   0.858
 5313SOL    HW216839   1.432   5.850   0.759
 5314SOL     OW16840   3.598   5.254   0.615
 5314SOL    HW116841   3.546   5.252   0.700
 5314SOL    HW216842   3.545   5.211   0.542
 5315SOL     OW16843   5.081   2.556   2.617
 5315SOL    HW116844   5.065   2.460   2.592
 5315SOL    HW216845   5.067   2.614   2.537
 5316SOL     OW16846   6.364   4.967   3.918
 5316SOL    HW116847   6.268   4.960   3.890
 5316SOL    HW216848   6.369   4.974   4.017
 5317SOL     OW16849   5.713   5.949   2.518
 5317SOL    HW116850   5.662   5.887   2.578
 5317SOL    HW216851   5.760   6.018   2.573
 5318SOL     OW16852   7.007   2.657   4.965
 5318SOL    HW116853   0.055   2.681   5.031
 5318SOL    HW216854   6.968   2.568   4.990
 5319SOL     OW16855   4.151   6.906   0.985
 5319SOL    HW116856   4.091   6.838   0.943
 5319SOL    HW216857   4.114   6.998   0.967
 5320SOL     OW16858   5.546   3.038   5.898
 5320SOL    HW116859   5.557   3.129   5.938
 5320SOL    HW216860   5.565   3.042   5.800
 5321SOL     OW16861   1.395   5.108   5.966
 5321SOL    HW116862   1.384   5.040   6.038
 5321SOL    HW216863   1.490   5.108   5.935
 5322SOL     OW16864   3.441   6.354   0.284
 5322SOL    HW116865   3.535   6.319   0.294
 5322SOL    HW216866   3.414   6.398   0.369
 5323SOL     OW16867   5.775   3.117   0.399
 5323SOL    HW116868   5.736   3.062   0.472
 5323SOL    HW216869   5.827   3.058   0.337
 5324SOL     OW16870   3.562   3.548   1.997
 5324SOL    HW116871   3.568   3.526   1.900
 5324SOL    HW216872   3.539   3.645   2.007
 5325SOL     OW16873   4.951   6.125   3.426
 5325SOL    HW116874   5.039   6.121   3.474
 5325SOL    HW216875   4.916   6.032   3.413
 5326SOL     OW16876   6.519   6.754   2.057
 5326SOL    HW116877   6.593   6.775   1.994
 5326SOL    HW216878   6.506   6.655   2.062
 5327SOL     OW16879   6.818   0.740   4.335
 5327SOL    HW116880   6.758   0.750   4.256
 5327SOL    HW216881   6.898   0.799   4.324
 5328SOL     OW16882   3.853   5.123   1.255
 5328SOL    HW116883   3.773   5.148   1.311
 5328SOL    HW216884   3.821   5.084   1.169
 5329SOL     OW16885   6.852   4.875   6.763
 5329SOL    HW116886   6.787   4.832   6.827
 5329SOL    HW216887   6.929   4.913   6.815
 5330SOL     OW16888   4.574   4.144   0.204
 5330SOL    HW116889   4.599   4.069   0.143
 5330SOL    HW216890   4.656   4.182   0.246
 5331SOL     OW16891   4.880   2.860   6.878
 5331SOL    HW116892   4.855   2.916   6.798
 5331SOL    HW216893   4.872   2.915   6.961
 5332SOL     OW16894   5.982   2.602   0.100
 5332SOL    HW116895   5.957   2.652   0.017
 5332SOL    HW216896   6.058   2.649   0.145
 5333SOL     OW16897   1.741   2.028   3.881
 5333SOL    HW116898   1.712   2.021   3.977
 5333SOL    HW216899   1.832   1.989   3.871
 5334SOL     OW16900   4.097   5.241   1.747
 5334SOL    HW116901   4.131   5.312   1.808
 5334SOL    HW216902   4.124   5.261   1.653
 5335SOL     OW16903   6.797   4.098   1.336
 5335SOL    HW116904   6.732   4.059   1.271
 5335SOL    HW216905   6.830   4.186   1.301
 5336SOL     OW16906   1.829   3.120   4.492
 5336SOL    HW116907   1.794   3.158   4.578
 5336SOL    HW216908   1.823   3.190   4.421
 5337SOL     OW16909   6.016   5.429   0.493
 5337SOL    HW116910   5.920   5.444   0.471
 5337SOL    HW216911   6.061   5.379   0.419
 5338SOL     OW16912   6.028   3.469   0.898
 5338SOL    HW116913   6.011   3.442   0.993
 5338SOL    HW216914   6.072   3.394   0.849
 5339SOL     OW16915   5.181   3.892   2.886
 5339SOL    HW116916   5.130   3.857   2.807
 5339SOL    HW216917   5.116   3.917   2.959
 5340SOL     OW16918   6.133   2.657   2.857
 5340SOL    HW116919   6.201   2.668   2.929
 5340SOL    HW216920   6.041   2.668   2.896
 5341SOL     OW16921   4.371   5.198   3.753
 5341SOL    HW116922   4.361   5.203   3.853
 5341SOL    HW216923   4.281   5.205   3.710
 5342SOL     OW16924   5.684   6.884   4.724
 5342SOL    HW116925   5.687   6.919   4.630
 5342SOL    HW216926   5.728   6.795   4.728
 5343SOL     OW16927   3.359   3.237   6.931
 5343SOL    HW116928   3.440   3.202   6.884
 5343SOL    HW216929   3.287   3.257   6.864
 5344SOL     OW16930   1.006   2.127   6.610
 5344SOL    HW116931   1.094   2.085   6.634
 5344SOL    HW216932   0.941   2.056   6.582
 5345SOL     OW16933   4.565   1.595   0.053
 5345SOL    HW116934   4.542   1.659   0.126
 5345SOL    HW216935   4.644   1.541   0.080
 5346SOL     OW16936   3.253   6.309   3.849
 5346SOL    HW116937   3.339   6.340   3.891
 5346SOL    HW216938   3.205   6.387   3.809
 5347SOL     OW16939   6.574   1.850   4.025
 5347SOL    HW116940   6.627   1.934   4.011
 5347SOL    HW216941   6.548   1.843   4.122
 5348SOL     OW16942   5.734   2.462   3.234
 5348SOL    HW116943   5.722   2.537   3.169
 5348SOL    HW216944   5.654   2.402   3.230
 5349SOL     OW16945   0.667   3.577   2.070
 5349SOL    HW116946   0.593   3.584   2.136
 5349SOL    HW216947   0.730   3.505   2.098
 5350SOL     OW16948   1.023   6.817   0.262
 5350SOL    HW116949   1.032   6.914   0.239
 5350SOL    HW216950   1.000   6.766   0.179
 5351SOL     OW16951   6.565   6.432   3.118
 5351SOL    HW116952   6.584   6.503   3.050
 5351SOL    HW216953   6.474   6.447   3.157
 5352SOL     OW16954   1.364   3.241   5.358
 5352SOL    HW116955   1.339   3.302   5.283
 5352SOL    HW216956   1.403   3.294   5.433
 5353SOL     OW16957   3.894   5.346   3.527
 5353SOL    HW116958   3.982   5.312   3.494
 5353SOL    HW216959   3.908   5.399   3.610
 5354SOL     OW16960   4.767   5.898   0.691
 5354SOL    HW116961   4.670   5.907   0.668
 5354SOL    HW216962   4.777   5.884   0.790
 5355SOL     OW16963   5.333   4.619   5.021
 5355SOL    HW116964   5.377   4.538   4.984
 5355SOL    HW216965   5.368   4.700   4.974
 5356SOL     OW16966   0.455   5.025   0.648
 5356SOL    HW116967   0.424   4.958   0.581
 5356SOL    HW216968   0.376   5.074   0.685
 5357SOL     OW16969   5.783   3.438   2.643
 5357SOL    HW116970   5.793   3.475   2.736
 5357SOL    HW216971   5.825   3.501   2.578
 5358SOL     OW16972   4.132   1.545   0.091
 5358SOL    HW116973   4.180   1.504   0.169
 5358SOL    HW216974   4.162   1.501   0.007
 5359SOL     OW16975   3.729   2.659   6.952
 5359SOL    HW116976   3.660   2.674   6.882
 5359SOL    HW216977   3.795   2.591   6.921
 5360SOL     OW16978   5.697   4.650   3.806
 5360SOL    HW116979   5.707   4.556   3.840
 5360SOL    HW216980   5.756   4.662   3.726
 5361SOL     OW16981   2.500   5.549   2.440
 5361SOL    HW116982   2.499   5.480   2.513
 5361SOL    HW216983   2.411   5.551   2.394
 5362SOL     OW16984   5.295   0.815   2.113
 5362SOL    HW116985   5.204   0.783   2.140
 5362SOL    HW216986   5.296   0.831   2.014
 5363SOL     OW16987   5.554   5.565   3.108
 5363SOL    HW116988   5.526   5.650   3.062
 5363SOL    HW216989   5.632   5.584   3.167
 5364SOL     OW16990   4.902   1.313   2.726
 5364SOL    HW116991   4.921   1.299   2.823
 5364SOL    HW216992   4.881   1.409   2.709
 5365SOL     OW16993   3.246   2.955   3.963
 5365SOL    HW116994   3.225   2.986   3.871
 5365SOL    HW216995   3.174   2.985   4.026
 5366SOL     OW16996   6.201   6.027   2.580
 5366SOL    HW116997   6.161   5.971   2.652
 5366SOL    HW216998   6.206   6.122   2.611
 5367SOL     OW16999   6.440   6.113   1.715
 5367SOL    HW117000   6.508   6.041   1.730
 5367SOL    HW217001   6.414   6.153   1.803
 5368SOL     OW17002   6.477   5.813   4.021
 5368SOL    HW117003   6.407   5.871   3.980
 5368SOL    HW217004   6.441   5.770   4.103
 5369SOL     OW17005   3.175   5.304   3.045
 5369SOL    HW117006   3.078   5.327   3.041
 5369SOL    HW217007   3.201   5.254   2.962
 5370SOL     OW17008   1.680   3.693   0.746
 5370SOL    HW117009   1.661   3.739   0.659
 5370SOL    HW217010   1.599   3.643   0.776
 5371SOL     OW17011   5.336   5.277   4.577
 5371SOL    HW117012   5.364   5.330   4.657
 5371SOL    HW217013   5.361   5.182   4.589
 5372SOL     OW17014   1.726   7.013   3.059
 5372SOL    HW117015   1.726   6.934   2.998
 5372SOL    HW217016   1.634   0.006   3.092
 5373SOL     OW17017   3.012   1.947   6.823
 5373SOL    HW117018   2.974   1.970   6.913
 5373SOL    HW217019   2.950   1.884   6.776
 5374SOL     OW17020   1.738   4.505   2.400
 5374SOL    HW117021   1.674   4.462   2.464
 5374SOL    HW217022   1.806   4.438   2.370
 5375SOL     OW17023   2.052   4.260   4.664
 5375SOL    HW117024   2.091   4.262   4.756
 5375SOL    HW217025   2.117   4.216   4.602
 5376SOL     OW17026   0.388   0.347   6.048
 5376SOL    HW117027   0.361   0.256   6.018
 5376SOL    HW217028   0.451   0.387   5.981
 5377SOL     OW17029   1.889   0.958   3.145
 5377SOL    HW117030   1.887   0.972   3.244
 5377SOL    HW217031   1.907   0.862   3.125
 5378SOL     OW17032   4.932   0.930   2.414
 5378SOL    HW117033   4.903   1.023   2.435
 5378SOL    HW217034   4.984   0.929   2.329
 5379SOL     OW17035   1.787   2.039   5.369
 5379SOL    HW117036   1.854   2.095   5.417
 5379SOL    HW217037   1.822   2.014   5.279
 5380SOL     OW17038   4.659   6.501   1.595
 5380SOL    HW117039   4.662   6.566   1.671
 5380SOL    HW217040   4.582   6.522   1.536
 5381SOL     OW17041   4.546   0.466   4.309
 5381SOL    HW117042   4.563   0.514   4.395
 5381SOL    HW217043   4.485   0.520   4.252
 5382SOL     OW17044   4.612   1.266   1.400
 5382SOL    HW117045   4.621   1.349   1.457
 5382SOL    HW217046   4.672   1.273   1.321
 5383SOL     OW17047   2.428   2.491   4.539
 5383SOL    HW117048   2.389   2.485   4.631
 5383SOL    HW217049   2.488   2.571   4.534
 5384SOL     OW17050   5.758   5.276   4.747
 5384SOL    HW117051   5.794   5.294   4.656
 5384SOL    HW217052   5.833   5.263   4.812
 5385SOL     OW17053   3.913   3.186   6.242
 5385SOL    HW117054   3.983   3.257   6.235
 5385SOL    HW217055   3.880   3.181   6.336
 5386SOL     OW17056   5.438   4.691   4.593
 5386SOL    HW117057   5.356   4.743   4.572
 5386SOL    HW217058   5.437   4.605   4.543
 5387SOL     OW17059   1.287   1.755   3.747
 5387SOL    HW117060   1.332   1.714   3.668
 5387SOL    HW217061   1.352   1.761   3.823
 5388SOL     OW17062   0.606   6.552   2.480
 5388SOL    HW117063   0.673   6.574   2.550
 5388SOL    HW217064   0.527   6.613   2.489
 5389SOL     OW17065   4.662   2.083   4.106
 5389SOL    HW117066   4.681   1.989   4.075
 5389SOL    HW217067   4.564   2.097   4.111
 5390SOL     OW17068   0.330   2.783   3.230
 5390SOL    HW117069   0.358   2.695   3.268
 5390SOL    HW217070   0.310   2.773   3.133
 5391SOL     OW17071   3.067   2.965   0.747
 5391SOL    HW117072   3.048   3.038   0.812
 5391SOL    HW217073   3.070   2.878   0.796
 5392SOL     OW17074   5.450   1.298   3.855
 5392SOL    HW117075   5.374   1.270   3.796
 5392SOL    HW217076   5.519   1.346   3.801
 5393SOL     OW17077   4.679   2.019   4.710
 5393SOL    HW117078   4.744   1.969   4.653
 5393SOL    HW217079   4.708   2.016   4.805
 5394SOL     OW17080   1.321   1.960   1.746
 5394SOL    HW117081   1.335   1.903   1.665
 5394SOL    HW217082   1.232   1.939   1.787
 5395SOL     OW17083   6.574   1.810   0.521
 5395SOL    HW117084   6.531   1.896   0.493
 5395SOL    HW217085   6.667   1.806   0.484
 5396SOL     OW17086   4.737   3.947   0.364
 5396SOL    HW117087   4.749   4.043   0.386
 5396SOL    HW217088   4.728   3.894   0.448
 5397SOL     OW17089   0.316   1.288   2.462
 5397SOL    HW117090   0.222   1.256   2.449
 5397SOL    HW217091   0.375   1.210   2.485
 5398SOL     OW17092   6.009   1.914   2.515
 5398SOL    HW117093   6.021   2.008   2.482
 5398SOL    HW217094   5.987   1.854   2.438
 5399SOL     OW17095   1.754   1.896   0.381
 5399SOL    HW117096   1.711   1.805   0.385
 5399SOL    HW217097   1.816   1.906   0.459
 5400SOL     OW17098   4.815   3.305   1.808
 5400SOL    HW117099   4.811   3.235   1.880
 5400SOL    HW217100   4.769   3.271   1.726
 5401SOL     OW17101   5.956   2.591   1.442
 5401SOL    HW117102   5.915   2.539   1.367
 5401SOL    HW217103   5.922   2.685   1.439
 5402SOL     OW17104   1.972   6.605   2.004
 5402SOL    HW117105   1.949   6.660   2.085
 5402SOL    HW217106   2.061   6.633   1.968
 5403SOL     OW17107   5.170   3.080   7.017
 5403SOL    HW117108   5.187   3.145   0.068
 5403SOL    HW217109   5.140   3.130   6.936
 5404SOL     OW17110   5.890   0.575   0.149
 5404SOL    HW117111   5.875   0.648   0.216
 5404SOL    HW217112   5.938   0.612   0.070
 5405SOL     OW17113   0.371   5.394   0.508
 5405SOL    HW117114   0.350   5.300   0.533
 5405SOL    HW217115   0.412   5.441   0.586
 5406SOL     OW17116   2.596   0.960   6.243
 5406SOL    HW117117   2.554   0.951   6.333
 5406SOL    HW217118   2.528   0.990   6.177
 5407SOL     OW17119   1.969   0.107   2.930
 5407SOL    HW117120   1.971   0.107   2.830
 5407SOL    HW217121   1.884   0.064   2.961
 5408SOL     OW17122   2.888   1.320   4.362
 5408SOL    HW117123   2.795   1.309   4.325
 5408SOL    HW217124   2.935   1.394   4.313
 5409SOL     OW17125   0.813   3.359   2.197
 5409SOL    HW117126   0.818   3.335   2.295
 5409SOL    HW217127   0.724   3.332   2.161
 5410SOL     OW17128   0.796   2.655   1.069
 5410SOL    HW117129   0.883   2.625   1.107
 5410SOL    HW217130   0.785   2.753   1.083
 5411SOL     OW17131   3.307   5.417   0.102
 5411SOL    HW117132   3.281   5.339   0.158
 5411SOL    HW217133   3.254   5.497   0.128
 5412SOL     OW17134   0.344   2.039   5.932
 5412SOL    HW117135   0.316   2.104   6.003
 5412SOL    HW217136   0.363   2.089   5.847
 5413SOL     OW17137   0.121   6.250   4.463
 5413SOL    HW117138   0.066   6.283   4.385
 5413SOL    HW217139   0.061   6.235   4.541
 5414SOL     OW17140   5.363   4.825   5.319
 5414SOL    HW117141   5.305   4.745   5.305
 5414SOL    HW217142   5.448   4.814   5.268
 5415SOL     OW17143   4.270   0.962   0.532
 5415SOL    HW117144   4.171   0.960   0.541
 5415SOL    HW217145   4.298   1.044   0.482
 5416SOL     OW17146   3.194   5.923   6.650
 5416SOL    HW117147   3.214   5.891   6.558
 5416SOL    HW217148   3.099   5.953   6.656
 5417SOL     OW17149   4.393   0.057   4.587
 5417SOL    HW117150   4.345   6.995   4.570
 5417SOL    HW217151   4.437   0.088   4.502
 5418SOL     OW17152   0.018   3.325   4.996
 5418SOL    HW117153   0.012   3.269   4.913
 5418SOL    HW217154   0.057   3.414   4.974
 5419SOL     OW17155   4.648   0.366   5.667
 5419SOL    HW117156   4.643   0.440   5.734
 5419SOL    HW217157   4.592   0.289   5.697
 5420SOL     OW17158   0.824   1.307   2.147
 5420SOL    HW117159   0.879   1.380   2.106
 5420SOL    HW217160   0.779   1.254   2.075
 5421SOL     OW17161   3.826   4.849   2.144
 5421SOL    HW117162   3.770   4.804   2.074
 5421SOL    HW217163   3.870   4.929   2.104
 5422SOL     OW17164   2.524   5.136   3.674
 5422SOL    HW117165   2.437   5.093   3.696
 5422SOL    HW217166   2.599   5.083   3.715
 5423SOL     OW17167   5.457   6.358   2.425
 5423SOL    HW117168   5.385   6.372   2.357
 5423SOL    HW217169   5.528   6.428   2.413
 5424SOL     OW17170   4.255   3.912   5.547
 5424SOL    HW117171   4.279   4.009   5.541
 5424SOL    HW217172   4.321   3.857   5.497
 5425SOL     OW17173   1.402   3.838   5.806
 5425SOL    HW117174   1.421   3.822   5.902
 5425SOL    HW217175   1.453   3.773   5.750
 5426SOL     OW17176   6.380   5.629   1.403
 5426SOL    HW117177   6.477   5.614   1.390
 5426SOL    HW217178   6.328   5.550   1.371
 5427SOL     OW17179   4.162   2.623   6.402
 5427SOL    HW117180   4.136   2.647   6.308
 5427SOL    HW217181   4.251   2.579   6.403
 5428SOL     OW17182   5.784   5.694   2.240
 5428SOL    HW117183   5.828   5.644   2.165
 5428SOL    HW217184   5.797   5.643   2.325
 5429SOL     OW17185   3.412   0.332   5.180
 5429SOL    HW117186   3.459   0.364   5.098
 5429SOL    HW217187   3.404   0.408   5.246
 5430SOL     OW17188   2.845   3.877   5.377
 5430SOL    HW117189   2.890   3.844   5.295
 5430SOL    HW217190   2.746   3.874   5.364
 5431SOL     OW17191   3.963   4.248   0.545
 5431SOL    HW117192   3.948   4.302   0.462
 5431SOL    HW217193   3.896   4.173   0.548
 5432SOL     OW17194   0.327   5.594   6.625
 5432SOL    HW117195   0.267   5.612   6.702
 5432SOL    HW217196   0.422   5.586   6.657
 5433SOL     OW17197   2.296   0.733   1.556
 5433SOL    HW117198   2.213   0.781   1.584
 5433SOL    HW217199   2.376   0.780   1.594
 5434SOL     OW17200   5.299   1.052   5.286
 5434SOL    HW117201   5.227   1.120   5.298
 5434SOL    HW217202   5.287   1.007   5.197
 5435SOL     OW17203   6.483   4.769   0.782
 5435SOL    HW117204   6.580   4.747   0.777
 5435SOL    HW217205   6.471   4.864   0.810
 5436SOL     OW17206   0.763   4.045   3.287
 5436SOL    HW117207   0.839   4.106   3.307
 5436SOL    HW217208   0.702   4.088   3.220
 5437SOL     OW17209   4.041   5.519   1.587
 5437SOL    HW117210   3.978   5.551   1.658
 5437SOL    HW217211   4.134   5.547   1.610
 5438SOL     OW17212   5.053   5.768   2.359
 5438SOL    HW117213   5.151   5.776   2.374
 5438SOL    HW217214   5.035   5.743   2.264
 5439SOL     OW17215   1.062   4.580   1.804
 5439SOL    HW117216   1.039   4.598   1.900
 5439SOL    HW217217   1.132   4.645   1.775
 5440SOL     OW17218   6.090   6.941   3.775
 5440SOL    HW117219   6.129   6.856   3.740
 5440SOL    HW217220   6.152   6.982   3.842
 5441SOL     OW17221   5.823   3.046   3.842
 5441SOL    HW117222   5.742   3.083   3.796
 5441SOL    HW217223   5.811   2.949   3.860
 5442SOL     OW17224   3.909   0.067   6.008
 5442SOL    HW117225   3.892   0.077   6.106
 5442SOL    HW217226   3.824   0.082   5.958
 5443SOL     OW17227   4.372   0.967   3.332
 5443SOL    HW117228   4.387   1.036   3.403
 5443SOL    HW217229   4.335   1.011   3.250
 5444SOL     OW17230   6.226   1.423   5.131
 5444SOL    HW117231   6.254   1.343   5.078
 5444SOL    HW217232   6.138   1.405   5.174
 5445SOL     OW17233   6.100   6.165   4.989
 5445SOL    HW117234   6.032   6.189   5.059
 5445SOL    HW217235   6.137   6.075   5.008
 5446SOL     OW17236   7.020   4.439   6.097
 5446SOL    HW117237   0.080   4.492   6.109
 5446SOL    HW217238   0.009   4.374   6.021
 5447SOL     OW17239   0.382   2.286   0.944
 5447SOL    HW117240   0.407   2.266   1.039
 5447SOL    HW217241   0.286   2.316   0.941
 5448SOL     OW17242   4.933   4.813   2.858
 5448SOL    HW117243   5.023   4.856   2.854
 5448SOL    HW217244   4.864   4.884   2.875
 5449SOL     OW17245   3.170   0.801   2.077
 5449SOL    HW117246   3.168   0.896   2.046
 5449SOL    HW217247   3.233   0.748   2.019
 5450SOL     OW17248   4.679   5.376   1.335
 5450SOL    HW117249   4.661   5.375   1.434
 5450SOL    HW217250   4.753   5.313   1.314
 5451SOL     OW17251   6.606   0.074   2.851
 5451SOL    HW117252   6.557   0.155   2.817
 5451SOL    HW217253   6.666   0.100   2.926
 5452SOL     OW17254   2.150   4.435   2.034
 5452SOL    HW117255   2.153   4.465   2.129
 5452SOL    HW217256   2.231   4.469   1.986
 5453SOL     OW17257   5.823   3.858   2.986
 5453SOL    HW117258   5.744   3.810   3.024
 5453SOL    HW217259   5.804   3.882   2.891
 5454SOL     OW17260   6.088   4.341   2.607
 5454SOL    HW117261   6.079   4.368   2.703
 5454SOL    HW217262   6.162   4.393   2.564
 5455SOL     OW17263   2.066   1.665   3.916
 5455SOL    HW117264   2.132   1.643   3.844
 5455SOL    HW217265   2.091   1.616   4.000
 5456SOL     OW17266   5.437   1.734   0.990
 5456SOL    HW117267   5.505   1.731   1.063
 5456SOL    HW217268   5.415   1.830   0.968
 5457SOL     OW17269   5.701   1.209   6.881
 5457SOL    HW117270   5.647   1.200   6.798
 5457SOL    HW217271   5.651   1.264   6.948
 5458SOL     OW17272   5.985   3.284   0.246
 5458SOL    HW117273   5.892   3.261   0.272
 5458SOL    HW217274   6.050   3.239   0.307
 5459SOL     OW17275   1.758   3.184   5.516
 5459SOL    HW117276   1.858   3.181   5.507
 5459SOL    HW217277   1.723   3.092   5.532
 5460SOL     OW17278   1.154   1.109   1.346
 5460SOL    HW117279   1.122   1.041   1.413
 5460SOL    HW217280   1.076   1.142   1.293
 5461SOL     OW17281   6.227   1.094   5.308
 5461SOL    HW117282   6.153   1.153   5.274
 5461SOL    HW217283   6.280   1.061   5.230
 5462SOL     OW17284   4.537   3.808   6.575
 5462SOL    HW117285   4.579   3.722   6.546
 5462SOL    HW217286   4.584   3.843   6.655
 5463SOL     OW17287   0.911   2.964   6.430
 5463SOL    HW117288   0.841   2.893   6.435
 5463SOL    HW217289   0.889   3.038   6.494
 5464SOL     OW17290   1.146   5.702   5.776
 5464SOL    HW117291   1.215   5.630   5.786
 5464SOL    HW217292   1.092   5.709   5.860
 5465SOL     OW17293   6.914   6.456   4.353
 5465SOL    HW117294   6.895   6.413   4.266
 5465SOL    HW217295   6.847   6.427   4.421
 5466SOL     OW17296   5.962   2.789   5.360
 5466SOL    HW117297   6.040   2.850   5.353
 5466SOL    HW217298   5.973   2.714   5.295
 5467SOL     OW17299   4.764   2.677   4.332
 5467SOL    HW117300   4.689   2.638   4.385
 5467SOL    HW217301   4.766   2.635   4.242
 5468SOL     OW17302   6.893   1.187   1.312
 5468SOL    HW117303   6.809   1.237   1.333
 5468SOL    HW217304   6.923   1.137   1.394
 5469SOL     OW17305   3.232   6.958   4.942
 5469SOL    HW117306   3.173   6.947   4.862
 5469SOL    HW217307   3.328   6.957   4.913
 5470SOL     OW17308   3.407   5.221   3.226
 5470SOL    HW117309   3.491   5.275   3.221
 5470SOL    HW217310   3.336   5.266   3.173
 5471SOL     OW17311   4.368   0.521   3.366
 5471SOL    HW117312   4.317   0.595   3.409
 5471SOL    HW217313   4.464   0.527   3.391
 5472SOL     OW17314   2.141   2.452   6.682
 5472SOL    HW117315   2.106   2.481   6.771
 5472SOL    HW217316   2.240   2.441   6.686
 5473SOL     OW17317   2.783   4.457   1.612
 5473SOL    HW117318   2.836   4.460   1.696
 5473SOL    HW217319   2.838   4.417   1.539
 5474SOL     OW17320   0.725   5.080   2.928
 5474SOL    HW117321   0.632   5.042   2.929
 5474SOL    HW217322   0.759   5.082   2.834
 5475SOL     OW17323   0.286   1.575   5.414
 5475SOL    HW117324   0.279   1.526   5.500
 5475SOL    HW217325   0.264   1.672   5.429
 5476SOL     OW17326   2.539   6.941   5.490
 5476SOL    HW117327   2.590   6.886   5.557
 5476SOL    HW217328   2.500   6.882   5.420
 5477SOL     OW17329   1.248   4.451   4.452
 5477SOL    HW117330   1.171   4.503   4.415
 5477SOL    HW217331   1.254   4.363   4.406
 5478SOL     OW17332   5.284   4.561   5.761
 5478SOL    HW117333   5.277   4.656   5.731
 5478SOL    HW217334   5.380   4.540   5.781
 5479SOL     OW17335   4.632   1.233   5.018
 5479SOL    HW117336   4.675   1.154   4.977
 5479SOL    HW217337   4.659   1.316   4.969
 5480SOL     OW17338   0.118   4.146   4.058
 5480SOL    HW117339   0.114   4.063   4.003
 5480SOL    HW217340   0.082   4.127   4.149
 5481SOL     OW17341   4.199   0.941   6.588
 5481SOL    HW117342   4.244   1.000   6.654
 5481SOL    HW217343   4.266   0.879   6.546
 5482SOL     OW17344   4.937   2.596   1.357
 5482SOL    HW117345   5.019   2.539   1.351
 5482SOL    HW217346   4.863   2.554   1.304
 5483SOL     OW17347   6.979   3.022   6.117
 5483SOL    HW117348   6.966   3.060   6.209
 5483SOL    HW217349   0.016   3.081   6.065
 5484SOL     OW17350   6.010   6.883   4.362
 5484SOL    HW117351   6.066   6.863   4.281
 5484SOL    HW217352   6.031   6.817   4.434
 5485SOL     OW17353   3.342   6.952   5.227
 5485SOL    HW117354   3.269   6.920   5.288
 5485SOL    HW217355   3.306   6.959   5.134
 5486SOL     OW17356   0.411   0.817   3.170
 5486SOL    HW117357   0.479   0.823   3.098
 5486SOL    HW217358   0.346   0.744   3.148
 5487SOL     OW17359   5.088   5.525   0.693
 5487SOL    HW117360   4.998   5.507   0.733
 5487SOL    HW217361   5.104   5.624   0.692
 5488SOL     OW17362   5.561   1.213   6.650
 5488SOL    HW117363   5.506   1.283   6.605
 5488SOL    HW217364   5.598   1.151   6.582
 5489SOL     OW17365   1.264   3.763   2.885
 5489SOL    HW117366   1.322   3.813   2.820
 5489SOL    HW217367   1.301   3.774   2.978
 5490SOL     OW17368   2.021   1.489   0.218
 5490SOL    HW117369   2.052   1.560   0.281
 5490SOL    HW217370   2.099   1.457   0.163
 5491SOL     OW17371   1.129   4.880   0.707
 5491SOL    HW117372   1.109   4.831   0.622
 5491SOL    HW217373   1.218   4.852   0.742
 5492SOL     OW17374   1.033   1.545   6.076
 5492SOL    HW117375   1.082   1.632   6.084
 5492SOL    HW217376   0.939   1.561   6.047
 5493SOL     OW17377   3.400   3.355   0.137
 5493SOL    HW117378   3.498   3.370   0.125
 5493SOL    HW217379   3.360   3.327   0.050
 5494SOL     OW17380   5.815   3.009   2.156
 5494SOL    HW117381   5.899   3.030   2.205
 5494SOL    HW217382   5.788   2.914   2.174
 5495SOL     OW17383   3.662   3.298   2.428
 5495SOL    HW117384   3.730   3.269   2.495
 5495SOL    HW217385   3.668   3.240   2.347
 5496SOL     OW17386   4.020   5.965   1.713
 5496SOL    HW117387   4.007   6.012   1.625
 5496SOL    HW217388   4.036   6.033   1.785
 5497SOL     OW17389   6.682   0.103   1.804
 5497SOL    HW117390   6.694   0.198   1.835
 5497SOL    HW217391   6.631   0.103   1.717
 5498SOL     OW17392   3.992   1.205   5.656
 5498SOL    HW117393   4.020   1.278   5.593
 5498SOL    HW217394   4.052   1.205   5.736
 5499SOL     OW17395   6.834   1.217   2.992
 5499SOL    HW117396   6.736   1.205   3.009
 5499SOL    HW217397   6.857   1.314   2.995
 5500SOL     OW17398   2.359   5.535   1.798
 5500SOL    HW117399   2.311   5.542   1.711
 5500SOL    HW217400   2.325   5.606   1.861
 5501SOL     OW17401   2.766   6.874   2.514
 5501SOL    HW117402   2.861   6.857   2.488
 5501SOL    HW217403   2.739   6.965   2.483
 5502SOL     OW17404   5.112   3.803   5.940
 5502SOL    HW117405   5.206   3.818   5.910
 5502SOL    HW217406   5.112   3.770   6.034
 5503SOL     OW17407   1.299   5.336   3.528
 5503SOL    HW117408   1.210   5.346   3.573
 5503SOL    HW217409   1.284   5.303   3.434
 5504SOL     OW17410   3.248   2.043   4.979
 5504SOL    HW117411   3.206   2.133   4.987
 5504SOL    HW217412   3.342   2.052   4.948
 5505SOL     OW17413   2.701   5.396   5.627
 5505SOL    HW117414   2.711   5.412   5.725
 5505SOL    HW217415   2.787   5.420   5.581
 5506SOL     OW17416   5.929   0.356   5.626
 5506SOL    HW117417   5.877   0.347   5.541
 5506SOL    HW217418   6.014   0.304   5.620
 5507SOL     OW17419   2.202   6.135   3.861
 5507SOL    HW117420   2.132   6.114   3.930
 5507SOL    HW217421   2.292   6.130   3.903
 5508SOL     OW17422   3.061   0.942   6.639
 5508SOL    HW117423   3.077   0.910   6.546
 5508SOL    HW217424   3.096   0.875   6.705
 5509SOL     OW17425   5.701   6.608   6.728
 5509SOL    HW117426   5.703   6.514   6.762
 5509SOL    HW217427   5.792   6.633   6.694
 5510SOL     OW17428   5.282   0.993   5.907
 5510SOL    HW117429   5.218   1.069   5.923
 5510SOL    HW217430   5.374   1.029   5.897
 5511SOL     OW17431   0.714   0.874   2.453
 5511SOL    HW117432   0.699   0.970   2.430
 5511SOL    HW217433   0.804   0.846   2.420
 5512SOL     OW17434   1.446   0.452   0.289
 5512SOL    HW117435   1.490   0.363   0.300
 5512SOL    HW217436   1.368   0.459   0.352
 5513SOL     OW17437   4.674   4.257   4.388
 5513SOL    HW117438   4.591   4.203   4.374
 5513SOL    HW217439   4.754   4.197   4.383
 5514SOL     OW17440   5.753   4.609   2.177
 5514SOL    HW117441   5.770   4.706   2.160
 5514SOL    HW217442   5.748   4.592   2.275
 5515SOL     OW17443   6.850   2.971   1.391
 5515SOL    HW117444   6.921   2.918   1.344
 5515SOL    HW217445   6.762   2.958   1.345
 5516SOL     OW17446   1.144   3.571   6.428
 5516SOL    HW117447   1.182   3.567   6.335
 5516SOL    HW217448   1.170   3.657   6.471
 5517SOL     OW17449   2.334   1.859   1.871
 5517SOL    HW117450   2.339   1.940   1.813
 5517SOL    HW217451   2.331   1.887   1.967
 5518SOL     OW17452   6.234   4.840   5.229
 5518SOL    HW117453   6.268   4.760   5.179
 5518SOL    HW217454   6.226   4.918   5.166
 5519SOL     OW17455   5.638   4.207   4.338
 5519SOL    HW117456   5.578   4.127   4.339
 5519SOL    HW217457   5.697   4.206   4.419
 5520SOL     OW17458   1.624   3.979   1.852
 5520SOL    HW117459   1.661   4.066   1.818
 5520SOL    HW217460   1.697   3.927   1.896
 5521SOL     OW17461   5.988   5.405   1.249
 5521SOL    HW117462   5.939   5.351   1.317
 5521SOL    HW217463   5.988   5.501   1.277
 5522SOL     OW17464   2.260   3.638   1.634
 5522SOL    HW117465   2.289   3.556   1.683
 5522SOL    HW217466   2.337   3.675   1.582
 5523SOL     OW17467   2.770   0.265   2.248
 5523SOL    HW117468   2.701   0.306   2.187
 5523SOL    HW217469   2.811   0.335   2.305
 5524SOL     OW17470   0.067   5.499   6.572
 5524SOL    HW117471   0.013   5.448   6.640
 5524SOL    HW217472   0.160   5.512   6.607
 5525SOL     OW17473   6.646   5.633   5.164
 5525SOL    HW117474   6.733   5.600   5.127
 5525SOL    HW217475   6.607   5.701   5.102
 5526SOL     OW17476   6.143   3.184   4.566
 5526SOL    HW117477   6.131   3.270   4.616
 5526SOL    HW217478   6.177   3.204   4.474
 5527SOL     OW17479   1.659   3.661   1.458
 5527SOL    HW117480   1.627   3.676   1.365
 5527SOL    HW217481   1.601   3.712   1.522
 5528SOL     OW17482   0.773   3.517   4.016
 5528SOL    HW117483   0.760   3.468   3.929
 5528SOL    HW217484   0.796   3.612   3.997
 5529SOL     OW17485   2.507   1.598   4.775
 5529SOL    HW117486   2.534   1.658   4.699
 5529SOL    HW217487   2.578   1.601   4.846
 5530SOL     OW17488   1.048   2.800   0.697
 5530SOL    HW117489   0.971   2.751   0.738
 5530SOL    HW217490   1.102   2.737   0.642
 5531SOL     OW17491   3.643   2.972   5.903
 5531SOL    HW117492   3.629   2.998   5.808
 5531SOL    HW217493   3.699   2.889   5.907
 5532SOL     OW17494   2.628   1.649   1.336
 5532SOL    HW117495   2.634   1.749   1.330
 5532SOL    HW217496   2.703   1.615   1.393
 5533SOL     OW17497   3.876   1.027   1.265
 5533SOL    HW117498   3.907   1.103   1.322
 5533SOL    HW217499   3.941   0.951   1.272
 5534SOL     OW17500   7.004   4.217   6.707
 5534SOL    HW117501   6.953   4.133   6.727
 5534SOL    HW217502   7.020   4.267   6.793
 5535SOL     OW17503   6.218   3.138   2.618
 5535SOL    HW117504   6.199   3.052   2.665
 5535SOL    HW217505   6.241   3.120   2.523
 5536SOL     OW17506   2.549   0.417   3.907
 5536SOL    HW117507   2.626   0.430   3.845
 5536SOL    HW217508   2.559   0.330   3.955
 5537SOL     OW17509   4.339   0.314   5.305
 5537SOL    HW117510   4.426   0.312   5.257
 5537SOL    HW217511   4.265   0.328   5.239
 5538SOL     OW17512   4.407   1.897   6.856
 5538SOL    HW117513   4.317   1.865   6.887
 5538SOL    HW217514   4.427   1.858   6.766
 5539SOL     OW17515   2.799   6.717   0.872
 5539SOL    HW117516   2.758   6.769   0.947
 5539SOL    HW217517   2.896   6.739   0.864
 5540SOL     OW17518   5.092   1.292   0.153
 5540SOL    HW117519   5.020   1.259   0.092
 5540SOL    HW217520   5.073   1.388   0.177
 5541SOL     OW17521   4.172   3.713   6.751
 5541SOL    HW117522   4.231   3.672   6.821
 5541SOL    HW217523   4.208   3.693   6.660
 5542SOL     OW17524   5.049   4.450   6.263
 5542SOL    HW117525   5.148   4.459   6.259
 5542SOL    HW217526   5.015   4.423   6.172
 5543SOL     OW17527   1.640   0.433   0.958
 5543SOL    HW117528   1.603   0.471   1.043
 5543SOL    HW217529   1.566   0.409   0.897
 5544SOL     OW17530   4.190   5.550   6.065
 5544SOL    HW117531   4.169   5.646   6.050
 5544SOL    HW217532   4.144   5.495   5.995
 5545SOL     OW17533   4.402   0.577   3.102
 5545SOL    HW117534   4.314   0.555   3.060
 5545SOL    HW217535   4.394   0.574   3.201
 5546SOL     OW17536   0.164   6.187   5.639
 5546SOL    HW117537   0.163   6.273   5.588
 5546SOL    HW217538   0.258   6.158   5.655
 5547SOL     OW17539   5.411   2.084   4.816
 5547SOL    HW117540   5.379   2.120   4.728
 5547SOL    HW217541   5.358   2.003   4.841
 5548SOL     OW17542   7.020   4.241   5.002
 5548SOL    HW117543   0.043   4.330   5.009
 5548SOL    HW217544   0.056   4.170   5.039
 5549SOL     OW17545   3.729   3.226   1.560
 5549SOL    HW117546   3.675   3.154   1.604
 5549SOL    HW217547   3.692   3.244   1.469
 5550SOL     OW17548   1.196   3.972   3.330
 5550SOL    HW117549   1.276   4.010   3.377
 5550SOL    HW217550   1.121   3.960   3.396
 5551SOL     OW17551   2.244   5.121   3.706
 5551SOL    HW117552   2.174   5.061   3.746
 5551SOL    HW217553   2.266   5.194   3.771
 5552SOL     OW17554   0.035   0.024   6.251
 5552SOL    HW117555   0.039   6.970   6.315
 5552SOL    HW217556   0.109   0.088   6.272
 5553SOL     OW17557   4.647   0.633   6.675
 5553SOL    HW117558   4.690   0.568   6.611
 5553SOL    HW217559   4.675   0.610   6.769
 5554SOL     OW17560   5.812   2.952   1.702
 5554SOL    HW117561   5.814   2.993   1.611
 5554SOL    HW217562   5.718   2.925   1.723
 5555SOL     OW17563   1.156   4.391   2.525
 5555SOL    HW117564   1.086   4.365   2.592
 5555SOL    HW217565   1.188   4.483   2.544
 5556SOL     OW17566   6.720   0.884   4.706
 5556SOL    HW117567   6.771   0.928   4.631
 5556SOL    HW217568   6.715   0.947   4.784
 5557SOL     OW17569   3.192   5.425   2.273
 5557SOL    HW117570   3.137   5.478   2.338
 5557SOL    HW217571   3.132   5.380   2.207
 5558SOL     OW17572   3.221   4.336   0.484
 5558SOL    HW117573   3.193   4.396   0.559
 5558SOL    HW217574   3.271   4.389   0.416
 5559SOL     OW17575   1.694   6.605   2.696
 5559SOL    HW117576   1.714   6.509   2.715
 5559SOL    HW217577   1.600   6.613   2.663
 5560SOL     OW17578   0.757   5.883   2.767
 5560SOL    HW117579   0.826   5.881   2.839
 5560SOL    HW217580   0.740   5.977   2.739
 5561SOL     OW17581   3.344   1.146   3.931
 5561SOL    HW117582   3.253   1.105   3.940
 5561SOL    HW217583   3.402   1.116   4.007
 5562SOL     OW17584   4.128   4.076   0.926
 5562SOL    HW117585   4.105   3.993   0.977
 5562SOL    HW217586   4.130   4.055   0.828
 5563SOL     OW17587   3.105   4.873   2.847
 5563SOL    HW117588   3.144   4.862   2.939
 5563SOL    HW217589   3.008   4.847   2.849
 5564SOL     OW17590   5.533   0.759   5.680
 5564SOL    HW117591   5.556   0.684   5.617
 5564SOL    HW217592   5.459   0.813   5.641
 5565SOL     OW17593   3.952   3.033   0.312
 5565SOL    HW117594   4.013   2.969   0.266
 5565SOL    HW217595   4.006   3.107   0.352
 5566SOL     OW17596   1.244   3.608   0.237
 5566SOL    HW117597   1.271   3.530   0.292
 5566SOL    HW217598   1.160   3.648   0.275
 5567SOL     OW17599   6.974   3.788   1.563
 5567SOL    HW117600   6.917   3.782   1.645
 5567SOL    HW217601   6.952   3.713   1.501
 5568SOL     OW17602   4.451   6.558   2.548
 5568SOL    HW117603   4.535   6.605   2.572
 5568SOL    HW217604   4.373   6.618   2.567
 5569SOL     OW17605   2.856   2.205   3.914
 5569SOL    HW117606   2.788   2.132   3.920
 5569SOL    HW217607   2.946   2.169   3.940
 5570SOL     OW17608   6.707   3.468   3.408
 5570SOL    HW117609   6.788   3.527   3.405
 5570SOL    HW217610   6.625   3.525   3.410
 5571SOL     OW17611   0.364   5.546   2.109
 5571SOL    HW117612   0.364   5.555   2.010
 5571SOL    HW217613   0.398   5.455   2.134
 5572SOL     OW17614   0.885   3.489   5.097
 5572SOL    HW117615   0.887   3.408   5.155
 5572SOL    HW217616   0.790   3.517   5.082
 5573SOL     OW17617   1.816   4.811   4.917
 5573SOL    HW117618   1.862   4.889   4.875
 5573SOL    HW217619   1.831   4.729   4.862
 5574SOL     OW17620   0.282   2.741   6.131
 5574SOL    HW117621   0.288   2.641   6.127
 5574SOL    HW217622   0.206   2.767   6.192
 5575SOL     OW17623   0.742   0.539   1.480
 5575SOL    HW117624   0.806   0.595   1.428
 5575SOL    HW217625   0.674   0.598   1.524
 5576SOL     OW17626   2.365   4.305   3.714
 5576SOL    HW117627   2.289   4.247   3.743
 5576SOL    HW217628   2.439   4.249   3.677
 5577SOL     OW17629   1.447   3.443   6.444
 5577SOL    HW117630   1.359   3.417   6.484
 5577SOL    HW217631   1.514   3.455   6.517
 5578SOL     OW17632   3.298   3.121   3.132
 5578SOL    HW117633   3.394   3.145   3.145
 5578SOL    HW217634   3.261   3.085   3.218
 5579SOL     OW17635   0.191   2.896   1.564
 5579SOL    HW117636   0.237   2.972   1.609
 5579SOL    HW217637   0.251   2.857   1.494
 5580SOL     OW17638   4.531   1.650   5.996
 5580SOL    HW117639   4.556   1.625   5.902
 5580SOL    HW217640   4.453   1.594   6.026
 5581SOL     OW17641   0.635   1.752   1.131
 5581SOL    HW117642   0.610   1.705   1.046
 5581SOL    HW217643   0.561   1.813   1.158
 5582SOL     OW17644   2.188   3.303   6.516
 5582SOL    HW117645   2.155   3.214   6.485
 5582SOL    HW217646   2.230   3.293   6.607
 5583SOL     OW17647   5.035   0.831   2.688
 5583SOL    HW117648   4.968   0.874   2.628
 5583SOL    HW217649   4.991   0.800   2.771
 5584SOL     OW17650   6.778   4.476   4.704
 5584SOL    HW117651   6.808   4.502   4.613
 5584SOL    HW217652   6.678   4.478   4.708
 5585SOL     OW17653   4.696   5.193   2.328
 5585SOL    HW117654   4.765   5.123   2.307
 5585SOL    HW217655   4.740   5.271   2.372
 5586SOL     OW17656   6.762   3.685   6.186
 5586SOL    HW117657   6.711   3.651   6.264
 5586SOL    HW217658   6.722   3.772   6.155
 5587SOL     OW17659   4.284   1.267   6.702
 5587SOL    HW117660   4.215   1.267   6.775
 5587SOL    HW217661   4.373   1.243   6.741
 5588SOL     OW17662   2.837   6.479   2.039
 5588SOL    HW117663   2.809   6.388   2.010
 5588SOL    HW217664   2.844   6.539   1.959
 5589SOL     OW17665   5.908   4.230   6.295
 5589SOL    HW117666   5.897   4.327   6.273
 5589SOL    HW217667   5.840   4.203   6.363
 5590SOL     OW17668   5.426   6.036   4.022
 5590SOL    HW117669   5.348   6.013   3.964
 5590SOL    HW217670   5.495   5.964   4.015
 5591SOL     OW17671   6.814   1.506   2.019
 5591SOL    HW117672   6.726   1.466   2.043
 5591SOL    HW217673   6.802   1.604   2.003
 5592SOL     OW17674   1.410   4.378   3.474
 5592SOL    HW117675   1.363   4.465   3.463
 5592SOL    HW217676   1.400   4.324   3.391
 5593SOL     OW17677   6.869   2.552   6.826
 5593SOL    HW117678   6.964   2.577   6.847
 5593SOL    HW217679   6.848   2.463   6.866
 5594SOL     OW17680   5.316   1.734   5.298
 5594SOL    HW117681   5.411   1.746   5.326
 5594SOL    HW217682   5.313   1.687   5.210
 5595SOL     OW17683   0.644   2.466   4.981
 5595SOL    HW117684   0.597   2.387   5.019
 5595SOL    HW217685   0.740   2.465   5.009
 5596SOL     OW17686   4.035   6.573   2.932
 5596SOL    HW117687   3.978   6.510   2.986
 5596SOL    HW217688   3.989   6.661   2.924
 5597SOL     OW17689   4.982   2.573   3.592
 5597SOL    HW117690   5.066   2.541   3.635
 5597SOL    HW217691   4.992   2.670   3.568
 5598SOL     OW17692   4.687   2.626   4.066
 5598SOL    HW117693   4.602   2.573   4.072
 5598SOL    HW217694   4.731   2.608   3.978
 5599SOL     OW17695   1.343   1.039   4.503
 5599SOL    HW117696   1.259   0.985   4.497
 5599SOL    HW217697   1.420   0.979   4.526
 5600SOL     OW17698   1.018   2.070   3.904
 5600SOL    HW117699   0.967   2.152   3.928
 5600SOL    HW217700   1.116   2.088   3.909
 5601SOL     OW17701   2.567   0.673   6.106
 5601SOL    HW117702   2.546   0.764   6.142
 5601SOL    HW217703   2.518   0.659   6.020
 5602SOL     OW17704   0.353   1.553   1.120
 5602SOL    HW117705   0.409   1.576   1.200
 5602SOL    HW217706   0.316   1.461   1.131
 5603SOL     OW17707   5.257   1.755   0.091
 5603SOL    HW117708   5.298   1.698   0.020
 5603SOL    HW217709   5.263   1.851   0.064
 5604SOL     OW17710   6.215   2.218   5.840
 5604SOL    HW117711   6.202   2.313   5.812
 5604SOL    HW217712   6.217   2.214   5.940
 5605SOL     OW17713   0.759   1.319   4.775
 5605SOL    HW117714   0.707   1.375   4.841
 5605SOL    HW217715   0.723   1.226   4.777
 5606SOL     OW17716   5.478   6.449   1.307
 5606SOL    HW117717   5.453   6.362   1.264
 5606SOL    HW217718   5.407   6.517   1.290
 5607SOL     OW17719   4.957   1.479   1.764
 5607SOL    HW117720   4.929   1.520   1.677
 5607SOL    HW217721   5.038   1.526   1.798
 5608SOL     OW17722   4.706   0.412   4.792
 5608SOL    HW117723   4.648   0.487   4.821
 5608SOL    HW217724   4.657   0.325   4.803
 5609SOL     OW17725   2.098   5.813   0.101
 5609SOL    HW117726   2.197   5.798   0.105
 5609SOL    HW217727   2.050   5.726   0.099
 5610SOL     OW17728   5.205   0.314   0.517
 5610SOL    HW117729   5.219   0.292   0.420
 5610SOL    HW217730   5.294   0.325   0.561
 5611SOL     OW17731   1.666   4.741   2.700
 5611SOL    HW117732   1.719   4.807   2.753
 5611SOL    HW217733   1.688   4.750   2.603
 5612SOL     OW17734   3.801   1.575   6.170
 5612SOL    HW117735   3.739   1.650   6.149
 5612SOL    HW217736   3.896   1.607   6.167
 5613SOL     OW17737   4.867   4.466   2.608
 5613SOL    HW117738   4.884   4.559   2.575
 5613SOL    HW217739   4.774   4.439   2.583
 5614SOL     OW17740   4.445   2.481   3.414
 5614SOL    HW117741   4.497   2.566   3.421
 5614SOL    HW217742   4.496   2.407   3.458
 5615SOL     OW17743   0.885   0.368   0.011
 5615SOL    HW117744   0.938   0.449   7.009
 5615SOL    HW217745   0.853   0.322   6.952
 5616SOL     OW17746   2.312   0.677   5.336
 5616SOL    HW117747   2.354   0.595   5.298
 5616SOL    HW217748   2.236   0.651   5.395
 5617SOL     OW17749   2.448   0.173   6.035
 5617SOL    HW117750   2.383   0.220   6.095
 5617SOL    HW217751   2.404   0.093   5.995
 5618SOL     OW17752   6.764   4.155   4.483
 5618SOL    HW117753   6.812   4.131   4.567
 5618SOL    HW217754   6.830   4.165   4.408
 5619SOL     OW17755   2.958   3.936   6.243
 5619SOL    HW117756   2.947   3.843   6.207
 5619SOL    HW217757   2.930   4.002   6.174
 5620SOL     OW17758   4.140   2.852   0.234
 5620SOL    HW117759   4.146   2.810   0.144
 5620SOL    HW217760   4.229   2.847   0.279
 5621SOL     OW17761   1.723   1.571   5.965
 5621SOL    HW117762   1.770   1.657   5.943
 5621SOL    HW217763   1.632   1.571   5.924
 5622SOL     OW17764   4.763   6.990   6.145
 5622SOL    HW117765   4.762   6.890   6.138
 5622SOL    HW217766   4.724   0.006   6.062
 5623SOL     OW17767   2.343   6.258   6.059
 5623SOL    HW117768   2.379   6.350   6.043
 5623SOL    HW217769   2.258   6.265   6.112
 5624SOL     OW17770   1.243   4.602   3.562
 5624SOL    HW117771   1.195   4.631   3.645
 5624SOL    HW217772   1.191   4.529   3.517
 5625SOL     OW17773   6.240   2.641   4.548
 5625SOL    HW117774   6.337   2.662   4.536
 5625SOL    HW217775   6.185   2.709   4.499
 5626SOL     OW17776   3.054   6.946   4.732
 5626SOL    HW117777   2.980   6.997   4.689
 5626SOL    HW217778   3.016   6.888   4.805
 5627SOL     OW17779   1.820   5.777   1.552
 5627SOL    HW117780   1.819   5.791   1.453
 5627SOL    HW217781   1.779   5.689   1.573
 5628SOL     OW17782   1.829   1.972   5.992
 5628SOL    HW117783   1.908   1.960   5.932
 5628SOL    HW217784   1.848   1.931   6.081
 5629SOL     OW17785   3.050   3.835   2.133
 5629SOL    HW117786   3.097   3.922   2.124
 5629SOL    HW217787   3.014   3.806   2.044
 5630SOL     OW17788   1.365   4.663   0.834
 5630SOL    HW117789   1.401   4.670   0.741
 5630SOL    HW217790   1.409   4.731   0.892
 5631SOL     OW17791   4.286   1.793   0.260
 5631SOL    HW117792   4.296   1.854   0.182
 5631SOL    HW217793   4.191   1.794   0.292
 5632SOL     OW17794   4.283   3.880   6.512
 5632SOL    HW117795   4.375   3.842   6.522
 5632SOL    HW217796   4.280   3.972   6.551
 5633SOL     OW17797   6.840   2.349   3.700
 5633SOL    HW117798   6.800   2.419   3.759
 5633SOL    HW217799   6.938   2.366   3.691
 5634SOL     OW17800   3.379   5.020   4.698
 5634SOL    HW117801   3.436   4.966   4.635
 5634SOL    HW217802   3.376   5.115   4.667
 5635SOL     OW17803   2.210   2.761   4.877
 5635SOL    HW117804   2.289   2.799   4.925
 5635SOL    HW217805   2.179   2.825   4.807
 5636SOL     OW17806   4.230   5.762   3.209
 5636SOL    HW117807   4.269   5.808   3.288
 5636SOL    HW217808   4.279   5.791   3.126
 5637SOL     OW17809   6.181   6.867   4.143
 5637SOL    HW117810   6.184   6.938   4.073
 5637SOL    HW217811   6.272   6.854   4.182
 5638SOL     OW17812   5.725   2.889   1.152
 5638SOL    HW117813   5.804   2.914   1.096
 5638SOL    HW217814   5.677   2.812   1.109
 5639SOL     OW17815   0.481   1.322   6.765
 5639SOL    HW117816   0.536   1.258   6.711
 5639SOL    HW217817   0.462   1.404   6.711
 5640SOL     OW17818   2.755   0.225   4.002
 5640SOL    HW117819   2.705   0.181   4.077
 5640SOL    HW217820   2.852   0.205   4.011
 5641SOL     OW17821   6.777   4.921   5.826
 5641SOL    HW117822   6.713   4.852   5.791
 5641SOL    HW217823   6.759   5.009   5.783
 5642SOL     OW17824   2.280   0.577   0.184
 5642SOL    HW117825   2.251   0.673   0.178
 5642SOL    HW217826   2.294   0.541   0.091
 5643SOL     OW17827   5.712   3.049   4.448
 5643SOL    HW117828   5.678   2.968   4.496
 5643SOL    HW217829   5.811   3.040   4.434
 5644SOL     OW17830   3.205   0.092   6.009
 5644SOL    HW117831   3.257   0.010   5.985
 5644SOL    HW217832   3.122   0.066   6.058
 5645SOL     OW17833   6.310   3.192   3.449
 5645SOL    HW117834   6.258   3.112   3.477
 5645SOL    HW217835   6.364   3.226   3.526
 5646SOL     OW17836   2.142   4.819   2.996
 5646SOL    HW117837   2.209   4.746   2.982
 5646SOL    HW217838   2.168   4.898   2.941
 5647SOL     OW17839   5.884   6.186   2.145
 5647SOL    HW117840   5.793   6.225   2.160
 5647SOL    HW217841   5.888   6.094   2.183
 5648SOL     OW17842   3.068   5.861   3.109
 5648SOL    HW117843   3.013   5.825   3.185
 5648SOL    HW217844   3.133   5.792   3.080
 5649SOL     OW17845   0.884   5.264   3.890
 5649SOL    HW117846   0.863   5.167   3.879
 5649SOL    HW217847   0.955   5.290   3.825
 5650SOL     OW17848   0.397   4.726   0.243
 5650SOL    HW117849   0.420   4.633   0.216
 5650SOL    HW217850   0.462   4.790   0.203
 5651SOL     OW17851   1.662   0.557   0.394
 5651SOL    HW117852   1.578   0.540   0.343
 5651SOL    HW217853   1.739   0.511   0.350
 5652SOL     OW17854   0.355   4.613   1.884
 5652SOL    HW117855   0.376   4.572   1.972
 5652SOL    HW217856   0.345   4.712   1.896
 5653SOL     OW17857   0.051   6.033   1.567
 5653SOL    HW117858   0.141   6.050   1.526
 5653SOL    HW217859   7.020   5.976   1.506
 5654SOL     OW17860   1.694   6.212   4.810
 5654SOL    HW117861   1.771   6.270   4.786
 5654SOL    HW217862   1.610   6.248   4.771
 5655SOL     OW17863   6.528   3.253   4.246
 5655SOL    HW117864   6.540   3.318   4.321
 5655SOL    HW217865   6.550   3.161   4.278
 5656SOL     OW17866   0.026   3.479   6.389
 5656SOL    HW117867   0.009   3.415   6.314
 5656SOL    HW217868   0.024   3.573   6.353
 5657SOL     OW17869   4.653   4.756   4.361
 5657SOL    HW117870   4.572   4.791   4.314
 5657SOL    HW217871   4.624   4.691   4.432
 5658SOL     OW17872   1.829   2.232   5.795
 5658SOL    HW117873   1.834   2.165   5.870
 5658SOL    HW217874   1.877   2.195   5.715
 5659SOL     OW17875   3.126   3.922   6.446
 5659SOL    HW117876   3.084   3.923   6.355
 5659SOL    HW217877   3.224   3.937   6.437
 5660SOL     OW17878   4.720   7.009   6.556
 5660SOL    HW117879   4.698   0.045   6.478
 5660SOL    HW217880   4.662   6.928   6.552
 5661SOL     OW17881   0.749   5.975   6.014
 5661SOL    HW117882   0.827   5.917   5.991
 5661SOL    HW217883   0.666   5.937   5.973
 5662SOL     OW17884   3.041   6.430   3.082
 5662SOL    HW117885   3.107   6.427   3.006
 5662SOL    HW217886   2.981   6.351   3.077
 5663SOL     OW17887   1.170   2.895   1.053
 5663SOL    HW117888   1.236   2.841   1.002
 5663SOL    HW217889   1.156   2.854   1.143
 5664SOL     OW17890   5.464   3.991   4.370
 5664SOL    HW117891   5.414   3.980   4.456
 5664SOL    HW217892   5.456   3.907   4.316
 5665SOL     OW17893   1.734   0.120   0.707
 5665SOL    HW117894   1.787   0.174   0.772
 5665SOL    HW217895   1.668   0.178   0.661
 5666SOL     OW17896   6.365   1.134   4.676
 5666SOL    HW117897   6.459   1.145   4.708
 5666SOL    HW217898   6.345   1.202   4.606
 5667SOL     OW17899   1.622   5.514   4.887
 5667SOL    HW117900   1.545   5.450   4.886
 5667SOL    HW217901   1.703   5.468   4.924
 5668SOL     OW17902   5.825   2.374   3.535
 5668SOL    HW117903   5.850   2.278   3.522
 5668SOL    HW217904   5.787   2.410   3.450
 5669SOL     OW17905   5.744   3.881   6.774
 5669SOL    HW117906   5.781   3.880   6.867
 5669SOL    HW217907   5.791   3.812   6.718
 5670SOL     OW17908   0.907   2.698   2.792
 5670SOL    HW117909   0.977   2.627   2.780
 5670SOL    HW217910   0.840   2.691   2.718
 5671SOL     OW17911   0.138   6.856   4.054
 5671SOL    HW117912   0.124   6.774   4.111
 5671SOL    HW217913   0.173   6.930   4.111
 5672SOL     OW17914   4.922   4.090   5.032
 5672SOL    HW117915   4.861   4.016   5.060
 5672SOL    HW217916   4.885   4.178   5.063
 5673SOL     OW17917   0.758   0.147   1.507
 5673SOL    HW117918   0.839   0.202   1.531
 5673SOL    HW217919   0.763   0.059   1.554
 5674SOL     OW17920   0.677   5.358   5.001
 5674SOL    HW117921   0.594   5.404   4.967
 5674SOL    HW217922   0.718   5.412   5.074
 5675SOL     OW17923   2.724   1.572   0.090
 5675SOL    HW117924   2.756   1.480   0.113
 5675SOL    HW217925   2.801   1.634   0.084
 5676SOL     OW17926   2.628   2.374   1.954
 5676SOL    HW117927   2.727   2.381   1.962
 5676SOL    HW217928   2.604   2.294   1.900
 5677SOL     OW17929   0.208   0.442   1.134
 5677SOL    HW117930   0.194   0.513   1.202
 5677SOL    HW217931   0.211   0.353   1.179
 5678SOL     OW17932   3.184   2.023   1.436
 5678SOL    HW117933   3.246   1.959   1.482
 5678SOL    HW217934   3.104   2.039   1.494
 5679SOL     OW17935   5.565   3.512   4.725
 5679SOL    HW117936   5.615   3.570   4.661
 5679SOL    HW217937   5.498   3.457   4.676
 5680SOL     OW17938   1.201   5.096   5.752
 5680SOL    HW117939   1.183   5.185   5.710
 5680SOL    HW217940   1.251   5.109   5.838
 5681SOL     OW17941   0.129   4.330   2.998
 5681SOL    HW117942   0.076   4.293   3.075
 5681SOL    HW217943   0.106   4.427   2.987
 5682SOL     OW17944   2.042   4.596   2.645
 5682SOL    HW117945   2.071   4.612   2.740
 5682SOL    HW217946   1.957   4.543   2.646
 5683SOL     OW17947   4.632   2.178   6.876
 5683SOL    HW117948   4.652   2.084   6.902
 5683SOL    HW217949   4.613   2.183   6.778
 5684SOL     OW17950   2.231   2.472   5.879
 5684SOL    HW117951   2.181   2.537   5.936
 5684SOL    HW217952   2.233   2.505   5.784
 5685SOL     OW17953   2.078   2.120   3.980
 5685SOL    HW117954   2.045   2.157   3.894
 5685SOL    HW217955   2.134   2.039   3.962
 5686SOL     OW17956   3.649   0.104   5.948
 5686SOL    HW117957   3.606   0.172   6.007
 5686SOL    HW217958   3.643   0.133   5.852
 5687SOL     OW17959   1.390   6.308   5.783
 5687SOL    HW117960   1.471   6.301   5.725
 5687SOL    HW217961   1.323   6.240   5.755
 5688SOL     OW17962   2.110   3.570   3.242
 5688SOL    HW117963   2.087   3.524   3.327
 5688SOL    HW217964   2.109   3.504   3.167
 5689SOL     OW17965   1.342   1.302   1.291
 5689SOL    HW117966   1.296   1.216   1.315
 5689SOL    HW217967   1.275   1.375   1.281
 5690SOL     OW17968   0.732   5.496   0.296
 5690SOL    HW117969   0.739   5.552   0.213
 5690SOL    HW217970   0.824   5.483   0.334
 5691SOL     OW17971   4.049   1.506   2.418
 5691SOL    HW117972   3.978   1.559   2.465
 5691SOL    HW217973   4.070   1.424   2.471
 5692SOL     OW17974   5.100   5.492   1.423
 5692SOL    HW117975   5.070   5.493   1.518
 5692SOL    HW217976   5.189   5.537   1.416
 5693SOL     OW17977   3.334   0.557   1.012
 5693SOL    HW117978   3.281   0.544   1.096
 5693SOL    HW217979   3.383   0.644   1.016
 5694SOL     OW17980   0.490   0.139   2.276
 5694SOL    HW117981   0.495   0.135   2.176
 5694SOL    HW217982   0.532   0.057   2.315
 5695SOL     OW17983   0.884   0.784   1.415
 5695SOL    HW117984   0.832   0.869   1.422
 5695SOL    HW217985   0.978   0.798   1.447
 5696SOL     OW17986   1.347   6.726   4.375
 5696SOL    HW117987   1.306   6.810   4.412
 5696SOL    HW217988   1.292   6.647   4.403
 5697SOL     OW17989   6.218   3.032   1.187
 5697SOL    HW117990   6.257   3.089   1.114
 5697SOL    HW217991   6.285   2.964   1.216
 5698SOL     OW17992   1.822   3.043   3.723
 5698SOL    HW117993   1.853   3.066   3.815
 5698SOL    HW217994   1.897   3.059   3.658
 5699SOL     OW17995   2.385   2.551   3.389
 5699SOL    HW117996   2.373   2.650   3.385
 5699SOL    HW217997   2.424   2.525   3.477
 5700SOL     OW17998   6.307   0.485   2.450
 5700SOL    HW117999   6.221   0.435   2.447
 5700SOL    HW218000   6.321   0.523   2.541
 5701SOL     OW18001   6.510   0.840   0.551
 5701SOL    HW118002   6.543   0.814   0.461
 5701SOL    HW218003   6.505   0.940   0.557
 5702SOL     OW18004   2.369   0.154   4.877
 5702SOL    HW118005   2.411   0.103   4.802
 5702SOL    HW218006   2.411   0.245   4.883
 5703SOL     OW18007   6.392   2.955   6.667
 5703SOL    HW118008   6.298   2.979   6.646
 5703SOL    HW218009   6.447   3.038   6.673
 5704SOL     OW18010   5.294   4.297   3.264
 5704SOL    HW118011   5.352   4.365   3.220
 5704SOL    HW218012   5.338   4.263   3.347
 5705SOL     OW18013   5.998   6.346   6.209
 5705SOL    HW118014   5.930   6.403   6.253
 5705SOL    HW218015   5.959   6.255   6.192
 5706SOL     OW18016   5.806   2.224   0.408
 5706SOL    HW118017   5.844   2.237   0.316
 5706SOL    HW218018   5.741   2.148   0.406
 5707SOL     OW18019   5.361   6.207   2.065
 5707SOL    HW118020   5.336   6.297   2.101
 5707SOL    HW218021   5.336   6.202   1.969
 5708SOL     OW18022   4.419   5.958   4.078
 5708SOL    HW118023   4.461   6.013   4.006
 5708SOL    HW218024   4.456   5.985   4.167
 5709SOL     OW18025   0.723   1.111   1.946
 5709SOL    HW118026   0.658   1.117   1.871
 5709SOL    HW218027   0.797   1.049   1.921
 5710SOL     OW18028   2.481   2.496   1.005
 5710SOL    HW118029   2.542   2.551   0.947
 5710SOL    HW218030   2.464   2.543   1.091
 5711SOL     OW18031   5.237   1.246   1.979
 5711SOL    HW118032   5.324   1.199   1.994
 5711SOL    HW218033   5.179   1.189   1.921
 5712SOL     OW18034   6.886   6.161   1.710
 5712SOL    HW118035   6.959   6.100   1.680
 5712SOL    HW218036   6.831   6.188   1.631
 5713SOL     OW18037   2.373   5.836   0.421
 5713SOL    HW118038   2.285   5.788   0.412
 5713SOL    HW218039   2.385   5.865   0.517
 5714SOL     OW18040   6.076   6.459   1.789
 5714SOL    HW118041   6.048   6.366   1.814
 5714SOL    HW218042   6.036   6.524   1.854
 5715SOL     OW18043   1.127   0.083   0.724
 5715SOL    HW118044   1.115   0.021   0.801
 5715SOL    HW218045   1.212   0.135   0.736
 5716SOL     OW18046   0.588   4.468   6.059
 5716SOL    HW118047   0.642   4.551   6.074
 5716SOL    HW218048   0.625   4.393   6.114
 5717SOL     OW18049   2.050   5.131   2.957
 5717SOL    HW118050   2.121   5.086   2.902
 5717SOL    HW218051   2.089   5.211   3.003
 5718SOL     OW18052   0.885   3.154   0.580
 5718SOL    HW118053   0.836   3.131   0.664
 5718SOL    HW218054   0.949   3.228   0.598
 5719SOL     OW18055   3.090   3.792   1.406
 5719SOL    HW118056   3.024   3.718   1.422
 5719SOL    HW218057   3.041   3.874   1.379
 5720SOL     OW18058   1.942   5.238   5.840
 5720SOL    HW118059   2.014   5.306   5.853
 5720SOL    HW218060   1.917   5.234   5.743
 5721SOL     OW18061   4.832   4.283   6.997
 5721SOL    HW118062   4.890   4.326   0.042
 5721SOL    HW218063   4.763   4.348   6.966
 5722SOL     OW18064   1.052   0.441   5.848
 5722SOL    HW118065   1.041   0.344   5.827
 5722SOL    HW218066   1.068   0.453   5.946
 5723SOL     OW18067   4.228   3.002   6.853
 5723SOL    HW118068   4.315   2.954   6.840
 5723SOL    HW218069   4.192   3.031   6.764
 5724SOL     OW18070   5.262   1.902   3.952
 5724SOL    HW118071   5.265   1.802   3.962
 5724SOL    HW218072   5.217   1.925   3.866
 5725SOL     OW18073   5.826   4.389   3.876
 5725SOL    HW118074   5.921   4.420   3.878
 5725SOL    HW218075   5.798   4.374   3.781
 5726SOL     OW18076   4.758   4.326   3.185
 5726SOL    HW118077   4.856   4.342   3.180
 5726SOL    HW218078   4.729   4.268   3.108
 5727SOL     OW18079   0.885   2.123   4.458
 5727SOL    HW118080   0.888   2.208   4.405
 5727SOL    HW218081   0.808   2.068   4.426
 5728SOL     OW18082   5.144   6.467   5.241
 5728SOL    HW118083   5.199   6.393   5.202
 5728SOL    HW218084   5.053   6.466   5.199
 5729SOL     OW18085   2.467   1.389   5.755
 5729SOL    HW118086   2.515   1.476   5.741
 5729SOL    HW218087   2.464   1.339   5.669
 5730SOL     OW18088   6.531   4.236   6.135
 5730SOL    HW118089   6.462   4.205   6.069
 5730SOL    HW218090   6.621   4.229   6.093
 5731SOL     OW18091   0.308   6.563   1.753
 5731SOL    HW118092   0.245   6.529   1.684
 5731SOL    HW218093   0.264   6.558   1.843
 5732SOL     OW18094   1.280   6.884   3.937
 5732SOL    HW118095   1.244   6.863   3.846
 5732SOL    HW218096   1.350   6.955   3.929
 5733SOL     OW18097   3.256   0.188   4.718
 5733SOL    HW118098   3.321   0.238   4.775
 5733SOL    HW218099   3.273   0.090   4.724
 5734SOL     OW18100   1.840   5.385   3.577
 5734SOL    HW118101   1.850   5.407   3.480
 5734SOL    HW218102   1.872   5.462   3.633
 5735SOL     OW18103   3.174   1.491   1.751
 5735SOL    HW118104   3.255   1.434   1.737
 5735SOL    HW218105   3.157   1.546   1.670
 5736SOL     OW18106   0.822   5.589   6.604
 5736SOL    HW118107   0.774   5.511   6.564
 5736SOL    HW218108   0.820   5.665   6.539
 5737SOL     OW18109   4.677   4.519   6.959
 5737SOL    HW118110   4.741   4.592   6.983
 5737SOL    HW218111   4.607   4.555   6.897
 5738SOL     OW18112   1.245   3.579   6.175
 5738SOL    HW118113   1.342   3.586   6.196
 5738SOL    HW218114   1.230   3.605   6.080
 5739SOL     OW18115   0.943   1.162   0.752
 5739SOL    HW118116   0.996   1.087   0.714
 5739SOL    HW218117   0.998   1.212   0.819
 5740SOL     OW18118   3.984   5.756   6.344
 5740SOL    HW118119   3.944   5.745   6.435
 5740SOL    HW218120   4.031   5.672   6.318
 5741SOL     OW18121   0.146   5.474   4.820
 5741SOL    HW118122   0.219   5.454   4.886
 5741SOL    HW218123   0.092   5.552   4.853
 5742SOL     OW18124   6.478   6.822   3.423
 5742SOL    HW118125   6.560   6.767   3.437
 5742SOL    HW218126   6.408   6.796   3.491
 5743SOL     OW18127   1.750   6.876   5.193
 5743SOL    HW118128   1.848   6.857   5.194
 5743SOL    HW218129   1.728   6.942   5.265
 5744SOL     OW18130   6.106   0.301   1.668
 5744SOL    HW118131   6.077   0.301   1.572
 5744SOL    HW218132   6.132   0.394   1.694
 5745SOL     OW18133   1.952   1.867   3.780
 5745SOL    HW118134   2.021   1.891   3.711
 5745SOL    HW218135   1.981   1.784   3.828
 5746SOL     OW18136   5.300   2.174   0.010
 5746SOL    HW118137   5.389   2.207   7.002
 5746SOL    HW218138   5.228   2.230   6.993
 5747SOL     OW18139   0.519   5.717   3.210
 5747SOL    HW118140   0.586   5.770   3.262
 5747SOL    HW218141   0.536   5.727   3.113
 5748SOL     OW18142   2.865   6.210   3.106
 5748SOL    HW118143   2.788   6.272   3.094
 5748SOL    HW218144   2.836   6.116   3.083
 5749SOL     OW18145   2.540   2.531   3.172
 5749SOL    HW118146   2.474   2.527   3.246
 5749SOL    HW218147   2.632   2.514   3.208
 5750SOL     OW18148   6.834   5.898   2.547
 5750SOL    HW118149   6.909   5.934   2.604
 5750SOL    HW218150   6.760   5.966   2.543
 5751SOL     OW18151   2.352   3.484   5.279
 5751SOL    HW118152   2.354   3.540   5.363
 5751SOL    HW218153   2.350   3.544   5.199
 5752SOL     OW18154   6.911   0.152   6.862
 5752SOL    HW118155   7.000   0.117   6.891
 5752SOL    HW218156   6.841   0.084   6.884
 5753SOL     OW18157   3.669   2.701   0.369
 5753SOL    HW118158   3.768   2.692   0.385
 5753SOL    HW218159   3.642   2.796   0.380
 5754SOL     OW18160   6.236   4.563   1.763
 5754SOL    HW118161   6.167   4.525   1.701
 5754SOL    HW218162   6.322   4.575   1.714
 5755SOL     OW18163   3.454   4.203   0.513
 5755SOL    HW118164   3.371   4.258   0.524
 5755SOL    HW218165   3.433   4.107   0.529
 5756SOL     OW18166   0.073   5.519   4.280
 5756SOL    HW118167   0.068   5.422   4.255
 5756SOL    HW218168   0.068   5.529   4.379
 5757SOL     OW18169   0.258   5.198   0.715
 5757SOL    HW118170   0.248   5.236   0.807
 5757SOL    HW218171   0.169   5.194   0.671
 5758SOL     OW18172   1.398   2.148   5.444
 5758SOL    HW118173   1.428   2.057   5.416
 5758SOL    HW218174   1.472   2.213   5.430
 5759SOL     OW18175   5.531   1.644   5.924
 5759SOL    HW118176   5.626   1.615   5.938
 5759SOL    HW218177   5.507   1.636   5.828
 5760SOL     OW18178   2.026   5.489   2.502
 5760SOL    HW118179   2.073   5.556   2.444
 5760SOL    HW218180   1.948   5.451   2.454
 5761SOL     OW18181   4.839   0.012   4.680
 5761SOL    HW118182   4.796   0.093   4.641
 5761SOL    HW218183   4.770   6.965   4.695
 5762SOL     OW18184   5.816   5.911   1.579
 5762SOL    HW118185   5.905   5.955   1.590
 5762SOL    HW218186   5.762   5.961   1.510
 5763SOL     OW18187   1.409   0.829   1.345
 5763SOL    HW118188   1.467   0.839   1.426
 5763SOL    HW218189   1.428   0.905   1.282
 5764SOL     OW18190   4.944   3.266   5.489
 5764SOL    HW118191   4.982   3.189   5.437
 5764SOL    HW218192   4.883   3.231   5.560
 5765SOL     OW18193   5.952   4.224   0.043
 5765SOL    HW118194   5.886   4.241   6.994
 5765SOL    HW218195   6.033   4.178   0.004
 5766SOL     OW18196   3.012   1.696   2.504
 5766SOL    HW118197   3.003   1.690   2.404
 5766SOL    HW218198   3.056   1.613   2.538
 5767SOL     OW18199   0.346   6.204   1.741
 5767SOL    HW118200   0.363   6.114   1.699
 5767SOL    HW218201   0.363   6.275   1.673
 5768SOL     OW18202   6.179   1.652   2.218
 5768SOL    HW118203   6.094   1.669   2.168
 5768SOL    HW218204   6.173   1.563   2.264
 5769SOL     OW18205   2.372   5.489   4.058
 5769SOL    HW118206   2.338   5.413   4.004
 5769SOL    HW218207   2.411   5.559   3.998
 5770SOL     OW18208   6.572   0.816   1.366
 5770SOL    HW118209   6.599   0.910   1.345
 5770SOL    HW218210   6.575   0.761   1.283
 5771SOL     OW18211   0.990   1.804   1.301
 5771SOL    HW118212   1.012   1.747   1.222
 5771SOL    HW218213   0.905   1.771   1.343
 5772SOL     OW18214   6.174   4.123   6.962
 5772SOL    HW118215   6.231   4.085   0.011
 5772SOL    HW218216   6.200   4.082   6.874
 5773SOL     OW18217   5.483   5.990   4.302
 5773SOL    HW118218   5.425   6.003   4.221
 5773SOL    HW218219   5.579   6.007   4.277
 5774SOL     OW18220   2.202   5.343   3.865
 5774SOL    HW118221   2.177   5.406   3.791
 5774SOL    HW218222   2.136   5.351   3.939
 5775SOL     OW18223   0.171   0.307   6.574
 5775SOL    HW118224   0.096   0.358   6.531
 5775SOL    HW218225   0.143   0.212   6.589
 5776SOL     OW18226   5.228   0.639   5.419
 5776SOL    HW118227   5.219   0.562   5.482
 5776SOL    HW218228   5.179   0.718   5.455
 5777SOL     OW18229   0.335   1.035   5.337
 5777SOL    HW118230   0.295   0.953   5.296
 5777SOL    HW218231   0.305   1.043   5.432
 5778SOL     OW18232   1.947   6.926   3.754
 5778SOL    HW118233   1.879   6.975   3.808
 5778SOL    HW218234   1.919   6.926   3.658
 5779SOL     OW18235   4.578   1.409   2.009
 5779SOL    HW118236   4.536   1.341   2.069
 5779SOL    HW218237   4.637   1.363   1.942
 5780SOL     OW18238   5.805   4.241   1.349
 5780SOL    HW118239   5.801   4.202   1.441
 5780SOL    HW218240   5.715   4.277   1.324
 5781SOL     OW18241   1.993   5.485   4.728
 5781SOL    HW118242   1.921   5.421   4.699
 5781SOL    HW218243   2.017   5.545   4.651
 5782SOL     OW18244   3.017   1.625   2.206
 5782SOL    HW118245   3.071   1.598   2.127
 5782SOL    HW218246   2.923   1.593   2.195
 5783SOL     OW18247   1.456   0.011   0.903
 5783SOL    HW118248   1.550   7.006   0.889
 5783SOL    HW218249   1.419   6.989   0.985
 5784SOL     OW18250   1.473   5.924   0.068
 5784SOL    HW118251   1.392   5.932   0.010
 5784SOL    HW218252   1.538   5.996   0.042
 5785SOL     OW18253   1.790   2.073   0.172
 5785SOL    HW118254   1.759   2.035   0.085
 5785SOL    HW218255   1.786   2.002   0.243
 5786SOL     OW18256   1.352   3.224   1.509
 5786SOL    HW118257   1.371   3.207   1.412
 5786SOL    HW218258   1.383   3.315   1.534
 5787SOL     OW18259   6.608   3.090   5.296
 5787SOL    HW118260   6.549   3.040   5.232
 5787SOL    HW218261   6.603   3.188   5.277
 5788SOL     OW18262   2.555   1.704   2.233
 5788SOL    HW118263   2.600   1.733   2.149
 5788SOL    HW218264   2.476   1.647   2.210
 5789SOL     OW18265   3.454   4.455   6.855
 5789SOL    HW118266   3.355   4.448   6.842
 5789SOL    HW218267   3.501   4.420   6.774
 5790SOL     OW18268   5.775   6.021   4.132
 5790SOL    HW118269   5.794   6.114   4.100
 5790SOL    HW218270   5.721   5.973   4.062
 5791SOL     OW18271   4.010   1.950   1.904
 5791SOL    HW118272   4.022   2.029   1.964
 5791SOL    HW218273   3.922   1.957   1.857
 5792SOL     OW18274   5.142   3.012   3.283
 5792SOL    HW118275   5.160   2.958   3.365
 5792SOL    HW218276   5.190   2.971   3.205
 5793SOL     OW18277   4.597   2.609   5.913
 5793SOL    HW118278   4.642   2.664   5.843
 5793SOL    HW218279   4.659   2.538   5.945
 5794SOL     OW18280   4.321   0.136   0.219
 5794SOL    HW118281   4.261   0.214   0.234
 5794SOL    HW218282   4.345   0.130   0.122
 5795SOL     OW18283   2.369   5.851   1.810
 5795SOL    HW118284   2.466   5.831   1.804
 5795SOL    HW218285   2.330   5.857   1.718
 5796SOL     OW18286   4.863   1.958   6.552
 5796SOL    HW118287   4.950   2.008   6.552
 5796SOL    HW218288   4.788   2.021   6.572
 5797SOL     OW18289   5.265   2.449   1.224
 5797SOL    HW118290   5.295   2.390   1.149
 5797SOL    HW218291   5.268   2.545   1.194
 5798SOL     OW18292   1.509   3.837   5.364
 5798SOL    HW118293   1.462   3.923   5.379
 5798SOL    HW218294   1.580   3.849   5.294
 5799SOL     OW18295   2.572   6.784   3.543
 5799SOL    HW118296   2.622   6.698   3.535
 5799SOL    HW218297   2.546   6.800   3.638
 5800SOL     OW18298   0.873   6.889   1.094
 5800SOL    HW118299   0.814   6.940   1.030
 5800SOL    HW218300   0.834   6.798   1.109
 5801SOL     OW18301   2.011   1.745   2.442
 5801SOL    HW118302   1.929   1.708   2.484
 5801SOL    HW218303   2.076   1.671   2.425
 5802SOL     OW18304   0.466   1.138   1.763
 5802SOL    HW118305   0.428   1.046   1.755
 5802SOL    HW218306   0.391   1.205   1.766
 5803SOL     OW18307   0.316   4.906   3.716
 5803SOL    HW118308   0.411   4.889   3.689
 5803SOL    HW218309   0.283   4.830   3.771
 5804SOL     OW18310   5.688   1.373   3.665
 5804SOL    HW118311   5.686   1.460   3.614
 5804SOL    HW218312   5.782   1.349   3.686
 5805SOL     OW18313   1.486   2.500   2.040
 5805SOL    HW118314   1.480   2.531   1.945
 5805SOL    HW218315   1.507   2.578   2.099
 5806SOL     OW18316   6.753   4.431   1.984
 5806SOL    HW118317   6.808   4.370   2.041
 5806SOL    HW218318   6.713   4.379   1.908
 5807SOL     OW18319   1.482   0.199   1.260
 5807SOL    HW118320   1.389   0.185   1.295
 5807SOL    HW218321   1.508   0.120   1.205
 5808SOL     OW18322   6.470   6.637   5.795
 5808SOL    HW118323   6.434   6.662   5.705
 5808SOL    HW218324   6.517   6.716   5.836
 5809SOL     OW18325   0.558   2.008   5.596
 5809SOL    HW118326   0.491   1.954   5.546
 5809SOL    HW218327   0.650   1.982   5.566
 5810SOL     OW18328   3.198   6.943   5.706
 5810SOL    HW118329   3.265   6.899   5.646
 5810SOL    HW218330   3.197   0.018   5.689
 5811SOL     OW18331   2.731   4.014   6.432
 5811SOL    HW118332   2.806   3.990   6.369
 5811SOL    HW218333   2.768   4.027   6.524
 5812SOL     OW18334   5.973   2.141   0.188
 5812SOL    HW118335   6.052   2.161   0.246
 5812SOL    HW218336   5.987   2.052   0.144
 5813SOL     OW18337   5.092   6.559   0.405
 5813SOL    HW118338   5.021   6.494   0.429
 5813SOL    HW218339   5.051   6.641   0.364
 5814SOL     OW18340   5.127   1.399   1.197
 5814SOL    HW118341   5.155   1.472   1.134
 5814SOL    HW218342   5.168   1.312   1.168
 5815SOL     OW18343   6.608   1.645   4.559
 5815SOL    HW118344   6.630   1.709   4.633
 5815SOL    HW218345   6.692   1.602   4.526
 5816SOL     OW18346   0.399   3.480   2.885
 5816SOL    HW118347   0.429   3.568   2.922
 5816SOL    HW218348   0.475   3.415   2.889
 5817SOL     OW18349   6.306   3.206   3.165
 5817SOL    HW118350   6.373   3.267   3.121
 5817SOL    HW218351   6.326   3.200   3.263
 5818SOL     OW18352   2.183   0.078   5.284
 5818SOL    HW118353   2.105   0.132   5.315
 5818SOL    HW218354   2.192   7.021   5.342
 5819SOL     OW18355   4.201   5.451   0.273
 5819SOL    HW118356   4.142   5.370   0.268
 5819SOL    HW218357   4.249   5.463   0.186
 5820SOL     OW18358   5.485   6.000   2.194
 5820SOL    HW118359   5.471   5.996   2.293
 5820SOL    HW218360   5.428   6.072   2.155
 5821SOL     OW18361   0.287   6.697   0.760
 5821SOL    HW118362   0.292   6.678   0.858
 5821SOL    HW218363   0.374   6.734   0.729
 5822SOL     OW18364   1.825   3.344   2.819
 5822SOL    HW118365   1.912   3.377   2.857
 5822SOL    HW218366   1.835   3.248   2.793
 5823SOL     OW18367   2.215   5.349   3.529
 5823SOL    HW118368   2.244   5.269   3.582
 5823SOL    HW218369   2.130   5.385   3.569
 5824SOL     OW18370   1.257   0.701   2.395
 5824SOL    HW118371   1.274   0.608   2.363
 5824SOL    HW218372   1.267   0.765   2.318
 5825SOL     OW18373   5.724   0.774   4.513
 5825SOL    HW118374   5.666   0.744   4.589
 5825SOL    HW218375   5.715   0.709   4.437
 5826SOL     OW18376   0.373   7.006   5.305
 5826SOL    HW118377   0.457   6.969   5.264
 5826SOL    HW218378   0.353   0.071   5.265
 5827SOL     OW18379   2.343   4.202   4.032
 5827SOL    HW118380   2.355   4.210   3.933
 5827SOL    HW218381   2.429   4.176   4.074
 5828SOL     OW18382   3.863   0.069   5.134
 5828SOL    HW118383   3.877   0.144   5.198
 5828SOL    HW218384   3.914   0.087   5.050
 5829SOL     OW18385   2.179   0.722   4.337
 5829SOL    HW118386   2.253   0.789   4.333
 5829SOL    HW218387   2.129   0.722   4.250
 5830SOL     OW18388   3.905   5.422   4.495
 5830SOL    HW118389   3.879   5.471   4.412
 5830SOL    HW218390   3.894   5.482   4.574
 5831SOL     OW18391   1.627   2.256   5.288
 5831SOL    HW118392   1.682   2.182   5.328
 5831SOL    HW218393   1.681   2.340   5.287
 5832SOL     OW18394   3.005   5.344   1.810
 5832SOL    HW118395   3.057   5.269   1.769
 5832SOL    HW218396   2.972   5.405   1.738
 5833SOL     OW18397   3.546   4.708   6.955
 5833SOL    HW118398   3.513   4.633   6.897
 5833SOL    HW218399   3.628   4.678   7.003
 5834SOL     OW18400   5.763   2.701   6.289
 5834SOL    HW118401   5.861   2.717   6.305
 5834SOL    HW218402   5.725   2.776   6.235
 5835SOL     OW18403   5.482   2.105   2.843
 5835SOL    HW118404   5.459   2.012   2.872
 5835SOL    HW218405   5.422   2.133   2.769
 5836SOL     OW18406   4.704   6.569   3.577
 5836SOL    HW118407   4.737   6.613   3.494
 5836SOL    HW218408   4.685   6.638   3.646
 5837SOL     OW18409   2.912   5.427   6.912
 5837SOL    HW118410   2.881   5.483   6.988
 5837SOL    HW218411   2.939   5.485   6.835
 5838SOL     OW18412   3.352   2.381   1.210
 5838SOL    HW118413   3.442   2.358   1.173
 5838SOL    HW218414   3.292   2.301   1.205
 5839SOL     OW18415   1.850   2.004   1.000
 5839SOL    HW118416   1.810   1.913   0.989
 5839SOL    HW218417   1.932   1.998   1.058
 5840SOL     OW18418   0.470   3.221   3.122
 5840SOL    HW118419   0.503   3.131   3.152
 5840SOL    HW218420   0.452   3.220   3.024
 5841SOL     OW18421   5.349   1.782   0.342
 5841SOL    HW118422   5.376   1.875   0.317
 5841SOL    HW218423   5.294   1.742   0.269
 5842SOL     OW18424   2.399   2.324   1.396
 5842SOL    HW118425   2.377   2.400   1.333
 5842SOL    HW218426   2.435   2.362   1.481
 5843SOL     OW18427   2.616   3.948   1.061
 5843SOL    HW118428   2.601   3.859   1.019
 5843SOL    HW218429   2.579   3.948   1.154
 5844SOL     OW18430   0.620   6.463   5.166
 5844SOL    HW118431   0.587   6.371   5.146
 5844SOL    HW218432   0.546   6.517   5.206
 5845SOL     OW18433   1.376   6.820   2.356
 5845SOL    HW118434   1.321   6.817   2.273
 5845SOL    HW218435   1.466   6.858   2.336
 5846SOL     OW18436   6.305   4.088   6.008
 5846SOL    HW118437   6.350   4.030   5.941
 5846SOL    HW218438   6.208   4.097   5.985
 5847SOL     OW18439   2.720   4.073   0.180
 5847SOL    HW118440   2.758   4.082   0.272
 5847SOL    HW218441   2.724   4.162   0.134
 5848SOL     OW18442   1.946   5.171   2.539
 5848SOL    HW118443   2.032   5.220   2.526
 5848SOL    HW218444   1.964   5.080   2.576
 5849SOL     OW18445   3.769   6.039   5.497
 5849SOL    HW118446   3.769   6.111   5.428
 5849SOL    HW218447   3.840   6.058   5.565
 5850SOL     OW18448   1.253   1.565   2.773
 5850SOL    HW118449   1.182   1.562   2.844
 5850SOL    HW218450   1.288   1.473   2.757
 5851SOL     OW18451   6.406   3.684   4.034
 5851SOL    HW118452   6.376   3.685   3.938
 5851SOL    HW218453   6.446   3.774   4.057
 5852SOL     OW18454   4.669   4.217   2.590
 5852SOL    HW118455   4.644   4.259   2.503
 5852SOL    HW218456   4.593   4.224   2.654
 5853SOL     OW18457   3.597   5.119   5.818
 5853SOL    HW118458   3.660   5.069   5.759
 5853SOL    HW218459   3.504   5.086   5.801
 5854SOL     OW18460   2.919   4.699   5.345
 5854SOL    HW118461   2.912   4.639   5.265
 5854SOL    HW218462   2.894   4.647   5.427
 5855SOL     OW18463   2.158   3.107   2.914
 5855SOL    HW118464   2.069   3.084   2.954
 5855SOL    HW218465   2.208   3.023   2.893
 5856SOL     OW18466   1.205   6.734   2.946
 5856SOL    HW118467   1.188   6.818   2.997
 5856SOL    HW218468   1.134   6.667   2.970
 5857SOL     OW18469   5.692   4.465   6.511
 5857SOL    HW118470   5.779   4.495   6.552
 5857SOL    HW218471   5.666   4.528   6.438
 5858SOL     OW18472   1.598   0.983   3.181
 5858SOL    HW118473   1.555   1.009   3.267
 5858SOL    HW218474   1.681   1.037   3.168
 5859SOL     OW18475   6.456   6.736   1.243
 5859SOL    HW118476   6.537   6.732   1.302
 5859SOL    HW218477   6.376   6.705   1.295
 5860SOL     OW18478   0.127   4.545   3.195
 5860SOL    HW118479   0.109   4.600   3.276
 5860SOL    HW218480   0.168   4.458   3.222
 5861SOL     OW18481   4.991   0.751   6.016
 5861SOL    HW118482   5.019   0.837   5.973
 5861SOL    HW218483   4.975   0.767   6.114
 5862SOL     OW18484   6.957   5.779   2.291
 5862SOL    HW118485   6.976   5.878   2.287
 5862SOL    HW218486   6.859   5.764   2.297
 5863SOL     OW18487   4.348   7.019   5.960
 5863SOL    HW118488   4.267   0.034   5.914
 5863SOL    HW218489   4.352   0.030   6.053
 5864SOL     OW18490   3.522   4.154   2.635
 5864SOL    HW118491   3.605   4.103   2.608
 5864SOL    HW218492   3.531   4.249   2.606
 5865SOL     OW18493   6.466   0.628   5.621
 5865SOL    HW118494   6.386   0.687   5.627
 5865SOL    HW218495   6.469   0.585   5.532
 5866SOL     OW18496   3.953   2.997   3.246
 5866SOL    HW118497   4.050   3.021   3.236
 5866SOL    HW218498   3.922   2.951   3.163
 5867SOL     OW18499   3.365   1.839   1.562
 5867SOL    HW118500   3.381   1.797   1.651
 5867SOL    HW218501   3.336   1.769   1.497
 5868SOL     OW18502   1.171   0.969   5.757
 5868SOL    HW118503   1.250   1.030   5.753
 5868SOL    HW218504   1.158   0.924   5.669
 5869SOL     OW18505   0.449   5.707   3.858
 5869SOL    HW118506   0.395   5.623   3.846
 5869SOL    HW218507   0.521   5.691   3.925
 5870SOL     OW18508   4.280   5.286   4.461
 5870SOL    HW118509   4.181   5.270   4.464
 5870SOL    HW218510   4.327   5.201   4.439
 5871SOL     OW18511   3.037   3.898   4.008
 5871SOL    HW118512   3.072   3.884   3.915
 5871SOL    HW218513   3.005   3.993   4.018
 5872SOL     OW18514   4.643   5.388   1.623
 5872SOL    HW118515   4.641   5.293   1.656
 5872SOL    HW218516   4.623   5.450   1.698
 5873SOL     OW18517   4.222   5.851   2.358
 5873SOL    HW118518   4.236   5.948   2.376
 5873SOL    HW218519   4.177   5.809   2.436
 5874SOL     OW18520   1.909   4.037   5.769
 5874SOL    HW118521   1.990   4.033   5.711
 5874SOL    HW218522   1.926   3.989   5.855
 5875SOL     OW18523   2.707   1.391   0.729
 5875SOL    HW118524   2.695   1.487   0.753
 5875SOL    HW218525   2.674   1.333   0.803
 5876SOL     OW18526   3.394   3.257   2.043
 5876SOL    HW118527   3.440   3.309   1.971
 5876SOL    HW218528   3.315   3.209   2.005
 5877SOL     OW18529   5.320   4.165   0.672
 5877SOL    HW118530   5.388   4.238   0.664
 5877SOL    HW218531   5.312   4.138   0.768
 5878SOL     OW18532   2.213   4.909   2.556
 5878SOL    HW118533   2.272   4.829   2.546
 5878SOL    HW218534   2.124   4.882   2.591
 5879SOL     OW18535   0.317   4.519   5.009
 5879SOL    HW118536   0.231   4.519   5.060
 5879SOL    HW218537   0.390   4.553   5.068
 5880SOL     OW18538   2.712   5.740   1.009
 5880SOL    HW118539   2.692   5.794   1.091
 5880SOL    HW218540   2.649   5.663   1.005
 5881SOL     OW18541   0.840   6.074   4.477
 5881SOL    HW118542   0.749   6.112   4.489
 5881SOL    HW218543   0.872   6.036   4.564
 5882SOL     OW18544   4.432   1.305   1.755
 5882SOL    HW118545   4.440   1.286   1.658
 5882SOL    HW218546   4.395   1.397   1.768
 5883SOL     OW18547   0.464   3.853   5.680
 5883SOL    HW118548   0.421   3.938   5.710
 5883SOL    HW218549   0.561   3.855   5.701
 5884SOL     OW18550   1.310   1.241   3.235
 5884SOL    HW118551   1.397   1.235   3.284
 5884SOL    HW218552   1.318   1.308   3.161
 5885SOL     OW18553   6.196   6.684   1.354
 5885SOL    HW118554   6.146   6.638   1.281
 5885SOL    HW218555   6.160   6.777   1.366
 5886SOL     OW18556   1.482   1.534   6.260
 5886SOL    HW118557   1.582   1.525   6.259
 5886SOL    HW218558   1.443   1.484   6.183
 5887SOL     OW18559   3.986   0.172   4.295
 5887SOL    HW118560   3.888   0.171   4.311
 5887SOL    HW218561   4.033   0.194   4.380
 5888SOL     OW18562   2.405   0.229   3.599
 5888SOL    HW118563   2.382   0.220   3.696
 5888SOL    HW218564   2.340   0.176   3.544
 5889SOL     OW18565   2.292   0.439   0.699
 5889SOL    HW118566   2.302   0.532   0.665
 5889SOL    HW218567   2.381   0.405   0.731
 5890SOL     OW18568   2.969   4.630   5.931
 5890SOL    HW118569   2.991   4.686   5.852
 5890SOL    HW218570   2.935   4.688   6.005
 5891SOL     OW18571   3.055   3.990   0.022
 5891SOL    HW118572   2.987   3.974   6.975
 5891SOL    HW218573   3.120   3.914   0.024
 5892SOL     OW18574   1.031   6.897   1.632
 5892SOL    HW118575   0.952   6.958   1.626
 5892SOL    HW218576   1.100   6.937   1.692
 5893SOL     OW18577   1.381   0.601   3.423
 5893SOL    HW118578   1.331   0.687   3.426
 5893SOL    HW218579   1.317   0.526   3.406
 5894SOL     OW18580   1.439   3.350   3.130
 5894SOL    HW118581   1.495   3.432   3.121
 5894SOL    HW218582   1.349   3.366   3.088
 5895SOL     OW18583   5.184   3.687   3.819
 5895SOL    HW118584   5.178   3.765   3.757
 5895SOL    HW218585   5.280   3.669   3.840
 5896SOL     OW18586   3.660   2.280   6.110
 5896SOL    HW118587   3.644   2.353   6.044
 5896SOL    HW218588   3.705   2.203   6.065
 5897SOL     OW18589   4.346   0.165   1.353
 5897SOL    HW118590   4.277   0.134   1.287
 5897SOL    HW218591   4.325   0.259   1.382
 5898SOL     OW18592   2.192   0.094   2.240
 5898SOL    HW118593   2.261   0.083   2.311
 5898SOL    HW218594   2.124   0.160   2.269
 5899SOL     OW18595   5.495   0.120   4.411
 5899SOL    HW118596   5.592   0.105   4.428
 5899SOL    HW218597   5.476   0.219   4.415
 5900SOL     OW18598   4.720   5.001   2.924
 5900SOL    HW118599   4.655   4.971   2.995
 5900SOL    HW218600   4.690   5.089   2.886
 5901SOL     OW18601   3.169   6.378   5.116
 5901SOL    HW118602   3.213   6.357   5.030
 5901SOL    HW218603   3.236   6.418   5.179
 5902SOL     OW18604   6.340   1.979   6.339
 5902SOL    HW118605   6.272   1.906   6.344
 5902SOL    HW218606   6.432   1.940   6.347
 5903SOL     OW18607   6.025   2.805   6.299
 5903SOL    HW118608   6.078   2.778   6.379
 5903SOL    HW218609   6.065   2.764   6.217
 5904SOL     OW18610   0.018   3.990   2.579
 5904SOL    HW118611   0.023   4.068   2.641
 5904SOL    HW218612   0.003   4.022   2.485
 5905SOL     OW18613   0.132   5.501   2.605
 5905SOL    HW118614   0.049   5.514   2.550
 5905SOL    HW218615   0.171   5.411   2.584
 5906SOL     OW18616   5.962   1.239   3.661
 5906SOL    HW118617   5.917   1.193   3.738
 5906SOL    HW218618   6.058   1.256   3.683
 5907SOL     OW18619   2.108   6.076   1.834
 5907SOL    HW118620   2.028   6.116   1.880
 5907SOL    HW218621   2.095   5.977   1.824
 5908SOL     OW18622   7.001   3.364   6.134
 5908SOL    HW118623   6.989   3.462   6.114
 5908SOL    HW218624   6.972   3.310   6.055
 5909SOL     OW18625   6.708   4.913   1.027
 5909SOL    HW118626   6.631   4.931   0.967
 5909SOL    HW218627   6.733   4.998   1.075
 5910SOL     OW18628   2.554   1.978   3.559
 5910SOL    HW118629   2.510   1.977   3.469
 5910SOL    HW218630   2.521   2.057   3.611
 5911SOL     OW18631   6.481   6.218   6.474
 5911SOL    HW118632   6.475   6.118   6.476
 5911SOL    HW218633   6.540   6.247   6.399
 5912SOL     OW18634   0.339   0.807   3.485
 5912SOL    HW118635   0.395   0.887   3.462
 5912SOL    HW218636   0.354   0.735   3.418
 5913SOL     OW18637   6.052   1.711   6.606
 5913SOL    HW118638   5.955   1.715   6.633
 5913SOL    HW218639   6.065   1.760   6.520
 5914SOL     OW18640   0.828   6.692   0.438
 5914SOL    HW118641   0.901   6.730   0.382
 5914SOL    HW218642   0.848   6.707   0.535
 5915SOL     OW18643   3.948   1.635   6.524
 5915SOL    HW118644   3.904   1.724   6.540
 5915SOL    HW218645   4.021   1.645   6.456
 5916SOL     OW18646   1.355   6.256   2.868
 5916SOL    HW118647   1.410   6.174   2.851
 5916SOL    HW218648   1.267   6.248   2.822
 5917SOL     OW18649   3.679   4.268   0.339
 5917SOL    HW118650   3.608   4.240   0.404
 5917SOL    HW218651   3.636   4.305   0.256
 5918SOL     OW18652   2.941   6.397   5.431
 5918SOL    HW118653   2.843   6.397   5.451
 5918SOL    HW218654   2.956   6.360   5.339
 5919SOL     OW18655   3.779   2.924   3.699
 5919SOL    HW118656   3.865   2.885   3.732
 5919SOL    HW218657   3.797   2.986   3.623
 5920SOL     OW18658   6.848   0.140   5.398
 5920SOL    HW118659   6.916   0.067   5.384
 5920SOL    HW218660   6.859   0.177   5.490
 5921SOL     OW18661   2.916   4.842   6.324
 5921SOL    HW118662   3.004   4.879   6.356
 5921SOL    HW218663   2.846   4.860   6.393
 5922SOL     OW18664   5.228   3.833   3.549
 5922SOL    HW118665   5.195   3.885   3.470
 5922SOL    HW218666   5.304   3.774   3.521
 5923SOL     OW18667   6.535   0.416   2.049
 5923SOL    HW118668   6.498   0.492   2.103
 5923SOL    HW218669   6.495   0.330   2.080
 5924SOL     OW18670   5.802   0.410   3.200
 5924SOL    HW118671   5.750   0.460   3.269
 5924SOL    HW218672   5.742   0.386   3.124
 5925SOL     OW18673   5.229   6.111   1.436
 5925SOL    HW118674   5.140   6.144   1.467
 5925SOL    HW218675   5.276   6.066   1.512
 5926SOL     OW18676   4.606   5.416   3.416
 5926SOL    HW118677   4.670   5.398   3.491
 5926SOL    HW218678   4.541   5.487   3.443
 5927SOL     OW18679   0.721   4.689   1.919
 5927SOL    HW118680   0.781   4.656   1.846
 5927SOL    HW218681   0.708   4.787   1.910
 5928SOL     OW18682   3.541   0.379   1.082
 5928SOL    HW118683   3.514   0.286   1.055
 5928SOL    HW218684   3.494   0.445   1.025
 5929SOL     OW18685   1.333   0.792   6.616
 5929SOL    HW118686   1.262   0.862   6.631
 5929SOL    HW218687   1.421   0.837   6.601
 5930SOL     OW18688   1.172   3.394   2.426
 5930SOL    HW118689   1.112   3.328   2.471
 5930SOL    HW218690   1.255   3.406   2.481
 5931SOL     OW18691   5.174   6.231   3.837
 5931SOL    HW118692   5.149   6.173   3.914
 5931SOL    HW218693   5.251   6.289   3.863
 5932SOL     OW18694   3.187   1.316   6.890
 5932SOL    HW118695   3.142   1.235   6.852
 5932SOL    HW218696   3.193   1.387   6.819
 5933SOL     OW18697   6.370   6.000   3.831
 5933SOL    HW118698   6.456   6.006   3.781
 5933SOL    HW218699   6.294   6.009   3.767
 5934SOL     OW18700   2.886   3.750   6.079
 5934SOL    HW118701   2.843   3.708   5.999
 5934SOL    HW218702   2.874   3.692   6.158
 5935SOL     OW18703   6.919   6.225   5.782
 5935SOL    HW118704   6.921   6.324   5.800
 5935SOL    HW218705   7.009   6.195   5.751
 5936SOL     OW18706   3.603   2.920   1.502
 5936SOL    HW118707   3.544   2.941   1.580
 5936SOL    HW218708   3.631   2.824   1.507
 5937SOL     OW18709   6.704   3.270   1.633
 5937SOL    HW118710   6.723   3.334   1.707
 5937SOL    HW218711   6.772   3.281   1.561
 5938SOL     OW18712   0.400   4.958   5.087
 5938SOL    HW118713   0.474   4.998   5.032
 5938SOL    HW218714   0.326   4.930   5.027
 5939SOL     OW18715   3.553   0.748   5.116
 5939SOL    HW118716   3.577   0.664   5.164
 5939SOL    HW218717   3.633   0.784   5.068
 5940SOL     OW18718   4.881   5.877   2.545
 5940SOL    HW118719   4.945   5.839   2.478
 5940SOL    HW218720   4.831   5.802   2.588
 5941SOL     OW18721   6.431   1.598   2.140
 5941SOL    HW118722   6.490   1.549   2.204
 5941SOL    HW218723   6.338   1.602   2.177
 5942SOL     OW18724   5.171   3.390   5.673
 5942SOL    HW118725   5.244   3.432   5.727
 5942SOL    HW218726   5.085   3.437   5.691
 5943SOL     OW18727   3.279   4.339   1.539
 5943SOL    HW118728   3.211   4.296   1.598
 5943SOL    HW218729   3.345   4.271   1.509
 5944SOL     OW18730   0.745   3.386   6.584
 5944SOL    HW118731   0.807   3.463   6.568
 5944SOL    HW218732   0.775   3.307   6.531
 5945SOL     OW18733   7.005   5.720   5.630
 5945SOL    HW118734   6.951   5.755   5.553
 5945SOL    HW218735   0.075   5.705   5.601
 5946SOL     OW18736   3.487   4.054   0.877
 5946SOL    HW118737   3.432   4.014   0.803
 5946SOL    HW218738   3.458   4.015   0.964
 5947SOL     OW18739   3.283   3.001   4.710
 5947SOL    HW118740   3.334   2.955   4.783
 5947SOL    HW218741   3.327   2.982   4.622
 5948SOL     OW18742   5.177   3.618   1.917
 5948SOL    HW118743   5.232   3.579   1.991
 5948SOL    HW218744   5.083   3.630   1.948
 5949SOL     OW18745   0.144   4.211   1.664
 5949SOL    HW118746   0.076   4.181   1.598
 5949SOL    HW218747   0.105   4.209   1.756
 5950SOL     OW18748   4.926   1.047   5.825
 5950SOL    HW118749   4.939   1.128   5.767
 5950SOL    HW218750   4.972   0.969   5.783
 5951SOL     OW18751   1.214   4.630   6.401
 5951SOL    HW118752   1.252   4.543   6.370
 5951SOL    HW218753   1.289   4.689   6.431
 5952SOL     OW18754   4.219   5.139   1.119
 5952SOL    HW118755   4.220   5.053   1.068
 5952SOL    HW218756   4.283   5.203   1.077
 5953SOL     OW18757   5.995   2.800   4.757
 5953SOL    HW118758   5.955   2.712   4.733
 5953SOL    HW218759   6.093   2.788   4.776
 5954SOL     OW18760   1.191   6.524   4.429
 5954SOL    HW118761   1.243   6.455   4.379
 5954SOL    HW218762   1.104   6.486   4.460
 5955SOL     OW18763   5.862   3.823   1.020
 5955SOL    HW118764   5.850   3.766   0.939
 5955SOL    HW218765   5.791   3.893   1.024
 5956SOL     OW18766   5.053   2.666   4.349
 5956SOL    HW118767   5.088   2.716   4.270
 5956SOL    HW218768   4.953   2.663   4.346
 5957SOL     OW18769   0.742   1.143   2.366
 5957SOL    HW118770   0.741   1.182   2.458
 5957SOL    HW218771   0.779   1.211   2.302
 5958SOL     OW18772   3.791   6.619   2.729
 5958SOL    HW118773   3.815   6.531   2.768
 5958SOL    HW218774   3.847   6.637   2.648
 5959SOL     OW18775   5.450   2.469   4.259
 5959SOL    HW118776   5.456   2.369   4.258
 5959SOL    HW218777   5.400   2.501   4.178
 5960SOL     OW18778   4.280   6.589   6.044
 5960SOL    HW118779   4.293   6.606   5.946
 5960SOL    HW218780   4.225   6.663   6.083
 5961SOL     OW18781   3.018   1.713   2.872
 5961SOL    HW118782   3.031   1.800   2.920
 5961SOL    HW218783   3.080   1.709   2.793
 5962SOL     OW18784   5.334   6.271   6.954
 5962SOL    HW118785   5.342   6.284   0.029
 5962SOL    HW218786   5.414   6.310   6.909
 5963SOL     OW18787   3.681   4.160   6.922
 5963SOL    HW118788   3.596   4.111   6.939
 5963SOL    HW218789   3.730   4.118   6.846
 5964SOL     OW18790   2.015   6.259   2.810
 5964SOL    HW118791   2.057   6.348   2.791
 5964SOL    HW218792   2.085   6.188   2.808
 5965SOL     OW18793   1.748   0.132   0.318
 5965SOL    HW118794   1.755   0.187   0.235
 5965SOL    HW218795   1.840   0.103   0.347
 5966SOL     OW18796   2.154   1.088   5.187
 5966SOL    HW118797   2.085   1.152   5.222
 5966SOL    HW218798   2.233   1.087   5.249
 5967SOL     OW18799   2.392   1.488   3.951
 5967SOL    HW118800   2.352   1.527   4.033
 5967SOL    HW218801   2.481   1.448   3.973
 5968SOL     OW18802   5.735   2.040   1.334
 5968SOL    HW118803   5.704   1.950   1.303
 5968SOL    HW218804   5.657   2.092   1.366
 5969SOL     OW18805   5.102   0.802   0.156
 5969SOL    HW118806   5.062   0.867   0.221
 5969SOL    HW218807   5.171   0.747   0.203
 5970SOL     OW18808   0.047   3.341   0.832
 5970SOL    HW118809   0.050   3.404   0.755
 5970SOL    HW218810   0.040   3.392   0.917
 5971SOL     OW18811   0.131   6.844   3.785
 5971SOL    HW118812   0.220   6.880   3.758
 5971SOL    HW218813   0.117   6.861   3.883
 5972SOL     OW18814   5.156   4.902   1.008
 5972SOL    HW118815   5.200   4.908   1.098
 5972SOL    HW218816   5.133   4.807   0.989
 5973SOL     OW18817   1.772   2.443   2.705
 5973SOL    HW118818   1.728   2.532   2.696
 5973SOL    HW218819   1.709   2.379   2.750
 5974SOL     OW18820   4.821   1.748   5.751
 5974SOL    HW118821   4.735   1.797   5.738
 5974SOL    HW218822   4.839   1.738   5.849
 5975SOL     OW18823   5.620   5.592   0.628
 5975SOL    HW118824   5.660   5.678   0.597
 5975SOL    HW218825   5.570   5.608   0.713
 5976SOL     OW18826   2.650   3.860   5.764
 5976SOL    HW118827   2.588   3.806   5.708
 5976SOL    HW218828   2.740   3.816   5.768
 5977SOL     OW18829   0.118   5.358   6.923
 5977SOL    HW118830   0.175   5.440   6.912
 5977SOL    HW218831   0.174   5.282   6.953
 5978SOL     OW18832   3.280   5.125   0.677
 5978SOL    HW118833   3.292   5.224   0.667
 5978SOL    HW218834   3.184   5.105   0.693
 5979SOL     OW18835   6.341   0.321   1.467
 5979SOL    HW118836   6.244   0.320   1.444
 5979SOL    HW218837   6.367   0.413   1.499
 5980SOL     OW18838   3.720   3.252   1.965
 5980SOL    HW118839   3.772   3.319   2.018
 5980SOL    HW218840   3.686   3.294   1.881
 5981SOL     OW18841   2.719   2.432   6.850
 5981SOL    HW118842   2.768   2.359   6.802
 5981SOL    HW218843   2.763   2.450   6.938
 5982SOL     OW18844   6.366   2.463   1.276
 5982SOL    HW118845   6.449   2.512   1.301
 5982SOL    HW218846   6.286   2.520   1.297
 5983SOL     OW18847   0.248   0.679   3.827
 5983SOL    HW118848   0.194   0.648   3.749
 5983SOL    HW218849   0.196   0.749   3.877
 5984SOL     OW18850   6.372   6.774   3.064
 5984SOL    HW118851   6.457   6.812   3.102
 5984SOL    HW218852   6.297   6.837   3.080
 5985SOL     OW18853   5.689   2.555   2.495
 5985SOL    HW118854   5.650   2.474   2.450
 5985SOL    HW218855   5.616   2.619   2.518
 5986SOL     OW18856   4.169   3.724   5.284
 5986SOL    HW118857   4.232   3.799   5.303
 5986SOL    HW218858   4.221   3.642   5.258
 5987SOL     OW18859   6.725   0.573   5.574
 5987SOL    HW118860   6.649   0.600   5.633
 5987SOL    HW218861   6.702   0.488   5.526
 5988SOL     OW18862   1.709   2.367   6.729
 5988SOL    HW118863   1.647   2.418   6.670
 5988SOL    HW218864   1.723   2.275   6.692
 5989SOL     OW18865   0.516   5.635   0.146
 5989SOL    HW118866   0.484   5.548   0.185
 5989SOL    HW218867   0.594   5.618   0.086
 5990SOL     OW18868   3.924   4.856   1.597
 5990SOL    HW118869   3.995   4.830   1.663
 5990SOL    HW218870   3.959   4.844   1.504
 5991SOL     OW18871   5.159   6.585   0.954
 5991SOL    HW118872   5.157   6.489   0.981
 5991SOL    HW218873   5.127   6.595   0.860
 5992SOL     OW18874   3.198   0.208   2.208
 5992SOL    HW118875   3.151   0.275   2.265
 5992SOL    HW218876   3.291   0.193   2.243
 5993SOL     OW18877   6.193   1.700   0.148
 5993SOL    HW118878   6.143   1.719   0.232
 5993SOL    HW218879   6.292   1.703   0.165
 5994SOL     OW18880   0.575   3.024   0.207
 5994SOL    HW118881   0.599   3.057   0.115
 5994SOL    HW218882   0.650   2.969   0.243
 5995SOL     OW18883   4.921   3.666   1.234
 5995SOL    HW118884   4.997   3.602   1.234
 5995SOL    HW218885   4.905   3.700   1.326
 5996SOL     OW18886   2.743   5.318   1.545
 5996SOL    HW118887   2.699   5.250   1.604
 5996SOL    HW218888   2.773   5.275   1.460
 5997SOL     OW18889   0.031   0.133   3.182
 5997SOL    HW118890   6.995   0.123   3.261
 5997SOL    HW218891   7.001   0.127   3.098
 5998SOL     OW18892   6.941   0.398   1.109
 5998SOL    HW118893   6.942   0.355   1.019
 5998SOL    HW218894   7.023   0.454   1.120
 5999SOL     OW18895   4.817   2.994   1.225
 5999SOL    HW118896   4.817   2.941   1.310
 5999SOL    HW218897   4.872   3.076   1.237
 6000SOL     OW18898   6.902   4.645   0.528
 6000SOL    HW118899   6.999   4.620   0.533
 6000SOL    HW218900   6.892   4.743   0.543
 6001SOL     OW18901   5.902   6.092   5.218
 6001SOL    HW118902   5.839   6.052   5.152
 6001SOL    HW218903   5.857   6.098   5.308
 6002SOL     OW18904   5.694   6.027   4.982
 6002SOL    HW118905   5.728   6.116   4.952
 6002SOL    HW218906   5.755   5.955   4.950
 6003SOL     OW18907   0.099   3.020   4.557
 6003SOL    HW118908   0.095   2.922   4.541
 6003SOL    HW218909   0.085   3.069   4.471
 6004SOL     OW18910   5.316   2.808   3.628
 6004SOL    HW118911   5.321   2.714   3.595
 6004SOL    HW218912   5.376   2.818   3.708
 6005SOL     OW18913   3.570   5.485   6.143
 6005SOL    HW118914   3.596   5.478   6.046
 6005SOL    HW218915   3.499   5.418   6.164
 6006SOL     OW18916   3.617   5.997   5.710
 6006SOL    HW118917   3.644   5.910   5.751
 6006SOL    HW218918   3.679   6.021   5.636
 6007SOL     OW18919   1.615   5.691   5.316
 6007SOL    HW118920   1.629   5.721   5.411
 6007SOL    HW218921   1.523   5.652   5.307
 6008SOL     OW18922   3.035   4.751   5.711
 6008SOL    HW118923   3.133   4.759   5.690
 6008SOL    HW218924   2.993   4.686   5.648
 6009SOL     OW18925   4.142   5.162   3.353
 6009SOL    HW118926   4.144   5.255   3.316
 6009SOL    HW218927   4.215   5.108   3.310
 6010SOL     OW18928   0.396   5.547   5.242
 6010SOL    HW118929   0.444   5.461   5.260
 6010SOL    HW218930   0.424   5.616   5.309
 6011SOL     OW18931   6.595   1.839   1.803
 6011SOL    HW118932   6.518   1.807   1.747
 6011SOL    HW218933   6.642   1.913   1.756
 6012SOL     OW18934   0.220   0.327   5.769
 6012SOL    HW118935   0.287   0.267   5.815
 6012SOL    HW218936   0.132   0.320   5.816
 6013SOL     OW18937   5.904   1.410   2.421
 6013SOL    HW118938   5.888   1.409   2.520
 6013SOL    HW218939   5.861   1.491   2.381
 6014SOL     OW18940   4.084   3.316   4.172
 6014SOL    HW118941   4.057   3.221   4.151
 6014SOL    HW218942   4.111   3.322   4.268
 6015SOL     OW18943   6.316   1.516   4.844
 6015SOL    HW118944   6.305   1.564   4.931
 6015SOL    HW218945   6.233   1.526   4.790
 6016SOL     OW18946   5.591   1.789   4.503
 6016SOL    HW118947   5.604   1.755   4.596
 6016SOL    HW218948   5.558   1.883   4.506
 6017SOL     OW18949   6.733   2.714   5.764
 6017SOL    HW118950   6.794   2.768   5.823
 6017SOL    HW218951   6.678   2.652   5.820
 6018SOL     OW18952   3.672   0.928   6.127
 6018SOL    HW118953   3.740   0.876   6.075
 6018SOL    HW218954   3.718   0.998   6.181
 6019SOL     OW18955   6.763   3.637   6.970
 6019SOL    HW118956   6.830   3.662   0.017
 6019SOL    HW218957   6.704   3.716   6.952
 6020SOL     OW18958   0.670   4.117   0.124
 6020SOL    HW118959   0.618   4.200   0.147
 6020SOL    HW218960   0.610   4.053   0.077
 6021SOL     OW18961   4.369   0.269   3.220
 6021SOL    HW118962   4.380   0.360   3.260
 6021SOL    HW218963   4.420   0.264   3.135
 6022SOL     OW18964   6.384   1.829   1.628
 6022SOL    HW118965   6.321   1.754   1.608
 6022SOL    HW218966   6.374   1.900   1.558
 6023SOL     OW18967   4.436   1.131   1.529
 6023SOL    HW118968   4.460   1.039   1.499
 6023SOL    HW218969   4.494   1.198   1.483
 6024SOL     OW18970   0.483   5.394   0.250
 6024SOL    HW118971   0.579   5.419   0.257
 6024SOL    HW218972   0.440   5.401   0.340
 6025SOL     OW18973   2.265   1.479   4.510
 6025SOL    HW118974   2.255   1.526   4.598
 6025SOL    HW218975   2.362   1.480   4.483
 6026SOL     OW18976   6.579   4.443   4.269
 6026SOL    HW118977   6.643   4.400   4.205
 6026SOL    HW218978   6.534   4.520   4.226
 6027SOL     OW18979   6.088   3.427   5.918
 6027SOL    HW118980   6.024   3.379   5.977
 6027SOL    HW218981   6.083   3.388   5.826
 6028SOL     OW18982   5.678   4.847   6.165
 6028SOL    HW118983   5.636   4.937   6.180
 6028SOL    HW218984   5.628   4.799   6.093
 6029SOL     OW18985   2.355   0.764   3.246
 6029SOL    HW118986   2.269   0.789   3.290
 6029SOL    HW218987   2.359   0.804   3.155
 6030SOL     OW18988   5.193   4.121   4.964
 6030SOL    HW118989   5.184   4.074   4.876
 6030SOL    HW218990   5.103   4.152   4.995
 6031SOL     OW18991   0.376   6.117   5.361
 6031SOL    HW118992   0.384   6.217   5.361
 6031SOL    HW218993   0.341   6.087   5.450
 6032SOL     OW18994   3.262   5.571   3.862
 6032SOL    HW118995   3.211   5.631   3.924
 6032SOL    HW218996   3.351   5.549   3.902
 6033SOL     OW18997   2.186   1.617   2.827
 6033SOL    HW118998   2.231   1.644   2.742
 6033SOL    HW218999   2.100   1.668   2.837
 6034SOL     OW19000   1.828   0.581   0.149
 6034SOL    HW119001   1.921   0.544   0.149
 6034SOL    HW219002   1.831   0.678   0.123
 6035SOL     OW19003   1.499   0.725   3.076
 6035SOL    HW119004   1.541   0.804   3.122
 6035SOL    HW219005   1.503   0.738   2.977
 6036SOL     OW19006   6.373   2.693   0.667
 6036SOL    HW119007   6.462   2.738   0.672
 6036SOL    HW219008   6.386   2.595   0.655
 6037SOL     OW19009   4.616   2.767   0.817
 6037SOL    HW119010   4.691   2.748   0.881
 6037SOL    HW219011   4.654   2.788   0.727
 6038SOL     OW19012   0.842   2.325   6.113
 6038SOL    HW119013   0.820   2.347   6.017
 6038SOL    HW219014   0.921   2.378   6.142
 6039SOL     OW19015   3.270   3.956   3.682
 6039SOL    HW119016   3.188   3.907   3.710
 6039SOL    HW219017   3.251   4.009   3.600
 6040SOL     OW19018   0.801   1.561   0.073
 6040SOL    HW119019   0.871   1.490   0.063
 6040SOL    HW219020   0.841   1.650   0.052
 6041SOL     OW19021   2.983   3.114   6.162
 6041SOL    HW119022   3.014   3.205   6.190
 6041SOL    HW219023   2.885   3.106   6.178
 6042SOL     OW19024   3.123   5.446   3.298
 6042SOL    HW119025   3.118   5.398   3.211
 6042SOL    HW219026   3.082   5.390   3.370
 6043SOL     OW19027   1.901   0.705   3.607
 6043SOL    HW119028   1.827   0.762   3.642
 6043SOL    HW219029   1.890   0.611   3.641
 6044SOL     OW19030   1.101   2.273   1.666
 6044SOL    HW119031   1.079   2.214   1.744
 6044SOL    HW219032   1.200   2.284   1.660
 6045SOL     OW19033   4.854   2.331   3.739
 6045SOL    HW119034   4.762   2.360   3.715
 6045SOL    HW219035   4.920   2.379   3.681
 6046SOL     OW19036   3.387   3.277   2.456
 6046SOL    HW119037   3.486   3.286   2.471
 6046SOL    HW219038   3.338   3.307   2.537
 6047SOL     OW19039   5.743   1.526   0.479
 6047SOL    HW119040   5.836   1.515   0.445
 6047SOL    HW219041   5.678   1.511   0.404
 6048SOL     OW19042   5.461   5.740   4.436
 6048SOL    HW119043   5.463   5.821   4.378
 6048SOL    HW219044   5.403   5.670   4.393
 6049SOL     OW19045   4.381   4.776   5.353
 6049SOL    HW119046   4.309   4.818   5.408
 6049SOL    HW219047   4.469   4.815   5.377
 6050SOL     OW19048   3.847   5.718   1.483
 6050SOL    HW119049   3.917   5.771   1.435
 6050SOL    HW219050   3.890   5.653   1.545
 6051SOL     OW19051   1.132   1.047   3.205
 6051SOL    HW119052   1.140   1.011   3.111
 6051SOL    HW219053   1.205   1.112   3.222
 6052SOL     OW19054   5.539   0.167   0.317
 6052SOL    HW119055   5.454   0.114   0.315
 6052SOL    HW219056   5.557   0.196   0.411
 6053SOL     OW19057   4.127   2.381   5.930
 6053SOL    HW119058   4.063   2.430   5.870
 6053SOL    HW219059   4.211   2.435   5.940
 6054SOL     OW19060   3.975   4.540   0.773
 6054SOL    HW119061   4.074   4.552   0.763
 6054SOL    HW219062   3.945   4.578   0.861
 6055SOL     OW19063   3.372   4.463   0.296
 6055SOL    HW119064   3.440   4.438   0.227
 6055SOL    HW219065   3.324   4.546   0.268
 6056SOL     OW19066   6.182   4.381   4.936
 6056SOL    HW119067   6.204   4.408   4.842
 6056SOL    HW219068   6.132   4.294   4.935
 6057SOL     OW19069   4.982   0.509   3.240
 6057SOL    HW119070   4.944   0.498   3.148
 6057SOL    HW219071   5.082   0.505   3.236
 6058SOL     OW19072   5.489   2.111   6.131
 6058SOL    HW119073   5.540   2.048   6.072
 6058SOL    HW219074   5.464   2.064   6.215
 6059SOL     OW19075   4.628   4.440   6.446
 6059SOL    HW119076   4.575   4.356   6.447
 6059SOL    HW219077   4.725   4.419   6.453
 6060SOL     OW19078   2.878   2.889   0.161
 6060SOL    HW119079   2.890   2.985   0.135
 6060SOL    HW219080   2.784   2.874   0.191
 6061SOL     OW19081   3.574   4.971   0.244
 6061SOL    HW119082   3.550   4.973   0.341
 6061SOL    HW219083   3.490   4.978   0.189
 6062SOL     OW19084   2.465   3.023   0.632
 6062SOL    HW119085   2.457   2.923   0.629
 6062SOL    HW219086   2.556   3.048   0.663
 6063SOL     OW19087   3.631   5.430   5.895
 6063SOL    HW119088   3.585   5.475   5.818
 6063SOL    HW219089   3.613   5.332   5.892
 6064SOL     OW19090   0.115   6.241   0.633
 6064SOL    HW119091   0.047   6.233   0.560
 6064SOL    HW219092   0.148   6.336   0.637
 6065SOL     OW19093   1.321   5.848   2.090
 6065SOL    HW119094   1.414   5.822   2.114
 6065SOL    HW219095   1.318   5.873   1.993
 6066SOL     OW19096   4.603   0.014   3.759
 6066SOL    HW119097   4.666   0.074   3.807
 6066SOL    HW219098   4.600   0.040   3.662
 6067SOL     OW19099   6.023   0.487   6.064
 6067SOL    HW119100   6.110   0.537   6.066
 6067SOL    HW219101   5.999   0.458   6.157
 6068SOL     OW19102   4.756   1.512   5.641
 6068SOL    HW119103   4.658   1.531   5.645
 6068SOL    HW219104   4.807   1.588   5.679
 6069SOL     OW19105   6.518   3.571   6.358
 6069SOL    HW119106   6.517   3.490   6.299
 6069SOL    HW219107   6.439   3.628   6.338
 6070SOL     OW19108   2.999   1.818   1.134
 6070SOL    HW119109   3.084   1.824   1.081
 6070SOL    HW219110   2.957   1.909   1.140
 6071SOL     OW19111   5.705   0.032   5.484
 6071SOL    HW119112   5.746   0.104   5.427
 6071SOL    HW219113   5.614   0.010   5.449
 6072SOL     OW19114   0.184   2.807   0.489
 6072SOL    HW119115   0.103   2.847   0.531
 6072SOL    HW219116   0.236   2.758   0.559
 6073SOL     OW19117   5.253   2.944   1.252
 6073SOL    HW119118   5.302   2.977   1.332
 6073SOL    HW219119   5.188   3.013   1.221
 6074SOL     OW19120   1.071   5.967   2.489
 6074SOL    HW119121   1.028   6.055   2.508
 6074SOL    HW219122   1.136   5.977   2.413
 6075SOL     OW19123   4.800   6.563   6.354
 6075SOL    HW119124   4.811   6.580   6.452
 6075SOL    HW219125   4.820   6.467   6.334
 6076SOL     OW19126   2.125   5.015   4.112
 6076SOL    HW119127   2.046   5.056   4.066
 6076SOL    HW219128   2.129   4.917   4.092
 6077SOL     OW19129   6.074   6.832   1.712
 6077SOL    HW119130   6.121   6.800   1.794
 6077SOL    HW219131   5.975   6.822   1.725
 6078SOL     OW19132   4.251   3.236   6.963
 6078SOL    HW119133   4.240   3.144   6.925
 6078SOL    HW219134   4.323   3.235   0.009
 6079SOL     OW19135   3.719   4.274   6.284
 6079SOL    HW119136   3.633   4.223   6.291
 6079SOL    HW219137   3.710   4.362   6.331
 6080SOL     OW19138   0.737   4.234   6.788
 6080SOL    HW119139   0.787   4.319   6.769
 6080SOL    HW219140   0.794   4.175   6.847
 6081SOL     OW19141   1.212   3.251   4.627
 6081SOL    HW119142   1.186   3.347   4.622
 6081SOL    HW219143   1.216   3.213   4.535
 6082SOL     OW19144   4.069   1.300   0.944
 6082SOL    HW119145   3.984   1.307   0.995
 6082SOL    HW219146   4.122   1.222   0.978
 6083SOL     OW19147   4.790   6.282   6.297
 6083SOL    HW119148   4.803   6.256   6.201
 6083SOL    HW219149   4.693   6.284   6.318
 6084SOL     OW19150   0.690   6.926   2.720
 6084SOL    HW119151   0.649   6.834   2.720
 6084SOL    HW219152   0.694   6.961   2.813
 6085SOL     OW19153   0.247   5.885   0.116
 6085SOL    HW119154   0.186   5.811   0.143
 6085SOL    HW219155   0.296   5.919   0.196
 6086SOL     OW19156   3.822   3.397   6.605
 6086SOL    HW119157   3.760   3.465   6.565
 6086SOL    HW219158   3.864   3.435   6.688
 6087SOL     OW19159   5.009   6.605   0.695
 6087SOL    HW119160   4.925   6.552   0.689
 6087SOL    HW219161   5.050   6.614   0.604
 6088SOL     OW19162   5.357   0.033   3.649
 6088SOL    HW119163   5.410   0.006   3.730
 6088SOL    HW219164   5.288   0.100   3.676
 6089SOL     OW19165   6.115   2.879   3.105
 6089SOL    HW119166   6.107   2.966   3.056
 6089SOL    HW219167   6.152   2.895   3.196
 6090SOL     OW19168   3.963   6.498   4.328
 6090SOL    HW119169   3.891   6.479   4.395
 6090SOL    HW219170   3.937   6.460   4.239
 6091SOL     OW19171   2.303   1.254   1.490
 6091SOL    HW119172   2.338   1.346   1.509
 6091SOL    HW219173   2.282   1.246   1.393
 6092SOL     OW19174   4.455   6.139   1.713
 6092SOL    HW119175   4.530   6.184   1.760
 6092SOL    HW219176   4.488   6.054   1.671
 6093SOL     OW19177   2.563   1.607   2.476
 6093SOL    HW119178   2.590   1.512   2.462
 6093SOL    HW219179   2.563   1.654   2.387
 6094SOL     OW19180   0.422   6.361   4.787
 6094SOL    HW119181   0.521   6.363   4.793
 6094SOL    HW219182   0.394   6.377   4.692
 6095SOL     OW19183   4.171   5.884   0.161
 6095SOL    HW119184   4.142   5.950   0.092
 6095SOL    HW219185   4.250   5.919   0.210
 6096SOL     OW19186   6.244   6.598   2.185
 6096SOL    HW119187   6.252   6.639   2.276
 6096SOL    HW219188   6.196   6.511   2.191
 6097SOL     OW19189   1.946   6.025   2.210
 6097SOL    HW119190   2.018   6.088   2.182
 6097SOL    HW219191   1.925   5.963   2.134
 6098SOL     OW19192   6.806   1.063   4.910
 6098SOL    HW119193   6.894   1.020   4.894
 6098SOL    HW219194   6.778   1.046   5.005
 6099SOL     OW19195   4.518   6.263   6.316
 6099SOL    HW119196   4.472   6.177   6.336
 6099SOL    HW219197   4.452   6.338   6.323
 6100SOL     OW19198   6.832   5.989   3.830
 6100SOL    HW119199   6.868   5.898   3.808
 6100SOL    HW219200   6.742   6.000   3.787
 6101SOL     OW19201   6.624   2.307   1.057
 6101SOL    HW119202   6.662   2.319   0.965
 6101SOL    HW219203   6.552   2.375   1.073
 6102SOL     OW19204   4.486   6.443   2.065
 6102SOL    HW119205   4.516   6.351   2.038
 6102SOL    HW219206   4.529   6.511   2.006
 6103SOL     OW19207   0.078   1.356   1.369
 6103SOL    HW119208   0.153   1.331   1.308
 6103SOL    HW219209   0.002   1.291   1.357
 6104SOL     OW19210   5.850   1.540   4.633
 6104SOL    HW119211   5.905   1.544   4.550
 6104SOL    HW219212   5.908   1.558   4.713
 6105SOL     OW19213   2.640   5.943   5.784
 6105SOL    HW119214   2.561   5.976   5.732
 6105SOL    HW219215   2.612   5.869   5.845
 6106SOL     OW19216   0.071   4.341   6.914
 6106SOL    HW119217   0.161   4.300   6.921
 6106SOL    HW219218   0.076   4.437   6.941
 6107SOL     OW19219   4.754   4.843   5.081
 6107SOL    HW119220   4.822   4.812   5.148
 6107SOL    HW219221   4.800   4.890   5.006
 6108SOL     OW19222   1.813   1.594   1.484
 6108SOL    HW119223   1.785   1.661   1.552
 6108SOL    HW219224   1.762   1.609   1.399
 6109SOL     OW19225   6.065   6.434   3.215
 6109SOL    HW119226   6.059   6.411   3.118
 6109SOL    HW219227   5.973   6.437   3.254
 6110SOL     OW19228   1.805   1.695   5.360
 6110SOL    HW119229   1.807   1.795   5.362
 6110SOL    HW219230   1.778   1.665   5.268
 6111SOL     OW19231   2.001   4.061   1.496
 6111SOL    HW119232   2.051   4.007   1.428
 6111SOL    HW219233   1.911   4.084   1.460
 6112SOL     OW19234   4.553   0.130   2.738
 6112SOL    HW119235   4.536   0.137   2.640
 6112SOL    HW219236   4.496   0.057   2.776
 6113SOL     OW19237   2.185   5.713   6.737
 6113SOL    HW119238   2.216   5.800   6.774
 6113SOL    HW219239   2.200   5.712   6.638
 6114SOL     OW19240   4.875   1.439   0.802
 6114SOL    HW119241   4.810   1.367   0.824
 6114SOL    HW219242   4.892   1.440   0.703
 6115SOL     OW19243   0.992   0.925   5.247
 6115SOL    HW119244   1.026   1.009   5.205
 6115SOL    HW219245   0.896   0.937   5.272
 6116SOL     OW19246   4.213   1.981   4.936
 6116SOL    HW119247   4.304   1.944   4.954
 6116SOL    HW219248   4.178   1.942   4.851
 6117SOL     OW19249   1.408   1.910   2.538
 6117SOL    HW119250   1.380   1.827   2.490
 6117SOL    HW219251   1.450   1.974   2.473
 6118SOL     OW19252   5.807   0.932   0.098
 6118SOL    HW119253   5.755   0.879   0.030
 6118SOL    HW219254   5.900   0.947   0.064
 6119SOL     OW19255   0.029   1.794   0.773
 6119SOL    HW119256   0.122   1.765   0.794
 6119SOL    HW219257   6.996   1.714   0.754
 6120SOL     OW19258   2.086   0.333   5.897
 6120SOL    HW119259   2.107   0.275   5.976
 6120SOL    HW219260   1.988   0.352   5.895
 6121SOL     OW19261   0.833   2.716   4.868
 6121SOL    HW119262   0.871   2.699   4.959
 6121SOL    HW219263   0.904   2.704   4.799
 6122SOL     OW19264   5.088   5.807   5.572
 6122SOL    HW119265   5.116   5.866   5.648
 6122SOL    HW219266   4.993   5.827   5.547
 6123SOL     OW19267   6.028   1.340   5.312
 6123SOL    HW119268   5.946   1.287   5.335
 6123SOL    HW219269   6.005   1.438   5.311
 6124SOL     OW19270   2.403   0.063   4.364
 6124SOL    HW119271   2.439   0.044   4.456
 6124SOL    HW219272   2.328   0.000   4.343
 6125SOL     OW19273   1.809   2.882   6.708
 6125SOL    HW119274   1.845   2.789   6.702
 6125SOL    HW219275   1.818   2.927   6.620
 6126SOL     OW19276   6.512   2.883   5.136
 6126SOL    HW119277   6.547   2.790   5.140
 6126SOL    HW219278   6.535   2.924   5.048
 6127SOL     OW19279   4.246   2.172   1.389
 6127SOL    HW119280   4.256   2.207   1.296
 6127SOL    HW219281   4.213   2.245   1.448
 6128SOL     OW19282   5.944   6.285   0.502
 6128SOL    HW119283   5.907   6.358   0.559
 6128SOL    HW219284   5.917   6.300   0.407
 6129SOL     OW19285   1.613   4.488   3.043
 6129SOL    HW119286   1.579   4.557   3.106
 6129SOL    HW219287   1.710   4.471   3.061
 6130SOL     OW19288   5.245   3.307   1.425
 6130SOL    HW119289   5.207   3.240   1.489
 6130SOL    HW219290   5.297   3.376   1.475
 6131SOL     OW19291   0.160   1.900   2.525
 6131SOL    HW119292   0.130   1.947   2.608
 6131SOL    HW219293   0.132   1.953   2.445
 6132SOL     OW19294   3.098   2.108   6.617
 6132SOL    HW119295   3.073   2.044   6.690
 6132SOL    HW219296   3.103   2.059   6.530
 6133SOL     OW19297   1.636   2.341   3.834
 6133SOL    HW119298   1.640   2.245   3.862
 6133SOL    HW219299   1.552   2.383   3.868
 6134SOL     OW19300   5.134   6.149   6.040
 6134SOL    HW119301   5.174   6.142   6.131
 6134SOL    HW219302   5.074   6.071   6.023
 6135SOL     OW19303   6.065   0.690   6.963
 6135SOL    HW119304   6.023   0.669   6.874
 6135SOL    HW219305   6.079   0.789   6.970
 6136SOL     OW19306   1.088   2.765   2.553
 6136SOL    HW119307   1.038   2.698   2.609
 6136SOL    HW219308   1.161   2.718   2.503
 6137SOL     OW19309   6.978   4.460   2.741
 6137SOL    HW119310   0.020   4.388   2.759
 6137SOL    HW219311   7.022   4.535   2.691
 6138SOL     OW19312   2.939   0.065   2.158
 6138SOL    HW119313   3.037   0.080   2.172
 6138SOL    HW219314   2.889   0.149   2.182
 6139SOL     OW19315   1.769   6.659   5.671
 6139SOL    HW119316   1.850   6.605   5.650
 6139SOL    HW219317   1.712   6.610   5.737
 6140SOL     OW19318   2.049   0.196   3.274
 6140SOL    HW119319   2.028   0.227   3.182
 6140SOL    HW219320   2.145   0.169   3.280
 6141SOL     OW19321   0.323   0.579   5.754
 6141SOL    HW119322   0.279   0.490   5.760
 6141SOL    HW219323   0.420   0.570   5.777
 6142SOL     OW19324   0.167   0.939   0.604
 6142SOL    HW119325   0.151   1.035   0.579
 6142SOL    HW219326   0.235   0.935   0.678
 6143SOL     OW19327   5.872   3.448   6.260
 6143SOL    HW119328   5.779   3.460   6.226
 6143SOL    HW219329   5.899   3.529   6.312
 6144SOL     OW19330   4.969   4.419   2.886
 6144SOL    HW119331   4.916   4.468   2.955
 6144SOL    HW219332   4.916   4.413   2.801
 6145SOL     OW19333   4.920   3.427   4.530
 6145SOL    HW119334   4.890   3.468   4.444
 6145SOL    HW219335   4.899   3.329   4.528
 6146SOL     OW19336   4.661   0.777   4.775
 6146SOL    HW119337   4.581   0.804   4.721
 6146SOL    HW219338   4.648   0.803   4.870
 6147SOL     OW19339   2.573   2.452   3.901
 6147SOL    HW119340   2.647   2.448   3.968
 6147SOL    HW219341   2.493   2.495   3.943
 6148SOL     OW19342   3.429   5.601   6.720
 6148SOL    HW119343   3.463   5.540   6.649
 6148SOL    HW219344   3.498   5.672   6.739
 6149SOL     OW19345   2.560   0.245   1.868
 6149SOL    HW119346   2.563   0.339   1.835
 6149SOL    HW219347   2.521   0.186   1.797
 6150SOL     OW19348   6.012   3.953   6.374
 6150SOL    HW119349   6.032   3.961   6.472
 6150SOL    HW219350   5.989   4.043   6.338
 6151SOL     OW19351   4.952   4.448   4.492
 6151SOL    HW119352   4.981   4.355   4.470
 6151SOL    HW219353   4.904   4.448   4.580
 6152SOL     OW19354   0.454   4.578   4.025
 6152SOL    HW119355   0.376   4.602   4.082
 6152SOL    HW219356   0.424   4.521   3.949
 6153SOL     OW19357   5.020   5.366   1.180
 6153SOL    HW119358   4.990   5.444   1.125
 6153SOL    HW219359   5.059   5.399   1.266
 6154SOL     OW19360   5.546   3.299   2.597
 6154SOL    HW119361   5.599   3.222   2.563
 6154SOL    HW219362   5.608   3.372   2.626
 6155SOL     OW19363   2.356   0.887   3.006
 6155SOL    HW119364   2.426   0.940   2.960
 6155SOL    HW219365   2.266   0.929   2.990
 6156SOL     OW19366   5.321   4.459   1.136
 6156SOL    HW119367   5.366   4.533   1.185
 6156SOL    HW219368   5.390   4.404   1.087
 6157SOL     OW19369   1.165   2.042   3.011
 6157SOL    HW119370   1.116   2.104   2.950
 6157SOL    HW219371   1.263   2.054   2.999
 6158SOL     OW19372   2.614   2.778   5.439
 6158SOL    HW119373   2.687   2.722   5.478
 6158SOL    HW219374   2.642   2.874   5.436
 6159SOL     OW19375   6.059   1.763   0.384
 6159SOL    HW119376   6.046   1.858   0.413
 6159SOL    HW219377   6.085   1.707   0.464
 6160SOL     OW19378   0.401   6.839   6.591
 6160SOL    HW119379   0.375   6.873   6.681
 6160SOL    HW219380   0.477   6.774   6.601
 6161SOL     OW19381   5.054   2.157   6.550
 6161SOL    HW119382   5.039   2.233   6.488
 6161SOL    HW219383   5.148   2.124   6.540
 6162SOL     OW19384   6.546   5.847   2.826
 6162SOL    HW119385   6.608   5.832   2.903
 6162SOL    HW219386   6.594   5.893   2.752
 6163SOL     OW19387   5.927   6.622   2.891
 6163SOL    HW119388   5.964   6.694   2.950
 6163SOL    HW219389   5.941   6.533   2.933
 6164SOL     OW19390   4.108   3.597   4.162
 6164SOL    HW119391   4.121   3.498   4.171
 6164SOL    HW219392   4.095   3.620   4.066
 6165SOL     OW19393   4.229   2.093   0.347
 6165SOL    HW119394   4.196   2.100   0.253
 6165SOL    HW219395   4.175   2.152   0.406
 6166SOL     OW19396   0.643   2.195   6.787
 6166SOL    HW119397   0.592   2.194   6.874
 6166SOL    HW219398   0.715   2.263   6.792
 6167SOL     OW19399   1.168   3.679   3.961
 6167SOL    HW119400   1.234   3.653   4.032
 6167SOL    HW219401   1.155   3.603   3.898
 6168SOL     OW19402   6.856   2.769   4.254
 6168SOL    HW119403   6.928   2.787   4.321
 6168SOL    HW219404   6.869   2.830   4.176
 6169SOL     OW19405   1.258   6.841   6.929
 6169SOL    HW119406   1.252   6.857   6.830
 6169SOL    HW219407   1.330   6.898   6.968
 6170SOL     OW19408   3.523   4.364   0.062
 6170SOL    HW119409   3.518   4.399   6.992
 6170SOL    HW219410   3.535   4.264   0.059
 6171SOL     OW19411   1.479   4.959   2.806
 6171SOL    HW119412   1.479   4.859   2.808
 6171SOL    HW219413   1.393   4.992   2.766
 6172SOL     OW19414   1.522   6.978   2.576
 6172SOL    HW119415   1.477   6.896   2.611
 6172SOL    HW219416   1.578   6.955   2.497
 6173SOL     OW19417   1.134   4.403   3.424
 6173SOL    HW119418   1.038   4.424   3.404
 6173SOL    HW219419   1.152   4.307   3.402
 6174SOL     OW19420   5.853   4.927   2.601
 6174SOL    HW119421   5.783   4.859   2.623
 6174SOL    HW219422   5.934   4.880   2.567
 6175SOL     OW19423   5.144   6.520   2.640
 6175SOL    HW119424   5.068   6.477   2.688
 6175SOL    HW219425   5.164   6.469   2.556
 6176SOL     OW19426   5.887   3.037   6.241
 6176SOL    HW119427   5.806   3.048   6.298
 6176SOL    HW219428   5.930   2.949   6.259
 6177SOL     OW19429   5.423   2.037   1.869
 6177SOL    HW119430   5.324   2.026   1.862
 6177SOL    HW219431   5.462   1.956   1.913
 6178SOL     OW19432   4.904   3.821   0.588
 6178SOL    HW119433   4.826   3.772   0.626
 6178SOL    HW219434   4.909   3.912   0.629
 6179SOL     OW19435   0.555   3.079   5.291
 6179SOL    HW119436   0.655   3.077   5.284
 6179SOL    HW219437   0.527   3.160   5.343
 6180SOL     OW19438   3.549   6.728   0.975
 6180SOL    HW119439   3.512   6.637   0.992
 6180SOL    HW219440   3.601   6.758   1.055
 6181SOL     OW19441   5.087   6.268   6.831
 6181SOL    HW119442   5.166   6.299   6.883
 6181SOL    HW219443   5.069   6.172   6.851
 6182SOL     OW19444   5.328   5.554   5.720
 6182SOL    HW119445   5.245   5.570   5.667
 6182SOL    HW219446   5.304   5.520   5.811
 6183SOL     OW19447   2.671   0.059   2.986
 6183SOL    HW119448   2.748   0.003   3.018
 6183SOL    HW219449   2.585   0.012   3.008
 6184SOL     OW19450   0.879   0.374   6.647
 6184SOL    HW119451   0.901   0.406   6.555
 6184SOL    HW219452   0.906   0.278   6.657
 6185SOL     OW19453   6.722   4.049   6.494
 6185SOL    HW119454   6.627   4.059   6.466
 6185SOL    HW219455   6.780   4.105   6.434
 6186SOL     OW19456   5.403   0.473   3.619
 6186SOL    HW119457   5.397   0.493   3.521
 6186SOL    HW219458   5.496   0.493   3.651
 6187SOL     OW19459   4.693   4.482   4.230
 6187SOL    HW119460   4.736   4.553   4.285
 6187SOL    HW219461   4.682   4.399   4.284
 6188SOL     OW19462   3.095   6.242   1.358
 6188SOL    HW119463   3.183   6.195   1.351
 6188SOL    HW219464   3.044   6.230   1.273
 6189SOL     OW19465   5.303   5.462   3.271
 6189SOL    HW119466   5.312   5.561   3.266
 6189SOL    HW219467   5.340   5.422   3.186
 6190SOL     OW19468   4.819   2.712   6.236
 6190SOL    HW119469   4.870   2.679   6.156
 6190SOL    HW219470   4.839   2.653   6.314
 6191SOL     OW19471   5.731   1.951   0.387
 6191SOL    HW119472   5.777   1.910   0.466
 6191SOL    HW219473   5.761   1.905   0.303
 6192SOL     OW19474   2.984   3.436   0.652
 6192SOL    HW119475   2.931   3.496   0.712
 6192SOL    HW219476   2.923   3.397   0.582
 6193SOL     OW19477   5.383   0.190   2.217
 6193SOL    HW119478   5.335   0.179   2.130
 6193SOL    HW219479   5.345   0.268   2.266
 6194SOL     OW19480   2.257   0.853   1.032
 6194SOL    HW119481   2.181   0.792   1.011
 6194SOL    HW219482   2.237   0.945   0.998
 6195SOL     OW19483   3.745   6.066   6.204
 6195SOL    HW119484   3.660   6.085   6.156
 6195SOL    HW219485   3.793   5.991   6.157
 6196SOL     OW19486   1.390   2.121   5.722
 6196SOL    HW119487   1.365   2.119   5.625
 6196SOL    HW219488   1.407   2.216   5.749
 6197SOL     OW19489   2.587   4.246   1.027
 6197SOL    HW119490   2.498   4.223   0.988
 6197SOL    HW219491   2.637   4.162   1.049
 6198SOL     OW19492   3.831   4.854   2.649
 6198SOL    HW119493   3.770   4.842   2.570
 6198SOL    HW219494   3.797   4.928   2.706
 6199SOL     OW19495   1.378   0.277   0.909
 6199SOL    HW119496   1.410   0.193   0.954
 6199SOL    HW219497   1.443   0.302   0.837
 6200SOL     OW19498   3.180   1.206   6.552
 6200SOL    HW119499   3.135   1.147   6.619
 6200SOL    HW219500   3.138   1.194   6.462
 6201SOL     OW19501   2.012   3.520   5.325
 6201SOL    HW119502   1.953   3.596   5.352
 6201SOL    HW219503   2.082   3.553   5.262
 6202SOL     OW19504   3.207   2.093   1.168
 6202SOL    HW119505   3.202   2.047   1.256
 6202SOL    HW219506   3.261   2.038   1.105
 6203SOL     OW19507   5.218   1.241   4.592
 6203SOL    HW119508   5.193   1.148   4.564
 6203SOL    HW219509   5.151   1.274   4.659
 6204SOL     OW19510   1.293   5.507   5.101
 6204SOL    HW119511   1.327   5.593   5.064
 6204SOL    HW219512   1.291   5.437   5.029
 6205SOL     OW19513   5.279   5.457   6.707
 6205SOL    HW119514   5.221   5.389   6.663
 6205SOL    HW219515   5.374   5.424   6.709
 6206SOL     OW19516   6.689   0.594   1.663
 6206SOL    HW119517   6.731   0.670   1.614
 6206SOL    HW219518   6.702   0.510   1.611
 6207SOL     OW19519   1.169   4.283   5.181
 6207SOL    HW119520   1.256   4.237   5.162
 6207SOL    HW219521   1.119   4.297   5.095
 6208SOL     OW19522   6.574   0.166   6.266
 6208SOL    HW119523   6.500   0.099   6.278
 6208SOL    HW219524   6.662   0.122   6.285
 6209SOL     OW19525   4.563   6.199   0.151
 6209SOL    HW119526   4.551   6.295   0.179
 6209SOL    HW219527   4.648   6.164   0.190
 6210SOL     OW19528   5.175   3.582   2.666
 6210SOL    HW119529   5.214   3.527   2.739
 6210SOL    HW219530   5.244   3.645   2.630
 6211SOL     OW19531   2.360   0.683   5.925
 6211SOL    HW119532   2.354   0.603   5.865
 6211SOL    HW219533   2.282   0.686   5.986
 6212SOL     OW19534   6.576   6.109   3.704
 6212SOL    HW119535   6.570   6.194   3.757
 6212SOL    HW219536   6.589   6.130   3.608
 6213SOL     OW19537   5.654   0.540   6.803
 6213SOL    HW119538   5.715   0.521   6.726
 6213SOL    HW219539   5.692   0.500   6.886
 6214SOL     OW19540   5.889   4.845   2.173
 6214SOL    HW119541   5.961   4.788   2.213
 6214SOL    HW219542   5.921   4.883   2.086
 6215SOL     OW19543   3.057   2.734   0.923
 6215SOL    HW119544   3.142   2.765   0.966
 6215SOL    HW219545   3.018   2.660   0.978
 6216SOL     OW19546   5.762   1.344   2.059
 6216SOL    HW119547   5.789   1.294   2.141
 6216SOL    HW219548   5.824   1.320   1.984
 6217SOL     OW19549   4.712   2.936   1.546
 6217SOL    HW119550   4.617   2.944   1.577
 6217SOL    HW219551   4.772   2.922   1.625
 6218SOL     OW19552   2.174   4.941   4.832
 6218SOL    HW119553   2.223   4.875   4.776
 6218SOL    HW219554   2.078   4.943   4.805
 6219SOL     OW19555   1.410   2.223   5.106
 6219SOL    HW119556   1.479   2.224   5.179
 6219SOL    HW219557   1.435   2.289   5.036
 6220SOL     OW19558   2.000   4.662   5.545
 6220SOL    HW119559   2.040   4.620   5.627
 6220SOL    HW219560   1.908   4.626   5.531
 6221SOL     OW19561   4.436   5.468   4.362
 6221SOL    HW119562   4.382   5.402   4.413
 6221SOL    HW219563   4.375   5.527   4.308
 6222SOL     OW19564   6.964   0.056   1.803
 6222SOL    HW119565   6.997   0.113   1.728
 6222SOL    HW219566   6.866   0.072   1.816
 6223SOL     OW19567   5.685   4.331   4.691
 6223SOL    HW119568   5.708   4.238   4.661
 6223SOL    HW219569   5.767   4.376   4.725
 6224SOL     OW19570   1.790   1.313   5.745
 6224SOL    HW119571   1.761   1.371   5.669
 6224SOL    HW219572   1.785   1.365   5.830
 6225SOL     OW19573   3.465   3.561   0.993
 6225SOL    HW119574   3.411   3.558   1.077
 6225SOL    HW219575   3.418   3.508   0.921
 6226SOL     OW19576   5.393   0.784   4.104
 6226SOL    HW119577   5.439   0.824   4.024
 6226SOL    HW219578   5.373   0.856   4.170
 6227SOL     OW19579   3.242   4.359   5.688
 6227SOL    HW119580   3.244   4.349   5.787
 6227SOL    HW219581   3.259   4.271   5.645
 6228SOL     OW19582   6.580   1.292   3.015
 6228SOL    HW119583   6.538   1.208   2.982
 6228SOL    HW219584   6.553   1.369   2.957
 6229SOL     OW19585   2.664   2.318   3.003
 6229SOL    HW119586   2.581   2.323   3.059
 6229SOL    HW219587   2.740   2.359   3.053
 6230SOL     OW19588   2.616   1.217   4.264
 6230SOL    HW119589   2.539   1.153   4.256
 6230SOL    HW219590   2.599   1.279   4.340
 6231SOL     OW19591   0.273   4.883   1.108
 6231SOL    HW119592   0.251   4.972   1.147
 6231SOL    HW219593   0.227   4.811   1.160
 6232SOL     OW19594   0.029   1.267   0.061
 6232SOL    HW119595   0.010   1.327   0.138
 6232SOL    HW219596   0.121   1.284   0.027
 6233SOL     OW19597   5.215   1.876   6.739
 6233SOL    HW119598   5.159   1.799   6.712
 6233SOL    HW219599   5.173   1.923   6.817
 6234SOL     OW19600   1.647   1.734   4.428
 6234SOL    HW119601   1.726   1.750   4.370
 6234SOL    HW219602   1.669   1.665   4.497
 6235SOL     OW19603   1.958   6.700   3.036
 6235SOL    HW119604   1.946   6.754   3.119
 6235SOL    HW219605   1.932   6.605   3.054
 6236SOL     OW19606   0.530   5.256   1.160
 6236SOL    HW119607   0.559   5.293   1.072
 6236SOL    HW219608   0.549   5.158   1.164
 6237SOL     OW19609   4.492   0.214   0.659
 6237SOL    HW119610   4.461   0.119   0.646
 6237SOL    HW219611   4.435   0.275   0.605
 6238SOL     OW19612   5.086   5.474   1.987
 6238SOL    HW119613   5.165   5.443   2.041
 6238SOL    HW219614   5.017   5.512   2.048
 6239SOL     OW19615   3.188   6.974   2.554
 6239SOL    HW119616   3.135   7.010   2.630
 6239SOL    HW219617   3.142   6.895   2.515
 6240SOL     OW19618   1.938   3.052   0.427
 6240SOL    HW119619   2.035   3.079   0.433
 6240SOL    HW219620   1.929   2.955   0.448
 6241SOL     OW19621   2.574   0.595   1.748
 6241SOL    HW119622   2.547   0.665   1.815
 6241SOL    HW219623   2.663   0.557   1.772
 6242SOL     OW19624   4.973   1.722   3.715
 6242SOL    HW119625   5.029   1.800   3.687
 6242SOL    HW219626   4.888   1.756   3.756
 6243SOL     OW19627   5.580   6.681   3.838
 6243SOL    HW119628   5.533   6.620   3.774
 6243SOL    HW219629   5.526   6.690   3.921
 6244SOL     OW19630   2.709   2.413   2.582
 6244SOL    HW119631   2.796   2.455   2.607
 6244SOL    HW219632   2.725   2.339   2.516
 6245SOL     OW19633   2.758   4.712   1.520
 6245SOL    HW119634   2.779   4.618   1.544
 6245SOL    HW219635   2.720   4.715   1.427
 6246SOL     OW19636   2.854   1.868   6.121
 6246SOL    HW119637   2.930   1.813   6.086
 6246SOL    HW219638   2.772   1.811   6.127
 6247SOL     OW19639   0.506   6.258   3.778
 6247SOL    HW119640   0.497   6.199   3.698
 6247SOL    HW219641   0.421   6.310   3.790
 6248SOL     OW19642   0.805   4.431   1.388
 6248SOL    HW119643   0.816   4.425   1.487
 6248SOL    HW219644   0.768   4.344   1.354
 6249SOL     OW19645   0.125   4.593   0.035
 6249SOL    HW119646   0.045   4.617   0.091
 6249SOL    HW219647   0.179   4.676   0.018
 6250SOL     OW19648   6.843   6.193   0.189
 6250SOL    HW119649   6.928   6.236   0.220
 6250SOL    HW219650   6.841   6.191   0.089
 6251SOL     OW19651   4.254   1.134   1.037
 6251SOL    HW119652   4.325   1.064   1.032
 6251SOL    HW219653   4.281   1.204   1.104
 6252SOL     OW19654   2.639   4.954   4.675
 6252SOL    HW119655   2.643   4.857   4.697
 6252SOL    HW219656   2.641   5.008   4.759
 6253SOL     OW19657   2.522   4.085   1.719
 6253SOL    HW119658   2.474   4.154   1.771
 6253SOL    HW219659   2.511   4.103   1.621
 6254SOL     OW19660   6.138   6.834   0.180
 6254SOL    HW119661   6.104   6.910   0.125
 6254SOL    HW219662   6.138   6.750   0.125
 6255SOL     OW19663   1.082   1.426   1.805
 6255SOL    HW119664   1.096   1.469   1.715
 6255SOL    HW219665   1.099   1.328   1.797
 6256SOL     OW19666   4.199   4.723   2.819
 6256SOL    HW119667   4.108   4.694   2.848
 6256SOL    HW219668   4.265   4.701   2.890
 6257SOL     OW19669   5.762   2.595   1.012
 6257SOL    HW119670   5.686   2.584   0.948
 6257SOL    HW219671   5.848   2.605   0.962
 6258SOL     OW19672   4.098   1.129   2.247
 6258SOL    HW119673   4.060   1.205   2.194
 6258SOL    HW219674   4.042   1.047   2.233
 6259SOL     OW19675   3.079   1.873   0.868
 6259SOL    HW119676   3.071   1.888   0.770
 6259SOL    HW219677   3.171   1.899   0.899
 6260SOL     OW19678   4.076   3.692   0.708
 6260SOL    HW119679   4.000   3.636   0.741
 6260SOL    HW219680   4.048   3.740   0.625
 6261SOL     OW19681   3.682   0.240   0.349
 6261SOL    HW119682   3.763   0.212   0.297
 6261SOL    HW219683   3.603   0.242   0.289
 6262SOL     OW19684   1.240   4.275   0.237
 6262SOL    HW119685   1.249   4.371   0.261
 6262SOL    HW219686   1.194   4.266   0.149
 6263SOL     OW19687   0.152   6.702   6.582
 6263SOL    HW119688   0.141   6.603   6.576
 6263SOL    HW219689   0.249   6.725   6.575
 6264SOL     OW19690   2.810   1.879   0.776
 6264SOL    HW119691   2.897   1.855   0.820
 6264SOL    HW219692   2.801   1.978   0.774
 6265SOL     OW19693   3.920   4.631   1.042
 6265SOL    HW119694   3.864   4.605   1.121
 6265SOL    HW219695   3.970   4.715   1.062
 6266SOL     OW19696   3.474   1.175   3.685
 6266SOL    HW119697   3.536   1.253   3.697
 6266SOL    HW219698   3.423   1.159   3.769
 6267SOL     OW19699   2.953   0.258   0.206
 6267SOL    HW119700   3.044   0.299   0.210
 6267SOL    HW219701   2.898   0.290   0.284
 6268SOL     OW19702   3.236   5.136   2.778
 6268SOL    HW119703   3.166   5.166   2.713
 6268SOL    HW219704   3.208   5.049   2.819
 6269SOL     OW19705   6.338   5.929   2.163
 6269SOL    HW119706   6.268   5.877   2.212
 6269SOL    HW219707   6.298   5.968   2.080
 6270SOL     OW19708   1.548   1.218   4.918
 6270SOL    HW119709   1.488   1.239   4.840
 6270SOL    HW219710   1.620   1.156   4.889
 6271SOL     OW19711   6.920   2.663   6.419
 6271SOL    HW119712   6.889   2.589   6.359
 6271SOL    HW219713   7.018   2.676   6.409
 6272SOL     OW19714   2.323   2.786   4.384
 6272SOL    HW119715   2.227   2.763   4.399
 6272SOL    HW219716   2.377   2.758   4.463
 6273SOL     OW19717   2.028   1.250   1.378
 6273SOL    HW119718   2.013   1.187   1.454
 6273SOL    HW219719   2.006   1.205   1.291
 6274SOL     OW19720   3.483   5.980   6.605
 6274SOL    HW119721   3.541   5.934   6.672
 6274SOL    HW219722   3.393   5.996   6.645
 6275SOL     OW19723   2.406   0.178   5.150
 6275SOL    HW119724   2.402   0.157   5.052
 6275SOL    HW219725   2.328   0.136   5.196
 6276SOL     OW19726   0.899   5.236   3.502
 6276SOL    HW119727   0.976   5.229   3.565
 6276SOL    HW219728   0.881   5.333   3.482
 6277SOL     OW19729   5.625   2.388   2.750
 6277SOL    HW119730   5.634   2.478   2.708
 6277SOL    HW219731   5.583   2.325   2.686
 6278SOL     OW19732   4.734   0.249   4.546
 6278SOL    HW119733   4.743   0.331   4.601
 6278SOL    HW219734   4.650   0.254   4.492
 6279SOL     OW19735   3.768   1.874   0.654
 6279SOL    HW119736   3.793   1.939   0.582
 6279SOL    HW219737   3.716   1.921   0.725
 6280SOL     OW19738   0.372   3.396   5.984
 6280SOL    HW119739   0.336   3.489   5.973
 6280SOL    HW219740   0.409   3.365   5.897
 6281SOL     OW19741   2.097   0.444   5.340
 6281SOL    HW119742   2.055   0.371   5.393
 6281SOL    HW219743   2.119   0.411   5.248
 6282SOL     OW19744   1.904   0.070   4.847
 6282SOL    HW119745   1.829   0.008   4.868
 6282SOL    HW219746   1.920   0.132   4.923
 6283SOL     OW19747   0.064   2.589   5.461
 6283SOL    HW119748   7.006   2.593   5.519
 6283SOL    HW219749   0.064   2.504   5.409
 6284SOL     OW19750   1.133   5.027   5.452
 6284SOL    HW119751   1.168   5.060   5.539
 6284SOL    HW219752   1.189   4.949   5.421
 6285SOL     OW19753   1.293   2.848   3.980
 6285SOL    HW119754   1.249   2.777   3.926
 6285SOL    HW219755   1.356   2.807   4.046
 6286SOL     OW19756   5.765   1.516   2.882
 6286SOL    HW119757   5.711   1.556   2.807
 6286SOL    HW219758   5.829   1.585   2.916
 6287SOL     OW19759   4.837   3.968   2.088
 6287SOL    HW119760   4.792   3.911   2.020
 6287SOL    HW219761   4.904   4.028   2.044
 6288SOL     OW19762   5.117   3.828   0.428
 6288SOL    HW119763   5.184   3.872   0.487
 6288SOL    HW219764   5.039   3.798   0.483
 6289SOL     OW19765   2.004   2.288   3.723
 6289SOL    HW119766   1.913   2.310   3.758
 6289SOL    HW219767   2.064   2.367   3.732
 6290SOL     OW19768   5.245   3.996   4.033
 6290SOL    HW119769   5.278   4.017   3.941
 6290SOL    HW219770   5.315   3.944   4.082
 6291SOL     OW19771   3.809   3.581   3.571
 6291SOL    HW119772   3.908   3.570   3.575
 6291SOL    HW219773   3.779   3.642   3.644
 6292SOL     OW19774   0.714   1.843   3.418
 6292SOL    HW119775   0.665   1.894   3.347
 6292SOL    HW219776   0.653   1.774   3.458
 6293SOL     OW19777   5.523   0.229   6.854
 6293SOL    HW119778   5.577   0.197   6.932
 6293SOL    HW219779   5.584   0.270   6.786
 6294SOL     OW19780   3.466   5.438   2.767
 6294SOL    HW119781   3.488   5.396   2.679
 6294SOL    HW219782   3.514   5.390   2.840
 6295SOL     OW19783   5.595   5.629   5.787
 6295SOL    HW119784   5.512   5.580   5.761
 6295SOL    HW219785   5.669   5.605   5.724
 6296SOL     OW19786   6.783   0.899   3.710
 6296SOL    HW119787   6.865   0.866   3.756
 6296SOL    HW219788   6.759   0.990   3.746
 6297SOL     OW19789   5.497   6.233   5.632
 6297SOL    HW119790   5.594   6.218   5.613
 6297SOL    HW219791   5.476   6.330   5.622
 6298SOL     OW19792   0.282   3.286   5.720
 6298SOL    HW119793   0.245   3.232   5.645
 6298SOL    HW219794   0.335   3.362   5.684
 6299SOL     OW19795   6.130   2.718   6.831
 6299SOL    HW119796   6.134   2.790   6.900
 6299SOL    HW219797   6.035   2.687   6.821
 6300SOL     OW19798   5.469   1.119   4.627
 6300SOL    HW119799   5.482   1.061   4.547
 6300SOL    HW219800   5.390   1.179   4.612
 6301SOL     OW19801   2.950   6.185   1.060
 6301SOL    HW119802   2.939   6.086   1.059
 6301SOL    HW219803   2.866   6.228   1.093
 6302SOL     OW19804   1.704   0.950   3.609
 6302SOL    HW119805   1.722   1.013   3.683
 6302SOL    HW219806   1.608   0.958   3.581
 6303SOL     OW19807   2.370   6.759   5.333
 6303SOL    HW119808   2.278   6.776   5.370
 6303SOL    HW219809   2.362   6.729   5.238
 6304SOL     OW19810   2.831   1.338   0.214
 6304SOL    HW119811   2.814   1.334   0.312
 6304SOL    HW219812   2.927   1.317   0.195
 6305SOL     OW19813   0.146   6.865   1.623
 6305SOL    HW119814   0.156   6.961   1.598
 6305SOL    HW219815   0.110   6.859   1.716
 6306SOL     OW19816   6.429   2.942   3.951
 6306SOL    HW119817   6.353   2.902   3.899
 6306SOL    HW219818   6.407   3.037   3.975
 6307SOL     OW19819   2.690   5.095   5.822
 6307SOL    HW119820   2.706   5.107   5.920
 6307SOL    HW219821   2.777   5.085   5.775
 6308SOL     OW19822   2.208   1.890   5.034
 6308SOL    HW119823   2.153   1.807   5.033
 6308SOL    HW219824   2.304   1.867   5.047
 6309SOL     OW19825   5.374   2.163   3.923
 6309SOL    HW119826   5.442   2.216   3.871
 6309SOL    HW219827   5.350   2.081   3.871
 6310SOL     OW19828   1.247   4.545   4.721
 6310SOL    HW119829   1.289   4.477   4.661
 6310SOL    HW219830   1.210   4.620   4.667
 6311SOL     OW19831   6.885   0.050   4.994
 6311SOL    HW119832   6.809   0.075   4.934
 6311SOL    HW219833   6.917   0.130   5.044
 6312SOL     OW19834   4.412   5.159   6.723
 6312SOL    HW119835   4.324   5.181   6.680
 6312SOL    HW219836   4.486   5.203   6.673
 6313SOL     OW19837   2.000   5.637   3.316
 6313SOL    HW119838   1.929   5.702   3.292
 6313SOL    HW219839   1.959   5.557   3.361
 6314SOL     OW19840   2.836   5.877   2.433
 6314SOL    HW119841   2.768   5.897   2.504
 6314SOL    HW219842   2.803   5.803   2.374
 6315SOL     OW19843   3.673   3.358   0.098
 6315SOL    HW119844   3.700   3.262   0.093
 6315SOL    HW219845   3.664   3.396   0.006
 6316SOL     OW19846   4.442   1.963   6.197
 6316SOL    HW119847   4.500   1.887   6.228
 6316SOL    HW219848   4.355   1.960   6.247
 6317SOL     OW19849   5.027   6.367   2.352
 6317SOL    HW119850   5.025   6.268   2.370
 6317SOL    HW219851   4.933   6.401   2.341
 6318SOL     OW19852   2.478   2.452   5.448
 6318SOL    HW119853   2.427   2.538   5.445
 6318SOL    HW219854   2.445   2.396   5.524
 6319SOL     OW19855   0.602   2.964   3.528
 6319SOL    HW119856   0.528   2.915   3.572
 6319SOL    HW219857   0.679   2.902   3.512
 6320SOL     OW19858   5.837   3.654   3.277
 6320SOL    HW119859   5.909   3.605   3.227
 6320SOL    HW219860   5.815   3.605   3.360
 6321SOL     OW19861   3.135   5.660   0.218
 6321SOL    HW119862   3.178   5.713   0.145
 6321SOL    HW219863   3.138   5.712   0.303
 6322SOL     OW19864   1.363   1.097   6.684
 6322SOL    HW119865   1.414   1.179   6.658
 6322SOL    HW219866   1.283   1.087   6.626
 6323SOL     OW19867   3.709   2.668   1.502
 6323SOL    HW119868   3.640   2.661   1.429
 6323SOL    HW219869   3.682   2.610   1.579
 6324SOL     OW19870   4.036   0.871   5.595
 6324SOL    HW119871   4.025   0.917   5.683
 6324SOL    HW219872   4.118   0.813   5.598
 6325SOL     OW19873   0.887   2.629   2.391
 6325SOL    HW119874   0.946   2.699   2.432
 6325SOL    HW219875   0.791   2.650   2.410
 6326SOL     OW19876   5.551   5.877   1.446
 6326SOL    HW119877   5.604   5.793   1.456
 6326SOL    HW219878   5.546   5.902   1.349
 6327SOL     OW19879   5.465   6.016   5.413
 6327SOL    HW119880   5.380   5.967   5.395
 6327SOL    HW219881   5.447   6.091   5.477
 6328SOL     OW19882   1.912   3.944   6.894
 6328SOL    HW119883   1.914   3.959   6.993
 6328SOL    HW219884   2.001   3.968   6.856
 6329SOL     OW19885   1.556   1.403   3.604
 6329SOL    HW119886   1.648   1.441   3.607
 6329SOL    HW219887   1.504   1.436   3.683
 6330SOL     OW19888   4.357   0.746   0.200
 6330SOL    HW119889   4.426   0.811   0.169
 6330SOL    HW219890   4.368   0.731   0.298
 6331SOL     OW19891   6.760   1.965   0.891
 6331SOL    HW119892   6.774   1.868   0.870
 6331SOL    HW219893   6.739   1.976   0.988
 6332SOL     OW19894   6.434   5.850   1.259
 6332SOL    HW119895   6.411   5.757   1.287
 6332SOL    HW219896   6.475   5.899   1.336
 6333SOL     OW19897   3.372   4.938   3.744
 6333SOL    HW119898   3.339   5.026   3.710
 6333SOL    HW219899   3.454   4.912   3.692
 6334SOL     OW19900   2.451   0.127   2.093
 6334SOL    HW119901   2.481   0.193   2.025
 6334SOL    HW219902   2.445   0.036   2.051
 6335SOL     OW19903   6.577   0.926   6.335
 6335SOL    HW119904   6.480   0.933   6.358
 6335SOL    HW219905   6.589   0.856   6.264
 6336SOL     OW19906   0.081   2.418   4.722
 6336SOL    HW119907   0.124   2.473   4.651
 6336SOL    HW219908   0.148   2.397   4.793
 6337SOL     OW19909   4.744   3.654   6.099
 6337SOL    HW119910   4.795   3.570   6.079
 6337SOL    HW219911   4.648   3.641   6.075
 6338SOL     OW19912   2.770   1.530   2.143
 6338SOL    HW119913   2.715   1.515   2.061
 6338SOL    HW219914   2.709   1.537   2.223
 6339SOL     OW19915   0.493   2.414   3.606
 6339SOL    HW119916   0.487   2.314   3.615
 6339SOL    HW219917   0.586   2.443   3.630
 6340SOL     OW19918   2.812   5.766   3.880
 6340SOL    HW119919   2.832   5.710   3.961
 6340SOL    HW219920   2.779   5.707   3.806
 6341SOL     OW19921   6.798   4.696   3.761
 6341SOL    HW119922   6.877   4.637   3.780
 6341SOL    HW219923   6.788   4.763   3.834
 6342SOL     OW19924   2.326   2.725   2.583
 6342SOL    HW119925   2.245   2.703   2.637
 6342SOL    HW219926   2.403   2.669   2.613
 6343SOL     OW19927   3.796   1.848   6.603
 6343SOL    HW119928   3.820   1.927   6.661
 6343SOL    HW219929   3.738   1.785   6.655
 6344SOL     OW19930   0.177   3.885   4.918
 6344SOL    HW119931   0.089   3.901   4.963
 6344SOL    HW219932   0.185   3.946   4.839
 6345SOL     OW19933   3.569   1.483   2.179
 6345SOL    HW119934   3.513   1.565   2.169
 6345SOL    HW219935   3.602   1.455   2.089
 6346SOL     OW19936   0.216   3.562   3.429
 6346SOL    HW119937   0.160   3.608   3.499
 6346SOL    HW219938   0.225   3.465   3.452
 6347SOL     OW19939   3.021   0.684   1.216
 6347SOL    HW119940   3.082   0.605   1.223
 6347SOL    HW219941   2.942   0.660   1.159
 6348SOL     OW19942   0.700   2.938   4.622
 6348SOL    HW119943   0.738   3.030   4.631
 6348SOL    HW219944   0.659   2.910   4.709
 6349SOL     OW19945   2.847   0.580   0.997
 6349SOL    HW119946   2.777   0.525   0.953
 6349SOL    HW219947   2.927   0.587   0.937
 6350SOL     OW19948   1.673   5.912   2.240
 6350SOL    HW119949   1.630   6.002   2.236
 6350SOL    HW219950   1.770   5.922   2.265
 6351SOL     OW19951   0.234   1.966   2.182
 6351SOL    HW119952   0.202   2.036   2.118
 6351SOL    HW219953   0.166   1.894   2.189
 6352SOL     OW19954   1.805   5.290   2.941
 6352SOL    HW119955   1.889   5.238   2.956
 6352SOL    HW219956   1.792   5.305   2.843
 6353SOL     OW19957   0.642   0.117   0.129
 6353SOL    HW119958   0.638   0.110   0.229
 6353SOL    HW219959   0.607   0.033   0.088
 6354SOL     OW19960   1.213   6.969   2.511
 6354SOL    HW119961   1.217   0.044   2.495
 6354SOL    HW219962   1.267   6.921   2.442
 6355SOL     OW19963   1.664   3.083   3.531
 6355SOL    HW119964   1.573   3.041   3.539
 6355SOL    HW219965   1.722   3.050   3.605
 6356SOL     OW19966   4.392   4.759   1.070
 6356SOL    HW119967   4.326   4.812   1.016
 6356SOL    HW219968   4.352   4.670   1.093
 6357SOL     OW19969   4.696   2.842   0.506
 6357SOL    HW119970   4.609   2.890   0.509
 6357SOL    HW219971   4.751   2.876   0.430
 6358SOL     OW19972   0.256   1.998   4.081
 6358SOL    HW119973   0.173   2.029   4.127
 6358SOL    HW219974   0.326   1.977   4.150
 6359SOL     OW19975   6.985   0.689   5.640
 6359SOL    HW119976   0.031   0.659   5.575
 6359SOL    HW219977   6.896   0.649   5.616
 6360SOL     OW19978   2.304   4.833   4.239
 6360SOL    HW119979   2.360   4.819   4.321
 6360SOL    HW219980   2.355   4.888   4.173
 6361SOL     OW19981   4.366   5.777   6.218
 6361SOL    HW119982   4.464   5.793   6.209
 6361SOL    HW219983   4.348   5.735   6.307
 6362SOL     OW19984   5.868   4.800   6.891
 6362SOL    HW119985   5.958   4.772   6.856
 6362SOL    HW219986   5.805   4.722   6.885
 6363SOL     OW19987   1.462   5.781   4.434
 6363SOL    HW119988   1.548   5.731   4.424
 6363SOL    HW219989   1.420   5.758   4.522
 6364SOL     OW19990   2.631   2.549   5.715
 6364SOL    HW119991   2.657   2.521   5.808
 6364SOL    HW219992   2.712   2.582   5.666
 6365SOL     OW19993   4.598   0.080   3.504
 6365SOL    HW119994   4.553   0.169   3.507
 6365SOL    HW219995   4.673   0.083   3.438
 6366SOL     OW19996   0.414   4.985   5.376
 6366SOL    HW119997   0.401   4.968   5.278
 6366SOL    HW219998   0.503   4.950   5.404
 6367SOL     OW19999   5.048   0.787   3.474
 6367SOL    HW120000   4.993   0.711   3.510
 6367SOL    HW220001   5.107   0.753   3.400
 6368SOL     OW20002   3.024   0.201   4.053
 6368SOL    HW120003   3.022   0.101   4.056
 6368SOL    HW220004   3.118   0.232   4.046
 6369SOL     OW20005   2.733   5.381   3.991
 6369SOL    HW120006   2.646   5.358   4.034
 6369SOL    HW220007   2.769   5.301   3.943
 6370SOL     OW20008   6.720   2.205   1.512
 6370SOL    HW120009   6.654   2.188   1.585
 6370SOL    HW220010   6.754   2.299   1.519
 6371SOL     OW20011   5.126   3.167   2.532
 6371SOL    HW120012   5.204   3.136   2.587
 6371SOL    HW220013   5.070   3.088   2.507
 6372SOL     OW20014   3.507   6.367   2.126
 6372SOL    HW120015   3.542   6.279   2.157
 6372SOL    HW220016   3.583   6.422   2.090
 6373SOL     OW20017   4.704   4.472   5.720
 6373SOL    HW120018   4.618   4.424   5.732
 6373SOL    HW220019   4.697   4.565   5.757
 6374SOL     OW20020   2.944   3.268   3.254
 6374SOL    HW120021   2.999   3.195   3.295
 6374SOL    HW220022   2.915   3.332   3.326
 6375SOL     OW20023   1.769   0.355   2.859
 6375SOL    HW120024   1.704   0.416   2.814
 6375SOL    HW220025   1.809   0.400   2.939
 6376SOL     OW20026   6.997   2.197   4.464
 6376SOL    HW120027   6.904   2.164   4.477
 6376SOL    HW220028   7.011   2.279   4.521
 6377SOL     OW20029   0.472   1.470   4.798
 6377SOL    HW120030   0.411   1.393   4.781
 6377SOL    HW220031   0.418   1.551   4.821
 6378SOL     OW20032   4.849   4.061   4.333
 6378SOL    HW120033   4.833   4.013   4.419
 6378SOL    HW220034   4.909   4.007   4.274
 6379SOL     OW20035   2.224   4.046   3.811
 6379SOL    HW120036   2.229   3.947   3.824
 6379SOL    HW220037   2.128   4.076   3.820
 6380SOL     OW20038   0.526   1.528   6.147
 6380SOL    HW120039   0.440   1.551   6.101
 6380SOL    HW220040   0.556   1.606   6.202
 6381SOL     OW20041   3.218   3.369   3.022
 6381SOL    HW120042   3.210   3.278   3.062
 6381SOL    HW220043   3.134   3.392   2.973
 6382SOL     OW20044   1.009   2.780   5.775
 6382SOL    HW120045   1.023   2.688   5.809
 6382SOL    HW220046   0.939   2.826   5.829
 6383SOL     OW20047   2.682   1.854   4.161
 6383SOL    HW120048   2.668   1.939   4.211
 6383SOL    HW220049   2.778   1.827   4.167
 6384SOL     OW20050   5.891   5.156   2.443
 6384SOL    HW120051   5.855   5.074   2.486
 6384SOL    HW220052   5.882   5.149   2.344
 6385SOL     OW20053   6.839   5.301   3.980
 6385SOL    HW120054   6.829   5.399   3.994
 6385SOL    HW220055   6.794   5.275   3.895
 6386SOL     OW20056   2.401   5.687   1.023
 6386SOL    HW120057   2.314   5.735   1.012
 6386SOL    HW220058   2.392   5.594   0.987
 6387SOL     OW20059   0.196   2.287   5.682
 6387SOL    HW120060   0.295   2.272   5.680
 6387SOL    HW220061   0.149   2.198   5.684
 6388SOL     OW20062   3.366   4.763   1.637
 6388SOL    HW120063   3.397   4.694   1.703
 6388SOL    HW220064   3.272   4.791   1.659
 6389SOL     OW20065   1.306   5.634   3.315
 6389SOL    HW120066   1.401   5.621   3.286
 6389SOL    HW220067   1.249   5.561   3.276
 6390SOL     OW20068   0.076   2.434   3.722
 6390SOL    HW120069   0.137   2.423   3.644
 6390SOL    HW220070   0.099   2.519   3.770
 6391SOL     OW20071   3.016   2.016   0.330
 6391SOL    HW120072   3.009   2.112   0.304
 6391SOL    HW220073   2.933   1.968   0.302
 6392SOL     OW20074   2.198   7.011   3.565
 6392SOL    HW120075   2.240   6.940   3.508
 6392SOL    HW220076   2.100   6.994   3.572
 6393SOL     OW20077   6.310   6.643   0.812
 6393SOL    HW120078   6.403   6.609   0.822
 6393SOL    HW220079   6.305   6.739   0.839
 6394SOL     OW20080   2.358   5.175   0.744
 6394SOL    HW120081   2.353   5.190   0.646
 6394SOL    HW220082   2.316   5.252   0.792
 6395SOL     OW20083   5.763   1.451   1.080
 6395SOL    HW120084   5.827   1.423   1.152
 6395SOL    HW220085   5.796   1.536   1.038
 6396SOL     OW20086   4.724   2.877   5.893
 6396SOL    HW120087   4.658   2.930   5.947
 6396SOL    HW220088   4.780   2.821   5.954
 6397SOL     OW20089   0.249   2.397   6.816
 6397SOL    HW120090   0.317   2.429   6.882
 6397SOL    HW220091   0.290   2.395   6.724
 6398SOL     OW20092   2.813   1.660   1.725
 6398SOL    HW120093   2.810   1.568   1.765
 6398SOL    HW220094   2.728   1.708   1.746
 6399SOL     OW20095   1.770   5.561   6.946
 6399SOL    HW120096   1.845   5.572   6.881
 6399SOL    HW220097   1.688   5.604   6.910
 6400SOL     OW20098   2.696   5.606   3.676
 6400SOL    HW120099   2.654   5.528   3.724
 6400SOL    HW220100   2.625   5.672   3.653
 6401SOL     OW20101   7.022   4.938   3.281
 6401SOL    HW120102   0.046   4.923   3.194
 6401SOL    HW220103   0.057   4.910   3.357
 6402SOL     OW20104   2.707   0.964   3.082
 6402SOL    HW120105   2.705   0.985   2.984
 6402SOL    HW220106   2.799   0.933   3.107
 6403SOL     OW20107   1.242   4.328   6.723
 6403SOL    HW120108   1.335   4.313   6.689
 6403SOL    HW220109   1.229   4.425   6.742
 6404SOL     OW20110   4.334   2.055   3.374
 6404SOL    HW120111   4.356   2.077   3.469
 6404SOL    HW220112   4.268   1.980   3.372
 6405SOL     OW20113   2.511   1.975   2.419
 6405SOL    HW120114   2.536   1.882   2.394
 6405SOL    HW220115   2.505   2.031   2.336
 6406SOL     OW20116   2.015   1.066   4.078
 6406SOL    HW120117   2.113   1.053   4.071
 6406SOL    HW220118   1.968   1.004   4.016
 6407SOL     OW20119   3.325   5.900   5.140
 6407SOL    HW120120   3.392   5.973   5.156
 6407SOL    HW220121   3.252   5.907   5.208
 6408SOL     OW20122   5.951   1.473   6.421
 6408SOL    HW120123   5.979   1.553   6.473
 6408SOL    HW220124   5.967   1.489   6.323
 6409SOL     OW20125   6.464   3.427   3.160
 6409SOL    HW120126   6.563   3.421   3.175
 6409SOL    HW220127   6.423   3.479   3.235
 6410SOL     OW20128   1.455   1.561   0.467
 6410SOL    HW120129   1.458   1.636   0.400
 6410SOL    HW220130   1.547   1.548   0.505
 6411SOL     OW20131   0.469   1.087   3.406
 6411SOL    HW120132   0.496   1.107   3.501
 6411SOL    HW220133   0.550   1.087   3.348
 6412SOL     OW20134   6.810   2.950   5.566
 6412SOL    HW120135   6.883   2.936   5.499
 6412SOL    HW220136   6.735   3.001   5.524
 6413SOL     OW20137   6.668   5.132   1.581
 6413SOL    HW120138   6.729   5.211   1.574
 6413SOL    HW220139   6.707   5.064   1.642
 6414SOL     OW20140   6.478   0.330   1.001
 6414SOL    HW120141   6.478   0.408   1.064
 6414SOL    HW220142   6.552   0.268   1.025
 6415SOL     OW20143   1.746   2.271   2.007
 6415SOL    HW120144   1.734   2.256   1.909
 6415SOL    HW220145   1.739   2.369   2.027
 6416SOL     OW20146   1.162   6.975   6.641
 6416SOL    HW120147   1.259   7.002   6.638
 6416SOL    HW220148   1.135   6.938   6.553
 6417SOL     OW20149   0.821   6.871   3.383
 6417SOL    HW120150   0.904   6.820   3.361
 6417SOL    HW220151   0.786   6.840   3.472
 6418SOL     OW20152   7.002   5.319   2.193
 6418SOL    HW120153   0.018   5.287   2.279
 6418SOL    HW220154   0.028   5.399   2.161
 6419SOL     OW20155   3.586   4.995   1.885
 6419SOL    HW120156   3.624   4.903   1.895
 6419SOL    HW220157   3.632   5.043   1.810
 6420SOL     OW20158   2.997   3.677   6.519
 6420SOL    HW120159   3.065   3.614   6.554
 6420SOL    HW220160   3.035   3.769   6.515
 6421SOL     OW20161   5.270   0.598   1.380
 6421SOL    HW120162   5.292   0.570   1.474
 6421SOL    HW220163   5.271   0.698   1.374
 6422SOL     OW20164   6.662   1.078   3.428
 6422SOL    HW120165   6.591   1.075   3.358
 6422SOL    HW220166   6.674   0.987   3.468
 6423SOL     OW20167   5.182   3.325   0.811
 6423SOL    HW120168   5.146   3.355   0.723
 6423SOL    HW220169   5.110   3.277   0.862
 6424SOL     OW20170   6.015   3.665   6.382
 6424SOL    HW120171   6.106   3.624   6.383
 6424SOL    HW220172   6.022   3.763   6.362
 6425SOL     OW20173   0.560   4.239   2.443
 6425SOL    HW120174   0.470   4.283   2.446
 6425SOL    HW220175   0.620   4.282   2.510
 6426SOL     OW20176   1.259   2.308   3.284
 6426SOL    HW120177   1.185   2.352   3.335
 6426SOL    HW220178   1.250   2.208   3.291
 6427SOL     OW20179   0.981   3.465   5.557
 6427SOL    HW120180   1.065   3.415   5.535
 6427SOL    HW220181   0.954   3.445   5.651
 6428SOL     OW20182   6.805   3.792   2.148
 6428SOL    HW120183   6.753   3.820   2.067
 6428SOL    HW220184   6.897   3.765   2.120
 6429SOL     OW20185   1.846   0.899   4.616
 6429SOL    HW120186   1.809   0.807   4.602
 6429SOL    HW220187   1.943   0.892   4.642
 6430SOL     OW20188   5.442   1.373   1.725
 6430SOL    HW120189   5.373   1.381   1.796
 6430SOL    HW220190   5.398   1.376   1.635
 6431SOL     OW20191   4.738   6.439   3.107
 6431SOL    HW120192   4.672   6.469   3.175
 6431SOL    HW220193   4.691   6.390   3.034
 6432SOL     OW20194   4.759   3.613   0.933
 6432SOL    HW120195   4.763   3.553   1.013
 6432SOL    HW220196   4.790   3.705   0.959
 6433SOL     OW20197   2.910   4.291   1.418
 6433SOL    HW120198   2.917   4.321   1.323
 6433SOL    HW220199   2.920   4.192   1.423
 6434SOL     OW20200   1.014   4.127   0.764
 6434SOL    HW120201   1.037   4.032   0.787
 6434SOL    HW220202   0.917   4.143   0.784
 6435SOL     OW20203   3.970   5.024   0.037
 6435SOL    HW120204   3.883   5.020   7.010
 6435SOL    HW220205   4.009   4.932   0.042
 6436SOL     OW20206   2.008   3.106   3.494
 6436SOL    HW120207   1.970   3.176   3.433
 6436SOL    HW220208   2.067   3.150   3.562
 6437SOL     OW20209   1.119   0.112   6.954
 6437SOL    HW120210   1.123   0.102   0.029
 6437SOL    HW220211   1.166   0.035   6.910
 6438SOL     OW20212   0.875   3.919   4.334
 6438SOL    HW120213   0.784   3.877   4.331
 6438SOL    HW220214   0.945   3.847   4.337
 6439SOL     OW20215   1.136   6.629   0.858
 6439SOL    HW120216   1.118   6.551   0.917
 6439SOL    HW220217   1.167   6.597   0.768
 6440SOL     OW20218   1.144   1.913   2.347
 6440SOL    HW120219   1.224   1.962   2.312
 6440SOL    HW220220   1.111   1.958   2.430
 6441SOL     OW20221   1.906   1.044   3.464
 6441SOL    HW120222   1.842   0.988   3.515
 6441SOL    HW220223   1.871   1.137   3.456
 6442SOL     OW20224   2.369   2.081   4.339
 6442SOL    HW120225   2.340   2.118   4.251
 6442SOL    HW220226   2.468   2.071   4.340
 6443SOL     OW20227   2.741   3.010   0.673
 6443SOL    HW120228   2.770   3.085   0.613
 6443SOL    HW220229   2.795   2.928   0.650
 6444SOL     OW20230   0.809   1.590   2.741
 6444SOL    HW120231   0.907   1.601   2.758
 6444SOL    HW220232   0.763   1.568   2.828
 6445SOL     OW20233   4.171   2.792   5.305
 6445SOL    HW120234   4.158   2.702   5.264
 6445SOL    HW220235   4.268   2.817   5.302
 6446SOL     OW20236   6.796   1.389   6.311
 6446SOL    HW120237   6.785   1.420   6.405
 6446SOL    HW220238   6.735   1.312   6.294
 6447SOL     OW20239   2.070   6.327   2.348
 6447SOL    HW120240   2.133   6.390   2.304
 6447SOL    HW220241   2.116   6.239   2.362
 6448SOL     OW20242   6.635   3.034   2.816
 6448SOL    HW120243   6.645   2.965   2.888
 6448SOL    HW220244   6.725   3.063   2.785
 6449SOL     OW20245   3.606   3.423   1.749
 6449SOL    HW120246   3.507   3.434   1.737
 6449SOL    HW220247   3.643   3.367   1.675
 6450SOL     OW20248   6.336   3.602   1.359
 6450SOL    HW120249   6.372   3.529   1.417
 6450SOL    HW220250   6.403   3.676   1.353
 6451SOL     OW20251   2.586   6.429   5.410
 6451SOL    HW120252   2.597   6.378   5.325
 6451SOL    HW220253   2.661   6.495   5.420
 6452SOL     OW20254   3.336   0.098   4.427
 6452SOL    HW120255   3.271   0.165   4.462
 6452SOL    HW220256   3.316   0.009   4.468
 6453SOL     OW20257   1.308   6.487   0.053
 6453SOL    HW120258   1.241   6.454   0.120
 6453SOL    HW220259   1.348   6.573   0.086
 6454SOL     OW20260   2.918   1.745   4.229
 6454SOL    HW120261   3.005   1.698   4.213
 6454SOL    HW220262   2.927   1.807   4.307
 6455SOL     OW20263   6.865   2.935   5.211
 6455SOL    HW120264   6.782   2.967   5.257
 6455SOL    HW220265   6.941   2.936   5.276
 6456SOL     OW20266   0.824   0.437   3.228
 6456SOL    HW120267   0.789   0.483   3.309
 6456SOL    HW220268   0.757   0.443   3.154
 6457SOL     OW20269   6.537   2.621   1.409
 6457SOL    HW120270   6.613   2.573   1.452
 6457SOL    HW220271   6.467   2.641   1.478
 6458SOL     OW20272   1.467   5.514   3.022
 6458SOL    HW120273   1.476   5.472   2.931
 6458SOL    HW220274   1.393   5.468   3.072
 6459SOL     OW20275   6.518   4.402   0.261
 6459SOL    HW120276   6.561   4.341   0.328
 6459SOL    HW220277   6.440   4.448   0.303
 6460SOL     OW20278   4.270   4.472   6.897
 6460SOL    HW120279   4.268   4.482   6.997
 6460SOL    HW220280   4.363   4.489   6.864
 6461SOL     OW20281   2.573   5.012   5.195
 6461SOL    HW120282   2.628   5.046   5.271
 6461SOL    HW220283   2.626   4.946   5.142
 6462SOL     OW20284   1.949   3.289   5.164
 6462SOL    HW120285   2.035   3.268   5.211
 6462SOL    HW220286   1.889   3.339   5.226
 6463SOL     OW20287   2.759   4.859   6.543
 6463SOL    HW120288   2.677   4.802   6.550
 6463SOL    HW220289   2.816   4.845   6.624
 6464SOL     OW20290   0.391   5.223   3.487
 6464SOL    HW120291   0.342   5.251   3.570
 6464SOL    HW220292   0.357   5.276   3.409
 6465SOL     OW20293   5.720   1.751   3.765
 6465SOL    HW120294   5.737   1.774   3.669
 6465SOL    HW220295   5.804   1.713   3.805
 6466SOL     OW20296   0.245   2.733   5.048
 6466SOL    HW120297   0.264   2.660   5.113
 6466SOL    HW220298   0.269   2.821   5.088
 6467SOL     OW20299   2.776   1.380   6.598
 6467SOL    HW120300   2.807   1.424   6.514
 6467SOL    HW220301   2.814   1.287   6.603
 6468SOL     OW20302   4.906   6.117   1.512
 6468SOL    HW120303   4.917   6.205   1.558
 6468SOL    HW220304   4.883   6.047   1.580
 6469SOL     OW20305   6.753   0.657   5.303
 6469SOL    HW120306   6.773   0.612   5.390
 6469SOL    HW220307   6.809   0.616   5.231
 6470SOL     OW20308   6.259   6.555   5.939
 6470SOL    HW120309   6.212   6.643   5.950
 6470SOL    HW220310   6.335   6.565   5.875
 6471SOL     OW20311   6.810   5.108   6.630
 6471SOL    HW120312   6.780   5.069   6.544
 6471SOL    HW220313   6.803   5.040   6.702
 6472SOL     OW20314   0.864   6.209   1.802
 6472SOL    HW120315   0.769   6.218   1.831
 6472SOL    HW220316   0.872   6.135   1.735
 6473SOL     OW20317   2.150   1.417   6.173
 6473SOL    HW120318   2.098   1.350   6.121
 6473SOL    HW220319   2.140   1.398   6.271
 6474SOL     OW20320   1.123   3.585   5.861
 6474SOL    HW120321   1.048   3.520   5.853
 6474SOL    HW220322   1.191   3.567   5.790
 6475SOL     OW20323   5.643   6.520   3.531
 6475SOL    HW120324   5.667   6.423   3.522
 6475SOL    HW220325   5.618   6.555   3.441
 6476SOL     OW20326   4.244   4.738   3.152
 6476SOL    HW120327   4.178   4.805   3.119
 6476SOL    HW220328   4.268   4.759   3.247
 6477SOL     OW20329   6.375   5.415   6.881
 6477SOL    HW120330   6.416   5.444   6.968
 6477SOL    HW220331   6.400   5.320   6.863
 6478SOL     OW20332   4.595   5.860   1.994
 6478SOL    HW120333   4.553   5.796   2.059
 6478SOL    HW220334   4.535   5.939   1.982
 6479SOL     OW20335   4.442   5.043   2.320
 6479SOL    HW120336   4.424   4.981   2.244
 6479SOL    HW220337   4.540   5.066   2.322
 6480SOL     OW20338   3.185   2.687   6.780
 6480SOL    HW120339   3.113   2.635   6.735
 6480SOL    HW220340   3.190   2.779   6.740
 6481SOL     OW20341   3.515   1.270   1.399
 6481SOL    HW120342   3.523   1.364   1.367
 6481SOL    HW220343   3.549   1.264   1.493
 6482SOL     OW20344   6.779   6.806   0.124
 6482SOL    HW120345   6.776   6.905   0.115
 6482SOL    HW220346   6.719   6.777   0.198
 6483SOL     OW20347   1.823   6.359   2.228
 6483SOL    HW120348   1.912   6.379   2.268
 6483SOL    HW220349   1.835   6.308   2.143
 6484SOL     OW20350   4.929   0.076   2.690
 6484SOL    HW120351   4.870   0.125   2.625
 6484SOL    HW220352   5.025   0.088   2.663
 6485SOL     OW20353   1.748   2.774   3.838
 6485SOL    HW120354   1.680   2.708   3.805
 6485SOL    HW220355   1.701   2.856   3.870
 6486SOL     OW20356   1.463   3.604   4.057
 6486SOL    HW120357   1.552   3.598   4.101
 6486SOL    HW220358   1.394   3.560   4.114
 6487SOL     OW20359   6.242   6.695   3.757
 6487SOL    HW120360   6.281   6.646   3.679
 6487SOL    HW220361   6.244   6.637   3.838
 6488SOL     OW20362   2.713   5.455   6.249
 6488SOL    HW120363   2.731   5.450   6.347
 6488SOL    HW220364   2.798   5.445   6.199
 6489SOL     OW20365   2.293   1.951   6.172
 6489SOL    HW120366   2.325   1.958   6.078
 6489SOL    HW220367   2.274   2.043   6.208
 6490SOL     OW20368   3.933   2.733   0.421
 6490SOL    HW120369   3.991   2.661   0.459
 6490SOL    HW220370   3.991   2.810   0.392
 6491SOL     OW20371   4.777   1.235   6.617
 6491SOL    HW120372   4.741   1.200   6.530
 6491SOL    HW220373   4.868   1.196   6.633
 6492SOL     OW20374   6.945   6.627   0.060
 6492SOL    HW120375   6.869   6.692   0.061
 6492SOL    HW220376   6.999   6.638   0.143
 6493SOL     OW20377   2.326   6.572   6.540
 6493SOL    HW120378   2.377   6.595   6.457
 6493SOL    HW220379   2.261   6.645   6.560
 6494SOL     OW20380   1.300   0.049   3.649
 6494SOL    HW120381   1.342   0.107   3.579
 6494SOL    HW220382   1.369   0.027   3.719
 6495SOL     OW20383   5.197   5.313   2.885
 6495SOL    HW120384   5.135   5.236   2.896
 6495SOL    HW220385   5.286   5.290   2.925
 6496SOL     OW20386   0.633   6.253   1.965
 6496SOL    HW120387   0.609   6.312   1.889
 6496SOL    HW220388   0.568   6.268   2.040
 6497SOL     OW20389   2.048   3.957   0.760
 6497SOL    HW120390   2.142   3.990   0.755
 6497SOL    HW220391   1.986   4.035   0.769
 6498SOL     OW20392   1.825   3.758   4.461
 6498SOL    HW120393   1.815   3.750   4.561
 6498SOL    HW220394   1.882   3.683   4.427
 6499SOL     OW20395   4.811   1.047   4.749
 6499SOL    HW120396   4.883   1.035   4.817
 6499SOL    HW220397   4.755   0.964   4.744
 6500SOL     OW20398   5.715   4.053   3.126
 6500SOL    HW120399   5.692   4.120   3.055
 6500SOL    HW220400   5.778   3.985   3.088
 6501SOL     OW20401   5.627   4.045   0.969
 6501SOL    HW120402   5.671   4.105   1.037
 6501SOL    HW220403   5.528   4.047   0.982
 6502SOL     OW20404   0.795   4.502   3.752
 6502SOL    HW120405   0.725   4.565   3.788
 6502SOL    HW220406   0.805   4.517   3.654
 6503SOL     OW20407   6.136   6.317   3.577
 6503SOL    HW120408   6.219   6.366   3.555
 6503SOL    HW220409   6.058   6.379   3.575
 6504SOL     OW20410   3.638   1.073   0.118
 6504SOL    HW120411   3.637   1.049   0.215
 6504SOL    HW220412   3.631   0.989   0.063
 6505SOL     OW20413   6.219   4.840   0.419
 6505SOL    HW120414   6.249   4.751   0.383
 6505SOL    HW220415   6.248   4.848   0.514
 6506SOL     OW20416   1.283   3.545   0.886
 6506SOL    HW120417   1.237   3.465   0.846
 6506SOL    HW220418   1.324   3.599   0.814
 6507SOL     OW20419   2.297   6.076   1.335
 6507SOL    HW120420   2.256   6.109   1.420
 6507SOL    HW220421   2.240   6.104   1.257
 6508SOL     OW20422   2.271   2.119   3.451
 6508SOL    HW120423   2.351   2.097   3.395
 6508SOL    HW220424   2.301   2.149   3.542
 6509SOL     OW20425   1.838   2.538   4.525
 6509SOL    HW120426   1.804   2.473   4.457
 6509SOL    HW220427   1.920   2.501   4.569
 6510SOL     OW20428   6.360   4.834   6.489
 6510SOL    HW120429   6.411   4.838   6.402
 6510SOL    HW220430   6.403   4.896   6.555
 6511SOL     OW20431   6.302   6.781   5.617
 6511SOL    HW120432   6.351   6.862   5.649
 6511SOL    HW220433   6.361   6.727   5.558
 6512SOL     OW20434   4.813   6.483   2.779
 6512SOL    HW120435   4.862   6.440   2.854
 6512SOL    HW220436   4.861   6.566   2.751
 6513SOL     OW20437   4.356   6.736   3.631
 6513SOL    HW120438   4.410   6.678   3.693
 6513SOL    HW220439   4.358   6.697   3.539
 6514SOL     OW20440   4.680   0.711   4.465
 6514SOL    HW120441   4.618   0.667   4.530
 6514SOL    HW220442   4.774   0.690   4.490
 6515SOL     OW20443   6.801   6.299   4.147
 6515SOL    HW120444   6.779   6.256   4.060
 6515SOL    HW220445   6.720   6.347   4.181
 6516SOL     OW20446   1.107   2.143   5.604
 6516SOL    HW120447   1.110   2.227   5.550
 6516SOL    HW220448   1.090   2.065   5.544
 6517SOL     OW20449   0.735   1.411   0.411
 6517SOL    HW120450   0.644   1.446   0.389
 6517SOL    HW220451   0.795   1.486   0.436
 6518SOL     OW20452   0.382   6.311   1.495
 6518SOL    HW120453   0.370   6.346   1.403
 6518SOL    HW220454   0.458   6.360   1.539
 6519SOL     OW20455   2.011   1.370   4.060
 6519SOL    HW120456   2.034   1.277   4.032
 6519SOL    HW220457   2.047   1.386   4.152
 6520SOL     OW20458   6.697   5.750   2.384
 6520SOL    HW120459   6.662   5.794   2.302
 6520SOL    HW220460   6.730   5.820   2.448
 6521SOL     OW20461   0.611   1.767   5.152
 6521SOL    HW120462   0.512   1.760   5.141
 6521SOL    HW220463   0.635   1.751   5.248
 6522SOL     OW20464   2.450   5.662   6.539
 6522SOL    HW120465   2.365   5.680   6.489
 6522SOL    HW220466   2.431   5.656   6.637
 6523SOL     OW20467   2.197   1.732   6.562
 6523SOL    HW120468   2.099   1.748   6.568
 6523SOL    HW220469   2.217   1.680   6.478
 6524SOL     OW20470   3.764   3.453   4.076
 6524SOL    HW120471   3.734   3.503   3.994
 6524SOL    HW220472   3.832   3.507   4.125
 6525SOL     OW20473   0.543   2.698   2.907
 6525SOL    HW120474   0.569   2.644   2.986
 6525SOL    HW220475   0.447   2.681   2.885
 6526SOL     OW20476   1.094   5.734   4.677
 6526SOL    HW120477   1.083   5.657   4.740
 6526SOL    HW220478   1.089   5.700   4.583
 6527SOL     OW20479   1.180   6.527   5.224
 6527SOL    HW120480   1.123   6.487   5.152
 6527SOL    HW220481   1.166   6.476   5.309
 6528SOL     OW20482   0.976   1.282   4.569
 6528SOL    HW120483   0.918   1.274   4.650
 6528SOL    HW220484   0.949   1.214   4.501
 6529SOL     OW20485   5.833   1.720   1.800
 6529SOL    HW120486   5.887   1.804   1.807
 6529SOL    HW220487   5.892   1.646   1.768
 6530SOL     OW20488   6.872   2.303   6.971
 6530SOL    HW120489   6.940   2.305   0.020
 6530SOL    HW220490   6.780   2.300   7.011
 6531SOL     OW20491   5.386   2.560   3.562
 6531SOL    HW120492   5.373   2.464   3.538
 6531SOL    HW220493   5.409   2.612   3.479
 6532SOL     OW20494   6.027   1.291   6.646
 6532SOL    HW120495   5.979   1.338   6.572
 6532SOL    HW220496   6.117   1.261   6.614
 6533SOL     OW20497   4.856   6.863   0.447
 6533SOL    HW120498   4.949   6.890   0.470
 6533SOL    HW220499   4.857   6.791   0.378
 6534SOL     OW20500   2.555   3.783   1.634
 6534SOL    HW120501   2.576   3.711   1.568
 6534SOL    HW220502   2.638   3.807   1.685
 6535SOL     OW20503   0.582   3.280   4.978
 6535SOL    HW120504   0.512   3.209   4.961
 6535SOL    HW220505   0.670   3.236   4.994
 6536SOL     OW20506   5.848   1.771   0.201
 6536SOL    HW120507   5.920   1.748   0.266
 6536SOL    HW220508   5.888   1.815   0.121
 6537SOL     OW20509   0.346   6.966   0.149
 6537SOL    HW120510   0.257   6.987   0.190
 6537SOL    HW220511   0.414   6.953   0.221
 6538SOL     OW20512   3.269   4.233   0.172
 6538SOL    HW120513   3.179   4.250   0.133
 6538SOL    HW220514   3.303   4.316   0.217
 6539SOL     OW20515   2.629   1.598   6.677
 6539SOL    HW120516   2.694   1.544   6.623
 6539SOL    HW220517   2.579   1.537   6.740
 6540SOL     OW20518   3.557   0.644   4.550
 6540SOL    HW120519   3.485   0.652   4.482
 6540SOL    HW220520   3.643   0.620   4.505
 6541SOL     OW20521   3.006   2.348   5.838
 6541SOL    HW120522   3.015   2.431   5.894
 6541SOL    HW220523   3.048   2.271   5.887
 6542SOL     OW20524   6.376   4.966   3.351
 6542SOL    HW120525   6.294   4.958   3.407
 6542SOL    HW220526   6.457   4.951   3.408
 6543SOL     OW20527   6.080   6.005   6.767
 6543SOL    HW120528   6.115   5.931   6.825
 6543SOL    HW220529   6.140   6.016   6.688
 6544SOL     OW20530   6.981   6.479   3.955
 6544SOL    HW120531   6.965   6.383   3.931
 6544SOL    HW220532   6.893   6.526   3.964
 6545SOL     OW20533   5.129   1.654   5.901
 6545SOL    HW120534   5.155   1.684   5.809
 6545SOL    HW220535   5.045   1.699   5.928
 6546SOL     OW20536   3.041   5.185   5.519
 6546SOL    HW120537   3.129   5.156   5.556
 6546SOL    HW220538   3.016   5.274   5.557
 6547SOL     OW20539   5.059   2.336   6.305
 6547SOL    HW120540   5.095   2.258   6.253
 6547SOL    HW220541   5.130   2.406   6.312
 6548SOL     OW20542   6.340   4.223   5.748
 6548SOL    HW120543   6.306   4.166   5.673
 6548SOL    HW220544   6.263   4.260   5.799
 6549SOL     OW20545   4.062   2.240   0.510
 6549SOL    HW120546   4.090   2.255   0.605
 6549SOL    HW220547   4.002   2.314   0.481
 6550SOL     OW20548   0.959   5.876   3.728
 6550SOL    HW120549   0.872   5.826   3.723
 6550SOL    HW220550   1.005   5.871   3.640
 6551SOL     OW20551   1.612   4.647   1.878
 6551SOL    HW120552   1.637   4.630   1.973
 6551SOL    HW220553   1.552   4.727   1.873
 6552SOL     OW20554   2.795   4.452   5.835
 6552SOL    HW120555   2.711   4.504   5.819
 6552SOL    HW220556   2.861   4.510   5.883
 6553SOL     OW20557   0.545   3.267   2.174
 6553SOL    HW120558   0.511   3.260   2.080
 6553SOL    HW220559   0.541   3.177   2.218
 6554SOL     OW20560   6.107   1.974   6.095
 6554SOL    HW120561   6.104   2.074   6.097
 6554SOL    HW220562   6.159   1.943   6.016
 6555SOL     OW20563   1.855   1.349   2.202
 6555SOL    HW120564   1.853   1.270   2.264
 6555SOL    HW220565   1.804   1.425   2.242
 6556SOL     OW20566   4.401   5.651   4.832
 6556SOL    HW120567   4.413   5.570   4.890
 6556SOL    HW220568   4.310   5.648   4.791
 6557SOL     OW20569   6.340   5.540   0.519
 6557SOL    HW120570   6.354   5.552   0.617
 6557SOL    HW220571   6.397   5.604   0.468
 6558SOL     OW20572   5.849   6.034   6.920
 6558SOL    HW120573   5.775   6.016   6.856
 6558SOL    HW220574   5.932   6.055   6.869
 6559SOL     OW20575   4.647   3.863   1.403
 6559SOL    HW120576   4.616   3.809   1.325
 6559SOL    HW220577   4.727   3.819   1.444
 6560SOL     OW20578   3.717   3.486   1.089
 6560SOL    HW120579   3.705   3.493   1.188
 6560SOL    HW220580   3.646   3.539   1.043
 6561SOL     OW20581   3.857   3.951   2.866
 6561SOL    HW120582   3.841   3.972   2.962
 6561SOL    HW220583   3.940   3.895   2.857
 6562SOL     OW20584   6.291   4.605   5.894
 6562SOL    HW120585   6.301   4.606   5.794
 6562SOL    HW220586   6.381   4.620   5.936
 6563SOL     OW20587   0.468   5.718   1.501
 6563SOL    HW120588   0.443   5.700   1.596
 6563SOL    HW220589   0.441   5.640   1.444
 6564SOL     OW20590   1.125   4.167   2.105
 6564SOL    HW120591   1.217   4.172   2.064
 6564SOL    HW220592   1.063   4.122   2.041
 6565SOL     OW20593   6.710   2.864   4.620
 6565SOL    HW120594   6.770   2.784   4.609
 6565SOL    HW220595   6.744   2.940   4.565
 6566SOL     OW20596   3.379   6.546   0.696
 6566SOL    HW120597   3.392   6.645   0.685
 6566SOL    HW220598   3.444   6.511   0.763
 6567SOL     OW20599   5.145   2.862   0.745
 6567SOL    HW120600   5.066   2.895   0.693
 6567SOL    HW220601   5.123   2.773   0.786
 6568SOL     OW20602   4.428   4.491   1.852
 6568SOL    HW120603   4.438   4.531   1.942
 6568SOL    HW220604   4.446   4.393   1.856
 6569SOL     OW20605   2.039   4.710   0.383
 6569SOL    HW120606   2.070   4.805   0.386
 6569SOL    HW220607   2.114   4.651   0.353
 6570SOL     OW20608   5.458   1.079   1.662
 6570SOL    HW120609   5.477   1.088   1.759
 6570SOL    HW220610   5.448   1.170   1.621
 6571SOL     OW20611   2.657   6.244   3.750
 6571SOL    HW120612   2.664   6.246   3.849
 6571SOL    HW220613   2.682   6.154   3.716
 6572SOL     OW20614   0.079   3.931   5.664
 6572SOL    HW120615   0.031   3.915   5.578
 6572SOL    HW220616   0.133   4.015   5.658
 6573SOL     OW20617   2.921   1.171   1.990
 6573SOL    HW120618   2.958   1.140   2.079
 6573SOL    HW220619   2.944   1.103   1.920
 6574SOL     OW20620   2.840   4.789   2.810
 6574SOL    HW120621   2.786   4.747   2.737
 6574SOL    HW220622   2.807   4.881   2.827
 6575SOL     OW20623   1.099   1.119   1.995
 6575SOL    HW120624   1.024   1.085   2.052
 6575SOL    HW220625   1.144   1.196   2.041
 6576SOL     OW20626   0.915   5.837   6.907
 6576SOL    HW120627   0.923   5.920   6.961
 6576SOL    HW220628   0.979   5.768   6.942
 6577SOL     OW20629   0.547   2.091   3.936
 6577SOL    HW120630   0.530   1.996   3.908
 6577SOL    HW220631   0.474   2.149   3.902
 6578SOL     OW20632   6.127   5.659   3.380
 6578SOL    HW120633   6.083   5.571   3.395
 6578SOL    HW220634   6.157   5.696   3.468
 6579SOL     OW20635   6.768   4.588   3.520
 6579SOL    HW120636   6.747   4.671   3.469
 6579SOL    HW220637   6.801   4.612   3.611
 6580SOL     OW20638   5.234   0.865   1.547
 6580SOL    HW120639   5.201   0.819   1.629
 6580SOL    HW220640   5.217   0.964   1.554
 6581SOL     OW20641   4.238   2.248   6.561
 6581SOL    HW120642   4.287   2.285   6.481
 6581SOL    HW220643   4.147   2.288   6.565
 6582SOL     OW20644   6.890   6.807   2.820
 6582SOL    HW120645   6.911   6.843   2.911
 6582SOL    HW220646   6.799   6.838   2.792
 6583SOL     OW20647   5.544   1.030   6.017
 6583SOL    HW120648   5.543   0.985   6.107
 6583SOL    HW220649   5.539   1.129   6.030
 6584SOL     OW20650   6.072   1.486   6.975
 6584SOL    HW120651   6.158   1.513   6.932
 6584SOL    HW220652   6.047   1.552   0.022
 6585SOL     OW20653   0.533   1.610   6.574
 6585SOL    HW120654   0.556   1.649   6.485
 6585SOL    HW220655   0.569   1.668   6.647
 6586SOL     OW20656   6.509   1.776   5.866
 6586SOL    HW120657   6.601   1.775   5.907
 6586SOL    HW220658   6.506   1.715   5.788
 6587SOL     OW20659   2.001   5.552   3.729
 6587SOL    HW120660   1.931   5.569   3.798
 6587SOL    HW220661   2.069   5.625   3.732
 6588SOL     OW20662   1.587   2.864   6.877
 6588SOL    HW120663   1.668   2.891   6.824
 6588SOL    HW220664   1.518   2.828   6.814
 6589SOL     OW20665   4.824   1.393   5.897
 6589SOL    HW120666   4.876   1.413   5.814
 6589SOL    HW220667   4.732   1.362   5.873
 6590SOL     OW20668   0.186   1.119   4.856
 6590SOL    HW120669   0.152   1.210   4.831
 6590SOL    HW220670   0.145   1.092   4.944
 6591SOL     OW20671   5.580   6.595   3.294
 6591SOL    HW120672   5.585   6.690   3.263
 6591SOL    HW220673   5.489   6.558   3.275
 6592SOL     OW20674   4.654   6.854   4.721
 6592SOL    HW120675   4.676   6.789   4.648
 6592SOL    HW220676   4.656   6.806   4.809
 6593SOL     OW20677   3.189   1.918   3.204
 6593SOL    HW120678   3.155   1.837   3.155
 6593SOL    HW220679   3.149   2.000   3.165
 6594SOL     OW20680   4.878   0.776   6.561
 6594SOL    HW120681   4.863   0.795   6.658
 6594SOL    HW220682   4.789   0.759   6.517
 6595SOL     OW20683   1.396   3.571   0.645
 6595SOL    HW120684   1.370   3.476   0.663
 6595SOL    HW220685   1.456   3.574   0.565
 6596SOL     OW20686   4.669   6.918   5.450
 6596SOL    HW120687   4.620   7.002   5.429
 6596SOL    HW220688   4.627   6.874   5.529
 6597SOL     OW20689   6.948   6.103   4.260
 6597SOL    HW120690   6.908   6.084   4.350
 6597SOL    HW220691   6.906   6.185   4.221
 6598SOL     OW20692   1.961   5.924   5.025
 6598SOL    HW120693   1.902   5.927   5.105
 6598SOL    HW220694   1.993   5.830   5.010
 6599SOL     OW20695   4.222   5.288   6.452
 6599SOL    HW120696   4.209   5.267   6.549
 6599SOL    HW220697   4.318   5.280   6.428
 6600SOL     OW20698   4.736   5.929   4.228
 6600SOL    HW120699   4.758   5.850   4.285
 6600SOL    HW220700   4.772   6.012   4.270
 6601SOL     OW20701   0.609   0.973   0.185
 6601SOL    HW120702   0.651   1.063   0.194
 6601SOL    HW220703   0.668   0.914   0.130
 6602SOL     OW20704   0.130   1.825   1.141
 6602SOL    HW120705   0.219   1.857   1.174
 6602SOL    HW220706   0.058   1.854   1.205
 6603SOL     OW20707   2.050   3.586   2.796
 6603SOL    HW120708   2.081   3.558   2.887
 6603SOL    HW220709   2.071   3.513   2.730
 6604SOL     OW20710   3.112   5.590   2.493
 6604SOL    HW120711   3.142   5.561   2.584
 6604SOL    HW220712   3.017   5.561   2.479
 6605SOL     OW20713   5.716   5.921   0.124
 6605SOL    HW120714   5.797   5.974   0.099
 6605SOL    HW220715   5.694   5.857   0.051
 6606SOL     OW20716   5.055   0.721   2.202
 6606SOL    HW120717   5.070   0.724   2.301
 6606SOL    HW220718   5.026   0.629   2.176
 6607SOL     OW20719   2.113   1.227   2.070
 6607SOL    HW120720   2.162   1.292   2.011
 6607SOL    HW220721   2.024   1.265   2.095
 6608SOL     OW20722   5.639   3.665   3.706
 6608SOL    HW120723   5.658   3.675   3.803
 6608SOL    HW220724   5.581   3.584   3.690
 6609SOL     OW20725   5.457   0.934   6.814
 6609SOL    HW120726   5.484   1.021   6.856
 6609SOL    HW220727   5.487   0.858   6.872
 6610SOL     OW20728   1.839   0.815   0.795
 6610SOL    HW120729   1.809   0.838   0.888
 6610SOL    HW220730   1.793   0.874   0.729
 6611SOL     OW20731   6.450   2.626   2.930
 6611SOL    HW120732   6.514   2.550   2.921
 6611SOL    HW220733   6.446   2.676   2.844
 6612SOL     OW20734   1.820   6.112   0.124
 6612SOL    HW120735   1.772   6.090   0.210
 6612SOL    HW220736   1.764   6.081   0.047
 6613SOL     OW20737   5.067   5.540   3.019
 6613SOL    HW120738   5.111   5.475   2.957
 6613SOL    HW220739   5.106   5.631   3.005
 6614SOL     OW20740   5.261   5.165   6.127
 6614SOL    HW120741   5.303   5.213   6.050
 6614SOL    HW220742   5.178   5.212   6.155
 6615SOL     OW20743   0.080   3.661   5.327
 6615SOL    HW120744   0.114   3.755   5.331
 6615SOL    HW220745   0.120   3.608   5.401
 6616SOL     OW20746   5.011   1.311   4.970
 6616SOL    HW120747   4.990   1.350   5.059
 6616SOL    HW220748   5.067   1.374   4.917
 6617SOL     OW20749   2.903   6.761   4.433
 6617SOL    HW120750   2.881   6.853   4.399
 6617SOL    HW220751   2.863   6.749   4.524
 6618SOL     OW20752   0.672   4.302   1.838
 6618SOL    HW120753   0.671   4.319   1.937
 6618SOL    HW220754   0.598   4.354   1.795
 6619SOL     OW20755   4.540   6.662   3.370
 6619SOL    HW120756   4.508   6.597   3.438
 6619SOL    HW220757   4.628   6.632   3.333
 6620SOL     OW20758   1.508   2.815   5.988
 6620SOL    HW120759   1.458   2.809   6.074
 6620SOL    HW220760   1.599   2.774   5.999
 6621SOL     OW20761   2.584   3.796   0.121
 6621SOL    HW120762   2.639   3.874   0.150
 6621SOL    HW220763   2.555   3.809   0.026
 6622SOL     OW20764   6.213   6.236   0.549
 6622SOL    HW120765   6.119   6.262   0.526
 6622SOL    HW220766   6.227   6.140   0.528
 6623SOL     OW20767   3.745   2.875   2.735
 6623SOL    HW120768   3.763   2.782   2.703
 6623SOL    HW220769   3.694   2.925   2.665
 6624SOL     OW20770   4.103   5.886   4.386
 6624SOL    HW120771   4.096   5.914   4.290
 6624SOL    HW220772   4.100   5.966   4.445
 6625SOL     OW20773   6.407   0.611   6.490
 6625SOL    HW120774   6.356   0.623   6.405
 6625SOL    HW220775   6.503   0.597   6.470
 6626SOL     OW20776   3.565   5.238   2.948
 6626SOL    HW120777   3.541   5.141   2.960
 6626SOL    HW220778   3.592   5.277   3.036
 6627SOL     OW20779   2.064   1.089   6.394
 6627SOL    HW120780   1.979   1.062   6.349
 6627SOL    HW220781   2.043   1.124   6.485
 6628SOL     OW20782   4.381   5.208   3.002
 6628SOL    HW120783   4.431   5.269   3.063
 6628SOL    HW220784   4.308   5.259   2.956
 6629SOL     OW20785   3.406   5.550   1.101
 6629SOL    HW120786   3.504   5.559   1.085
 6629SOL    HW220787   3.390   5.523   1.196
 6630SOL     OW20788   3.238   1.839   0.250
 6630SOL    HW120789   3.187   1.925   0.256
 6630SOL    HW220790   3.196   1.772   0.311
 6631SOL     OW20791   5.135   0.679   2.463
 6631SOL    HW120792   5.092   0.732   2.536
 6631SOL    HW220793   5.233   0.674   2.479
 6632SOL     OW20794   6.703   1.005   6.747
 6632SOL    HW120795   6.750   0.939   6.689
 6632SOL    HW220796   6.770   1.053   6.804
 6633SOL     OW20797   1.893   6.451   0.872
 6633SOL    HW120798   1.919   6.462   0.968
 6633SOL    HW220799   1.813   6.507   0.852
 6634SOL     OW20800   6.280   2.715   5.609
 6634SOL    HW120801   6.217   2.791   5.596
 6634SOL    HW220802   6.372   2.744   5.582
 6635SOL     OW20803   4.925   5.152   3.669
 6635SOL    HW120804   4.967   5.121   3.583
 6635SOL    HW220805   4.937   5.250   3.678
 6636SOL     OW20806   1.616   2.700   4.528
 6636SOL    HW120807   1.698   2.644   4.535
 6636SOL    HW220808   1.535   2.641   4.522
 6637SOL     OW20809   0.905   0.440   0.783
 6637SOL    HW120810   0.993   0.409   0.817
 6637SOL    HW220811   0.877   0.383   0.705
 6638SOL     OW20812   1.773   5.938   5.601
 6638SOL    HW120813   1.709   5.863   5.580
 6638SOL    HW220814   1.863   5.916   5.564
 6639SOL     OW20815   5.952   4.507   6.559
 6639SOL    HW120816   5.986   4.571   6.628
 6639SOL    HW220817   5.984   4.535   6.469
 6640SOL     OW20818   6.845   1.929   3.120
 6640SOL    HW120819   6.867   1.934   3.218
 6640SOL    HW220820   6.858   2.019   3.079
 6641SOL     OW20821   2.648   3.679   6.486
 6641SOL    HW120822   2.560   3.648   6.522
 6641SOL    HW220823   2.654   3.657   6.388
 6642SOL     OW20824   1.211   5.425   6.147
 6642SOL    HW120825   1.286   5.442   6.211
 6642SOL    HW220826   1.125   5.454   6.188
 6643SOL     OW20827   5.921   3.812   6.135
 6643SOL    HW120828   5.836   3.852   6.102
 6643SOL    HW220829   5.952   3.862   6.217
 6644SOL     OW20830   2.886   4.840   1.848
 6644SOL    HW120831   2.817   4.909   1.829
 6644SOL    HW220832   2.848   4.770   1.908
 6645SOL     OW20833   6.795   4.590   6.009
 6645SOL    HW120834   6.813   4.687   6.026
 6645SOL    HW220835   6.859   4.535   6.062
 6646SOL     OW20836   3.146   5.585   4.539
 6646SOL    HW120837   3.161   5.567   4.636
 6646SOL    HW220838   3.174   5.679   4.518
 6647SOL     OW20839   3.462   0.900   2.034
 6647SOL    HW120840   3.460   1.000   2.043
 6647SOL    HW220841   3.505   0.876   1.947
 6648SOL     OW20842   4.639   5.954   2.786
 6648SOL    HW120843   4.704   5.898   2.836
 6648SOL    HW220844   4.549   5.911   2.788
 6649SOL     OW20845   4.768   1.845   6.323
 6649SOL    HW120846   4.796   1.866   6.416
 6649SOL    HW220847   4.817   1.905   6.259
 6650SOL     OW20848   4.045   1.243   4.326
 6650SOL    HW120849   3.993   1.167   4.364
 6650SOL    HW220850   3.991   1.327   4.332
 6651SOL     OW20851   0.812   2.247   0.043
 6651SOL    HW120852   0.857   2.291   6.989
 6651SOL    HW220853   0.866   2.168   0.072
 6652SOL     OW20854   0.096   5.588   1.422
 6652SOL    HW120855   0.053   5.497   1.417
 6652SOL    HW220856   0.191   5.582   1.393
 6653SOL     OW20857   3.527   4.123   2.953
 6653SOL    HW120858   3.469   4.051   2.915
 6653SOL    HW220859   3.524   4.203   2.894
 6654SOL     OW20860   2.248   3.276   1.697
 6654SOL    HW120861   2.195   3.214   1.755
 6654SOL    HW220862   2.295   3.343   1.755
 6655SOL     OW20863   3.179   6.814   2.020
 6655SOL    HW120864   3.256   6.758   2.050
 6655SOL    HW220865   3.105   6.806   2.087
 6656SOL     OW20866   6.795   1.459   1.250
 6656SOL    HW120867   6.893   1.475   1.247
 6656SOL    HW220868   6.747   1.540   1.214
 6657SOL     OW20869   3.605   6.531   6.400
 6657SOL    HW120870   3.629   6.621   6.364
 6657SOL    HW220871   3.506   6.526   6.412
 6658SOL     OW20872   6.028   1.675   4.816
 6658SOL    HW120873   6.071   1.742   4.876
 6658SOL    HW220874   6.065   1.684   4.723
 6659SOL     OW20875   2.596   3.471   0.278
 6659SOL    HW120876   2.619   3.514   0.191
 6659SOL    HW220877   2.656   3.506   0.350
 6660SOL     OW20878   6.751   6.789   2.396
 6660SOL    HW120879   6.714   6.708   2.350
 6660SOL    HW220880   6.832   6.762   2.449
 6661SOL     OW20881   6.990   5.745   4.135
 6661SOL    HW120882   7.018   5.652   4.157
 6661SOL    HW220883   6.894   5.758   4.162
 6662SOL     OW20884   2.247   1.218   0.316
 6662SOL    HW120885   2.190   1.142   0.286
 6662SOL    HW220886   2.292   1.195   0.402
 6663SOL     OW20887   0.439   5.504   1.848
 6663SOL    HW120888   0.517   5.442   1.855
 6663SOL    HW220889   0.472   5.598   1.837
 6664SOL     OW20890   1.141   0.450   2.479
 6664SOL    HW120891   1.042   0.463   2.466
 6664SOL    HW220892   1.168   0.487   2.567
 6665SOL     OW20893   1.946   5.999   3.015
 6665SOL    HW120894   1.978   6.004   3.110
 6665SOL    HW220895   1.874   6.066   3.001
 6666SOL     OW20896   6.448   1.330   5.325
 6666SOL    HW120897   6.413   1.403   5.266
 6666SOL    HW220898   6.390   1.249   5.316
 6667SOL     OW20899   6.851   5.573   4.458
 6667SOL    HW120900   6.903   5.654   4.485
 6667SOL    HW220901   6.895   5.491   4.496
 6668SOL     OW20902   0.548   4.944   2.255
 6668SOL    HW120903   0.466   4.940   2.197
 6668SOL    HW220904   0.521   4.975   2.347
 6669SOL     OW20905   2.511   5.421   3.775
 6669SOL    HW120906   2.535   5.335   3.731
 6669SOL    HW220907   2.466   5.403   3.863
 6670SOL     OW20908   3.176   4.520   6.780
 6670SOL    HW120909   3.181   4.613   6.743
 6670SOL    HW220910   3.083   4.501   6.809
 6671SOL     OW20911   6.883   4.014   6.130
 6671SOL    HW120912   6.954   3.971   6.186
 6671SOL    HW220913   6.794   3.975   6.154
 6672SOL     OW20914   1.147   0.707   5.282
 6672SOL    HW120915   1.084   0.685   5.356
 6672SOL    HW220916   1.116   0.790   5.235
 6673SOL     OW20917   4.808   5.383   2.489
 6673SOL    HW120918   4.793   5.477   2.458
 6673SOL    HW220919   4.892   5.379   2.543
 6674SOL     OW20920   0.539   6.196   5.180
 6674SOL    HW120921   0.626   6.159   5.213
 6674SOL    HW220922   0.464   6.160   5.235
 6675SOL     OW20923   5.867   4.616   0.258
 6675SOL    HW120924   5.775   4.614   0.219
 6675SOL    HW220925   5.877   4.540   0.322
 6676SOL     OW20926   0.958   3.172   5.699
 6676SOL    HW120927   0.979   3.200   5.793
 6676SOL    HW220928   1.043   3.150   5.651
 6677SOL     OW20929   0.322   3.553   0.716
 6677SOL    HW120930   0.299   3.484   0.647
 6677SOL    HW220931   0.278   3.640   0.691
 6678SOL     OW20932   1.029   2.557   5.950
 6678SOL    HW120933   1.063   2.574   6.043
 6678SOL    HW220934   1.057   2.466   5.920
 6679SOL     OW20935   1.244   2.667   5.379
 6679SOL    HW120936   1.278   2.581   5.416
 6679SOL    HW220937   1.294   2.743   5.420
 6680SOL     OW20938   3.945   6.214   6.298
 6680SOL    HW120939   4.025   6.155   6.310
 6680SOL    HW220940   3.863   6.157   6.284
 6681SOL     OW20941   5.377   5.287   0.486
 6681SOL    HW120942   5.345   5.221   0.554
 6681SOL    HW220943   5.476   5.280   0.477
 6682SOL     OW20944   0.979   5.603   2.318
 6682SOL    HW120945   1.078   5.618   2.314
 6682SOL    HW220946   0.938   5.671   2.379
 6683SOL     OW20947   4.785   1.794   5.361
 6683SOL    HW120948   4.770   1.712   5.416
 6683SOL    HW220949   4.861   1.778   5.298
 6684SOL     OW20950   1.664   6.915   2.341
 6684SOL    HW120951   1.757   6.943   2.321
 6684SOL    HW220952   1.656   6.816   2.334
 6685SOL     OW20953   5.671   2.896   6.138
 6685SOL    HW120954   5.754   2.936   6.101
 6685SOL    HW220955   5.595   2.960   6.124
 6686SOL     OW20956   5.990   3.846   3.394
 6686SOL    HW120957   5.939   3.781   3.337
 6686SOL    HW220958   5.972   3.939   3.362
 6687SOL     OW20959   1.299   1.634   0.916
 6687SOL    HW120960   1.329   1.540   0.935
 6687SOL    HW220961   1.274   1.642   0.819
 6688SOL     OW20962   0.567   4.567   2.564
 6688SOL    HW120963   0.593   4.553   2.660
 6688SOL    HW220964   0.644   4.541   2.505
 6689SOL     OW20965   5.034   4.143   0.310
 6689SOL    HW120966   5.054   4.190   0.224
 6689SOL    HW220967   5.085   4.057   0.314
 6690SOL     OW20968   2.022   3.106   1.331
 6690SOL    HW120969   2.089   3.054   1.279
 6690SOL    HW220970   2.034   3.087   1.429
 6691SOL     OW20971   2.663   5.938   1.477
 6691SOL    HW120972   2.581   5.994   1.488
 6691SOL    HW220973   2.744   5.997   1.477
 6692SOL     OW20974   3.117   4.345   5.290
 6692SOL    HW120975   3.106   4.247   5.270
 6692SOL    HW220976   3.041   4.396   5.250
 6693SOL     OW20977   4.458   3.778   5.397
 6693SOL    HW120978   4.513   3.775   5.481
 6693SOL    HW220979   4.417   3.688   5.382
 6694SOL     OW20980   4.869   6.424   0.560
 6694SOL    HW120981   4.938   6.352   0.568
 6694SOL    HW220982   4.778   6.385   0.575
 6695SOL     OW20983   0.815   1.705   6.664
 6695SOL    HW120984   0.910   1.672   6.658
 6695SOL    HW220985   0.806   1.762   6.746
 6696SOL     OW20986   1.975   3.404   1.900
 6696SOL    HW120987   2.057   3.446   1.939
 6696SOL    HW220988   1.990   3.306   1.890
 6697SOL     OW20989   4.571   1.328   2.917
 6697SOL    HW120990   4.639   1.262   2.947
 6697SOL    HW220991   4.598   1.367   2.829
 6698SOL     OW20992   3.959   2.566   6.579
 6698SOL    HW120993   3.882   2.628   6.569
 6698SOL    HW220994   4.027   2.585   6.508
 6699SOL     OW20995   3.033   4.903   6.780
 6699SOL    HW120996   2.994   4.825   6.828
 6699SOL    HW220997   2.989   4.987   6.813
 6700SOL     OW20998   0.333   5.528   1.044
 6700SOL    HW120999   0.343   5.628   1.039
 6700SOL    HW221000   0.420   5.485   1.021
 6701SOL     OW21001   0.574   1.683   0.111
 6701SOL    HW121002   0.536   1.687   0.019
 6701SOL    HW221003   0.664   1.639   0.108
 6702SOL     OW21004   2.145   1.529   0.845
 6702SOL    HW121005   2.181   1.482   0.765
 6702SOL    HW221006   2.179   1.623   0.846
 6703SOL     OW21007   0.007   1.444   6.182
 6703SOL    HW121008   6.947   1.409   6.225
 6703SOL    HW221009   0.069   1.477   6.253
 6704SOL     OW21010   4.763   2.720   2.854
 6704SOL    HW121011   4.669   2.698   2.879
 6704SOL    HW221012   4.763   2.791   2.783
 6705SOL     OW21013   6.425   2.125   1.201
 6705SOL    HW121014   6.345   2.122   1.140
 6705SOL    HW221015   6.495   2.185   1.162
 6706SOL     OW21016   0.848   3.965   6.892
 6706SOL    HW121017   0.893   3.939   6.807
 6706SOL    HW221018   0.824   3.883   6.944
 6707SOL     OW21019   0.559   5.352   3.780
 6707SOL    HW121020   0.514   5.306   3.856
 6707SOL    HW221021   0.655   5.325   3.776
 6708SOL     OW21022   2.641   6.217   2.331
 6708SOL    HW121023   2.601   6.309   2.331
 6708SOL    HW221024   2.735   6.222   2.366
 6709SOL     OW21025   3.834   0.823   1.831
 6709SOL    HW121026   3.860   0.908   1.878
 6709SOL    HW221027   3.865   0.827   1.736
 6710SOL     OW21028   3.277   2.702   0.082
 6710SOL    HW121029   3.375   2.712   0.104
 6710SOL    HW221030   3.267   2.675   7.010
 6711SOL     OW21031   4.323   3.492   6.877
 6711SOL    HW121032   4.395   3.476   6.809
 6711SOL    HW221033   4.291   3.404   6.912
 6712SOL     OW21034   3.682   6.255   0.316
 6712SOL    HW121035   3.682   6.162   0.279
 6712SOL    HW221036   3.771   6.299   0.297
 6713SOL     OW21037   1.800   2.820   2.098
 6713SOL    HW121038   1.708   2.857   2.110
 6713SOL    HW221039   1.797   2.720   2.110
 6714SOL     OW21040   5.872   0.540   4.133
 6714SOL    HW121041   5.789   0.485   4.144
 6714SOL    HW221042   5.895   0.583   4.220
 6715SOL     OW21043   0.483   1.373   0.719
 6715SOL    HW121044   0.419   1.305   0.754
 6715SOL    HW221045   0.567   1.328   0.690
 6716SOL     OW21046   2.372   5.832   1.454
 6716SOL    HW121047   2.421   5.756   1.411
 6716SOL    HW221048   2.327   5.887   1.384
 6717SOL     OW21049   4.553   2.218   0.621
 6717SOL    HW121050   4.476   2.279   0.600
 6717SOL    HW221051   4.529   2.124   0.595
 6718SOL     OW21052   3.139   0.607   0.268
 6718SOL    HW121053   3.110   0.513   0.254
 6718SOL    HW221054   3.212   0.610   0.336
 6719SOL     OW21055   6.965   6.432   5.449
 6719SOL    HW121056   6.988   6.341   5.414
 6719SOL    HW221057   0.007   6.499   5.414
 6720SOL     OW21058   2.449   5.265   1.282
 6720SOL    HW121059   2.527   5.323   1.261
 6720SOL    HW221060   2.413   5.289   1.372
 6721SOL     OW21061   5.141   6.811   3.860
 6721SOL    HW121062   5.078   6.784   3.787
 6721SOL    HW221063   5.214   6.744   3.868
 6722SOL     OW21064   4.318   3.162   6.529
 6722SOL    HW121065   4.255   3.238   6.543
 6722SOL    HW221066   4.273   3.076   6.552
 6723SOL     OW21067   3.320   6.355   3.495
 6723SOL    HW121068   3.235   6.386   3.538
 6723SOL    HW221069   3.313   6.363   3.396
 6724SOL     OW21070   3.035   4.942   5.244
 6724SOL    HW121071   3.134   4.928   5.249
 6724SOL    HW221072   2.989   4.868   5.292
 6725SOL     OW21073   1.047   5.385   2.518
 6725SOL    HW121074   1.099   5.422   2.595
 6725SOL    HW221075   1.016   5.460   2.460
 6726SOL     OW21076   2.861   2.055   3.653
 6726SOL    HW121077   2.796   1.981   3.667
 6726SOL    HW221078   2.886   2.096   3.741
 6727SOL     OW21079   4.106   3.355   6.140
 6727SOL    HW121080   4.122   3.454   6.142
 6727SOL    HW221081   4.187   3.308   6.174
 6728SOL     OW21082   4.149   1.724   3.825
 6728SOL    HW121083   4.237   1.699   3.783
 6728SOL    HW221084   4.117   1.649   3.882
 6729SOL     OW21085   6.095   0.832   2.294
 6729SOL    HW121086   6.058   0.899   2.358
 6729SOL    HW221087   6.053   0.743   2.311
 6730SOL     OW21088   2.478   1.131   6.941
 6730SOL    HW121089   2.555   1.120   7.004
 6730SOL    HW221090   2.513   1.141   6.848
 6731SOL     OW21091   2.746   5.006   1.453
 6731SOL    HW121092   2.706   5.038   1.539
 6731SOL    HW221093   2.802   4.925   1.470
 6732SOL     OW21094   2.507   6.260   0.981
 6732SOL    HW121095   2.593   6.295   1.017
 6732SOL    HW221096   2.512   6.256   0.881
 6733SOL     OW21097   5.431   6.037   5.005
 6733SOL    HW121098   5.371   5.985   5.067
 6733SOL    HW221099   5.525   6.008   5.017
 6734SOL     OW21100   2.434   3.371   5.683
 6734SOL    HW121101   2.450   3.326   5.595
 6734SOL    HW221102   2.380   3.311   5.742
 6735SOL     OW21103   6.811   5.249   5.647
 6735SOL    HW121104   6.727   5.212   5.687
 6735SOL    HW221105   6.841   5.329   5.700
 6736SOL     OW21106   2.124   3.240   2.128
 6736SOL    HW121107   2.059   3.185   2.076
 6736SOL    HW221108   2.136   3.329   2.085
 6737SOL     OW21109   1.842   1.331   1.910
 6737SOL    HW121110   1.879   1.412   1.865
 6737SOL    HW221111   1.849   1.343   2.009
 6738SOL     OW21112   2.749   0.891   2.570
 6738SOL    HW121113   2.802   0.825   2.517
 6738SOL    HW221114   2.745   0.978   2.522
 6739SOL     OW21115   3.528   6.253   5.031
 6739SOL    HW121116   3.529   6.161   5.072
 6739SOL    HW221117   3.580   6.251   4.946
 6740SOL     OW21118   1.602   1.853   3.514
 6740SOL    HW121119   1.644   1.871   3.425
 6740SOL    HW221120   1.523   1.793   3.501
 6741SOL     OW21121   0.000   0.307   5.934
 6741SOL    HW121122   0.028   0.337   6.026
 6741SOL    HW221123   6.928   0.332   5.919
 6742SOL     OW21124   6.216   5.597   5.423
 6742SOL    HW121125   6.314   5.615   5.431
 6742SOL    HW221126   6.201   5.501   5.399
 6743SOL     OW21127   4.232   3.346   1.479
 6743SOL    HW121128   4.149   3.401   1.488
 6743SOL    HW221129   4.295   3.367   1.553
 6744SOL     OW21130   4.744   4.903   5.544
 6744SOL    HW121131   4.718   4.918   5.449
 6744SOL    HW221132   4.801   4.980   5.575
 6745SOL     OW21133   1.723   4.529   3.923
 6745SOL    HW121134   1.632   4.532   3.881
 6745SOL    HW221135   1.737   4.440   3.967
 6746SOL     OW21136   0.237   2.005   0.697
 6746SOL    HW121137   0.155   2.038   0.743
 6746SOL    HW221138   0.312   2.001   0.763
 6747SOL     OW21139   5.496   6.317   5.027
 6747SOL    HW121140   5.487   6.222   5.055
 6747SOL    HW221141   5.515   6.322   4.929
 6748SOL     OW21142   1.529   0.294   2.071
 6748SOL    HW121143   1.487   0.278   1.982
 6748SOL    HW221144   1.549   0.206   2.115
 6749SOL     OW21145   4.451   0.070   7.000
 6749SOL    HW121146   4.383   0.032   6.937
 6749SOL    HW221147   4.522   0.117   6.948
 6750SOL     OW21148   2.417   2.721   5.189
 6750SOL    HW121149   2.400   2.815   5.159
 6750SOL    HW221150   2.471   2.723   5.272
 6751SOL     OW21151   2.922   2.095   5.072
 6751SOL    HW121152   2.891   2.143   5.154
 6751SOL    HW221153   2.996   2.147   5.029
 6752SOL     OW21154   5.842   2.371   0.794
 6752SOL    HW121155   5.743   2.360   0.785
 6752SOL    HW221156   5.882   2.286   0.829
 6753SOL     OW21157   4.644   2.143   6.552
 6753SOL    HW121158   4.678   2.236   6.566
 6753SOL    HW221159   4.602   2.136   6.462
 6754SOL     OW21160   6.175   0.712   6.329
 6754SOL    HW121161   6.210   0.798   6.365
 6754SOL    HW221162   6.078   0.702   6.353
 6755SOL     OW21163   5.006   1.698   4.229
 6755SOL    HW121164   4.976   1.793   4.231
 6755SOL    HW221165   5.025   1.671   4.134
 6756SOL     OW21166   5.438   5.043   4.298
 6756SOL    HW121167   5.360   5.050   4.236
 6756SOL    HW221168   5.406   5.018   4.389
 6757SOL     OW21169   5.673   5.745   1.756
 6757SOL    HW121170   5.722   5.803   1.691
 6757SOL    HW221171   5.654   5.798   1.839
 6758SOL     OW21172   4.678   2.444   2.388
 6758SOL    HW121173   4.640   2.469   2.299
 6758SOL    HW221174   4.778   2.455   2.386
 6759SOL     OW21175   0.103   4.940   2.984
 6759SOL    HW121176   0.014   4.984   2.972
 6759SOL    HW221177   0.171   5.009   3.009
 6760SOL     OW21178   6.437   3.900   4.527
 6760SOL    HW121179   6.340   3.892   4.502
 6760SOL    HW221180   6.478   3.977   4.478
 6761SOL     OW21181   5.037   2.870   5.765
 6761SOL    HW121182   5.105   2.854   5.693
 6761SOL    HW221183   4.979   2.947   5.739
 6762SOL     OW21184   6.551   4.400   3.870
 6762SOL    HW121185   6.489   4.353   3.808
 6762SOL    HW221186   6.641   4.408   3.827
 6763SOL     OW21187   6.278   6.359   6.126
 6763SOL    HW121188   6.269   6.425   6.051
 6763SOL    HW221189   6.189   6.341   6.166
 6764SOL     OW21190   2.310   4.071   6.516
 6764SOL    HW121191   2.339   4.011   6.441
 6764SOL    HW221192   2.307   4.166   6.485
 6765SOL     OW21193   5.537   4.580   1.967
 6765SOL    HW121194   5.581   4.633   1.894
 6765SOL    HW221195   5.592   4.587   2.051
 6766SOL     OW21196   1.930   0.830   6.030
 6766SOL    HW121197   1.894   0.749   5.984
 6766SOL    HW221198   1.902   0.912   5.980
 6767SOL     OW21199   6.545   2.869   7.009
 6767SOL    HW121200   6.630   2.894   6.962
 6767SOL    HW221201   6.553   2.890   0.082
 6768SOL     OW21202   6.686   0.358   4.365
 6768SOL    HW121203   6.642   0.445   4.340
 6768SOL    HW221204   6.770   0.377   4.416
 6769SOL     OW21205   2.134   2.995   5.730
 6769SOL    HW121206   2.190   3.008   5.649
 6769SOL    HW221207   2.136   3.078   5.785
 6770SOL     OW21208   0.709   1.475   3.214
 6770SOL    HW121209   0.644   1.466   3.289
 6770SOL    HW221210   0.674   1.542   3.148
 6771SOL     OW21211   3.956   2.024   3.314
 6771SOL    HW121212   4.029   1.958   3.333
 6771SOL    HW221213   3.986   2.089   3.244
 6772SOL     OW21214   6.521   1.355   1.242
 6772SOL    HW121215   6.597   1.420   1.243
 6772SOL    HW221216   6.520   1.306   1.155
 6773SOL     OW21217   1.566   6.595   1.410
 6773SOL    HW121218   1.600   6.689   1.416
 6773SOL    HW221219   1.570   6.565   1.315
 6774SOL     OW21220   2.498   2.539   5.005
 6774SOL    HW121221   2.588   2.496   5.012
 6774SOL    HW221222   2.492   2.616   5.069
 6775SOL     OW21223   0.582   1.871   4.793
 6775SOL    HW121224   0.591   1.809   4.715
 6775SOL    HW221225   0.619   1.960   4.769
 6776SOL     OW21226   3.729   3.991   3.101
 6776SOL    HW121227   3.661   4.024   3.036
 6776SOL    HW221228   3.693   3.999   3.194
 6777SOL     OW21229   6.154   5.306   0.293
 6777SOL    HW121230   6.139   5.207   0.291
 6777SOL    HW221231   6.251   5.324   0.275
 6778SOL     OW21232   5.983   5.068   2.799
 6778SOL    HW121233   5.925   5.036   2.724
 6778SOL    HW221234   6.041   5.142   2.767
 6779SOL     OW21235   5.003   3.222   5.855
 6779SOL    HW121236   5.050   3.157   5.914
 6779SOL    HW221237   5.064   3.251   5.781
 6780SOL     OW21238   3.222   2.168   3.077
 6780SOL    HW121239   3.311   2.157   3.122
 6780SOL    HW221240   3.234   2.156   2.978
 6781SOL     OW21241   0.128   1.773   3.235
 6781SOL    HW121242   0.071   1.797   3.313
 6781SOL    HW221243   0.218   1.746   3.267
 6782SOL     OW21244   6.346   0.840   3.027
 6782SOL    HW121245   6.278   0.847   3.100
 6782SOL    HW221246   6.385   0.748   3.025
 6783SOL     OW21247   1.213   4.715   5.978
 6783SOL    HW121248   1.134   4.654   5.969
 6783SOL    HW221249   1.268   4.709   5.894
 6784SOL     OW21250   2.091   3.735   1.922
 6784SOL    HW121251   2.170   3.795   1.934
 6784SOL    HW221252   2.115   3.641   1.948
 6785SOL     OW21253   5.370   5.911   4.772
 6785SOL    HW121254   5.417   5.950   4.852
 6785SOL    HW221255   5.390   5.813   4.767
 6786SOL     OW21256   5.876   1.832   5.990
 6786SOL    HW121257   5.957   1.885   6.015
 6786SOL    HW221258   5.879   1.810   5.893
 6787SOL     OW21259   3.533   2.000   6.926
 6787SOL    HW121260   3.503   2.033   7.015
 6787SOL    HW221261   3.613   2.053   6.897
 6788SOL     OW21262   0.508   4.231   2.154
 6788SOL    HW121263   0.592   4.254   2.104
 6788SOL    HW221264   0.520   4.253   2.251
 6789SOL     OW21265   5.478   4.470   3.140
 6789SOL    HW121266   5.553   4.404   3.129
 6789SOL    HW221267   5.466   4.520   3.054
 6790SOL     OW21268   0.518   5.054   6.101
 6790SOL    HW121269   0.613   5.025   6.114
 6790SOL    HW221270   0.456   4.983   6.134
 6791SOL     OW21271   2.952   0.846   3.061
 6791SOL    HW121272   3.011   0.833   3.142
 6791SOL    HW221273   2.961   0.768   3.000
 6792SOL     OW21274   3.731   6.853   5.263
 6792SOL    HW121275   3.741   6.942   5.217
 6792SOL    HW221276   3.777   6.857   5.351
 6793SOL     OW21277   1.884   3.374   6.194
 6793SOL    HW121278   1.927   3.284   6.190
 6793SOL    HW221279   1.799   3.373   6.141
 6794SOL     OW21280   5.507   2.036   5.346
 6794SOL    HW121281   5.411   2.054   5.325
 6794SOL    HW221282   5.531   2.078   5.433
 6795SOL     OW21283   1.094   0.429   1.322
 6795SOL    HW121284   1.168   0.486   1.288
 6795SOL    HW221285   1.009   0.452   1.275
 6796SOL     OW21286   6.130   1.553   2.650
 6796SOL    HW121287   6.218   1.541   2.603
 6796SOL    HW221288   6.076   1.470   2.640
 6797SOL     OW21289   0.869   2.382   1.576
 6797SOL    HW121290   0.962   2.350   1.593
 6797SOL    HW221291   0.838   2.351   1.487
 6798SOL     OW21292   6.017   0.031   1.580
 6798SOL    HW121293   6.026   0.114   1.635
 6798SOL    HW221294   6.058   6.978   1.629
 6799SOL     OW21295   6.475   0.747   3.764
 6799SOL    HW121296   6.447   0.752   3.668
 6799SOL    HW221297   6.568   0.711   3.769
 6800SOL     OW21298   6.704   2.727   1.225
 6800SOL    HW121299   6.800   2.731   1.250
 6800SOL    HW221300   6.651   2.693   1.303
 6801SOL     OW21301   0.774   6.244   6.448
 6801SOL    HW121302   0.816   6.292   6.524
 6801SOL    HW221303   0.758   6.308   6.373
 6802SOL     OW21304   3.297   4.963   2.088
 6802SOL    HW121305   3.241   4.975   2.006
 6802SOL    HW221306   3.393   4.981   2.065
 6803SOL     OW21307   5.520   4.856   5.900
 6803SOL    HW121308   5.427   4.893   5.901
 6803SOL    HW221309   5.583   4.925   5.863
 6804SOL     OW21310   3.888   4.799   2.907
 6804SOL    HW121311   3.810   4.838   2.955
 6804SOL    HW221312   3.881   4.821   2.810
 6805SOL     OW21313   6.989   4.974   4.605
 6805SOL    HW121314   6.972   4.882   4.642
 6805SOL    HW221315   6.904   5.012   4.569
 6806SOL     OW21316   6.379   2.376   1.651
 6806SOL    HW121317   6.344   2.356   1.742
 6806SOL    HW221318   6.320   2.333   1.582
 6807SOL     OW21319   3.357   3.733   2.152
 6807SOL    HW121320   3.269   3.743   2.105
 6807SOL    HW221321   3.361   3.797   2.229
 6808SOL     OW21322   3.245   1.184   4.641
 6808SOL    HW121323   3.221   1.238   4.722
 6808SOL    HW221324   3.343   1.193   4.622
 6809SOL     OW21325   5.641   3.301   0.197
 6809SOL    HW121326   5.667   3.355   0.277
 6809SOL    HW221327   5.672   3.207   0.210
 6810SOL     OW21328   2.501   0.399   4.850
 6810SOL    HW121329   2.594   0.373   4.877
 6810SOL    HW221330   2.469   0.474   4.908
 6811SOL     OW21331   6.300   1.154   0.849
 6811SOL    HW121332   6.300   1.234   0.910
 6811SOL    HW221333   6.207   1.120   0.838
 6812SOL     OW21334   3.843   4.264   5.210
 6812SOL    HW121335   3.857   4.250   5.112
 6812SOL    HW221336   3.745   4.266   5.230
 6813SOL     OW21337   6.575   3.521   2.477
 6813SOL    HW121338   6.545   3.612   2.506
 6813SOL    HW221339   6.538   3.500   2.387
 6814SOL     OW21340   5.407   0.557   6.690
 6814SOL    HW121341   5.361   0.469   6.700
 6814SOL    HW221342   5.488   0.560   6.748
 6815SOL     OW21343   1.041   5.142   6.342
 6815SOL    HW121344   1.020   5.045   6.356
 6815SOL    HW221345   1.034   5.164   6.244
 6816SOL     OW21346   6.705   0.415   3.605
 6816SOL    HW121347   6.743   0.500   3.567
 6816SOL    HW221348   6.756   0.390   3.687
 6817SOL     OW21349   4.506   2.122   1.499
 6817SOL    HW121350   4.415   2.110   1.461
 6817SOL    HW221351   4.537   2.215   1.482
 6818SOL     OW21352   1.364   6.753   5.435
 6818SOL    HW121353   1.346   6.668   5.484
 6818SOL    HW221354   1.359   6.738   5.337
 6819SOL     OW21355   4.747   4.199   2.156
 6819SOL    HW121356   4.755   4.101   2.140
 6819SOL    HW221357   4.674   4.236   2.099
 6820SOL     OW21358   3.131   4.962   1.828
 6820SOL    HW121359   3.114   5.025   1.752
 6820SOL    HW221360   3.047   4.912   1.849
 6821SOL     OW21361   3.929   2.549   5.359
 6821SOL    HW121362   3.872   2.469   5.342
 6821SOL    HW221363   4.008   2.548   5.298
 6822SOL     OW21364   6.192   2.940   5.946
 6822SOL    HW121365   6.238   2.854   5.967
 6822SOL    HW221366   6.212   3.007   6.017
 6823SOL     OW21367   6.241   2.484   4.764
 6823SOL    HW121368   6.255   2.390   4.732
 6823SOL    HW221369   6.216   2.542   4.687
 6824SOL     OW21370   1.024   0.169   5.843
 6824SOL    HW121371   1.034   0.133   5.750
 6824SOL    HW221372   1.032   0.094   5.909
 6825SOL     OW21373   4.630   4.509   0.724
 6825SOL    HW121374   4.673   4.419   0.735
 6825SOL    HW221375   4.602   4.520   0.629
 6826SOL     OW21376   5.994   5.776   3.997
 6826SOL    HW121377   5.950   5.839   3.931
 6826SOL    HW221378   5.964   5.800   4.089
 6827SOL     OW21379   5.085   6.200   4.689
 6827SOL    HW121380   5.168   6.185   4.741
 6827SOL    HW221381   5.085   6.142   4.608
 6828SOL     OW21382   2.787   2.322   2.307
 6828SOL    HW121383   2.803   2.234   2.352
 6828SOL    HW221384   2.840   2.327   2.222
 6829SOL     OW21385   3.710   0.078   3.692
 6829SOL    HW121386   3.739   0.076   3.787
 6829SOL    HW221387   3.789   0.066   3.633
 6830SOL     OW21388   4.873   5.587   3.378
 6830SOL    HW121389   4.915   5.497   3.380
 6830SOL    HW221390   4.776   5.578   3.357
 6831SOL     OW21391   2.023   2.208   6.129
 6831SOL    HW121392   2.065   2.129   6.084
 6831SOL    HW221393   1.979   2.266   6.060
 6832SOL     OW21394   3.166   2.894   0.232
 6832SOL    HW121395   3.082   2.863   0.187
 6832SOL    HW221396   3.243   2.839   0.202
 6833SOL     OW21397   3.552   5.532   5.658
 6833SOL    HW121398   3.477   5.488   5.609
 6833SOL    HW221399   3.616   5.571   5.593
 6834SOL     OW21400   6.473   6.112   0.228
 6834SOL    HW121401   6.547   6.162   0.182
 6834SOL    HW221402   6.398   6.175   0.248
 6835SOL     OW21403   2.943   1.435   5.495
 6835SOL    HW121404   2.986   1.492   5.425
 6835SOL    HW221405   3.013   1.399   5.556
 6836SOL     OW21406   2.359   4.330   6.412
 6836SOL    HW121407   2.454   4.304   6.394
 6836SOL    HW221408   2.353   4.430   6.422
 6837SOL     OW21409   0.523   1.076   2.202
 6837SOL    HW121410   0.515   1.151   2.136
 6837SOL    HW221411   0.614   1.078   2.243
 6838SOL     OW21412   3.183   3.996   4.986
 6838SOL    HW121413   3.200   4.084   4.942
 6838SOL    HW221414   3.091   3.995   5.025
 6839SOL     OW21415   6.282   3.459   4.497
 6839SOL    HW121416   6.204   3.438   4.556
 6839SOL    HW221417   6.250   3.508   4.416
 6840SOL     OW21418   2.564   6.826   4.741
 6840SOL    HW121419   2.518   6.788   4.661
 6840SOL    HW221420   2.662   6.808   4.735
 6841SOL     OW21421   4.861   6.266   0.972
 6841SOL    HW121422   4.812   6.215   1.043
 6841SOL    HW221423   4.820   6.358   0.964
 6842SOL     OW21424   0.360   3.625   4.835
 6842SOL    HW121425   0.306   3.628   4.919
 6842SOL    HW221426   0.334   3.545   4.781
 6843SOL     OW21427   3.979   2.193   2.030
 6843SOL    HW121428   4.003   2.182   2.126
 6843SOL    HW221429   3.880   2.201   2.021
 6844SOL     OW21430   4.758   5.562   4.016
 6844SOL    HW121431   4.679   5.619   4.035
 6844SOL    HW221432   4.765   5.490   4.086
 6845SOL     OW21433   4.262   4.543   1.196
 6845SOL    HW121434   4.311   4.501   1.272
 6845SOL    HW221435   4.210   4.473   1.147
 6846SOL     OW21436   3.008   3.110   2.820
 6846SOL    HW121437   2.998   3.092   2.722
 6846SOL    HW221438   3.069   3.041   2.860
 6847SOL     OW21439   5.894   3.499   2.390
 6847SOL    HW121440   5.920   3.403   2.398
 6847SOL    HW221441   5.964   3.556   2.433
 6848SOL     OW21442   0.466   6.564   3.285
 6848SOL    HW121443   0.551   6.574   3.336
 6848SOL    HW221444   0.388   6.578   3.346
 6849SOL     OW21445   3.494   6.777   3.472
 6849SOL    HW121446   3.557   6.740   3.540
 6849SOL    HW221447   3.541   6.782   3.383
 6850SOL     OW21448   5.383   2.621   2.290
 6850SOL    HW121449   5.415   2.552   2.225
 6850SOL    HW221450   5.284   2.624   2.289
 6851SOL     OW21451   0.844   5.864   5.360
 6851SOL    HW121452   0.854   5.792   5.292
 6851SOL    HW221453   0.884   5.834   5.446
 6852SOL     OW21454   0.144   4.862   1.865
 6852SOL    HW121455   0.097   4.876   1.778
 6852SOL    HW221456   0.229   4.916   1.865
 6853SOL     OW21457   0.221   3.538   5.526
 6853SOL    HW121458   0.320   3.546   5.535
 6853SOL    HW221459   0.180   3.524   5.617
 6854SOL     OW21460   6.163   1.301   6.276
 6854SOL    HW121461   6.147   1.202   6.271
 6854SOL    HW221462   6.200   1.323   6.367
 6855SOL     OW21463   3.275   5.945   1.688
 6855SOL    HW121464   3.329   5.891   1.622
 6855SOL    HW221465   3.258   6.036   1.650
 6856SOL     OW21466   6.839   3.703   5.409
 6856SOL    HW121467   6.868   3.689   5.504
 6856SOL    HW221468   6.919   3.715   5.351
 6857SOL     OW21469   4.608   1.985   5.482
 6857SOL    HW121470   4.642   1.894   5.461
 6857SOL    HW221471   4.552   2.019   5.407
 6858SOL     OW21472   3.998   3.305   4.780
 6858SOL    HW121473   4.002   3.230   4.846
 6858SOL    HW221474   4.048   3.383   4.816
 6859SOL     OW21475   4.228   6.631   1.621
 6859SOL    HW121476   4.204   6.534   1.611
 6859SOL    HW221477   4.174   6.671   1.696
 6860SOL     OW21478   4.873   3.722   6.635
 6860SOL    HW121479   4.787   3.724   6.583
 6860SOL    HW221480   4.872   3.645   6.699
 6861SOL     OW21481   6.524   4.583   6.897
 6861SOL    HW121482   6.618   4.557   6.873
 6861SOL    HW221483   6.473   4.502   6.924
 6862SOL     OW21484   3.544   5.801   4.076
 6862SOL    HW121485   3.643   5.791   4.089
 6862SOL    HW221486   3.527   5.861   3.998
 6863SOL     OW21487   6.533   2.977   4.375
 6863SOL    HW121488   6.437   2.984   4.404
 6863SOL    HW221489   6.560   2.880   4.373
 6864SOL     OW21490   4.086   6.185   4.500
 6864SOL    HW121491   4.132   6.230   4.576
 6864SOL    HW221492   4.138   6.200   4.416
 6865SOL     OW21493   6.689   4.768   4.170
 6865SOL    HW121494   6.712   4.833   4.097
 6865SOL    HW221495   6.605   4.719   4.146
 6866SOL     OW21496   0.290   3.275   2.443
 6866SOL    HW121497   0.218   3.343   2.450
 6866SOL    HW221498   0.370   3.306   2.494
 6867SOL     OW21499   2.160   4.039   2.882
 6867SOL    HW121500   2.133   4.131   2.854
 6867SOL    HW221501   2.107   3.971   2.831
 6868SOL     OW21502   1.584   5.182   5.313
 6868SOL    HW121503   1.679   5.161   5.335
 6868SOL    HW221504   1.546   5.243   5.383
 6869SOL     OW21505   6.137   3.422   5.276
 6869SOL    HW121506   6.101   3.466   5.358
 6869SOL    HW221507   6.094   3.332   5.265
 6870SOL     OW21508   5.175   3.464   3.098
 6870SOL    HW121509   5.082   3.438   3.071
 6870SOL    HW221510   5.231   3.478   3.016
 6871SOL     OW21511   5.541   6.115   1.703
 6871SOL    HW121512   5.634   6.150   1.706
 6871SOL    HW221513   5.540   6.026   1.658
 6872SOL     OW21514   2.518   3.193   6.133
 6872SOL    HW121515   2.592   3.148   6.184
 6872SOL    HW221516   2.540   3.193   6.036
 6873SOL     OW21517   5.495   3.584   5.670
 6873SOL    HW121518   5.455   3.542   5.751
 6873SOL    HW221519   5.425   3.635   5.620
 6874SOL     OW21520   0.575   2.382   5.869
 6874SOL    HW121521   0.554   2.468   5.821
 6874SOL    HW221522   0.549   2.305   5.811
 6875SOL     OW21523   3.169   2.191   3.494
 6875SOL    HW121524   3.083   2.143   3.479
 6875SOL    HW221525   3.163   2.283   3.454
 6876SOL     OW21526   4.037   6.040   6.656
 6876SOL    HW121527   3.946   6.025   6.618
 6876SOL    HW221528   4.059   6.138   6.654
 6877SOL     OW21529   2.558   4.117   6.878
 6877SOL    HW121530   2.508   4.199   6.850
 6877SOL    HW221531   2.524   4.085   6.966
 6878SOL     OW21532   1.607   1.167   5.318
 6878SOL    HW121533   1.539   1.223   5.365
 6878SOL    HW221534   1.581   1.158   5.222
 6879SOL     OW21535   1.601   2.296   6.312
 6879SOL    HW121536   1.692   2.290   6.354
 6879SOL    HW221537   1.604   2.360   6.235
 6880SOL     OW21538   1.687   3.934   5.188
 6880SOL    HW121539   1.694   3.875   5.107
 6880SOL    HW221540   1.730   4.022   5.169
 6881SOL     OW21541   7.010   4.079   1.510
 6881SOL    HW121542   0.016   3.984   1.509
 6881SOL    HW221543   6.919   4.087   1.469
 6882SOL     OW21544   1.715   0.086   5.444
 6882SOL    HW121545   1.650   0.160   5.428
 6882SOL    HW221546   1.673   0.016   5.502
 6883SOL     OW21547   3.416   6.324   1.868
 6883SOL    HW121548   3.322   6.338   1.838
 6883SOL    HW221549   3.421   6.328   1.968
 6884SOL     OW21550   2.622   4.640   3.634
 6884SOL    HW121551   2.715   4.633   3.598
 6884SOL    HW221552   2.557   4.612   3.564
 6885SOL     OW21553   2.939   5.282   4.446
 6885SOL    HW121554   2.892   5.370   4.442
 6885SOL    HW221555   2.901   5.228   4.520
 6886SOL     OW21556   5.664   1.646   2.670
 6886SOL    HW121557   5.677   1.741   2.640
 6886SOL    HW221558   5.657   1.587   2.590
 6887SOL     OW21559   5.928   0.945   4.821
 6887SOL    HW121560   5.943   0.857   4.778
 6887SOL    HW221561   6.011   1.001   4.813
 6888SOL     OW21562   5.364   6.886   4.501
 6888SOL    HW121563   5.391   6.791   4.482
 6888SOL    HW221564   5.437   6.948   4.472
 6889SOL     OW21565   1.321   4.370   6.345
 6889SOL    HW121566   1.335   4.293   6.283
 6889SOL    HW221567   1.407   4.393   6.390
 6890SOL     OW21568   2.280   0.337   1.088
 6890SOL    HW121569   2.251   0.256   1.137
 6890SOL    HW221570   2.251   0.419   1.137
 6891SOL     OW21571   1.926   4.309   4.414
 6891SOL    HW121572   1.967   4.308   4.506
 6891SOL    HW221573   1.941   4.221   4.370
 6892SOL     OW21574   4.045   1.030   3.932
 6892SOL    HW121575   3.946   1.029   3.927
 6892SOL    HW221576   4.083   1.059   3.844
 6893SOL     OW21577   5.304   5.347   2.118
 6893SOL    HW121578   5.397   5.363   2.153
 6893SOL    HW221579   5.243   5.325   2.194
 6894SOL     OW21580   6.545   4.764   6.314
 6894SOL    HW121581   6.640   4.751   6.342
 6894SOL    HW221582   6.535   4.739   6.217
 6895SOL     OW21583   3.629   5.818   6.802
 6895SOL    HW121584   3.714   5.785   6.842
 6895SOL    HW221585   3.578   5.872   6.869
 6896SOL     OW21586   3.796   0.590   2.764
 6896SOL    HW121587   3.751   0.561   2.848
 6896SOL    HW221588   3.774   0.686   2.745
 6897SOL     OW21589   3.416   2.900   0.763
 6897SOL    HW121590   3.339   2.922   0.703
 6897SOL    HW221591   3.502   2.922   0.716
 6898SOL     OW21592   4.410   2.296   2.408
 6898SOL    HW121593   4.387   2.248   2.323
 6898SOL    HW221594   4.503   2.334   2.400
 6899SOL     OW21595   5.005   6.004   6.872
 6899SOL    HW121596   4.937   5.959   6.930
 6899SOL    HW221597   5.078   5.940   6.849
 6900SOL     OW21598   4.450   0.537   6.100
 6900SOL    HW121599   4.417   0.482   6.176
 6900SOL    HW221600   4.372   0.571   6.048
 6901SOL     OW21601   1.575   0.900   6.546
 6901SOL    HW121602   1.555   0.998   6.536
 6901SOL    HW221603   1.654   0.888   6.605
 6902SOL     OW21604   6.953   5.713   0.749
 6902SOL    HW121605   6.916   5.803   0.771
 6902SOL    HW221606   6.992   5.714   0.657
 6903SOL     OW21607   4.486   3.924   0.724
 6903SOL    HW121608   4.425   3.849   0.752
 6903SOL    HW221609   4.490   3.992   0.797
 6904SOL     OW21610   0.015   1.519   3.205
 6904SOL    HW121611   7.011   1.497   3.111
 6904SOL    HW221612   0.041   1.615   3.210
 6905SOL     OW21613   6.076   6.500   0.889
 6905SOL    HW121614   6.165   6.532   0.856
 6905SOL    HW221615   6.082   6.403   0.911
 6906SOL     OW21616   4.282   0.755   3.502
 6906SOL    HW121617   4.325   0.831   3.454
 6906SOL    HW221618   4.204   0.789   3.555
 6907SOL     OW21619   4.076   1.959   1.428
 6907SOL    HW121620   4.139   2.037   1.424
 6907SOL    HW221621   4.086   1.912   1.516
 6908SOL     OW21622   1.063   6.656   6.539
 6908SOL    HW121623   1.007   6.736   6.518
 6908SOL    HW221624   1.138   6.650   6.474
 6909SOL     OW21625   3.548   3.734   6.887
 6909SOL    HW121626   3.549   3.634   6.885
 6909SOL    HW221627   3.634   3.768   6.926
 6910SOL     OW21628   6.402   1.422   1.917
 6910SOL    HW121629   6.316   1.390   1.957
 6910SOL    HW221630   6.434   1.503   1.966
 6911SOL     OW21631   3.822   1.270   4.808
 6911SOL    HW121632   3.768   1.225   4.737
 6911SOL    HW221633   3.917   1.278   4.777
 6912SOL     OW21634   4.929   4.871   0.577
 6912SOL    HW121635   4.886   4.904   0.661
 6912SOL    HW221636   5.007   4.814   0.600
 6913SOL     OW21637   5.068   5.062   5.156
 6913SOL    HW121638   5.019   5.138   5.113
 6913SOL    HW221639   5.164   5.088   5.170
 6914SOL     OW21640   6.582   4.948   0.493
 6914SOL    HW121641   6.554   4.859   0.458
 6914SOL    HW221642   6.509   5.015   0.477
 6915SOL     OW21643   0.513   5.176   1.939
 6915SOL    HW121644   0.518   5.244   1.866
 6915SOL    HW221645   0.600   5.127   1.945
 6916SOL     OW21646   6.661   1.881   0.070
 6916SOL    HW121647   6.675   1.943   0.147
 6916SOL    HW221648   6.602   1.925   0.002
 6917SOL     OW21649   4.581   5.784   6.425
 6917SOL    HW121650   4.492   5.746   6.450
 6917SOL    HW221651   4.644   5.776   6.502
 6918SOL     OW21652   1.430   3.062   4.139
 6918SOL    HW121653   1.396   3.068   4.045
 6918SOL    HW221654   1.387   2.984   4.185
 6919SOL     OW21655   1.974   6.316   3.240
 6919SOL    HW121656   1.934   6.334   3.330
 6919SOL    HW221657   2.012   6.224   3.238
 6920SOL     OW21658   4.988   6.769   4.252
 6920SOL    HW121659   4.995   6.841   4.321
 6920SOL    HW221660   5.073   6.764   4.200
 6921SOL     OW21661   0.592   0.560   3.435
 6921SOL    HW121662   0.535   0.510   3.369
 6921SOL    HW221663   0.628   0.643   3.392
 6922SOL     OW21664   2.072   6.075   0.191
 6922SOL    HW121665   2.095   5.981   0.166
 6922SOL    HW221666   1.978   6.095   0.164
 6923SOL     OW21667   4.517   0.762   3.853
 6923SOL    HW121668   4.594   0.710   3.889
 6923SOL    HW221669   4.440   0.755   3.916
 6924SOL     OW21670   0.380   5.273   1.440
 6924SOL    HW121671   0.437   5.234   1.367
 6924SOL    HW221672   0.334   5.198   1.488
 6925SOL     OW21673   5.041   5.610   2.636
 6925SOL    HW121674   4.947   5.641   2.647
 6925SOL    HW221675   5.081   5.651   2.555
 6926SOL     OW21676   3.025   3.447   4.478
 6926SOL    HW121677   2.975   3.443   4.392
 6926SOL    HW221678   3.099   3.513   4.471
 6927SOL     OW21679   4.350   4.105   6.113
 6927SOL    HW121680   4.436   4.099   6.165
 6927SOL    HW221681   4.298   4.184   6.144
 6928SOL     OW21682   5.257   0.299   6.645
 6928SOL    HW121683   5.159   0.315   6.655
 6928SOL    HW221684   5.278   0.203   6.663
 6929SOL     OW21685   3.517   5.675   0.144
 6929SOL    HW121686   3.607   5.639   0.171
 6929SOL    HW221687   3.472   5.609   0.083
 6930SOL     OW21688   1.035   0.190   3.457
 6930SOL    HW121689   1.022   0.149   3.547
 6930SOL    HW221690   1.044   0.289   3.467
 6931SOL     OW21691   1.615   1.345   1.286
 6931SOL    HW121692   1.516   1.328   1.285
 6931SOL    HW221693   1.650   1.331   1.378
 6932SOL     OW21694   2.344   2.311   0.828
 6932SOL    HW121695   2.403   2.291   0.750
 6932SOL    HW221696   2.398   2.356   0.900
 6933SOL     OW21697   3.879   5.636   5.950
 6933SOL    HW121698   3.902   5.546   5.985
 6933SOL    HW221699   3.947   5.663   5.881
 6934SOL     OW21700   5.237   3.414   0.012
 6934SOL    HW121701   5.280   3.402   0.102
 6934SOL    HW221702   5.306   3.403   6.964
 6935SOL     OW21703   4.230   5.916   3.792
 6935SOL    HW121704   4.200   5.829   3.829
 6935SOL    HW221705   4.155   5.959   3.742
 6936SOL     OW21706   1.203   4.183   1.173
 6936SOL    HW121707   1.129   4.248   1.153
 6936SOL    HW221708   1.257   4.168   1.090
 6937SOL     OW21709   4.273   6.646   5.459
 6937SOL    HW121710   4.310   6.706   5.531
 6937SOL    HW221711   4.187   6.606   5.491
 6938SOL     OW21712   4.724   2.328   5.051
 6938SOL    HW121713   4.686   2.330   5.143
 6938SOL    HW221714   4.780   2.409   5.036
 6939SOL     OW21715   0.516   4.520   2.931
 6939SOL    HW121716   0.434   4.573   2.909
 6939SOL    HW221717   0.491   4.442   2.989
 6940SOL     OW21718   4.916   0.708   5.230
 6940SOL    HW121719   4.922   0.611   5.251
 6940SOL    HW221720   4.975   0.759   5.292
 6941SOL     OW21721   4.125   3.549   3.627
 6941SOL    HW121722   4.112   3.455   3.596
 6941SOL    HW221723   4.134   3.609   3.547
 6942SOL     OW21724   0.014   2.038   6.607
 6942SOL    HW121725   0.031   2.093   6.688
 6942SOL    HW221726   7.015   1.944   6.634
 6943SOL     OW21727   4.778   5.338   6.688
 6943SOL    HW121728   4.815   5.312   6.599
 6943SOL    HW221729   4.729   5.260   6.727
 6944SOL     OW21730   1.586   5.728   5.587
 6944SOL    HW121731   1.654   5.667   5.628
 6944SOL    HW221732   1.506   5.734   5.646
 6945SOL     OW21733   6.009   2.930   5.745
 6945SOL    HW121734   5.943   2.856   5.747
 6945SOL    HW221735   6.074   2.918   5.820
 6946SOL     OW21736   5.483   4.306   2.524
 6946SOL    HW121737   5.547   4.232   2.546
 6946SOL    HW221738   5.417   4.274   2.457
 6947SOL     OW21739   3.457   6.342   3.031
 6947SOL    HW121740   3.514   6.404   3.085
 6947SOL    HW221741   3.505   6.256   3.017
 6948SOL     OW21742   4.395   1.029   5.493
 6948SOL    HW121743   4.394   1.032   5.593
 6948SOL    HW221744   4.353   1.112   5.457
 6949SOL     OW21745   5.258   0.295   2.841
 6949SOL    HW121746   5.322   0.312   2.917
 6949SOL    HW221747   5.174   0.256   2.876
 6950SOL     OW21748   2.204   0.465   3.299
 6950SOL    HW121749   2.142   0.388   3.286
 6950SOL    HW221750   2.298   0.437   3.280
 6951SOL     OW21751   6.443   5.362   5.809
 6951SOL    HW121752   6.357   5.321   5.779
 6951SOL    HW221753   6.435   5.390   5.905
 6952SOL     OW21754   0.647   4.842   5.442
 6952SOL    HW121755   0.658   4.899   5.524
 6952SOL    HW221756   0.710   4.765   5.446
 6953SOL     OW21757   4.842   1.472   5.382
 6953SOL    HW121758   4.815   1.387   5.337
 6953SOL    HW221759   4.812   1.471   5.478
 6954SOL     OW21760   6.954   3.955   3.470
 6954SOL    HW121761   0.017   3.952   3.520
 6954SOL    HW221762   6.967   4.007   3.385
 6955SOL     OW21763   0.246   5.910   1.752
 6955SOL    HW121764   0.203   5.956   1.675
 6955SOL    HW221765   0.194   5.827   1.776
 6956SOL     OW21766   4.174   4.891   1.373
 6956SOL    HW121767   4.274   4.891   1.377
 6956SOL    HW221768   4.139   4.804   1.409
 6957SOL     OW21769   0.764   4.944   0.792
 6957SOL    HW121770   0.732   5.038   0.802
 6957SOL    HW221771   0.685   4.884   0.776
 6958SOL     OW21772   2.668   3.374   6.880
 6958SOL    HW121773   2.699   3.424   6.961
 6958SOL    HW221774   2.747   3.342   6.828
 6959SOL     OW21775   3.020   0.833   4.375
 6959SOL    HW121776   3.062   0.814   4.464
 6959SOL    HW221777   3.045   0.761   4.310
 6960SOL     OW21778   0.619   4.726   6.344
 6960SOL    HW121779   0.610   4.635   6.385
 6960SOL    HW221780   0.667   4.719   6.257
 6961SOL     OW21781   0.271   0.793   2.597
 6961SOL    HW121782   0.305   0.856   2.666
 6961SOL    HW221783   0.175   0.773   2.614
 6962SOL     OW21784   4.734   4.300   0.842
 6962SOL    HW121785   4.718   4.213   0.888
 6962SOL    HW221786   4.794   4.357   0.899
 6963SOL     OW21787   6.970   5.097   1.475
 6963SOL    HW121788   6.889   5.044   1.452
 6963SOL    HW221789   6.944   5.175   1.532
 6964SOL     OW21790   4.253   5.730   5.334
 6964SOL    HW121791   4.203   5.794   5.276
 6964SOL    HW221792   4.347   5.764   5.347
 6965SOL     OW21793   6.668   3.341   6.275
 6965SOL    HW121794   6.656   3.243   6.260
 6965SOL    HW221795   6.695   3.358   6.370
 6966SOL     OW21796   4.908   2.614   3.891
 6966SOL    HW121797   4.915   2.714   3.884
 6966SOL    HW221798   4.950   2.572   3.811
 6967SOL     OW21799   1.460   0.759   6.046
 6967SOL    HW121800   1.503   0.671   6.067
 6967SOL    HW221801   1.508   0.803   5.971
 6968SOL     OW21802   5.154   5.963   1.774
 6968SOL    HW121803   5.152   5.921   1.683
 6968SOL    HW221804   5.157   5.891   1.844
 6969SOL     OW21805   2.989   2.380   0.540
 6969SOL    HW121806   3.000   2.430   0.625
 6969SOL    HW221807   3.074   2.333   0.517
 6970SOL     OW21808   5.274   4.325   6.665
 6970SOL    HW121809   5.302   4.295   6.574
 6970SOL    HW221810   5.194   4.273   6.694
 6971SOL     OW21811   5.451   0.405   1.280
 6971SOL    HW121812   5.381   0.451   1.334
 6971SOL    HW221813   5.440   0.429   1.183
 6972SOL     OW21814   6.066   4.922   4.185
 6972SOL    HW121815   6.007   4.857   4.137
 6972SOL    HW221816   6.061   5.011   4.141
 6973SOL     OW21817   1.670   4.278   3.345
 6973SOL    HW121818   1.611   4.351   3.377
 6973SOL    HW221819   1.650   4.194   3.397
 6974SOL     OW21820   3.348   3.841   4.586
 6974SOL    HW121821   3.401   3.908   4.533
 6974SOL    HW221822   3.370   3.749   4.554
 6975SOL     OW21823   3.935   0.459   6.324
 6975SOL    HW121824   3.985   0.532   6.369
 6975SOL    HW221825   3.999   0.390   6.289
 6976SOL     OW21826   1.719   4.781   6.393
 6976SOL    HW121827   1.746   4.877   6.390
 6976SOL    HW221828   1.741   4.743   6.483
 6977SOL     OW21829   3.185   1.899   2.621
 6977SOL    HW121830   3.112   1.843   2.583
 6977SOL    HW221831   3.206   1.974   2.558
 6978SOL     OW21832   0.269   0.632   1.714
 6978SOL    HW121833   0.246   0.728   1.704
 6978SOL    HW221834   0.305   0.615   1.806
 6979SOL     OW21835   0.500   5.052   2.504
 6979SOL    HW121836   0.568   4.998   2.554
 6979SOL    HW221837   0.516   5.149   2.523
 6980SOL     OW21838   3.379   0.743   4.367
 6980SOL    HW121839   3.359   0.814   4.434
 6980SOL    HW221840   3.295   0.697   4.340
 6981SOL     OW21841   1.669   5.175   0.893
 6981SOL    HW121842   1.654   5.266   0.933
 6981SOL    HW221843   1.604   5.111   0.934
 6982SOL     OW21844   0.317   0.290   4.937
 6982SOL    HW121845   0.412   0.290   4.969
 6982SOL    HW221846   0.310   0.345   4.854
 6983SOL     OW21847   6.466   6.888   4.270
 6983SOL    HW121848   6.564   6.902   4.258
 6983SOL    HW221849   6.434   6.938   4.351
 6984SOL     OW21850   1.813   1.079   6.212
 6984SOL    HW121851   1.754   1.008   6.251
 6984SOL    HW221852   1.798   1.084   6.113
 6985SOL     OW21853   5.130   5.764   1.981
 6985SOL    HW121854   5.218   5.757   2.027
 6985SOL    HW221855   5.107   5.676   1.939
 6986SOL     OW21856   2.360   6.722   6.109
 6986SOL    HW121857   2.396   6.791   6.046
 6986SOL    HW221858   2.411   6.725   6.195
 6987SOL     OW21859   0.658   3.625   6.770
 6987SOL    HW121860   0.669   3.722   6.751
 6987SOL    HW221861   0.699   3.572   6.696
 6988SOL     OW21862   5.098   1.001   3.841
 6988SOL    HW121863   5.005   1.021   3.811
 6988SOL    HW221864   5.134   0.924   3.790
 6989SOL     OW21865   1.431   2.340   4.292
 6989SOL    HW121866   1.427   2.243   4.318
 6989SOL    HW221867   1.504   2.352   4.224
 6990SOL     OW21868   3.789   3.116   6.854
 6990SOL    HW121869   3.747   3.102   6.944
 6990SOL    HW221870   3.866   3.180   6.864
 6991SOL     OW21871   2.968   4.253   5.776
 6991SOL    HW121872   2.915   4.336   5.796
 6991SOL    HW221873   3.065   4.271   5.792
 6992SOL     OW21874   5.540   6.978   3.467
 6992SOL    HW121875   5.460   7.009   3.518
 6992SOL    HW221876   5.609   6.942   3.530
 6993SOL     OW21877   0.113   0.415   2.874
 6993SOL    HW121878   0.094   0.320   2.899
 6993SOL    HW221879   0.027   0.461   2.853
 6994SOL     OW21880   1.417   3.175   6.287
 6994SOL    HW121881   1.433   3.257   6.342
 6994SOL    HW221882   1.500   3.154   6.235
 6995SOL     OW21883   6.140   5.684   3.106
 6995SOL    HW121884   6.235   5.679   3.074
 6995SOL    HW221885   6.138   5.694   3.205
 6996SOL     OW21886   2.461   0.425   5.307
 6996SOL    HW121887   2.419   0.386   5.389
 6996SOL    HW221888   2.464   0.355   5.235
 6997SOL     OW21889   4.659   0.491   5.422
 6997SOL    HW121890   4.743   0.457   5.380
 6997SOL    HW221891   4.644   0.445   5.509
 6998SOL     OW21892   0.863   3.365   3.314
 6998SOL    HW121893   0.916   3.443   3.279
 6998SOL    HW221894   0.851   3.297   3.241
 6999SOL     OW21895   3.656   2.009   5.557
 6999SOL    HW121896   3.677   1.993   5.461
 6999SOL    HW221897   3.608   2.096   5.567
 7000SOL     OW21898   0.476   6.318   2.619
 7000SOL    HW121899   0.380   6.314   2.592
 7000SOL    HW221900   0.515   6.406   2.591
 7001SOL     OW21901   2.435   2.711   5.777
 7001SOL    HW121902   2.354   2.695   5.720
 7001SOL    HW221903   2.508   2.649   5.748
 7002SOL     OW21904   1.628   5.031   3.119
 7002SOL    HW121905   1.603   5.128   3.120
 7002SOL    HW221906   1.726   5.022   3.136
 7003SOL     OW21907   3.094   6.298   0.856
 7003SOL    HW121908   3.032   6.360   0.808
 7003SOL    HW221909   3.054   6.272   0.944
 7004SOL     OW21910   1.727   4.223   1.170
 7004SOL    HW121911   1.667   4.184   1.239
 7004SOL    HW221912   1.797   4.279   1.215
 7005SOL     OW21913   5.197   6.144   6.314
 7005SOL    HW121914   5.290   6.106   6.318
 7005SOL    HW221915   5.131   6.072   6.336
 7006SOL     OW21916   4.423   4.614   4.775
 7006SOL    HW121917   4.329   4.609   4.741
 7006SOL    HW221918   4.427   4.573   4.867
 7007SOL     OW21919   4.555   5.747   3.232
 7007SOL    HW121920   4.528   5.793   3.147
 7007SOL    HW221921   4.569   5.815   3.304
 7008SOL     OW21922   1.064   4.910   4.031
 7008SOL    HW121923   1.004   4.832   4.042
 7008SOL    HW221924   1.145   4.898   4.089
 7009SOL     OW21925   0.401   4.888   1.961
 7009SOL    HW121926   0.367   4.931   2.045
 7009SOL    HW221927   0.491   4.925   1.939
 7010SOL     OW21928   3.230   4.927   6.284
 7010SOL    HW121929   3.279   4.947   6.369
 7010SOL    HW221930   3.183   5.009   6.252
 7011SOL     OW21931   2.896   0.600   5.670
 7011SOL    HW121932   2.876   0.588   5.768
 7011SOL    HW221933   2.876   0.515   5.621
 7012SOL     OW21934   1.157   0.799   1.473
 7012SOL    HW121935   1.172   0.711   1.517
 7012SOL    HW221936   1.242   0.829   1.429
 7013SOL     OW21937   1.300   6.895   1.976
 7013SOL    HW121938   1.392   6.935   1.977
 7013SOL    HW221939   1.241   6.951   1.918
 7014SOL     OW21940   2.630   4.660   1.255
 7014SOL    HW121941   2.561   4.615   1.310
 7014SOL    HW221942   2.665   4.596   1.186
 7015SOL     OW21943   5.297   2.749   2.686
 7015SOL    HW121944   5.291   2.659   2.729
 7015SOL    HW221945   5.215   2.802   2.708
 7016SOL     OW21946   4.708   5.224   0.865
 7016SOL    HW121947   4.685   5.143   0.811
 7016SOL    HW221948   4.747   5.294   0.805
 7017SOL     OW21949   3.466   1.820   3.223
 7017SOL    HW121950   3.465   1.917   3.196
 7017SOL    HW221951   3.372   1.789   3.237
 7018SOL     OW21952   0.508   4.773   4.800
 7018SOL    HW121953   0.427   4.734   4.843
 7018SOL    HW221954   0.528   4.862   4.841
 7019SOL     OW21955   2.452   5.674   6.835
 7019SOL    HW121956   2.364   5.638   6.868
 7019SOL    HW221957   2.524   5.651   6.901
 7020SOL     OW21958   6.345   6.530   6.465
 7020SOL    HW121959   6.300   6.442   6.449
 7020SOL    HW221960   6.276   6.602   6.473
 7021SOL     OW21961   3.007   1.639   6.069
 7021SOL    HW121962   2.962   1.612   5.984
 7021SOL    HW221963   3.013   1.561   6.131
 7022SOL     OW21964   5.561   4.543   0.191
 7022SOL    HW121965   5.545   4.609   0.265
 7022SOL    HW221966   5.584   4.592   0.107
 7023SOL     OW21967   6.567   3.787   2.562
 7023SOL    HW121968   6.656   3.829   2.545
 7023SOL    HW221969   6.531   3.820   2.649
 7024SOL     OW21970   1.996   6.006   0.515
 7024SOL    HW121971   1.979   6.073   0.443
 7024SOL    HW221972   1.979   5.914   0.480
 7025SOL     OW21973   2.962   2.099   6.211
 7025SOL    HW121974   3.038   2.075   6.271
 7025SOL    HW221975   2.929   2.018   6.163
 7026SOL     OW21976   3.674   1.776   0.968
 7026SOL    HW121977   3.625   1.858   0.940
 7026SOL    HW221978   3.763   1.802   1.006
 7027SOL     OW21979   4.302   6.825   4.507
 7027SOL    HW121980   4.325   6.739   4.553
 7027SOL    HW221981   4.223   6.811   4.447
 7028SOL     OW21982   3.762   6.838   4.595
 7028SOL    HW121983   3.706   6.887   4.662
 7028SOL    HW221984   3.704   6.799   4.524
 7029SOL     OW21985   3.676   0.338   6.605
 7029SOL    HW121986   3.771   0.369   6.597
 7029SOL    HW221987   3.670   0.242   6.576
 7030SOL     OW21988   0.919   3.580   4.842
 7030SOL    HW121989   0.842   3.639   4.819
 7030SOL    HW221990   0.919   3.560   4.940
 7031SOL     OW21991   1.578   5.972   4.008
 7031SOL    HW121992   1.559   5.878   3.978
 7031SOL    HW221993   1.526   5.991   4.091
 7032SOL     OW21994   6.078   1.086   2.087
 7032SOL    HW121995   6.007   1.108   2.155
 7032SOL    HW221996   6.142   1.020   2.126
 7033SOL     OW21997   0.143   0.972   3.588
 7033SOL    HW121998   0.223   0.913   3.577
 7033SOL    HW221999   0.164   1.047   3.650
 7034SOL     OW22000   0.010   6.510   3.169
 7034SOL    HW122001   6.980   6.531   3.251
 7034SOL    HW222002   0.075   6.437   3.191
 7035SOL     OW22003   6.450   5.685   2.439
 7035SOL    HW122004   6.409   5.773   2.416
 7035SOL    HW222005   6.549   5.693   2.442
 7036SOL     OW22006   0.268   4.930   2.204
 7036SOL    HW122007   0.236   5.020   2.233
 7036SOL    HW222008   0.192   4.880   2.162
 7037SOL     OW22009   1.372   6.106   6.217
 7037SOL    HW122010   1.280   6.144   6.203
 7037SOL    HW222011   1.436   6.155   6.158
 7038SOL     OW22012   0.635   4.011   4.132
 7038SOL    HW122013   0.630   3.911   4.136
 7038SOL    HW222014   0.730   4.040   4.139
 7039SOL     OW22015   3.929   1.109   6.966
 7039SOL    HW122016   3.906   1.132   6.871
 7039SOL    HW222017   3.886   1.022   6.991
 7040SOL     OW22018   5.181   2.149   6.129
 7040SOL    HW122019   5.230   2.158   6.043
 7040SOL    HW222020   5.218   2.071   6.180
 7041SOL     OW22021   2.006   1.819   2.842
 7041SOL    HW122022   1.943   1.879   2.792
 7041SOL    HW222023   2.057   1.873   2.909
 7042SOL     OW22024   3.280   6.755   6.898
 7042SOL    HW122025   3.202   6.765   6.959
 7042SOL    HW222026   3.343   6.686   6.934
 7043SOL     OW22027   2.362   1.856   3.067
 7043SOL    HW122028   2.422   1.832   2.991
 7043SOL    HW222029   2.280   1.901   3.032
 7044SOL     OW22030   4.787   4.610   3.015
 7044SOL    HW122031   4.689   4.627   3.031
 7044SOL    HW222032   4.826   4.687   2.965
 7045SOL     OW22033   5.628   5.392   1.359
 7045SOL    HW122034   5.585   5.382   1.269
 7045SOL    HW222035   5.693   5.318   1.375
 7046SOL     OW22036   3.793   0.905   5.009
 7046SOL    HW122037   3.835   0.898   4.918
 7046SOL    HW222038   3.792   1.000   5.038
 7047SOL     OW22039   1.374   1.170   4.255
 7047SOL    HW122040   1.370   1.113   4.337
 7047SOL    HW222041   1.281   1.198   4.230
 7048SOL     OW22042   6.339   5.955   0.006
 7048SOL    HW122043   6.261   5.922   0.058
 7048SOL    HW222044   6.394   6.016   0.064
 7049SOL     OW22045   2.466   1.678   0.659
 7049SOL    HW122046   2.542   1.656   0.720
 7049SOL    HW222047   2.394   1.725   0.711
 7050SOL     OW22048   3.836   4.121   4.414
 7050SOL    HW122049   3.906   4.066   4.459
 7050SOL    HW222050   3.746   4.087   4.439
 7051SOL     OW22051   0.303   6.745   2.201
 7051SOL    HW122052   0.365   6.779   2.130
 7051SOL    HW222053   0.317   6.797   2.285
 7052SOL     OW22054   0.114   2.028   3.674
 7052SOL    HW122055   0.178   1.954   3.693
 7052SOL    HW222056   0.071   2.057   3.759
 7053SOL     OW22057   0.430   4.211   6.317
 7053SOL    HW122058   0.412   4.246   6.409
 7053SOL    HW222059   0.519   4.244   6.285
 7054SOL     OW22060   6.946   6.607   1.833
 7054SOL    HW122061   6.983   6.662   1.758
 7054SOL    HW222062   6.903   6.667   1.900
 7055SOL     OW22063   4.516   0.557   4.610
 7055SOL    HW122064   4.423   0.555   4.575
 7055SOL    HW222065   4.516   0.529   4.706
 7056SOL     OW22066   5.550   4.783   4.303
 7056SOL    HW122067   5.492   4.863   4.319
 7056SOL    HW222068   5.579   4.781   4.207
 7057SOL     OW22069   6.928   5.895   3.460
 7057SOL    HW122070   6.833   5.874   3.479
 7057SOL    HW222071   6.940   5.909   3.361
 7058SOL     OW22072   0.846   4.935   5.610
 7058SOL    HW122073   0.907   4.857   5.612
 7058SOL    HW222074   0.864   4.990   5.528
 7059SOL     OW22075   1.286   0.225   2.460
 7059SOL    HW122076   1.226   0.305   2.455
 7059SOL    HW222077   1.359   0.234   2.392
 7060SOL     OW22078   3.531   6.065   1.789
 7060SOL    HW122079   3.505   6.162   1.794
 7060SOL    HW222080   3.450   6.010   1.770
 7061SOL     OW22081   0.722   0.327   2.680
 7061SOL    HW122082   0.739   0.425   2.666
 7061SOL    HW222083   0.632   0.315   2.722
 7062SOL     OW22084   5.505   2.368   4.868
 7062SOL    HW122085   5.496   2.274   4.902
 7062SOL    HW222086   5.414   2.408   4.858
 7063SOL     OW22087   3.228   6.749   1.109
 7063SOL    HW122088   3.158   6.729   1.041
 7063SOL    HW222089   3.251   6.846   1.105
 7064SOL     OW22090   3.726   2.298   1.453
 7064SOL    HW122091   3.628   2.282   1.452
 7064SOL    HW222092   3.753   2.337   1.541
 7065SOL     OW22093   4.756   3.796   1.835
 7065SOL    HW122094   4.671   3.818   1.786
 7065SOL    HW222095   4.830   3.854   1.801
 7066SOL     OW22096   3.956   6.700   0.965
 7066SOL    HW122097   3.881   6.761   0.939
 7066SOL    HW222098   3.935   6.607   0.934
 7067SOL     OW22099   0.497   3.764   5.405
 7067SOL    HW122100   0.524   3.668   5.397
 7067SOL    HW222101   0.449   3.777   5.492
 7068SOL     OW22102   1.707   1.342   4.002
 7068SOL    HW122103   1.802   1.347   4.033
 7068SOL    HW222104   1.673   1.434   3.985
 7069SOL     OW22105   0.492   4.657   5.171
 7069SOL    HW122106   0.585   4.623   5.155
 7069SOL    HW222107   0.487   4.754   5.145
 7070SOL     OW22108   6.119   5.152   4.618
 7070SOL    HW122109   6.090   5.200   4.701
 7070SOL    HW222110   6.217   5.136   4.621
 7071SOL     OW22111   1.261   5.860   5.039
 7071SOL    HW122112   1.358   5.838   5.023
 7071SOL    HW222113   1.241   5.852   5.137
 7072SOL     OW22114   0.325   6.657   6.140
 7072SOL    HW122115   0.340   6.617   6.231
 7072SOL    HW222116   0.261   6.599   6.089
 7073SOL     OW22117   0.558   0.491   5.498
 7073SOL    HW122118   0.530   0.565   5.560
 7073SOL    HW222119   0.644   0.515   5.454
 7074SOL     OW22120   3.479   2.196   1.496
 7074SOL    HW122121   3.462   2.175   1.592
 7074SOL    HW222122   3.406   2.156   1.440
 7075SOL     OW22123   1.782   5.615   3.885
 7075SOL    HW122124   1.698   5.595   3.834
 7075SOL    HW222125   1.803   5.712   3.879
 7076SOL     OW22126   3.280   2.465   6.410
 7076SOL    HW122127   3.237   2.553   6.433
 7076SOL    HW222128   3.377   2.468   6.432
 7077SOL     OW22129   2.401   5.467   5.640
 7077SOL    HW122130   2.364   5.522   5.714
 7077SOL    HW222131   2.478   5.412   5.674
 7078SOL     OW22132   5.415   0.963   3.233
 7078SOL    HW122133   5.476   0.899   3.187
 7078SOL    HW222134   5.380   1.029   3.167
 7079SOL     OW22135   6.449   6.205   5.992
 7079SOL    HW122136   6.413   6.247   6.075
 7079SOL    HW222137   6.547   6.191   6.001
 7080SOL     OW22138   4.915   2.198   4.020
 7080SOL    HW122139   4.927   2.233   3.927
 7080SOL    HW222140   4.819   2.172   4.034
 7081SOL     OW22141   3.170   1.369   5.596
 7081SOL    HW122142   3.224   1.399   5.674
 7081SOL    HW222143   3.210   1.405   5.512
 7082SOL     OW22144   5.835   1.118   6.287
 7082SOL    HW122145   5.838   1.051   6.362
 7082SOL    HW222146   5.793   1.203   6.319
 7083SOL     OW22147   3.412   0.003   6.354
 7083SOL    HW122148   3.421   0.092   6.309
 7083SOL    HW222149   3.329   0.001   6.409
 7084SOL     OW22150   6.591   6.510   6.349
 7084SOL    HW122151   6.505   6.504   6.400
 7084SOL    HW222152   6.642   6.424   6.359
 7085SOL     OW22153   2.084   2.609   2.181
 7085SOL    HW122154   2.183   2.618   2.196
 7085SOL    HW222155   2.035   2.644   2.261
 7086SOL     OW22156   5.715   0.529   6.341
 7086SOL    HW122157   5.704   0.430   6.344
 7086SOL    HW222158   5.637   0.571   6.294
 7087SOL     OW22159   0.963   3.068   4.815
 7087SOL    HW122160   0.909   3.123   4.751
 7087SOL    HW222161   0.973   2.975   4.778
 7088SOL     OW22162   5.825   3.488   4.388
 7088SOL    HW122163   5.833   3.415   4.320
 7088SOL    HW222164   5.793   3.450   4.475
 7089SOL     OW22165   3.453   2.094   0.167
 7089SOL    HW122166   3.444   2.194   0.171
 7089SOL    HW222167   3.376   2.052   0.214
 7090SOL     OW22168   2.560   2.191   4.999
 7090SOL    HW122169   2.520   2.248   5.071
 7090SOL    HW222170   2.561   2.096   5.029
 7091SOL     OW22171   6.608   0.475   0.458
 7091SOL    HW122172   6.644   0.385   0.483
 7091SOL    HW222173   6.683   0.540   0.449
 7092SOL     OW22174   3.723   4.101   1.359
 7092SOL    HW122175   3.658   4.153   1.304
 7092SOL    HW222176   3.816   4.116   1.325
 7093SOL     OW22177   3.303   4.162   4.803
 7093SOL    HW122178   3.291   4.262   4.806
 7093SOL    HW222179   3.379   4.139   4.743
 7094SOL     OW22180   0.652   6.821   5.677
 7094SOL    HW122181   0.715   6.843   5.602
 7094SOL    HW222182   0.562   6.860   5.657
 7095SOL     OW22183   0.611   3.355   6.161
 7095SOL    HW122184   0.652   3.443   6.185
 7095SOL    HW222185   0.521   3.371   6.119
 7096SOL     OW22186   4.491   2.391   3.862
 7096SOL    HW122187   4.427   2.426   3.931
 7096SOL    HW222188   4.548   2.466   3.828
 7097SOL     OW22189   0.056   0.852   1.478
 7097SOL    HW122190   6.987   0.825   1.504
 7097SOL    HW222191   0.104   0.888   1.559
 7098SOL     OW22192   1.874   6.178   6.202
 7098SOL    HW122193   1.829   6.089   6.206
 7098SOL    HW222194   1.927   6.185   6.117
 7099SOL     OW22195   1.124   1.265   5.976
 7099SOL    HW122196   1.085   1.193   5.918
 7099SOL    HW222197   1.053   1.332   5.998
 7100SOL     OW22198   4.829   3.845   1.077
 7100SOL    HW122199   4.907   3.904   1.055
 7100SOL    HW222200   4.860   3.769   1.135
 7101SOL     OW22201   2.756   0.482   5.100
 7101SOL    HW122202   2.771   0.472   5.199
 7101SOL    HW222203   2.771   0.394   5.055
 7102SOL     OW22204   3.811   1.357   1.028
 7102SOL    HW122205   3.758   1.421   0.973
 7102SOL    HW222206   3.749   1.287   1.065
 7103SOL     OW22207   3.627   6.971   0.421
 7103SOL    HW122208   3.677   6.947   0.504
 7103SOL    HW222209   3.689   6.973   0.344
 7104SOL     OW22210   1.523   2.086   3.125
 7104SOL    HW122211   1.495   2.000   3.168
 7104SOL    HW222212   1.601   2.124   3.175
 7105SOL     OW22213   3.538   3.414   4.605
 7105SOL    HW122214   3.524   3.327   4.559
 7105SOL    HW222215   3.622   3.456   4.573
 7106SOL     OW22216   3.825   2.995   4.720
 7106SOL    HW122217   3.785   2.954   4.802
 7106SOL    HW222218   3.891   2.931   4.680
 7107SOL     OW22219   2.947   1.655   0.428
 7107SOL    HW122220   2.898   1.616   0.506
 7107SOL    HW222221   3.045   1.635   0.436
 7108SOL     OW22222   5.703   6.287   1.022
 7108SOL    HW122223   5.625   6.344   0.998
 7108SOL    HW222224   5.736   6.240   0.939
 7109SOL     OW22225   3.369   0.221   6.206
 7109SOL    HW122226   3.312   0.171   6.141
 7109SOL    HW222227   3.311   0.275   6.267
 7110SOL     OW22228   4.636   5.268   4.290
 7110SOL    HW122229   4.562   5.326   4.322
 7110SOL    HW222230   4.717   5.280   4.349
 7111SOL     OW22231   2.235   2.962   4.188
 7111SOL    HW122232   2.270   2.933   4.278
 7111SOL    HW222233   2.297   2.930   4.117
 7112SOL     OW22234   1.288   6.456   3.714
 7112SOL    HW122235   1.269   6.388   3.785
 7112SOL    HW222236   1.385   6.450   3.688
 7113SOL     OW22237   3.550   3.593   4.305
 7113SOL    HW122238   3.550   3.550   4.395
 7113SOL    HW222239   3.485   3.546   4.245
 7114SOL     OW22240   3.891   1.671   1.728
 7114SOL    HW122241   3.866   1.766   1.707
 7114SOL    HW222242   3.957   1.638   1.661
 7115SOL     OW22243   4.584   1.560   1.569
 7115SOL    HW122244   4.607   1.585   1.663
 7115SOL    HW222245   4.502   1.610   1.540
 7116SOL     OW22246   5.361   4.134   3.067
 7116SOL    HW122247   5.374   4.045   3.112
 7116SOL    HW222248   5.331   4.201   3.134
 7117SOL     OW22249   6.367   6.186   2.258
 7117SOL    HW122250   6.338   6.094   2.233
 7117SOL    HW222251   6.457   6.204   2.219
 7118SOL     OW22252   5.809   3.647   0.819
 7118SOL    HW122253   5.855   3.558   0.822
 7118SOL    HW222254   5.714   3.633   0.792
 7119SOL     OW22255   6.506   1.197   3.641
 7119SOL    HW122256   6.521   1.278   3.584
 7119SOL    HW222257   6.544   1.117   3.596
 7120SOL     OW22258   4.688   1.822   4.009
 7120SOL    HW122259   4.726   1.875   3.933
 7120SOL    HW222260   4.745   1.741   4.025
 7121SOL     OW22261   2.884   6.695   3.849
 7121SOL    HW122262   2.830   6.612   3.839
 7121SOL    HW222263   2.840   6.755   3.916
 7122SOL     OW22264   6.573   0.598   6.745
 7122SOL    HW122265   6.509   0.521   6.751
 7122SOL    HW222266   6.530   0.681   6.781
 7123SOL     OW22267   3.140   5.381   1.286
 7123SOL    HW122268   3.145   5.452   1.356
 7123SOL    HW222269   3.122   5.293   1.328
 7124SOL     OW22270   0.687   5.413   6.871
 7124SOL    HW122271   0.784   5.388   6.871
 7124SOL    HW222272   0.635   5.345   6.820
 7125SOL     OW22273   6.581   6.332   2.575
 7125SOL    HW122274   6.568   6.341   2.673
 7125SOL    HW222275   6.493   6.328   2.529
 7126SOL     OW22276   1.253   4.567   0.122
 7126SOL    HW122277   1.244   4.663   0.148
 7126SOL    HW222278   1.349   4.545   0.111
 7127SOL     OW22279   3.571   6.214   4.425
 7127SOL    HW122280   3.612   6.123   4.432
 7127SOL    HW222281   3.472   6.207   4.435
 7128SOL     OW22282   3.361   4.415   1.149
 7128SOL    HW122283   3.296   4.339   1.157
 7128SOL    HW222284   3.387   4.446   1.241
 7129SOL     OW22285   2.716   0.006   1.975
 7129SOL    HW122286   2.662   0.090   1.974
 7129SOL    HW222287   2.800   0.021   2.028
 7130SOL     OW22288   2.179   4.832   3.838
 7130SOL    HW122289   2.197   4.772   3.759
 7130SOL    HW222290   2.085   4.819   3.869
 7131SOL     OW22291   2.495   0.990   2.814
 7131SOL    HW122292   2.424   1.054   2.782
 7131SOL    HW222293   2.583   1.038   2.817
 7132SOL     OW22294   3.939   3.855   3.253
 7132SOL    HW122295   3.910   3.887   3.343
 7132SOL    HW222296   3.885   3.900   3.182
 7133SOL     OW22297   5.359   5.066   3.657
 7133SOL    HW122298   5.368   4.967   3.645
 7133SOL    HW222299   5.320   5.085   3.747
 7134SOL     OW22300   5.924   5.250   4.048
 7134SOL    HW122301   5.866   5.307   3.990
 7134SOL    HW222302   5.867   5.198   4.111
 7135SOL     OW22303   1.418   1.563   4.789
 7135SOL    HW122304   1.368   1.644   4.758
 7135SOL    HW222305   1.376   1.481   4.749
 7136SOL     OW22306   1.695   1.572   0.609
 7136SOL    HW122307   1.764   1.589   0.679
 7136SOL    HW222308   1.740   1.568   0.519
 7137SOL     OW22309   4.646   0.985   4.479
 7137SOL    HW122310   4.707   1.020   4.549
 7137SOL    HW222311   4.657   0.886   4.471
 7138SOL     OW22312   2.528   3.991   1.425
 7138SOL    HW122313   2.437   3.996   1.383
 7138SOL    HW222314   2.525   3.926   1.502
 7139SOL     OW22315   4.465   2.913   1.659
 7139SOL    HW122316   4.382   2.969   1.652
 7139SOL    HW222317   4.527   2.953   1.726
 7140SOL     OW22318   6.843   4.552   5.000
 7140SOL    HW122319   6.785   4.627   5.032
 7140SOL    HW222320   6.806   4.517   4.914
 7141SOL     OW22321   3.421   0.164   1.001
 7141SOL    HW122322   3.407   0.130   0.908
 7141SOL    HW222323   3.366   0.109   1.064
 7142SOL     OW22324   3.997   6.584   3.812
 7142SOL    HW122325   4.089   6.574   3.850
 7142SOL    HW222326   4.001   6.640   3.730
 7143SOL     OW22327   1.401   4.134   6.081
 7143SOL    HW122328   1.474   4.074   6.113
 7143SOL    HW222329   1.428   4.176   5.994
 7144SOL     OW22330   0.974   1.730   3.500
 7144SOL    HW122331   0.932   1.640   3.494
 7144SOL    HW222332   0.922   1.787   3.564
 7145SOL     OW22333   4.860   0.065   6.766
 7145SOL    HW122334   4.801   0.034   6.692
 7145SOL    HW222335   4.927   7.018   6.788
 7146SOL     OW22336   2.935   5.940   0.114
 7146SOL    HW122337   2.911   5.943   0.211
 7146SOL    HW222338   3.032   5.919   0.104
 7147SOL     OW22339   6.991   0.755   3.229
 7147SOL    HW122340   0.037   0.727   3.163
 7147SOL    HW222341   6.901   0.726   3.198
 7148SOL     OW22342   1.305   0.322   1.682
 7148SOL    HW122343   1.371   0.315   1.607
 7148SOL    HW222344   1.298   0.417   1.712
 7149SOL     OW22345   6.338   1.360   3.396
 7149SOL    HW122346   6.293   1.336   3.310
 7149SOL    HW222347   6.273   1.406   3.456
 7150SOL     OW22348   5.879   2.359   0.083
 7150SOL    HW122349   5.932   2.443   0.095
 7150SOL    HW222350   5.922   2.285   0.134
 7151SOL     OW22351   2.929   5.700   1.997
 7151SOL    HW122352   2.849   5.646   2.021
 7151SOL    HW222353   2.976   5.658   1.919
 7152SOL     OW22354   1.045   2.541   4.114
 7152SOL    HW122355   1.078   2.588   4.032
 7152SOL    HW222356   1.115   2.479   4.147
 7153SOL     OW22357   4.476   1.517   4.337
 7153SOL    HW122358   4.415   1.451   4.293
 7153SOL    HW222359   4.501   1.588   4.271
 7154SOL     OW22360   4.147   5.919   4.122
 7154SOL    HW122361   4.111   5.933   4.030
 7154SOL    HW222362   4.240   5.956   4.127
 7155SOL     OW22363   1.589   6.935   2.065
 7155SOL    HW122364   1.632   6.845   2.063
 7155SOL    HW222365   1.651   7.001   2.108
 7156SOL     OW22366   6.596   5.331   5.018
 7156SOL    HW122367   6.585   5.380   4.932
 7156SOL    HW222368   6.634   5.240   5.000
 7157SOL     OW22369   5.256   5.508   0.944
 7157SOL    HW122370   5.174   5.465   0.908
 7157SOL    HW222371   5.232   5.573   1.016
 7158SOL     OW22372   0.411   6.900   3.006
 7158SOL    HW122373   0.491   6.900   3.067
 7158SOL    HW222374   0.436   6.856   2.920
 7159SOL     OW22375   0.892   5.230   7.007
 7159SOL    HW122376   0.964   5.184   0.035
 7159SOL    HW222377   0.832   5.280   0.047
 7160SOL     OW22378   6.476   0.662   1.878
 7160SOL    HW122379   6.488   0.588   1.945
 7160SOL    HW222380   6.539   0.649   1.801
 7161SOL     OW22381   3.424   2.938   4.478
 7161SOL    HW122382   3.438   3.037   4.482
 7161SOL    HW222383   3.363   2.916   4.402
 7162SOL     OW22384   3.745   4.914   3.997
 7162SOL    HW122385   3.760   5.000   3.948
 7162SOL    HW222386   3.653   4.912   4.034
 7163SOL     OW22387   3.332   0.341   3.528
 7163SOL    HW122388   3.328   0.439   3.548
 7163SOL    HW222389   3.267   0.292   3.585
 7164SOL     OW22390   2.221   1.195   3.231
 7164SOL    HW122391   2.202   1.119   3.294
 7164SOL    HW222392   2.236   1.278   3.283
 7165SOL     OW22393   5.388   0.722   1.045
 7165SOL    HW122394   5.470   0.683   1.004
 7165SOL    HW222395   5.339   0.777   0.978
 7166SOL     OW22396   5.452   5.354   0.794
 7166SOL    HW122397   5.516   5.409   0.741
 7166SOL    HW222398   5.379   5.412   0.829
 7167SOL     OW22399   4.920   3.207   4.850
 7167SOL    HW122400   4.886   3.301   4.857
 7167SOL    HW222401   5.003   3.205   4.793
 7168SOL     OW22402   1.055   0.576   3.766
 7168SOL    HW122403   1.008   0.520   3.834
 7168SOL    HW222404   1.135   0.527   3.732
 7169SOL     OW22405   1.922   2.810   5.706
 7169SOL    HW122406   1.882   2.788   5.795
 7169SOL    HW222407   2.002   2.868   5.719
 7170SOL     OW22408   5.698   5.455   3.417
 7170SOL    HW122409   5.667   5.360   3.417
 7170SOL    HW222410   5.619   5.516   3.419
 7171SOL     OW22411   4.684   3.041   5.428
 7171SOL    HW122412   4.741   3.055   5.510
 7171SOL    HW222413   4.656   3.130   5.392
 7172SOL     OW22414   1.435   6.720   0.173
 7172SOL    HW122415   1.531   6.692   0.178
 7172SOL    HW222416   1.429   6.814   0.141
 7173SOL     OW22417   6.980   6.255   5.156
 7173SOL    HW122418   6.933   6.335   5.195
 7173SOL    HW222419   7.023   6.203   5.229
 7174SOL     OW22420   2.022   5.297   0.476
 7174SOL    HW122421   2.050   5.226   0.412
 7174SOL    HW222422   1.941   5.343   0.441
 7175SOL     OW22423   5.166   4.064   6.989
 7175SOL    HW122424   5.185   4.008   0.046
 7175SOL    HW222425   5.241   4.056   6.924
 7176SOL     OW22426   6.459   3.914   1.408
 7176SOL    HW122427   6.469   3.986   1.339
 7176SOL    HW222428   6.362   3.895   1.423
 7177SOL     OW22429   1.239   5.411   3.143
 7177SOL    HW122430   1.202   5.498   3.112
 7177SOL    HW222431   1.206   5.338   3.083
 7178SOL     OW22432   0.729   2.482   4.597
 7178SOL    HW122433   0.651   2.504   4.655
 7178SOL    HW222434   0.798   2.434   4.651
 7179SOL     OW22435   2.873   4.216   5.278
 7179SOL    HW122436   2.886   4.304   5.233
 7179SOL    HW222437   2.840   4.231   5.371
 7180SOL     OW22438   0.841   6.259   2.184
 7180SOL    HW122439   0.845   6.230   2.088
 7180SOL    HW222440   0.747   6.256   2.216
 7181SOL     OW22441   4.668   0.476   1.578
 7181SOL    HW122442   4.701   0.544   1.512
 7181SOL    HW222443   4.570   0.489   1.593
 7182SOL     OW22444   2.373   4.383   5.423
 7182SOL    HW122445   2.357   4.289   5.391
 7182SOL    HW222446   2.407   4.381   5.517
 7183SOL     OW22447   1.568   4.929   3.393
 7183SOL    HW122448   1.649   4.987   3.398
 7183SOL    HW222449   1.493   4.979   3.350
 7184SOL     OW22450   2.182   6.353   4.195
 7184SOL    HW122451   2.203   6.278   4.257
 7184SOL    HW222452   2.086   6.348   4.167
 7185SOL     OW22453   4.243   2.702   6.687
 7185SOL    HW122454   4.223   2.671   6.594
 7185SOL    HW222455   4.257   2.622   6.746
 7186SOL     OW22456   6.988   5.834   5.303
 7186SOL    HW122457   6.920   5.865   5.236
 7186SOL    HW222458   0.054   5.830   5.260
 7187SOL     OW22459   1.945   4.337   2.316
 7187SOL    HW122460   1.985   4.302   2.401
 7187SOL    HW222461   1.960   4.271   2.243
 7188SOL     OW22462   5.077   1.175   2.195
 7188SOL    HW122463   5.102   1.244   2.127
 7188SOL    HW222464   5.041   1.095   2.148
 7189SOL     OW22465   0.231   1.482   5.671
 7189SOL    HW122466   0.138   1.503   5.702
 7189SOL    HW222467   0.256   1.389   5.698
 7190SOL     OW22468   5.434   4.148   3.479
 7190SOL    HW122469   5.440   4.178   3.574
 7190SOL    HW222470   5.456   4.051   3.473
 7191SOL     OW22471   1.220   4.131   2.380
 7191SOL    HW122472   1.188   4.210   2.433
 7191SOL    HW222473   1.166   4.123   2.296
 7192SOL     OW22474   2.609   4.423   6.554
 7192SOL    HW122475   2.606   4.521   6.539
 7192SOL    HW222476   2.606   4.375   6.466
 7193SOL     OW22477   4.066   2.159   4.406
 7193SOL    HW122478   4.142   2.100   4.379
 7193SOL    HW222479   3.997   2.160   4.333
 7194SOL     OW22480   2.329   2.237   1.738
 7194SOL    HW122481   2.288   2.246   1.829
 7194SOL    HW222482   2.257   2.238   1.668
 7195SOL     OW22483   0.973   5.441   1.233
 7195SOL    HW122484   0.999   5.475   1.143
 7195SOL    HW222485   1.044   5.464   1.299
 7196SOL     OW22486   2.876   3.657   2.579
 7196SOL    HW122487   2.884   3.558   2.592
 7196SOL    HW222488   2.818   3.696   2.650
 7197SOL     OW22489   6.739   1.778   5.168
 7197SOL    HW122490   6.786   1.796   5.255
 7197SOL    HW222491   6.769   1.844   5.099
 7198SOL     OW22492   1.465   6.320   6.453
 7198SOL    HW122493   1.381   6.341   6.502
 7198SOL    HW222494   1.466   6.223   6.427
 7199SOL     OW22495   6.978   6.556   2.900
 7199SOL    HW122496   6.953   6.650   2.876
 7199SOL    HW222497   7.013   6.553   2.993
 7200SOL     OW22498   2.139   0.866   1.327
 7200SOL    HW122499   2.229   0.905   1.305
 7200SOL    HW222500   2.067   0.925   1.291
 7201SOL     OW22501   1.604   3.978   4.016
 7201SOL    HW122502   1.638   3.961   4.108
 7201SOL    HW222503   1.611   4.076   3.995
 7202SOL     OW22504   3.656   0.514   6.338
 7202SOL    HW122505   3.750   0.484   6.352
 7202SOL    HW222506   3.602   0.439   6.300
 7203SOL     OW22507   5.658   0.893   6.609
 7203SOL    HW122508   5.604   0.936   6.681
 7203SOL    HW222509   5.599   0.839   6.550
 7204SOL     OW22510   5.998   1.433   3.082
 7204SOL    HW122511   5.988   1.529   3.057
 7204SOL    HW222512   5.912   1.385   3.064
 7205SOL     OW22513   1.938   4.916   2.671
 7205SOL    HW122514   1.888   4.951   2.750
 7205SOL    HW222515   1.907   4.824   2.650
 7206SOL     OW22516   6.472   1.106   0.630
 7206SOL    HW122517   6.556   1.158   0.643
 7206SOL    HW222518   6.418   1.108   0.714
 7207SOL     OW22519   3.374   6.501   1.054
 7207SOL    HW122520   3.302   6.571   1.059
 7207SOL    HW222521   3.448   6.525   1.116
 7208SOL     OW22522   3.173   0.180   5.604
 7208SOL    HW122523   3.259   0.208   5.562
 7208SOL    HW222524   3.096   0.225   5.557
 7209SOL     OW22525   4.023   3.290   4.485
 7209SOL    HW122526   3.973   3.210   4.452
 7209SOL    HW222527   4.002   3.305   4.581
 7210SOL     OW22528   4.824   1.015   4.075
 7210SOL    HW122529   4.807   0.921   4.107
 7210SOL    HW222530   4.891   1.058   4.135
 7211SOL     OW22531   1.328   5.340   3.889
 7211SOL    HW122532   1.409   5.330   3.832
 7211SOL    HW222533   1.270   5.259   3.880
 7212SOL     OW22534   5.881   6.538   4.194
 7212SOL    HW122535   5.815   6.503   4.259
 7212SOL    HW222536   5.906   6.632   4.218
 7213SOL     OW22537   5.941   0.930   5.438
 7213SOL    HW122538   5.959   0.967   5.529
 7213SOL    HW222539   5.991   0.845   5.426
 7214SOL     OW22540   1.540   5.110   5.029
 7214SOL    HW122541   1.627   5.074   4.997
 7214SOL    HW222542   1.549   5.139   5.124
 7215SOL     OW22543   0.294   4.027   4.313
 7215SOL    HW122544   0.328   3.934   4.300
 7215SOL    HW222545   0.339   4.088   4.248
 7216SOL     OW22546   2.564   0.471   0.073
 7216SOL    HW122547   2.605   0.410   0.005
 7216SOL    HW222548   2.581   0.435   0.165
 7217SOL     OW22549   1.015   3.145   2.499
 7217SOL    HW122550   1.021   3.099   2.411
 7217SOL    HW222551   1.069   3.095   2.566
 7218SOL     OW22552   4.781   2.733   5.676
 7218SOL    HW122553   4.879   2.724   5.660
 7218SOL    HW222554   4.765   2.806   5.743
 7219SOL     OW22555   4.722   6.932   2.422
 7219SOL    HW122556   4.677   6.905   2.507
 7219SOL    HW222557   4.815   6.894   2.421
 7220SOL     OW22558   6.281   1.242   2.539
 7220SOL    HW122559   6.340   1.163   2.555
 7220SOL    HW222560   6.331   1.326   2.562
 7221SOL     OW22561   5.277   4.145   5.976
 7221SOL    HW122562   5.226   4.212   5.922
 7221SOL    HW222563   5.213   4.086   6.025
 7222SOL     OW22564   6.976   5.801   1.460
 7222SOL    HW122565   6.879   5.787   1.440
 7222SOL    HW222566   0.001   5.715   1.452
 7223SOL     OW22567   3.621   1.243   5.899
 7223SOL    HW122568   3.618   1.333   5.856
 7223SOL    HW222569   3.589   1.249   5.994
 7224SOL     OW22570   5.494   0.261   4.775
 7224SOL    HW122571   5.521   0.315   4.855
 7224SOL    HW222572   5.462   0.171   4.804
 7225SOL     OW22573   1.914   6.370   6.490
 7225SOL    HW122574   2.014   6.382   6.493
 7225SOL    HW222575   1.893   6.272   6.484
 7226SOL     OW22576   0.392   6.760   0.390
 7226SOL    HW122577   0.325   6.825   0.426
 7226SOL    HW222578   0.415   6.693   0.461
 7227SOL     OW22579   0.092   2.637   6.904
 7227SOL    HW122580   0.104   2.722   6.853
 7227SOL    HW222581   0.160   2.570   6.874
 7228SOL     OW22582   0.977   0.094   2.174
 7228SOL    HW122583   0.923   0.127   2.252
 7228SOL    HW222584   1.030   0.170   2.136
 7229SOL     OW22585   0.949   0.381   3.926
 7229SOL    HW122586   0.973   0.287   3.905
 7229SOL    HW222587   0.866   0.383   3.981
 7230SOL     OW22588   5.190   4.611   3.750
 7230SOL    HW122589   5.228   4.672   3.819
 7230SOL    HW222590   5.154   4.528   3.794
 7231SOL     OW22591   6.350   0.973   5.992
 7231SOL    HW122592   6.309   0.890   5.954
 7231SOL    HW222593   6.450   0.963   5.994
 7232SOL     OW22594   4.138   4.840   2.023
 7232SOL    HW122595   4.237   4.852   2.030
 7232SOL    HW222596   4.099   4.836   2.115
 7233SOL     OW22597   6.677   2.645   6.071
 7233SOL    HW122598   6.712   2.582   6.141
 7233SOL    HW222599   6.680   2.738   6.106
 7234SOL     OW22600   5.918   1.985   1.561
 7234SOL    HW122601   5.945   2.070   1.516
 7234SOL    HW222602   5.828   1.997   1.604
 7235SOL     OW22603   5.366   4.144   5.184
 7235SOL    HW122604   5.458   4.168   5.154
 7235SOL    HW222605   5.308   4.131   5.104
 7236SOL     OW22606   3.715   0.857   2.709
 7236SOL    HW122607   3.792   0.921   2.717
 7236SOL    HW222608   3.672   0.867   2.619
 7237SOL     OW22609   5.896   5.762   6.028
 7237SOL    HW122610   5.906   5.674   6.073
 7237SOL    HW222611   5.964   5.770   5.955
 7238SOL     OW22612   2.158   2.220   1.997
 7238SOL    HW122613   2.154   2.258   2.090
 7238SOL    HW222614   2.156   2.120   2.003
 7239SOL     OW22615   2.889   1.403   1.796
 7239SOL    HW122616   2.987   1.397   1.776
 7239SOL    HW222617   2.869   1.356   1.882
 7240SOL     OW22618   2.669   4.365   0.130
 7240SOL    HW122619   2.605   4.366   0.206
 7240SOL    HW222620   2.662   4.451   0.079
 7241SOL     OW22621   3.375   6.924   4.636
 7241SOL    HW122622   3.467   6.952   4.663
 7241SOL    HW222623   3.377   6.830   4.602
 7242SOL     OW22624   5.514   4.382   6.764
 7242SOL    HW122625   5.551   4.402   6.673
 7242SOL    HW222626   5.417   4.359   6.757
 7243SOL     OW22627   0.774   5.704   0.536
 7243SOL    HW122628   0.693   5.727   0.482
 7243SOL    HW222629   0.820   5.625   0.495
 7244SOL     OW22630   5.656   1.808   1.153
 7244SOL    HW122631   5.629   1.733   1.213
 7244SOL    HW222632   5.700   1.771   1.071
 7245SOL     OW22633   6.724   1.581   4.207
 7245SOL    HW122634   6.714   1.595   4.108
 7245SOL    HW222635   6.821   1.580   4.231
 7246SOL     OW22636   7.023   6.461   5.840
 7246SOL    HW122637   0.082   6.496   5.796
 7246SOL    HW222638   6.975   6.536   5.886
 7247SOL     OW22639   3.222   5.521   2.761
 7247SOL    HW122640   3.313   5.481   2.750
 7247SOL    HW222641   3.154   5.448   2.763
 7248SOL     OW22642   3.575   0.947   4.706
 7248SOL    HW122643   3.528   0.984   4.786
 7248SOL    HW222644   3.529   0.864   4.675
 7249SOL     OW22645   6.415   5.033   0.080
 7249SOL    HW122646   6.337   4.991   0.126
 7249SOL    HW222647   6.475   4.961   0.045
 7250SOL     OW22648   3.222   4.563   5.989
 7250SOL    HW122649   3.268   4.651   6.000
 7250SOL    HW222650   3.126   4.578   5.969
 7251SOL     OW22651   5.722   0.380   5.000
 7251SOL    HW122652   5.773   0.295   5.003
 7251SOL    HW222653   5.657   0.383   5.077
 7252SOL     OW22654   3.587   3.258   5.167
 7252SOL    HW122655   3.577   3.206   5.082
 7252SOL    HW222656   3.655   3.330   5.155
 7253SOL     OW22657   4.857   6.075   1.212
 7253SOL    HW122658   4.857   6.040   1.305
 7253SOL    HW222659   4.891   6.169   1.212
 7254SOL     OW22660   4.331   6.424   4.951
 7254SOL    HW122661   4.410   6.460   4.901
 7254SOL    HW222662   4.325   6.467   5.041
 7255SOL     OW22663   3.397   3.531   2.816
 7255SOL    HW122664   3.342   3.448   2.830
 7255SOL    HW222665   3.340   3.602   2.776
 7256SOL     OW22666   4.690   4.966   3.944
 7256SOL    HW122667   4.725   4.954   3.851
 7256SOL    HW222668   4.671   4.876   3.984
 7257SOL     OW22669   6.081   3.267   3.029
 7257SOL    HW122670   6.163   3.231   3.073
 7257SOL    HW222671   6.102   3.290   2.934
 7258SOL     OW22672   3.487   0.084   4.193
 7258SOL    HW122673   3.442   0.054   4.277
 7258SOL    HW222674   3.502   0.005   4.133
 7259SOL     OW22675   2.305   4.595   6.471
 7259SOL    HW122676   2.313   4.618   6.568
 7259SOL    HW222677   2.219   4.631   6.436
 7260SOL     OW22678   3.457   2.103   2.295
 7260SOL    HW122679   3.554   2.122   2.282
 7260SOL    HW222680   3.411   2.096   2.206
 7261SOL     OW22681   1.370   3.817   2.156
 7261SOL    HW122682   1.384   3.906   2.113
 7261SOL    HW222683   1.457   3.769   2.163
 7262SOL     OW22684   5.638   1.913   4.954
 7262SOL    HW122685   5.544   1.905   4.920
 7262SOL    HW222686   5.697   1.849   4.905
 7263SOL     OW22687   3.163   6.215   2.151
 7263SOL    HW122688   3.188   6.137   2.095
 7263SOL    HW222689   3.150   6.186   2.246
 7264SOL     OW22690   0.995   0.078   5.569
 7264SOL    HW122691   0.906   0.042   5.540
 7264SOL    HW222692   1.065   0.053   5.503
 7265SOL     OW22693   4.279   5.178   5.902
 7265SOL    HW122694   4.229   5.265   5.892
 7265SOL    HW222695   4.215   5.106   5.930
 7266SOL     OW22696   4.708   0.966   2.013
 7266SOL    HW122697   4.664   0.918   2.088
 7266SOL    HW222698   4.642   1.028   1.970
 7267SOL     OW22699   6.741   4.149   3.553
 7267SOL    HW122700   6.808   4.088   3.595
 7267SOL    HW222701   6.682   4.096   3.492
 7268SOL     OW22702   3.288   0.003   1.191
 7268SOL    HW122703   3.209   0.029   1.247
 7268SOL    HW222704   3.370   0.001   1.247
 7269SOL     OW22705   1.828   6.232   1.918
 7269SOL    HW122706   1.795   6.157   1.860
 7269SOL    HW222707   1.833   6.316   1.864
 7270SOL     OW22708   3.177   1.203   2.649
 7270SOL    HW122709   3.163   1.139   2.724
 7270SOL    HW222710   3.275   1.211   2.630
 7271SOL     OW22711   6.910   3.642   3.447
 7271SOL    HW122712   6.997   3.594   3.451
 7271SOL    HW222713   6.920   3.727   3.395
 7272SOL     OW22714   5.454   2.517   2.035
 7272SOL    HW122715   5.477   2.426   1.998
 7272SOL    HW222716   5.393   2.564   1.971
 7273SOL     OW22717   5.240   4.803   0.140
 7273SOL    HW122718   5.195   4.735   0.082
 7273SOL    HW222719   5.205   4.894   0.118
 7274SOL     OW22720   6.678   4.952   5.476
 7274SOL    HW122721   6.693   4.855   5.456
 7274SOL    HW222722   6.764   4.995   5.504
 7275SOL     OW22723   6.598   6.783   0.938
 7275SOL    HW122724   6.516   6.835   0.915
 7275SOL    HW222725   6.584   6.686   0.915
 7276SOL     OW22726   2.354   2.235   3.671
 7276SOL    HW122727   2.382   2.177   3.747
 7276SOL    HW222728   2.384   2.329   3.687
 7277SOL     OW22729   5.630   2.088   4.447
 7277SOL    HW122730   5.670   2.179   4.444
 7277SOL    HW222731   5.531   2.095   4.456
 7278SOL     OW22732   2.558   1.593   3.170
 7278SOL    HW122733   2.619   1.557   3.101
 7278SOL    HW222734   2.463   1.578   3.142
 7279SOL     OW22735   5.493   4.945   1.013
 7279SOL    HW122736   5.413   4.922   1.069
 7279SOL    HW222737   5.562   4.873   1.022
 7280SOL     OW22738   6.169   2.174   5.462
 7280SOL    HW122739   6.144   2.159   5.366
 7280SOL    HW222740   6.224   2.257   5.470
 7281SOL     OW22741   4.372   5.513   2.543
 7281SOL    HW122742   4.277   5.494   2.567
 7281SOL    HW222743   4.393   5.468   2.456
 7282SOL     OW22744   6.614   4.476   2.455
 7282SOL    HW122745   6.647   4.570   2.446
 7282SOL    HW222746   6.585   4.442   2.365
 7283SOL     OW22747   4.005   4.904   3.364
 7283SOL    HW122748   4.004   4.870   3.270
 7283SOL    HW222749   4.042   4.997   3.365
 7284SOL     OW22750   6.806   1.500   3.367
 7284SOL    HW122751   6.873   1.500   3.293
 7284SOL    HW222752   6.722   1.457   3.335
 7285SOL     OW22753   4.948   2.996   1.830
 7285SOL    HW122754   4.877   3.002   1.901
 7285SOL    HW222755   4.945   2.906   1.787
 7286SOL     OW22756   0.152   1.018   2.386
 7286SOL    HW122757   0.080   1.022   2.317
 7286SOL    HW222758   0.238   0.992   2.342
 7287SOL     OW22759   1.491   2.675   3.467
 7287SOL    HW122760   1.478   2.586   3.424
 7287SOL    HW222761   1.485   2.747   3.398
 7288SOL     OW22762   2.723   2.046   2.914
 7288SOL    HW122763   2.682   2.131   2.948
 7288SOL    HW222764   2.711   2.041   2.815
 7289SOL     OW22765   6.105   1.692   1.196
 7289SOL    HW122766   6.111   1.762   1.267
 7289SOL    HW222767   6.183   1.630   1.203
 7290SOL     OW22768   3.432   1.717   5.302
 7290SOL    HW122769   3.379   1.795   5.337
 7290SOL    HW222770   3.401   1.693   5.210
 7291SOL     OW22771   4.114   0.648   0.833
 7291SOL    HW122772   4.189   0.654   0.767
 7291SOL    HW222773   4.118   0.727   0.894
 7292SOL     OW22774   2.602   0.529   2.878
 7292SOL    HW122775   2.693   0.487   2.874
 7292SOL    HW222776   2.606   0.621   2.837
 7293SOL     OW22777   0.881   0.832   4.770
 7293SOL    HW122778   0.916   0.753   4.821
 7293SOL    HW222779   0.946   0.907   4.776
 7294SOL     OW22780   3.117   6.498   2.112
 7294SOL    HW122781   3.020   6.500   2.088
 7294SOL    HW222782   3.140   6.407   2.147
 7295SOL     OW22783   6.005   5.529   1.998
 7295SOL    HW122784   6.071   5.459   1.972
 7295SOL    HW222785   6.052   5.607   2.040
 7296SOL     OW22786   4.977   4.307   2.089
 7296SOL    HW122787   4.888   4.291   2.133
 7296SOL    HW222788   4.998   4.230   2.029
 7297SOL     OW22789   4.227   6.328   1.281
 7297SOL    HW122790   4.149   6.363   1.229
 7297SOL    HW222791   4.307   6.384   1.263
 7298SOL     OW22792   4.311   5.266   6.945
 7298SOL    HW122793   4.295   5.364   6.935
 7298SOL    HW222794   4.361   5.231   6.865
 7299SOL     OW22795   1.313   2.462   6.199
 7299SOL    HW122796   1.335   2.455   6.102
 7299SOL    HW222797   1.266   2.379   6.228
 7300SOL     OW22798   0.683   4.956   1.858
 7300SOL    HW122799   0.630   4.963   1.774
 7300SOL    HW222800   0.781   4.957   1.837
 7301SOL     OW22801   4.612   1.221   5.481
 7301SOL    HW122802   4.638   1.224   5.577
 7301SOL    HW222803   4.517   1.250   5.471
 7302SOL     OW22804   5.357   1.531   6.088
 7302SOL    HW122805   5.431   1.551   6.024
 7302SOL    HW222806   5.270   1.529   6.039
 7303SOL     OW22807   2.024   1.740   1.582
 7303SOL    HW122808   2.066   1.829   1.566
 7303SOL    HW222809   1.959   1.719   1.509
 7304SOL     OW22810   2.915   5.554   1.189
 7304SOL    HW122811   3.002   5.544   1.237
 7304SOL    HW222812   2.904   5.648   1.159
 7305SOL     OW22813   6.844   1.242   0.457
 7305SOL    HW122814   6.839   1.149   0.423
 7305SOL    HW222815   6.792   1.303   0.398
 7306SOL     OW22816   0.777   2.420   1.277
 7306SOL    HW122817   0.788   2.449   1.182
 7306SOL    HW222818   0.831   2.480   1.337
 7307SOL     OW22819   2.184   0.107   1.208
 7307SOL    HW122820   2.229   0.017   1.206
 7307SOL    HW222821   2.094   0.099   1.250
 7308SOL     OW22822   4.805   1.431   3.190
 7308SOL    HW122823   4.862   1.440   3.272
 7308SOL    HW222824   4.713   1.464   3.210
 7309SOL     OW22825   1.891   5.019   3.178
 7309SOL    HW122826   1.972   5.056   3.132
 7309SOL    HW222827   1.914   4.998   3.273
 7310SOL     OW22828   3.167   2.471   6.167
 7310SOL    HW122829   3.236   2.516   6.110
 7310SOL    HW222830   3.206   2.449   6.256
 7311SOL     OW22831   7.009   6.523   6.810
 7311SOL    HW122832   0.001   6.611   6.764
 7311SOL    HW222833   6.924   6.528   6.863
 7312SOL     OW22834   6.616   1.806   4.309
 7312SOL    HW122835   6.594   1.819   4.406
 7312SOL    HW222836   6.668   1.722   4.298
 7313SOL     OW22837   2.786   0.675   2.358
 7313SOL    HW122838   2.816   0.586   2.393
 7313SOL    HW222839   2.694   0.667   2.320
 7314SOL     OW22840   0.126   4.203   6.472
 7314SOL    HW122841   0.068   4.197   6.391
 7314SOL    HW222842   0.070   4.189   6.554
 7315SOL     OW22843   1.445   4.739   2.322
 7315SOL    HW122844   1.448   4.655   2.267
 7315SOL    HW222845   1.537   4.777   2.329
 7316SOL     OW22846   2.926   2.239   0.834
 7316SOL    HW122847   2.980   2.319   0.860
 7316SOL    HW222848   2.920   2.235   0.734
 7317SOL     OW22849   3.935   1.393   0.675
 7317SOL    HW122850   3.937   1.360   0.770
 7317SOL    HW222851   3.947   1.492   0.675
 7318SOL     OW22852   4.484   6.365   0.855
 7318SOL    HW122853   4.401   6.421   0.854
 7318SOL    HW222854   4.458   6.268   0.855
 7319SOL     OW22855   5.246   4.842   6.831
 7319SOL    HW122856   5.173   4.904   6.801
 7319SOL    HW222857   5.208   4.750   6.844
 7320SOL     OW22858   0.206   2.490   1.206
 7320SOL    HW122859   0.281   2.490   1.272
 7320SOL    HW222860   0.240   2.521   1.117
 7321SOL     OW22861   1.785   0.445   6.638
 7321SOL    HW122862   1.738   0.475   6.721
 7321SOL    HW222863   1.851   0.514   6.609
 7322SOL     OW22864   0.823   2.426   2.907
 7322SOL    HW122865   0.844   2.524   2.907
 7322SOL    HW222866   0.738   2.409   2.857
 7323SOL     OW22867   1.005   2.816   1.528
 7323SOL    HW122868   0.996   2.724   1.566
 7323SOL    HW222869   0.940   2.827   1.452
 7324SOL     OW22870   5.829   4.717   2.873
 7324SOL    HW122871   5.795   4.674   2.790
 7324SOL    HW222872   5.928   4.732   2.866
 7325SOL     OW22873   4.262   0.949   5.969
 7325SOL    HW122874   4.170   0.972   5.940
 7325SOL    HW222875   4.273   0.973   6.066
 7326SOL     OW22876   3.600   0.144   0.624
 7326SOL    HW122877   3.626   0.113   0.533
 7326SOL    HW222878   3.670   0.207   0.659
 7327SOL     OW22879   0.498   3.941   3.456
 7327SOL    HW122880   0.594   3.957   3.430
 7327SOL    HW222881   0.438   3.970   3.382
 7328SOL     OW22882   4.158   4.818   4.597
 7328SOL    HW122883   4.244   4.861   4.625
 7328SOL    HW222884   4.170   4.774   4.508
 7329SOL     OW22885   3.309   3.694   1.601
 7329SOL    HW122886   3.404   3.683   1.573
 7329SOL    HW222887   3.258   3.740   1.529
 7330SOL     OW22888   3.169   3.147   1.942
 7330SOL    HW122889   3.163   3.049   1.959
 7330SOL    HW222890   3.130   3.167   1.852
 7331SOL     OW22891   5.353   1.487   2.620
 7331SOL    HW122892   5.315   1.506   2.711
 7331SOL    HW222893   5.358   1.572   2.568
 7332SOL     OW22894   3.192   5.704   5.742
 7332SOL    HW122895   3.264   5.758   5.700
 7332SOL    HW222896   3.103   5.736   5.711
 7333SOL     OW22897   0.319   1.577   0.725
 7333SOL    HW122898   0.390   1.507   0.725
 7333SOL    HW222899   0.323   1.628   0.811
 7334SOL     OW22900   2.756   0.486   4.336
 7334SOL    HW122901   2.842   0.445   4.305
 7334SOL    HW222902   2.750   0.480   4.436
 7335SOL     OW22903   6.647   3.272   2.086
 7335SOL    HW122904   6.598   3.200   2.037
 7335SOL    HW222905   6.603   3.289   2.173
 7336SOL     OW22906   2.036   6.947   2.053
 7336SOL    HW122907   2.091   7.017   2.099
 7336SOL    HW222908   2.015   6.874   2.118
 7337SOL     OW22909   1.935   1.804   3.194
 7337SOL    HW122910   2.023   1.768   3.162
 7337SOL    HW222911   1.949   1.892   3.239
 7338SOL     OW22912   6.276   3.184   1.665
 7338SOL    HW122913   6.237   3.188   1.573
 7338SOL    HW222914   6.373   3.207   1.660
 7339SOL     OW22915   6.504   5.331   4.154
 7339SOL    HW122916   6.565   5.410   4.143
 7339SOL    HW222917   6.414   5.353   4.117
 7340SOL     OW22918   2.630   6.581   1.177
 7340SOL    HW122919   2.540   6.544   1.199
 7340SOL    HW222920   2.627   6.627   1.088
 7341SOL     OW22921   6.133   5.233   4.329
 7341SOL    HW122922   6.153   5.215   4.425
 7341SOL    HW222923   6.038   5.206   4.309
 7342SOL     OW22924   0.716   5.455   1.274
 7342SOL    HW122925   0.811   5.425   1.277
 7342SOL    HW222926   0.655   5.376   1.266
 7343SOL     OW22927   5.363   3.485   2.856
 7343SOL    HW122928   5.401   3.398   2.886
 7343SOL    HW222929   5.438   3.548   2.833
 7344SOL     OW22930   2.049   0.723   0.480
 7344SOL    HW122931   2.071   0.669   0.399
 7344SOL    HW222932   1.950   0.736   0.485
 7345SOL     OW22933   3.857   5.787   6.932
 7345SOL    HW122934   3.951   5.762   6.910
 7345SOL    HW222935   3.855   5.876   6.978
 7346SOL     OW22936   3.989   4.672   1.803
 7346SOL    HW122937   4.006   4.588   1.751
 7346SOL    HW222938   4.073   4.701   1.848
 7347SOL     OW22939   5.983   1.543   3.361
 7347SOL    HW122940   5.970   1.491   3.277
 7347SOL    HW222941   6.072   1.522   3.401
 7348SOL     OW22942   0.880   1.911   3.724
 7348SOL    HW122943   0.936   1.963   3.789
 7348SOL    HW222944   0.870   1.963   3.639
 7349SOL     OW22945   3.325   1.441   0.727
 7349SOL    HW122946   3.331   1.359   0.784
 7349SOL    HW222947   3.374   1.426   0.642
 7350SOL     OW22948   2.220   1.129   2.969
 7350SOL    HW122949   2.250   1.157   3.060
 7350SOL    HW222950   2.120   1.137   2.962
 7351SOL     OW22951   3.803   4.729   6.751
 7351SOL    HW122952   3.846   4.649   6.794
 7351SOL    HW222953   3.756   4.782   6.822
 7352SOL     OW22954   6.940   0.780   2.523
 7352SOL    HW122955   6.998   0.698   2.523
 7352SOL    HW222956   6.993   0.858   2.553
 7353SOL     OW22957   5.273   2.565   4.895
 7353SOL    HW122958   5.254   2.661   4.875
 7353SOL    HW222959   5.202   2.528   4.954
 7354SOL     OW22960   5.922   4.483   5.596
 7354SOL    HW122961   6.010   4.460   5.556
 7354SOL    HW222962   5.882   4.560   5.546
 7355SOL     OW22963   1.842   5.179   1.874
 7355SOL    HW122964   1.899   5.098   1.888
 7355SOL    HW222965   1.880   5.234   1.800
 7356SOL     OW22966   5.951   1.513   5.655
 7356SOL    HW122967   6.030   1.452   5.647
 7356SOL    HW222968   5.932   1.555   5.566
 7357SOL     OW22969   0.232   2.054   7.000
 7357SOL    HW122970   0.176   2.128   6.962
 7357SOL    HW222971   0.326   2.086   7.012
 7358SOL     OW22972   3.174   1.103   4.377
 7358SOL    HW122973   3.192   1.157   4.459
 7358SOL    HW222974   3.120   1.022   4.401
 7359SOL     OW22975   3.810   3.117   3.485
 7359SOL    HW122976   3.853   3.097   3.397
 7359SOL    HW222977   3.753   3.199   3.477
 7360SOL     OW22978   0.210   3.191   5.477
 7360SOL    HW122979   0.139   3.132   5.440
 7360SOL    HW222980   0.227   3.267   5.413
 7361SOL     OW22981   5.267   6.419   2.229
 7361SOL    HW122982   5.180   6.386   2.265
 7361SOL    HW222983   5.283   6.512   2.261
 7362SOL     OW22984   1.798   6.000   5.898
 7362SOL    HW122985   1.794   5.996   5.798
 7362SOL    HW222986   1.886   5.966   5.929
 7363SOL     OW22987   4.962   2.969   6.222
 7363SOL    HW122988   4.908   2.886   6.236
 7363SOL    HW222989   5.052   2.959   6.264
 7364SOL     OW22990   4.293   6.741   1.928
 7364SOL    HW122991   4.370   6.686   1.896
 7364SOL    HW222992   4.218   6.681   1.956
 7365SOL     OW22993   3.521   0.413   2.524
 7365SOL    HW122994   3.504   0.314   2.522
 7365SOL    HW222995   3.487   0.454   2.439
 7366SOL     OW22996   1.228   5.289   7.019
 7366SOL    HW122997   1.178   5.265   0.078
 7366SOL    HW222998   1.199   5.230   6.943
 7367SOL     OW22999   4.883   3.691   0.339
 7367SOL    HW123000   4.896   3.756   0.414
 7367SOL    HW223001   4.841   3.738   0.261
 7368SOL     OW23002   3.497   4.197   4.057
 7368SOL    HW123003   3.469   4.138   3.982
 7368SOL    HW223004   3.583   4.163   4.095
 7369SOL     OW23005   4.078   3.263   0.433
 7369SOL    HW123006   4.053   3.321   0.356
 7369SOL    HW223007   4.106   3.320   0.510
 7370SOL     OW23008   2.559   6.176   1.368
 7370SOL    HW123009   2.562   6.233   1.450
 7370SOL    HW223010   2.465   6.144   1.353
 7371SOL     OW23011   2.578   5.087   4.903
 7371SOL    HW123012   2.488   5.129   4.893
 7371SOL    HW223013   2.597   5.074   5.001
 7372SOL     OW23014   3.419   6.920   6.038
 7372SOL    HW123015   3.487   6.983   5.999
 7372SOL    HW223016   3.407   6.842   5.976
 7373SOL     OW23017   3.694   1.255   1.612
 7373SOL    HW123018   3.740   1.328   1.562
 7373SOL    HW223019   3.746   1.232   1.694
 7374SOL     OW23020   1.810   2.758   5.965
 7374SOL    HW123021   1.843   2.664   5.971
 7374SOL    HW223022   1.885   2.821   5.983
 7375SOL     OW23023   1.513   0.509   3.653
 7375SOL    HW123024   1.530   0.412   3.637
 7375SOL    HW223025   1.488   0.553   3.566
 7376SOL     OW23026   2.141   3.979   5.583
 7376SOL    HW123027   2.198   4.011   5.508
 7376SOL    HW223028   2.179   3.894   5.620
 7377SOL     OW23029   4.137   4.325   1.088
 7377SOL    HW123030   4.072   4.344   1.014
 7377SOL    HW223031   4.210   4.265   1.055
 7378SOL     OW23032   6.554   0.804   5.307
 7378SOL    HW123033   6.626   0.735   5.307
 7378SOL    HW223034   6.568   0.866   5.385
 7379SOL     OW23035   2.973   1.169   1.634
 7379SOL    HW123036   2.910   1.118   1.575
 7379SOL    HW223037   2.929   1.254   1.663
 7380SOL     OW23038   6.855   3.804   6.608
 7380SOL    HW123039   6.914   3.781   6.530
 7380SOL    HW223040   6.789   3.874   6.579
 7381SOL     OW23041   5.360   1.936   1.217
 7381SOL    HW123042   5.406   1.862   1.267
 7381SOL    HW223043   5.420   2.016   1.214
 7382SOL     OW23044   0.330   6.085   4.073
 7382SOL    HW123045   0.349   5.987   4.081
 7382SOL    HW223046   0.241   6.099   4.031
 7383SOL     OW23047   7.018   5.815   3.187
 7383SOL    HW123048   6.975   5.848   3.103
 7383SOL    HW223049   0.092   5.802   3.171
 7384SOL     OW23050   5.291   0.406   2.360
 7384SOL    HW123051   5.371   0.466   2.364
 7384SOL    HW223052   5.229   0.427   2.436
 7385SOL     OW23053   5.397   6.349   1.557
 7385SOL    HW123054   5.458   6.369   1.480
 7385SOL    HW223055   5.429   6.267   1.605
 7386SOL     OW23056   0.521   2.409   5.421
 7386SOL    HW123057   0.584   2.364   5.358
 7386SOL    HW223058   0.570   2.479   5.473
 7387SOL     OW23059   4.008   6.352   3.530
 7387SOL    HW123060   3.932   6.288   3.527
 7387SOL    HW223061   4.052   6.356   3.440
 7388SOL     OW23062   6.576   5.334   3.571
 7388SOL    HW123063   6.624   5.346   3.484
 7388SOL    HW223064   6.548   5.239   3.582
 7389SOL     OW23065   1.105   3.840   6.454
 7389SOL    HW123066   1.145   3.903   6.389
 7389SOL    HW223067   1.008   3.861   6.466
 7390SOL     OW23068   1.649   6.527   4.903
 7390SOL    HW123069   1.597   6.542   4.987
 7390SOL    HW223070   1.604   6.458   4.848
 7391SOL     OW23071   5.851   3.393   6.686
 7391SOL    HW123072   5.829   3.443   6.770
 7391SOL    HW223073   5.893   3.305   6.710
 7392SOL     OW23074   1.701   4.207   4.291
 7392SOL    HW123075   1.627   4.274   4.280
 7392SOL    HW223076   1.783   4.253   4.326
 7393SOL     OW23077   0.770   4.005   2.225
 7393SOL    HW123078   0.805   3.945   2.154
 7393SOL    HW223079   0.670   3.999   2.229
 7394SOL     OW23080   3.513   3.895   6.666
 7394SOL    HW123081   3.427   3.945   6.658
 7394SOL    HW223082   3.508   3.832   6.743
 7395SOL     OW23083   1.053   6.880   0.900
 7395SOL    HW123084   1.014   6.881   0.992
 7395SOL    HW223085   1.069   6.785   0.872
 7396SOL     OW23086   0.896   6.871   6.476
 7396SOL    HW123087   0.809   6.897   6.517
 7396SOL    HW223088   0.887   6.871   6.376
 7397SOL     OW23089   6.005   5.209   4.896
 7397SOL    HW123090   5.947   5.130   4.875
 7397SOL    HW223091   6.037   5.203   4.990
 7398SOL     OW23092   4.398   4.798   3.405
 7398SOL    HW123093   4.442   4.862   3.469
 7398SOL    HW223094   4.465   4.732   3.372
 7399SOL     OW23095   4.932   3.804   5.746
 7399SOL    HW123096   4.970   3.836   5.660
 7399SOL    HW223097   4.996   3.823   5.821
 7400SOL     OW23098   2.167   5.269   6.635
 7400SOL    HW123099   2.196   5.285   6.541
 7400SOL    HW223100   2.073   5.233   6.636
 7401SOL     OW23101   6.694   1.573   3.633
 7401SOL    HW123102   6.601   1.611   3.627
 7401SOL    HW223103   6.723   1.543   3.542
 7402SOL     OW23104   3.067   0.536   3.791
 7402SOL    HW123105   2.977   0.494   3.778
 7402SOL    HW223106   3.091   0.589   3.709
 7403SOL     OW23107   1.620   3.825   2.695
 7403SOL    HW123108   1.635   3.834   2.794
 7403SOL    HW223109   1.677   3.751   2.660
 7404SOL     OW23110   1.749   0.511   1.696
 7404SOL    HW123111   1.713   0.539   1.607
 7404SOL    HW223112   1.733   0.584   1.763
 7405SOL     OW23113   2.545   4.863   6.106
 7405SOL    HW123114   2.466   4.860   6.045
 7405SOL    HW223115   2.515   4.879   6.200
 7406SOL     OW23116   0.524   4.702   1.629
 7406SOL    HW123117   0.556   4.676   1.538
 7406SOL    HW223118   0.494   4.620   1.678
 7407SOL     OW23119   1.468   6.655   6.603
 7407SOL    HW123120   1.542   6.588   6.592
 7407SOL    HW223121   1.395   6.615   6.658
 7408SOL     OW23122   1.391   4.131   5.170
 7408SOL    HW123123   1.465   4.170   5.114
 7408SOL    HW223124   1.418   4.131   5.266
 7409SOL     OW23125   2.740   5.291   5.088
 7409SOL    HW123126   2.830   5.291   5.044
 7409SOL    HW223127   2.669   5.306   5.020
 7410SOL     OW23128   6.848   4.903   0.584
 7410SOL    HW123129   6.782   4.949   0.524
 7410SOL    HW223130   6.806   4.888   0.674
 7411SOL     OW23131   3.887   6.235   4.976
 7411SOL    HW123132   3.917   6.285   5.058
 7411SOL    HW223133   3.880   6.298   4.899
 7412SOL     OW23134   1.223   1.791   0.120
 7412SOL    HW123135   1.154   1.747   0.178
 7412SOL    HW223136   1.179   1.824   0.036
 7413SOL     OW23137   6.543   3.374   4.483
 7413SOL    HW123138   6.444   3.385   4.493
 7413SOL    HW223139   6.580   3.334   4.567
 7414SOL     OW23140   6.693   6.306   2.831
 7414SOL    HW123141   6.780   6.320   2.783
 7414SOL    HW223142   6.682   6.378   2.900
 7415SOL     OW23143   2.195   2.389   3.241
 7415SOL    HW123144   2.268   2.442   3.286
 7415SOL    HW223145   2.109   2.402   3.291
 7416SOL     OW23146   4.065   0.445   4.211
 7416SOL    HW123147   4.002   0.518   4.186
 7416SOL    HW223148   4.014   0.361   4.229
 7417SOL     OW23149   0.917   6.155   0.444
 7417SOL    HW123150   1.005   6.109   0.438
 7417SOL    HW223151   0.844   6.091   0.419
 7418SOL     OW23152   1.891   3.602   0.894
 7418SOL    HW123153   1.938   3.558   0.817
 7418SOL    HW223154   1.805   3.643   0.861
 7419SOL     OW23155   6.416   0.879   4.737
 7419SOL    HW123156   6.514   0.875   4.714
 7419SOL    HW223157   6.379   0.968   4.711
 7420SOL     OW23158   0.279   6.304   2.009
 7420SOL    HW123159   0.243   6.397   1.999
 7420SOL    HW223160   0.297   6.265   1.919
 7421SOL     OW23161   3.640   3.809   1.301
 7421SOL    HW123162   3.618   3.896   1.345
 7421SOL    HW223163   3.737   3.789   1.316
 7422SOL     OW23164   0.577   3.302   0.626
 7422SOL    HW123165   0.586   3.340   0.718
 7422SOL    HW223166   0.497   3.242   0.623
 7423SOL     OW23167   1.729   5.949   6.452
 7423SOL    HW123168   1.679   6.007   6.388
 7423SOL    HW223169   1.722   5.853   6.424
 7424SOL     OW23170   5.711   1.345   4.448
 7424SOL    HW123171   5.652   1.405   4.395
 7424SOL    HW223172   5.656   1.275   4.493
 7425SOL     OW23173   3.049   5.804   6.217
 7425SOL    HW123174   3.018   5.730   6.157
 7425SOL    HW223175   3.080   5.881   6.162
 7426SOL     OW23176   1.331   1.357   6.422
 7426SOL    HW123177   1.372   1.433   6.372
 7426SOL    HW223178   1.234   1.350   6.398
 7427SOL     OW23179   4.276   5.368   4.734
 7427SOL    HW123180   4.291   5.351   4.637
 7427SOL    HW223181   4.178   5.376   4.752
 7428SOL     OW23182   3.939   1.830   6.000
 7428SOL    HW123183   3.938   1.921   6.040
 7428SOL    HW223184   3.872   1.826   5.925
 7429SOL     OW23185   6.942   6.892   3.073
 7429SOL    HW123186   7.017   6.929   3.127
 7429SOL    HW223187   6.870   6.857   3.134
 7430SOL     OW23188   6.475   4.320   5.049
 7430SOL    HW123189   6.465   4.287   5.142
 7430SOL    HW223190   6.405   4.278   4.991
 7431SOL     OW23191   0.870   4.277   2.225
 7431SOL    HW123192   0.961   4.271   2.184
 7431SOL    HW223193   0.831   4.185   2.232
 7432SOL     OW23194   0.719   6.704   5.040
 7432SOL    HW123195   0.650   6.646   5.082
 7432SOL    HW223196   0.692   6.726   4.946
 7433SOL     OW23197   6.325   5.571   0.820
 7433SOL    HW123198   6.240   5.612   0.786
 7433SOL    HW223199   6.318   5.560   0.919
 7434SOL     OW23200   4.301   1.022   6.252
 7434SOL    HW123201   4.328   1.109   6.292
 7434SOL    HW223202   4.372   0.954   6.268
 7435SOL     OW23203   2.293   6.227   0.072
 7435SOL    HW123204   2.381   6.236   0.120
 7435SOL    HW223205   2.222   6.200   0.137
 7436SOL     OW23206   5.134   2.505   0.198
 7436SOL    HW123207   5.208   2.514   0.264
 7436SOL    HW223208   5.093   2.414   0.206
 7437SOL     OW23209   0.987   5.733   6.034
 7437SOL    HW123210   0.949   5.643   6.056
 7437SOL    HW223211   1.043   5.766   6.110
 7438SOL     OW23212   6.758   4.826   1.702
 7438SOL    HW123213   6.771   4.913   1.750
 7438SOL    HW223214   6.785   4.750   1.762
 7439SOL     OW23215   1.620   6.762   3.916
 7439SOL    HW123216   1.526   6.776   3.947
 7439SOL    HW223217   1.681   6.758   3.995
 7440SOL     OW23218   1.619   2.416   4.108
 7440SOL    HW123219   1.696   2.352   4.096
 7440SOL    HW223220   1.650   2.509   4.087
 7441SOL     OW23221   5.701   0.568   3.443
 7441SOL    HW123222   5.674   0.618   3.525
 7441SOL    HW223223   5.759   0.627   3.386
 7442SOL     OW23224   1.726   0.900   6.773
 7442SOL    HW123225   1.803   0.956   6.801
 7442SOL    HW223226   1.666   0.884   6.851
 7443SOL     OW23227   0.284   1.243   6.963
 7443SOL    HW123228   0.316   1.154   6.996
 7443SOL    HW223229   0.316   1.257   6.870
 7444SOL     OW23230   0.504   3.206   6.363
 7444SOL    HW123231   0.434   3.177   6.298
 7444SOL    HW223232   0.563   3.275   6.321
 7445SOL     OW23233   5.205   1.879   2.101
 7445SOL    HW123234   5.267   1.837   2.167
 7445SOL    HW223235   5.116   1.895   2.143
 7446SOL     OW23236   6.983   3.623   0.964
 7446SOL    HW123237   6.896   3.606   0.919
 7446SOL    HW223238   6.998   3.721   0.974
 7447SOL     OW23239   1.039   3.808   6.074
 7447SOL    HW123240   0.989   3.767   6.150
 7447SOL    HW223241   1.040   3.745   5.996
 7448SOL     OW23242   6.593   6.838   5.929
 7448SOL    HW123243   6.572   6.920   5.982
 7448SOL    HW223244   6.606   6.761   5.991
 7449SOL     OW23245   5.616   2.073   2.123
 7449SOL    HW123246   5.653   2.047   2.212
 7449SOL    HW223247   5.603   2.173   2.121
 7450SOL     OW23248   4.501   1.349   3.195
 7450SOL    HW123249   4.402   1.363   3.188
 7450SOL    HW223250   4.536   1.316   3.107
 7451SOL     OW23251   2.188   0.724   3.957
 7451SOL    HW123252   2.114   0.699   4.019
 7451SOL    HW223253   2.228   0.811   3.985
 7452SOL     OW23254   2.046   6.419   4.983
 7452SOL    HW123255   2.008   6.395   4.893
 7452SOL    HW223256   1.976   6.407   5.053
 7453SOL     OW23257   5.744   6.287   4.826
 7453SOL    HW123258   5.676   6.350   4.789
 7453SOL    HW223259   5.814   6.268   4.757
 7454SOL     OW23260   0.768   3.577   1.218
 7454SOL    HW123261   0.772   3.581   1.318
 7454SOL    HW223262   0.861   3.571   1.181
 7455SOL     OW23263   4.735   2.437   0.232
 7455SOL    HW123264   4.805   2.382   0.277
 7455SOL    HW223265   4.775   2.522   0.198
 7456SOL     OW23266   1.665   3.551   4.955
 7456SOL    HW123267   1.636   3.456   4.966
 7456SOL    HW223268   1.589   3.612   4.974
 7457SOL     OW23269   6.099   0.719   5.410
 7457SOL    HW123270   6.178   0.715   5.470
 7457SOL    HW223271   6.058   0.628   5.402
 7458SOL     OW23272   2.558   1.086   0.745
 7458SOL    HW123273   2.641   1.090   0.688
 7458SOL    HW223274   2.569   1.147   0.824
 7459SOL     OW23275   4.569   0.890   5.017
 7459SOL    HW123276   4.656   0.923   5.054
 7459SOL    HW223277   4.498   0.898   5.087
 7460SOL     OW23278   0.498   4.362   0.156
 7460SOL    HW123279   0.549   4.421   0.218
 7460SOL    HW223280   0.514   4.390   0.061
 7461SOL     OW23281   5.515   1.179   5.024
 7461SOL    HW123282   5.512   1.244   4.948
 7461SOL    HW223283   5.609   1.150   5.040
 7462SOL     OW23284   2.058   1.773   1.948
 7462SOL    HW123285   2.035   1.807   2.039
 7462SOL    HW223286   2.070   1.850   1.885
 7463SOL     OW23287   3.935   3.846   2.460
 7463SOL    HW123288   3.909   3.749   2.457
 7463SOL    HW223289   3.990   3.868   2.379
 7464SOL     OW23290   5.253   6.433   0.616
 7464SOL    HW123291   5.267   6.518   0.565
 7464SOL    HW223292   5.342   6.391   0.635
 7465SOL     OW23293   2.918   0.260   1.674
 7465SOL    HW123294   2.889   0.353   1.694
 7465SOL    HW223295   2.916   0.245   1.575
 7466SOL     OW23296   1.004   0.622   6.939
 7466SOL    HW123297   1.025   0.700   6.999
 7466SOL    HW223298   1.089   0.582   6.905
 7467SOL     OW23299   0.133   1.468   0.535
 7467SOL    HW123300   0.197   1.529   0.583
 7467SOL    HW223301   0.039   1.496   0.556
 7468SOL     OW23302   6.037   1.806   2.748
 7468SOL    HW123303   6.065   1.712   2.726
 7468SOL    HW223304   6.027   1.858   2.664
 7469SOL     OW23305   0.998   0.802   0.810
 7469SOL    HW123306   0.956   0.751   0.885
 7469SOL    HW223307   0.940   0.797   0.729
 7470SOL     OW23308   6.639   1.788   2.216
 7470SOL    HW123309   6.714   1.736   2.256
 7470SOL    HW223310   6.584   1.729   2.156
 7471SOL     OW23311   5.805   6.297   5.936
 7471SOL    HW123312   5.746   6.369   5.971
 7471SOL    HW223313   5.836   6.239   6.012
 7472SOL     OW23314   3.599   0.569   3.613
 7472SOL    HW123315   3.555   0.521   3.538
 7472SOL    HW223316   3.674   0.625   3.578
 7473SOL     OW23317   6.998   3.485   4.014
 7473SOL    HW123318   0.025   3.571   4.014
 7473SOL    HW223319   7.019   3.434   3.931
 7474SOL     OW23320   3.818   1.091   3.029
 7474SOL    HW123321   3.758   1.141   2.966
 7474SOL    HW223322   3.905   1.071   2.984
 7475SOL     OW23323   3.655   1.138   1.146
 7475SOL    HW123324   3.739   1.099   1.184
 7475SOL    HW223325   3.576   1.093   1.187
 7476SOL     OW23326   3.900   6.372   4.720
 7476SOL    HW123327   3.864   6.385   4.627
 7476SOL    HW223328   4.000   6.367   4.716
 7477SOL     OW23329   4.247   1.638   4.173
 7477SOL    HW123330   4.261   1.648   4.272
 7477SOL    HW223331   4.156   1.671   4.149
 7478SOL     OW23332   1.431   4.761   0.537
 7478SOL    HW123333   1.531   4.769   0.544
 7478SOL    HW223334   1.390   4.852   0.542
 7479SOL     OW23335   4.515   0.841   6.808
 7479SOL    HW123336   4.547   0.796   6.724
 7479SOL    HW223337   4.591   0.885   6.854
 7480SOL     OW23338   6.517   5.213   1.329
 7480SOL    HW123339   6.474   5.140   1.276
 7480SOL    HW223340   6.528   5.183   1.424
 7481SOL     OW23341   5.743   5.455   0.398
 7481SOL    HW123342   5.696   5.367   0.409
 7481SOL    HW223343   5.688   5.528   0.439
 7482SOL     OW23344   5.065   0.791   3.065
 7482SOL    HW123345   4.967   0.789   3.046
 7482SOL    HW223346   5.113   0.734   2.999
 7483SOL     OW23347   3.191   1.009   5.426
 7483SOL    HW123348   3.217   0.913   5.420
 7483SOL    HW223349   3.202   1.040   5.521
 7484SOL     OW23350   2.265   6.836   1.941
 7484SOL    HW123351   2.345   6.842   2.001
 7484SOL    HW223352   2.188   6.882   1.985
 7485SOL     OW23353   2.682   5.715   6.464
 7485SOL    HW123354   2.704   5.618   6.460
 7485SOL    HW223355   2.584   5.726   6.485
 7486SOL     OW23356   2.543   6.840   5.805
 7486SOL    HW123357   2.529   6.764   5.741
 7486SOL    HW223358   2.474   6.910   5.789
 7487SOL     OW23359   3.275   6.236   4.436
 7487SOL    HW123360   3.285   6.318   4.380
 7487SOL    HW223361   3.202   6.179   4.399
 7488SOL     OW23362   3.669   0.058   6.537
 7488SOL    HW123363   3.601   0.016   6.477
 7488SOL    HW223364   3.748   7.022   6.545
 7489SOL     OW23365   5.485   3.429   3.770
 7489SOL    HW123366   5.530   3.433   3.859
 7489SOL    HW223367   5.389   3.402   3.783
 7490SOL     OW23368   5.313   0.949   0.835
 7490SOL    HW123369   5.230   0.983   0.792
 7490SOL    HW223370   5.376   1.025   0.852
 7491SOL     OW23371   6.237   5.727   6.498
 7491SOL    HW123372   6.250   5.652   6.433
 7491SOL    HW223373   6.266   5.698   6.589
 7492SOL     OW23374   1.623   2.660   4.955
 7492SOL    HW123375   1.633   2.712   5.040
 7492SOL    HW223376   1.706   2.670   4.900
 7493SOL     OW23377   5.086   3.732   6.454
 7493SOL    HW123378   5.129   3.821   6.465
 7493SOL    HW223379   5.003   3.728   6.510
 7494SOL     OW23380   4.958   0.004   1.950
 7494SOL    HW123381   4.975   6.989   1.859
 7494SOL    HW223382   4.890   6.972   1.997
 7495SOL     OW23383   1.667   2.188   1.034
 7495SOL    HW123384   1.743   2.125   1.021
 7495SOL    HW223385   1.609   2.156   1.109
 7496SOL     OW23386   0.964   4.874   6.383
 7496SOL    HW123387   0.974   4.792   6.327
 7496SOL    HW223388   0.868   4.887   6.407
 7497SOL     OW23389   1.571   4.232   2.129
 7497SOL    HW123390   1.539   4.260   2.220
 7497SOL    HW223391   1.663   4.269   2.114
 7498SOL     OW23392   3.723   1.779   4.669
 7498SOL    HW123393   3.659   1.722   4.721
 7498SOL    HW223394   3.796   1.721   4.632
 7499SOL     OW23395   5.324   6.978   3.974
 7499SOL    HW123396   5.337   6.935   4.064
 7499SOL    HW223397   5.263   6.920   3.919
 7500SOL     OW23398   5.364   5.600   1.450
 7500SOL    HW123399   5.440   5.551   1.408
 7500SOL    HW223400   5.393   5.638   1.538
 7501SOL     OW23401   0.193   3.961   3.544
 7501SOL    HW123402   0.270   3.939   3.604
 7501SOL    HW223403   0.221   3.949   3.449
 7502SOL     OW23404   2.605   1.249   4.961
 7502SOL    HW123405   2.630   1.328   5.018
 7502SOL    HW223406   2.630   1.165   5.009
 7503SOL     OW23407   2.938   1.721   0.042
 7503SOL    HW123408   2.998   1.680   0.111
 7503SOL    HW223409   2.959   1.818   0.034
 7504SOL     OW23410   3.869   6.391   3.036
 7504SOL    HW123411   3.869   6.307   2.981
 7504SOL    HW223412   3.776   6.410   3.067
 7505SOL     OW23413   1.653   1.675   5.140
 7505SOL    HW123414   1.652   1.737   5.061
 7505SOL    HW223415   1.599   1.594   5.119
 7506SOL     OW23416   3.636   1.527   2.636
 7506SOL    HW123417   3.548   1.574   2.628
 7506SOL    HW223418   3.643   1.456   2.566
 7507SOL     OW23419   0.925   6.481   5.969
 7507SOL    HW123420   0.931   6.389   6.008
 7507SOL    HW223421   1.001   6.496   5.906
 7508SOL     OW23422   5.579   0.312   2.615
 7508SOL    HW123423   5.547   0.218   2.618
 7508SOL    HW223424   5.553   0.353   2.528
 7509SOL     OW23425   4.637   3.975   6.265
 7509SOL    HW123426   4.683   3.986   6.177
 7509SOL    HW223427   4.580   3.892   6.262
 7510SOL     OW23428   3.848   4.092   4.858
 7510SOL    HW123429   3.757   4.131   4.874
 7510SOL    HW223430   3.917   4.154   4.895
 7511SOL     OW23431   1.233   0.644   1.712
 7511SOL    HW123432   1.281   0.726   1.743
 7511SOL    HW223433   1.280   0.608   1.631
 7512SOL     OW23434   2.269   2.830   1.724
 7512SOL    HW123435   2.193   2.861   1.782
 7512SOL    HW223436   2.305   2.908   1.673
 7513SOL     OW23437   1.294   2.175   6.900
 7513SOL    HW123438   1.354   2.149   6.976
 7513SOL    HW223439   1.321   2.265   6.866
 7514SOL     OW23440   2.530   5.615   2.766
 7514SOL    HW123441   2.463   5.586   2.697
 7514SOL    HW223442   2.509   5.708   2.795
 7515SOL     OW23443   7.015   6.251   2.503
 7515SOL    HW123444   6.958   6.332   2.491
 7515SOL    HW223445   0.068   6.254   2.440
 7516SOL     OW23446   0.639   0.831   3.331
 7516SOL    HW123447   0.683   0.919   3.347
 7516SOL    HW223448   0.541   0.843   3.319
 7517SOL     OW23449   0.338   3.557   1.221
 7517SOL    HW123450   0.346   3.611   1.305
 7517SOL    HW223451   0.242   3.533   1.206
 7518SOL     OW23452   4.554   5.707   4.140
 7518SOL    HW123453   4.612   5.739   4.216
 7518SOL    HW223454   4.482   5.774   4.123
 7519SOL     OW23455   2.126   6.032   4.122
 7519SOL    HW123456   2.090   5.961   4.181
 7519SOL    HW223457   2.226   6.028   4.122
 7520SOL     OW23458   1.577   6.456   3.688
 7520SOL    HW123459   1.609   6.486   3.598
 7520SOL    HW223460   1.637   6.493   3.759
 7521SOL     OW23461   4.293   4.485   5.612
 7521SOL    HW123462   4.324   4.443   5.527
 7521SOL    HW223463   4.198   4.515   5.602
 7522SOL     OW23464   2.382   1.004   1.229
 7522SOL    HW123465   2.350   0.956   1.147
 7522SOL    HW223466   2.467   1.051   1.209
 7523SOL     OW23467   5.693   0.282   6.644
 7523SOL    HW123468   5.786   0.316   6.630
 7523SOL    HW223469   5.659   0.243   6.558
 7524SOL     OW23470   0.564   1.663   5.416
 7524SOL    HW123471   0.497   1.589   5.422
 7524SOL    HW223472   0.645   1.639   5.469
 7525SOL     OW23473   1.085   0.976   0.617
 7525SOL    HW123474   1.095   0.930   0.529
 7525SOL    HW223475   1.079   0.907   0.690
 7526SOL     OW23476   3.721   3.225   4.793
 7526SOL    HW123477   3.728   3.135   4.751
 7526SOL    HW223478   3.800   3.280   4.767
 7527SOL     OW23479   5.617   4.815   3.228
 7527SOL    HW123480   5.645   4.848   3.138
 7527SOL    HW223481   5.524   4.846   3.248
 7528SOL     OW23482   5.722   2.639   0.220
 7528SOL    HW123483   5.699   2.610   0.313
 7528SOL    HW223484   5.818   2.621   0.203
 7529SOL     OW23485   3.665   1.595   5.376
 7529SOL    HW123486   3.571   1.624   5.360
 7529SOL    HW223487   3.711   1.581   5.288
 7530SOL     OW23488   0.952   4.032   1.926
 7530SOL    HW123489   0.887   3.971   1.972
 7530SOL    HW223490   0.912   4.066   1.841
 7531SOL     OW23491   4.354   1.599   3.692
 7531SOL    HW123492   4.418   1.676   3.690
 7531SOL    HW223493   4.343   1.562   3.600
 7532SOL     OW23494   5.356   5.775   2.109
 7532SOL    HW123495   5.415   5.856   2.100
 7532SOL    HW223496   5.412   5.696   2.134
 7533SOL     OW23497   3.487   1.283   4.801
 7533SOL    HW123498   3.428   1.359   4.775
 7533SOL    HW223499   3.571   1.319   4.843
 7534SOL     OW23500   4.579   6.518   4.805
 7534SOL    HW123501   4.671   6.546   4.829
 7534SOL    HW223502   4.514   6.587   4.836
 7535SOL     OW23503   3.068   2.624   5.890
 7535SOL    HW123504   3.157   2.612   5.934
 7535SOL    HW223505   3.061   2.716   5.852
 7536SOL     OW23506   4.622   5.911   4.482
 7536SOL    HW123507   4.537   5.896   4.432
 7536SOL    HW223508   4.625   5.850   4.561
 7537SOL     OW23509   2.388   4.500   5.933
 7537SOL    HW123510   2.323   4.451   5.875
 7537SOL    HW223511   2.424   4.438   6.002
 7538SOL     OW23512   2.995   3.598   2.964
 7538SOL    HW123513   3.026   3.646   2.882
 7538SOL    HW223514   2.963   3.507   2.939
 7539SOL     OW23515   2.093   2.918   5.085
 7539SOL    HW123516   2.074   2.829   5.042
 7539SOL    HW223517   2.095   2.989   5.015
 7540SOL     OW23518   2.688   1.097   0.101
 7540SOL    HW123519   2.711   1.177   0.157
 7540SOL    HW223520   2.766   1.071   0.046
 7541SOL     OW23521   6.390   2.083   5.617
 7541SOL    HW123522   6.317   2.093   5.549
 7541SOL    HW223523   6.356   2.108   5.707
 7542SOL     OW23524   1.531   6.619   5.852
 7542SOL    HW123525   1.458   6.568   5.897
 7542SOL    HW223526   1.493   6.701   5.809
 7543SOL     OW23527   4.180   3.363   0.663
 7543SOL    HW123528   4.210   3.458   0.666
 7543SOL    HW223529   4.109   3.349   0.732
 7544SOL     OW23530   2.423   2.221   3.120
 7544SOL    HW123531   2.364   2.187   3.047
 7544SOL    HW223532   2.375   2.293   3.171
 7545SOL     OW23533   5.117   0.128   3.259
 7545SOL    HW123534   5.054   0.168   3.326
 7545SOL    HW223535   5.119   0.186   3.177
 7546SOL     OW23536   4.841   0.833   6.824
 7546SOL    HW123537   4.835   0.748   6.876
 7546SOL    HW223538   4.880   0.905   6.882
 7547SOL     OW23539   3.349   0.354   0.481
 7547SOL    HW123540   3.381   0.269   0.439
 7547SOL    HW223541   3.275   0.333   0.545
 7548SOL     OW23542   1.769   2.489   1.728
 7548SOL    HW123543   1.712   2.564   1.763
 7548SOL    HW223544   1.864   2.519   1.725
 7549SOL     OW23545   5.425   2.351   3.248
 7549SOL    HW123546   5.456   2.367   3.155
 7549SOL    HW223547   5.333   2.390   3.260
 7550SOL     OW23548   2.226   5.799   3.269
 7550SOL    HW123549   2.281   5.771   3.190
 7550SOL    HW223550   2.149   5.736   3.280
 7551SOL     OW23551   5.252   2.956   6.279
 7551SOL    HW123552   5.302   2.873   6.304
 7551SOL    HW223553   5.256   2.968   6.180
 7552SOL     OW23554   2.758   5.052   4.078
 7552SOL    HW123555   2.777   5.069   3.981
 7552SOL    HW223556   2.845   5.046   4.127
 7553SOL     OW23557   3.676   5.748   5.794
 7553SOL    HW123558   3.745   5.698   5.846
 7553SOL    HW223559   3.626   5.684   5.734
 7554SOL     OW23560   6.051   0.956   0.004
 7554SOL    HW123561   6.138   0.992   0.038
 7554SOL    HW223562   6.032   0.995   6.937
 7555SOL     OW23563   0.406   6.375   5.453
 7555SOL    HW123564   0.323   6.415   5.492
 7555SOL    HW223565   0.486   6.421   5.491
 7556SOL     OW23566   0.394   2.739   4.482
 7556SOL    HW123567   0.374   2.830   4.445
 7556SOL    HW223568   0.426   2.748   4.576
 7557SOL     OW23569   4.890   4.353   6.437
 7557SOL    HW123570   4.959   4.391   6.375
 7557SOL    HW223571   4.881   4.255   6.421
 7558SOL     OW23572   1.787   3.309   3.144
 7558SOL    HW123573   1.753   3.391   3.099
 7558SOL    HW223574   1.761   3.310   3.240
 7559SOL     OW23575   7.005   4.602   0.863
 7559SOL    HW123576   0.007   4.642   0.951
 7559SOL    HW223577   0.061   4.599   0.803
 7560SOL     OW23578   5.331   6.954   0.636
 7560SOL    HW123579   5.372   6.987   0.721
 7560SOL    HW223580   5.377   6.870   0.607
 7561SOL     OW23581   6.717   3.055   0.618
 7561SOL    HW123582   6.737   3.072   0.522
 7561SOL    HW223583   6.660   3.130   0.654
 7562SOL     OW23584   5.574   6.419   5.274
 7562SOL    HW123585   5.618   6.508   5.270
 7562SOL    HW223586   5.542   6.394   5.182
 7563SOL     OW23587   2.448   0.899   2.195
 7563SOL    HW123588   2.497   0.980   2.228
 7563SOL    HW223589   2.354   0.923   2.174
 7564SOL     OW23590   5.005   6.897   3.152
 7564SOL    HW123591   4.977   6.925   3.060
 7564SOL    HW223592   5.050   6.974   3.198
 7565SOL     OW23593   4.486   4.579   6.770
 7565SOL    HW123594   4.504   4.485   6.739
 7565SOL    HW223595   4.439   4.629   6.697
 7566SOL     OW23596   1.180   5.991   4.166
 7566SOL    HW123597   1.146   5.993   4.072
 7566SOL    HW223598   1.112   5.947   4.225
 7567SOL     OW23599   3.021   4.871   0.212
 7567SOL    HW123600   2.953   4.858   0.139
 7567SOL    HW223601   2.980   4.922   0.287
 7568SOL     OW23602   4.699   5.771   3.795
 7568SOL    HW123603   4.721   5.829   3.873
 7568SOL    HW223604   4.720   5.676   3.817
 7569SOL     OW23605   3.884   6.438   0.433
 7569SOL    HW123606   3.904   6.435   0.531
 7569SOL    HW223607   3.844   6.526   0.409
 7570SOL     OW23608   5.750   5.402   3.839
 7570SOL    HW123609   5.667   5.347   3.833
 7570SOL    HW223610   5.826   5.354   3.797
 7571SOL     OW23611   5.321   4.246   1.467
 7571SOL    HW123612   5.342   4.255   1.370
 7571SOL    HW223613   5.222   4.242   1.480
 7572SOL     OW23614   3.221   0.832   4.824
 7572SOL    HW123615   3.266   0.756   4.870
 7572SOL    HW223616   3.129   0.845   4.860
 7573SOL     OW23617   0.877   6.292   4.265
 7573SOL    HW123618   0.802   6.226   4.270
 7573SOL    HW223619   0.964   6.243   4.255
 7574SOL     OW23620   5.383   6.101   2.865
 7574SOL    HW123621   5.341   6.013   2.841
 7574SOL    HW223622   5.311   6.170   2.877
 7575SOL     OW23623   3.802   1.569   5.616
 7575SOL    HW123624   3.766   1.583   5.523
 7575SOL    HW223625   3.899   1.544   5.610
 7576SOL     OW23626   6.145   3.267   0.714
 7576SOL    HW123627   6.219   3.310   0.663
 7576SOL    HW223628   6.058   3.285   0.669
 7577SOL     OW23629   6.270   1.162   5.031
 7577SOL    HW123630   6.342   1.101   5.063
 7577SOL    HW223631   6.222   1.120   4.954
 7578SOL     OW23632   2.328   5.179   4.806
 7578SOL    HW123633   2.247   5.123   4.819
 7578SOL    HW223634   2.350   5.185   4.708
 7579SOL     OW23635   3.668   1.943   2.455
 7579SOL    HW123636   3.608   1.909   2.383
 7579SOL    HW223637   3.735   2.006   2.416
 7580SOL     OW23638   2.007   4.255   2.784
 7580SOL    HW123639   1.907   4.259   2.784
 7580SOL    HW223640   2.042   4.289   2.697
 7581SOL     OW23641   5.503   0.817   0.691
 7581SOL    HW123642   5.525   0.724   0.721
 7581SOL    HW223643   5.423   0.850   0.740
 7582SOL     OW23644   3.095   1.136   0.848
 7582SOL    HW123645   3.020   1.070   0.856
 7582SOL    HW223646   3.059   1.227   0.829
 7583SOL     OW23647   5.416   3.511   2.049
 7583SOL    HW123648   5.441   3.433   2.107
 7583SOL    HW223649   5.490   3.578   2.051
 7584SOL     OW23650   2.998   0.218   1.141
 7584SOL    HW123651   2.983   0.180   1.232
 7584SOL    HW223652   2.946   0.166   1.074
 7585SOL     OW23653   1.449   4.821   6.722
 7585SOL    HW123654   1.449   4.921   6.730
 7585SOL    HW223655   1.523   4.783   6.778
 7586SOL     OW23656   3.274   0.657   2.947
 7586SOL    HW123657   3.345   0.601   2.903
 7586SOL    HW223658   3.185   0.630   2.913
 7587SOL     OW23659   1.228   1.781   6.028
 7587SOL    HW123660   1.231   1.795   6.127
 7587SOL    HW223661   1.208   1.868   5.982
 7588SOL     OW23662   0.274   4.779   2.733
 7588SOL    HW123663   0.219   4.723   2.672
 7588SOL    HW223664   0.283   4.871   2.695
 7589SOL     OW23665   6.383   5.675   0.275
 7589SOL    HW123666   6.374   5.590   0.224
 7589SOL    HW223667   6.299   5.692   0.327
 7590SOL     OW23668   2.398   1.354   6.019
 7590SOL    HW123669   2.402   1.383   5.924
 7590SOL    HW223670   2.334   1.413   6.070
 7591SOL     OW23671   0.153   4.700   6.730
 7591SOL    HW123672   0.074   4.642   6.706
 7591SOL    HW223673   0.163   4.703   6.829
 7592SOL     OW23674   5.947   4.995   6.708
 7592SOL    HW123675   5.972   4.938   6.630
 7592SOL    HW223676   5.907   4.938   6.780
 7593SOL     OW23677   5.541   2.409   0.327
 7593SOL    HW123678   5.606   2.424   0.401
 7593SOL    HW223679   5.452   2.446   0.352
 7594SOL     OW23680   1.159   6.202   3.927
 7594SOL    HW123681   1.236   6.142   3.905
 7594SOL    HW223682   1.079   6.147   3.947
 7595SOL     OW23683   6.739   3.136   6.578
 7595SOL    HW123684   6.746   3.234   6.557
 7595SOL    HW223685   6.752   3.083   6.494
 7596SOL     OW23686   5.027   4.493   1.851
 7596SOL    HW123687   5.020   4.405   1.897
 7596SOL    HW223688   5.116   4.535   1.872
 7597SOL     OW23689   3.767   5.105   1.688
 7597SOL    HW123690   3.769   5.015   1.645
 7597SOL    HW223691   3.860   5.135   1.708
 7598SOL     OW23692   0.013   0.748   3.493
 7598SOL    HW123693   7.010   0.742   3.397
 7598SOL    HW223694   0.069   0.830   3.506
 7599SOL     OW23695   6.479   2.009   2.823
 7599SOL    HW123696   6.557   1.985   2.882
 7599SOL    HW223697   6.398   1.959   2.854
 7600SOL     OW23698   1.913   1.174   1.684
 7600SOL    HW123699   2.003   1.136   1.703
 7600SOL    HW223700   1.879   1.222   1.764
 7601SOL     OW23701   1.622   6.223   4.237
 7601SOL    HW123702   1.649   6.252   4.329
 7601SOL    HW223703   1.564   6.142   4.244
 7602SOL     OW23704   1.132   4.339   4.910
 7602SOL    HW123705   1.073   4.282   4.853
 7602SOL    HW223706   1.145   4.428   4.867
 7603SOL     OW23707   1.363   6.465   1.587
 7603SOL    HW123708   1.415   6.434   1.667
 7603SOL    HW223709   1.423   6.518   1.527
 7604SOL     OW23710   4.249   5.933   5.124
 7604SOL    HW123711   4.346   5.915   5.138
 7604SOL    HW223712   4.237   6.002   5.053
 7605SOL     OW23713   6.934   4.153   0.013
 7605SOL    HW123714   6.997   4.227   7.013
 7605SOL    HW223715   6.932   4.086   6.962
 7606SOL     OW23716   6.405   2.542   2.534
 7606SOL    HW123717   6.314   2.551   2.574
 7606SOL    HW223718   6.435   2.630   2.500
 7607SOL     OW23719   4.989   0.338   6.731
 7607SOL    HW123720   4.907   0.299   6.689
 7607SOL    HW223721   5.021   0.415   6.676
 7608SOL     OW23722   2.894   3.454   4.260
 7608SOL    HW123723   2.794   3.462   4.259
 7608SOL    HW223724   2.935   3.543   4.240
 7609SOL     OW23725   1.032   3.271   4.048
 7609SOL    HW123726   0.959   3.287   3.981
 7609SOL    HW223727   1.094   3.200   4.013
 7610SOL     OW23728   5.639   0.206   0.570
 7610SOL    HW123729   5.692   0.290   0.575
 7610SOL    HW223730   5.688   0.132   0.615
 7611SOL     OW23731   1.453   1.738   0.260
 7611SOL    HW123732   1.521   1.717   0.190
 7611SOL    HW223733   1.365   1.755   0.217
 7612SOL     OW23734   4.292   2.285   3.668
 7612SOL    HW123735   4.274   2.374   3.625
 7612SOL    HW223736   4.383   2.286   3.710
 7613SOL     OW23737   5.082   1.056   1.830
 7613SOL    HW123738   5.166   1.007   1.805
 7613SOL    HW223739   5.021   0.994   1.879
 7614SOL     OW23740   3.904   2.414   0.853
 7614SOL    HW123741   3.956   2.498   0.872
 7614SOL    HW223742   3.965   2.346   0.813
 7615SOL     OW23743   3.936   4.979   6.181
 7615SOL    HW123744   3.858   4.918   6.171
 7615SOL    HW223745   3.922   5.038   6.261
 7616SOL     OW23746   6.509   3.645   3.372
 7616SOL    HW123747   6.452   3.677   3.296
 7616SOL    HW223748   6.513   3.715   3.443
 7617SOL     OW23749   3.270   4.879   3.059
 7617SOL    HW123750   3.202   4.880   3.133
 7617SOL    HW223751   3.361   4.871   3.099
 7618SOL     OW23752   1.957   2.375   6.483
 7618SOL    HW123753   2.002   2.416   6.562
 7618SOL    HW223754   1.919   2.448   6.425
 7619SOL     OW23755   6.410   3.633   5.469
 7619SOL    HW123756   6.398   3.535   5.483
 7619SOL    HW223757   6.334   3.669   5.415
 7620SOL     OW23758   3.968   6.914   1.216
 7620SOL    HW123759   4.020   6.878   1.138
 7620SOL    HW223760   4.014   6.887   1.301
 7621SOL     OW23761   2.426   0.733   1.317
 7621SOL    HW123762   2.426   0.818   1.264
 7621SOL    HW223763   2.373   0.746   1.401
 7622SOL     OW23764   4.177   3.039   1.075
 7622SOL    HW123765   4.214   3.053   0.983
 7622SOL    HW223766   4.203   3.117   1.132
 7623SOL     OW23767   4.577   0.022   5.694
 7623SOL    HW123768   4.677   0.020   5.688
 7623SOL    HW223769   4.549   0.092   5.760
 7624SOL     OW23770   0.925   1.194   2.925
 7624SOL    HW123771   0.960   1.251   2.999
 7624SOL    HW223772   0.977   1.212   2.842
 7625SOL     OW23773   5.007   0.813   1.056
 7625SOL    HW123774   5.069   0.802   1.134
 7625SOL    HW223775   5.061   0.814   0.972
 7626SOL     OW23776   1.723   6.365   4.466
 7626SOL    HW123777   1.636   6.412   4.481
 7626SOL    HW223778   1.788   6.428   4.423
 7627SOL     OW23779   6.829   2.631   0.721
 7627SOL    HW123780   6.858   2.599   0.631
 7627SOL    HW223781   6.770   2.711   0.711
 7628SOL     OW23782   2.986   1.405   0.791
 7628SOL    HW123783   2.895   1.411   0.749
 7628SOL    HW223784   3.051   1.458   0.737
 7629SOL     OW23785   6.919   5.345   2.912
 7629SOL    HW123786   6.999   5.341   2.971
 7629SOL    HW223787   6.847   5.398   2.957
 7630SOL     OW23788   6.360   0.580   2.160
 7630SOL    HW123789   6.285   0.572   2.094
 7630SOL    HW223790   6.326   0.557   2.252
 7631SOL     OW23791   0.334   1.571   4.180
 7631SOL    HW123792   0.415   1.583   4.237
 7631SOL    HW223793   0.298   1.478   4.193
 7632SOL     OW23794   4.751   2.413   0.708
 7632SOL    HW123795   4.713   2.493   0.662
 7632SOL    HW223796   4.706   2.330   0.674
 7633SOL     OW23797   5.260   3.529   6.511
 7633SOL    HW123798   5.296   3.546   6.603
 7633SOL    HW223799   5.195   3.601   6.487
 7634SOL     OW23800   1.984   0.689   2.369
 7634SOL    HW123801   1.966   0.677   2.271
 7634SOL    HW223802   1.917   0.753   2.407
 7635SOL     OW23803   2.503   5.128   5.600
 7635SOL    HW123804   2.566   5.111   5.676
 7635SOL    HW223805   2.542   5.197   5.539
 7636SOL     OW23806   0.858   0.657   4.175
 7636SOL    HW123807   0.885   0.567   4.210
 7636SOL    HW223808   0.935   0.720   4.186
 7637SOL     OW23809   1.210   6.410   4.117
 7637SOL    HW123810   1.190   6.339   4.049
 7637SOL    HW223811   1.248   6.490   4.070
 7638SOL     OW23812   5.118   5.081   1.937
 7638SOL    HW123813   5.157   5.151   1.998
 7638SOL    HW223814   5.107   4.995   1.987
 7639SOL     OW23815   0.778   1.622   5.597
 7639SOL    HW123816   0.804   1.715   5.625
 7639SOL    HW223817   0.849   1.558   5.625
 7640SOL     OW23818   2.484   1.626   0.214
 7640SOL    HW123819   2.566   1.628   0.156
 7640SOL    HW223820   2.442   1.716   0.216
 7641SOL     OW23821   6.087   3.478   2.152
 7641SOL    HW123822   6.013   3.523   2.102
 7641SOL    HW223823   6.056   3.387   2.182
 7642SOL     OW23824   2.276   1.977   2.113
 7642SOL    HW123825   2.336   2.051   2.144
 7642SOL    HW223826   2.227   1.938   2.191
 7643SOL     OW23827   5.042   2.836   2.780
 7643SOL    HW123828   4.976   2.762   2.767
 7643SOL    HW223829   4.994   2.920   2.806
 7644SOL     OW23830   0.216   3.273   3.156
 7644SOL    HW123831   0.312   3.260   3.130
 7644SOL    HW223832   0.186   3.194   3.210
 7645SOL     OW23833   4.270   4.356   0.146
 7645SOL    HW123834   4.253   4.315   0.235
 7645SOL    HW223835   4.338   4.429   0.155
 7646SOL     OW23836   2.104   2.337   2.241
 7646SOL    HW123837   2.174   2.305   2.305
 7646SOL    HW223838   2.085   2.433   2.258
 7647SOL     OW23839   2.298   3.889   1.759
 7647SOL    HW123840   2.367   3.960   1.746
 7647SOL    HW223841   2.338   3.800   1.739
 7648SOL     OW23842   4.103   1.273   4.057
 7648SOL    HW123843   4.061   1.194   4.011
 7648SOL    HW223844   4.088   1.266   4.155
 7649SOL     OW23845   2.867   0.519   2.064
 7649SOL    HW123846   2.786   0.461   2.059
 7649SOL    HW223847   2.848   0.598   2.122
 7650SOL     OW23848   6.635   3.921   1.914
 7650SOL    HW123849   6.552   3.962   1.950
 7650SOL    HW223850   6.628   3.913   1.814
 7651SOL     OW23851   3.354   0.791   6.492
 7651SOL    HW123852   3.402   0.704   6.479
 7651SOL    HW223853   3.334   0.804   6.589
 7652SOL     OW23854   0.438   3.883   3.059
 7652SOL    HW123855   0.500   3.809   3.085
 7652SOL    HW223856   0.352   3.844   3.026
 7653SOL     OW23857   2.626   2.158   1.800
 7653SOL    HW123858   2.712   2.181   1.755
 7653SOL    HW223859   2.566   2.110   1.735
 7654SOL     OW23860   5.182   3.393   3.842
 7654SOL    HW123861   5.215   3.445   3.921
 7654SOL    HW223862   5.084   3.377   3.852
 7655SOL     OW23863   3.325   6.412   4.910
 7655SOL    HW123864   3.298   6.348   4.838
 7655SOL    HW223865   3.417   6.389   4.941
 7656SOL     OW23866   6.994   6.097   5.417
 7656SOL    HW123867   0.024   6.090   5.501
 7656SOL    HW223868   6.974   6.005   5.383
 7657SOL     OW23869   3.442   1.809   3.580
 7657SOL    HW123870   3.417   1.900   3.547
 7657SOL    HW223871   3.535   1.811   3.615
 7658SOL     OW23872   3.996   1.007   5.936
 7658SOL    HW123873   3.968   0.912   5.953
 7658SOL    HW223874   3.933   1.069   5.983
 7659SOL     OW23875   5.772   6.804   0.553
 7659SOL    HW123876   5.764   6.901   0.577
 7659SOL    HW223877   5.846   6.792   0.486
 7660SOL     OW23878   5.561   5.809   2.698
 7660SOL    HW123879   5.581   5.733   2.635
 7660SOL    HW223880   5.561   5.775   2.792
 7661SOL     OW23881   6.670   2.761   3.549
 7661SOL    HW123882   6.726   2.840   3.573
 7661SOL    HW223883   6.631   2.775   3.457
 7662SOL     OW23884   0.711   4.724   2.193
 7662SOL    HW123885   0.670   4.805   2.236
 7662SOL    HW223886   0.653   4.695   2.116
 7663SOL     OW23887   0.253   4.573   6.315
 7663SOL    HW123888   0.306   4.595   6.233
 7663SOL    HW223889   0.301   4.505   6.369
 7664SOL     OW23890   2.967   5.665   3.582
 7664SOL    HW123891   2.964   5.681   3.484
 7664SOL    HW223892   2.874   5.659   3.618
 7665SOL     OW23893   2.711   0.545   4.595
 7665SOL    HW123894   2.783   0.600   4.638
 7665SOL    HW223895   2.624   0.594   4.602
 7666SOL     OW23896   1.543   0.496   1.219
 7666SOL    HW123897   1.532   0.400   1.245
 7666SOL    HW223898   1.598   0.543   1.288
 7667SOL     OW23899   4.781   6.893   6.947
 7667SOL    HW123900   4.754   6.984   6.915
 7667SOL    HW223901   4.802   6.898   0.021
 7668SOL     OW23902   3.765   4.246   1.014
 7668SOL    HW123903   3.697   4.320   1.010
 7668SOL    HW223904   3.810   4.238   0.925
 7669SOL     OW23905   4.816   0.235   3.849
 7669SOL    HW123906   4.757   0.279   3.917
 7669SOL    HW223907   4.860   0.155   3.890
 7670SOL     OW23908   1.415   5.474   0.812
 7670SOL    HW123909   1.371   5.555   0.774
 7670SOL    HW223910   1.514   5.486   0.810
 7671SOL     OW23911   6.076   2.332   3.727
 7671SOL    HW123912   6.170   2.314   3.697
 7671SOL    HW223913   6.048   2.423   3.695
 7672SOL     OW23914   5.544   1.157   3.413
 7672SOL    HW123915   5.502   1.094   3.348
 7672SOL    HW223916   5.593   1.104   3.483
 7673SOL     OW23917   0.694   4.445   0.584
 7673SOL    HW123918   0.778   4.493   0.610
 7673SOL    HW223919   0.718   4.360   0.537
 7674SOL     OW23920   6.247   1.694   5.132
 7674SOL    HW123921   6.337   1.725   5.160
 7674SOL    HW223922   6.237   1.596   5.149
 7675SOL     OW23923   4.391   6.917   2.766
 7675SOL    HW123924   4.444   6.862   2.701
 7675SOL    HW223925   4.392   6.872   2.855
 7676SOL     OW23926   1.580   0.792   0.024
 7676SOL    HW123927   1.509   0.736   0.066
 7676SOL    HW223928   1.645   0.820   0.095
 7677SOL     OW23929   1.381   3.319   2.789
 7677SOL    HW123930   1.448   3.267   2.843
 7677SOL    HW223931   1.314   3.360   2.851
 7678SOL     OW23932   0.174   0.613   0.689
 7678SOL    HW123933   0.091   0.668   0.690
 7678SOL    HW223934   0.168   0.545   0.616
 7679SOL     OW23935   0.591   5.045   4.902
 7679SOL    HW123936   0.606   5.086   4.811
 7679SOL    HW223937   0.651   5.090   4.968
 7680SOL     OW23938   3.493   3.616   0.382
 7680SOL    HW123939   3.512   3.638   0.478
 7680SOL    HW223940   3.420   3.547   0.377
 7681SOL     OW23941   2.839   1.734   6.814
 7681SOL    HW123942   2.756   1.687   6.784
 7681SOL    HW223943   2.847   1.729   6.914
 7682SOL     OW23944   2.986   6.843   2.227
 7682SOL    HW123945   2.913   6.775   2.221
 7682SOL    HW223946   2.951   6.932   2.198
 7683SOL     OW23947   5.905   2.471   2.636
 7683SOL    HW123948   5.901   2.382   2.683
 7683SOL    HW223949   5.816   2.489   2.594
 7684SOL     OW23950   4.244   1.999   6.407
 7684SOL    HW123951   4.260   2.064   6.480
 7684SOL    HW223952   4.154   2.014   6.367
 7685SOL     OW23953   3.664   3.231   0.911
 7685SOL    HW123954   3.681   3.322   0.948
 7685SOL    HW223955   3.565   3.217   0.900
 7686SOL     OW23956   4.597   6.731   3.801
 7686SOL    HW123957   4.561   6.818   3.766
 7686SOL    HW223958   4.592   6.731   3.901
 7687SOL     OW23959   5.067   5.544   5.595
 7687SOL    HW123960   5.065   5.639   5.564
 7687SOL    HW223961   5.062   5.483   5.515
 7688SOL     OW23962   0.070   6.593   4.500
 7688SOL    HW123963   0.006   6.564   4.429
 7688SOL    HW223964   0.159   6.614   4.459
 7689SOL     OW23965   4.756   6.710   4.931
 7689SOL    HW123966   4.710   6.730   5.018
 7689SOL    HW223967   4.842   6.761   4.927
 7690SOL     OW23968   6.009   4.360   3.195
 7690SOL    HW123969   6.045   4.338   3.104
 7690SOL    HW223970   6.083   4.353   3.262
 7691SOL     OW23971   5.155   2.919   4.479
 7691SOL    HW123972   5.061   2.935   4.451
 7691SOL    HW223973   5.217   2.943   4.404
 7692SOL     OW23974   1.912   6.729   1.649
 7692SOL    HW123975   1.893   6.782   1.731
 7692SOL    HW223976   2.006   6.744   1.619
 7693SOL     OW23977   4.344   1.239   6.429
 7693SOL    HW123978   4.343   1.327   6.381
 7693SOL    HW223979   4.328   1.254   6.527
 7694SOL     OW23980   0.031   5.250   4.466
 7694SOL    HW123981   7.013   5.232   4.376
 7694SOL    HW223982   0.129   5.230   4.462
 7695SOL     OW23983   4.448   6.674   1.014
 7695SOL    HW123984   4.406   6.728   1.087
 7695SOL    HW223985   4.468   6.733   0.936
 7696SOL     OW23986   6.782   3.264   4.645
 7696SOL    HW123987   6.807   3.201   4.571
 7696SOL    HW223988   6.863   3.284   4.700
 7697SOL     OW23989   2.471   1.418   2.820
 7697SOL    HW123990   2.404   1.426   2.894
 7697SOL    HW223991   2.496   1.510   2.788
 7698SOL     OW23992   6.555   2.749   5.547
 7698SOL    HW123993   6.608   2.788   5.622
 7698SOL    HW223994   6.607   2.759   5.462
 7699SOL     OW23995   2.606   5.781   0.275
 7699SOL    HW123996   2.682   5.839   0.244
 7699SOL    HW223997   2.539   5.837   0.324
 7700SOL     OW23998   4.927   6.706   5.181
 7700SOL    HW123999   4.920   6.618   5.134
 7700SOL    HW224000   5.017   6.745   5.166
 7701SOL     OW24001   6.983   1.558   4.223
 7701SOL    HW124002   7.013   1.639   4.174
 7701SOL    HW224003   0.039   1.509   4.259
 7702SOL     OW24004   3.109   6.005   6.028
 7702SOL    HW124005   3.012   6.026   6.041
 7702SOL    HW224006   3.131   6.009   5.931
 7703SOL     OW24007   0.571   1.517   5.760
 7703SOL    HW124008   0.498   1.585   5.752
 7703SOL    HW224009   0.640   1.534   5.689
 7704SOL     OW24010   3.909   4.492   6.857
 7704SOL    HW124011   3.924   4.400   6.821
 7704SOL    HW224012   3.970   4.508   6.935
 7705SOL     OW24013   3.524   5.142   4.935
 7705SOL    HW124014   3.613   5.140   4.890
 7705SOL    HW224015   3.487   5.049   4.940
 7706SOL     OW24016   6.340   0.662   5.175
 7706SOL    HW124017   6.411   0.719   5.217
 7706SOL    HW224018   6.250   0.699   5.196
 7707SOL     OW24019   6.621   5.697   6.360
 7707SOL    HW124020   6.674   5.706   6.276
 7707SOL    HW224021   6.607   5.788   6.401
 7708SOL     OW24022   5.032   6.690   4.614
 7708SOL    HW124023   4.938   6.664   4.591
 7708SOL    HW224024   5.050   6.671   4.710
 7709SOL     OW24025   4.601   2.215   1.885
 7709SOL    HW124026   4.540   2.288   1.853
 7709SOL    HW224027   4.549   2.130   1.894
 7710SOL     OW24028   2.326   0.322   0.319
 7710SOL    HW124029   2.324   0.412   0.274
 7710SOL    HW224030   2.421   0.291   0.327
 7711SOL     OW24031   5.706   6.635   5.656
 7711SOL    HW124032   5.746   6.672   5.741
 7711SOL    HW224033   5.776   6.586   5.605
 7712SOL     OW24034   5.971   5.253   0.763
 7712SOL    HW124035   6.003   5.179   0.823
 7712SOL    HW224036   5.886   5.225   0.718
 7713SOL     OW24037   1.667   4.225   6.329
 7713SOL    HW124038   1.694   4.270   6.244
 7713SOL    HW224039   1.591   4.162   6.311
 7714SOL     OW24040   6.271   4.404   4.072
 7714SOL    HW124041   6.359   4.396   4.025
 7714SOL    HW224042   6.287   4.415   4.171
 7715SOL     OW24043   4.770   0.026   1.407
 7715SOL    HW124044   4.863   0.059   1.424
 7715SOL    HW224045   4.714   0.041   1.489
 7716SOL     OW24046   4.573   2.246   3.051
 7716SOL    HW124047   4.500   2.178   3.041
 7716SOL    HW224048   4.623   2.254   2.965
 7717SOL     OW24049   3.276   1.935   5.485
 7717SOL    HW124050   3.243   1.934   5.391
 7717SOL    HW224051   3.225   1.868   5.539
 7718SOL     OW24052   2.746   1.075   3.590
 7718SOL    HW124053   2.666   1.031   3.550
 7718SOL    HW224054   2.806   1.005   3.629
 7719SOL     OW24055   6.920   1.675   4.765
 7719SOL    HW124056   6.957   1.754   4.717
 7719SOL    HW224057   6.953   1.591   4.723
 7720SOL     OW24058   6.079   6.256   1.431
 7720SOL    HW124059   6.091   6.345   1.475
 7720SOL    HW224060   6.163   6.231   1.383
 7721SOL     OW24061   2.255   4.145   3.360
 7721SOL    HW124062   2.255   4.063   3.303
 7721SOL    HW224063   2.168   4.150   3.410
 7722SOL     OW24064   6.108   4.333   3.695
 7722SOL    HW124065   6.095   4.408   3.760
 7722SOL    HW224066   6.205   4.313   3.685
 7723SOL     OW24067   6.775   3.333   0.886
 7723SOL    HW124068   6.756   3.263   0.955
 7723SOL    HW224069   6.870   3.327   0.857
 7724SOL     OW24070   1.305   4.622   1.138
 7724SOL    HW124071   1.389   4.589   1.093
 7724SOL    HW224072   1.236   4.641   1.068
 7725SOL     OW24073   5.909   2.837   3.544
 7725SOL    HW124074   5.897   2.827   3.642
 7725SOL    HW224075   5.920   2.747   3.502
 7726SOL     OW24076   0.581   4.646   3.364
 7726SOL    HW124077   0.500   4.608   3.408
 7726SOL    HW224078   0.562   4.666   3.268
 7727SOL     OW24079   6.709   2.825   3.015
 7727SOL    HW124080   6.802   2.850   2.988
 7727SOL    HW224081   6.701   2.726   3.021
 7728SOL     OW24082   1.839   3.035   3.073
 7728SOL    HW124083   1.778   3.005   3.147
 7728SOL    HW224084   1.853   3.134   3.079
 7729SOL     OW24085   5.040   2.827   1.445
 7729SOL    HW124086   5.118   2.839   1.385
 7729SOL    HW224087   4.987   2.747   1.416
 7730SOL     OW24088   5.194   0.110   2.628
 7730SOL    HW124089   5.257   0.065   2.564
 7730SOL    HW224090   5.245   0.173   2.686
 7731SOL     OW24091   5.942   1.082   6.822
 7731SOL    HW124092   5.846   1.094   6.845
 7731SOL    HW224093   5.974   1.162   6.771
 7732SOL     OW24094   4.419   6.205   0.497
 7732SOL    HW124095   4.326   6.241   0.507
 7732SOL    HW224096   4.417   6.120   0.444
 7733SOL     OW24097   3.849   0.242   1.776
 7733SOL    HW124098   3.882   0.317   1.834
 7733SOL    HW224099   3.749   0.238   1.781
 7734SOL     OW24100   1.745   2.463   3.588
 7734SOL    HW124101   1.722   2.418   3.674
 7734SOL    HW224102   1.662   2.486   3.538
 7735SOL     OW24103   5.325   4.168   6.415
 7735SOL    HW124104   5.406   4.177   6.358
 7735SOL    HW224105   5.247   4.141   6.359
 7736SOL     OW24106   5.947   4.852   0.150
 7736SOL    HW124107   5.923   4.768   0.198
 7736SOL    HW224108   5.917   4.846   0.055
 7737SOL     OW24109   4.787   1.621   0.997
 7737SOL    HW124110   4.745   1.700   0.953
 7737SOL    HW224111   4.834   1.566   0.929
 7738SOL     OW24112   2.930   5.471   0.218
 7738SOL    HW124113   3.008   5.533   0.228
 7738SOL    HW224114   2.845   5.523   0.220
 7739SOL     OW24115   6.902   2.250   1.094
 7739SOL    HW124116   6.820   2.294   1.058
 7739SOL    HW224117   6.876   2.182   1.162
 7740SOL     OW24118   6.830   0.219   2.643
 7740SOL    HW124119   6.906   0.258   2.591
 7740SOL    HW224120   6.768   0.172   2.581
 7741SOL     OW24121   1.165   6.233   4.310
 7741SOL    HW124122   1.179   6.155   4.249
 7741SOL    HW224123   1.162   6.318   4.256
 7742SOL     OW24124   6.191   1.748   3.739
 7742SOL    HW124125   6.260   1.711   3.802
 7742SOL    HW224126   6.212   1.843   3.719
 7743SOL     OW24127   4.553   2.585   4.489
 7743SOL    HW124128   4.511   2.495   4.502
 7743SOL    HW224129   4.561   2.630   4.578
 7744SOL     OW24130   6.642   0.237   3.350
 7744SOL    HW124131   6.724   0.272   3.394
 7744SOL    HW224132   6.593   0.312   3.306
 7745SOL     OW24133   3.950   2.941   6.132
 7745SOL    HW124134   3.875   2.892   6.176
 7745SOL    HW224135   3.953   3.035   6.167
 7746SOL     OW24136   1.862   0.878   0.206
 7746SOL    HW124137   1.821   0.846   0.292
 7746SOL    HW224138   1.904   0.968   0.221
 7747SOL     OW24139   5.452   6.369   0.934
 7747SOL    HW124140   5.453   6.469   0.929
 7747SOL    HW224141   5.395   6.341   1.010
 7748SOL     OW24142   2.600   4.234   6.354
 7748SOL    HW124143   2.628   4.138   6.349
 7748SOL    HW224144   2.613   4.277   6.265
 7749SOL     OW24145   5.546   2.480   5.551
 7749SOL    HW124146   5.581   2.468   5.457
 7749SOL    HW224147   5.448   2.463   5.552
 7750SOL     OW24148   0.491   5.790   1.844
 7750SOL    HW124149   0.410   5.845   1.821
 7750SOL    HW224150   0.513   5.804   1.941
 7751SOL     OW24151   0.757   2.945   2.168
 7751SOL    HW124152   0.834   2.968   2.227
 7751SOL    HW224153   0.769   2.989   2.079
 7752SOL     OW24154   4.280   1.746   4.424
 7752SOL    HW124155   4.274   1.826   4.366
 7752SOL    HW224156   4.375   1.728   4.447
 7753SOL     OW24157   2.833   1.399   5.193
 7753SOL    HW124158   2.784   1.321   5.233
 7753SOL    HW224159   2.868   1.458   5.266
 7754SOL     OW24160   4.699   6.210   1.825
 7754SOL    HW124161   4.723   6.307   1.816
 7754SOL    HW224162   4.779   6.159   1.855
 7755SOL     OW24163   1.129   4.121   6.152
 7755SOL    HW124164   1.099   4.028   6.129
 7755SOL    HW224165   1.222   4.135   6.119
 7756SOL     OW24166   3.332   5.827   1.440
 7756SOL    HW124167   3.376   5.907   1.398
 7756SOL    HW224168   3.382   5.745   1.413
 7757SOL     OW24169   0.338   4.562   2.411
 7757SOL    HW124170   0.420   4.551   2.467
 7757SOL    HW224171   0.290   4.645   2.438
 7758SOL     OW24172   1.386   0.960   4.837
 7758SOL    HW124173   1.469   0.930   4.792
 7758SOL    HW224174   1.363   1.053   4.807
 7759SOL     OW24175   2.850   2.241   6.715
 7759SOL    HW124176   2.829   2.207   6.624
 7759SOL    HW224177   2.949   2.241   6.729
 7760SOL     OW24178   4.444   3.230   1.324
 7760SOL    HW124179   4.381   3.222   1.401
 7760SOL    HW224180   4.444   3.145   1.271
 7761SOL     OW24181   4.902   5.539   4.832
 7761SOL    HW124182   4.921   5.637   4.842
 7761SOL    HW224183   4.974   5.497   4.777
 7762SOL     OW24184   6.436   1.097   2.902
 7762SOL    HW124185   6.465   1.086   2.807
 7762SOL    HW224186   6.394   1.011   2.934
 7763SOL     OW24187   2.592   0.102   4.195
 7763SOL    HW124188   2.530   0.025   4.210
 7763SOL    HW224189   2.573   0.174   4.262
 7764SOL     OW24190   3.013   3.816   5.583
 7764SOL    HW124191   3.053   3.728   5.557
 7764SOL    HW224192   2.943   3.842   5.517
 7765SOL     OW24193   0.003   3.175   4.769
 7765SOL    HW124194   7.015   3.101   4.835
 7765SOL    HW224195   0.045   3.137   4.686
 7766SOL     OW24196   6.277   3.699   6.292
 7766SOL    HW124197   6.309   3.786   6.328
 7766SOL    HW224198   6.237   3.713   6.201
 7767SOL     OW24199   2.991   0.683   3.461
 7767SOL    HW124200   3.036   0.767   3.430
 7767SOL    HW224201   2.910   0.706   3.515
 7768SOL     OW24202   4.618   5.212   3.179
 7768SOL    HW124203   4.707   5.193   3.221
 7768SOL    HW224204   4.630   5.224   3.081
 7769SOL     OW24205   3.593   2.570   5.418
 7769SOL    HW124206   3.678   2.612   5.388
 7769SOL    HW224207   3.554   2.623   5.493
 7770SOL     OW24208   1.973   3.308   4.867
 7770SOL    HW124209   1.939   3.334   4.958
 7770SOL    HW224210   2.054   3.251   4.877
 7771SOL     OW24211   2.745   2.263   6.053
 7771SOL    HW124212   2.810   2.201   6.095
 7771SOL    HW224213   2.657   2.258   6.101
 7772SOL     OW24214   4.989   6.382   1.845
 7772SOL    HW124215   4.956   6.377   1.750
 7772SOL    HW224216   4.994   6.290   1.883
 7773SOL     OW24217   3.426   6.526   0.059
 7773SOL    HW124218   3.460   6.481   0.141
 7773SOL    HW224219   3.369   6.463   0.007
 7774SOL     OW24220   4.310   1.753   2.600
 7774SOL    HW124221   4.353   1.842   2.581
 7774SOL    HW224222   4.212   1.765   2.612
 7775SOL     OW24223   3.204   0.737   6.807
 7775SOL    HW124224   3.303   0.736   6.811
 7775SOL    HW224225   3.168   0.677   6.879
 7776SOL     OW24226   1.731   0.920   5.043
 7776SOL    HW124227   1.645   0.868   5.039
 7776SOL    HW224228   1.802   0.863   5.084
 7777SOL     OW24229   5.979   5.430   3.453
 7777SOL    HW124230   6.008   5.397   3.543
 7777SOL    HW224231   5.880   5.430   3.447
 7778SOL     OW24232   6.765   4.878   2.443
 7778SOL    HW124233   6.677   4.869   2.397
 7778SOL    HW224234   6.758   4.838   2.535
 7779SOL     OW24235   3.995   5.733   2.476
 7779SOL    HW124236   3.982   5.647   2.428
 7779SOL    HW224237   3.907   5.762   2.515
 7780SOL     OW24238   6.149   6.280   4.642
 7780SOL    HW124239   6.152   6.352   4.572
 7780SOL    HW224240   6.060   6.233   4.638
 7781SOL     OW24241   1.539   2.482   0.637
 7781SOL    HW124242   1.592   2.482   0.553
 7781SOL    HW224243   1.520   2.388   0.664
 7782SOL     OW24244   5.826   3.576   3.970
 7782SOL    HW124245   5.856   3.595   3.876
 7782SOL    HW224246   5.839   3.658   4.026
 7783SOL     OW24247   1.134   6.859   5.170
 7783SOL    HW124248   1.216   6.802   5.171
 7783SOL    HW224249   1.086   6.848   5.083
 7784SOL     OW24250   1.763   2.423   2.365
 7784SOL    HW124251   1.821   2.504   2.370
 7784SOL    HW224252   1.786   2.361   2.440
 7785SOL     OW24253   0.643   6.978   2.434
 7785SOL    HW124254   0.657   6.971   2.533
 7785SOL    HW224255   0.655   6.888   2.392
 7786SOL     OW24256   4.134   0.673   6.423
 7786SOL    HW124257   4.232   0.661   6.408
 7786SOL    HW224258   4.099   0.742   6.360
 7787SOL     OW24259   2.080   2.455   1.262
 7787SOL    HW124260   2.132   2.373   1.238
 7787SOL    HW224261   2.028   2.486   1.182
 7788SOL     OW24262   0.098   4.499   1.462
 7788SOL    HW124263   0.162   4.425   1.484
 7788SOL    HW224264   0.091   4.561   1.540
 7789SOL     OW24265   3.492   2.043   6.219
 7789SOL    HW124266   3.481   2.066   6.315
 7789SOL    HW224267   3.584   2.066   6.188
 7790SOL     OW24268   4.668   4.604   1.722
 7790SOL    HW124269   4.638   4.673   1.657
 7790SOL    HW224270   4.589   4.566   1.770
 7791SOL     OW24271   2.811   5.152   1.890
 7791SOL    HW124272   2.839   5.248   1.879
 7791SOL    HW224273   2.856   5.113   1.970
 7792SOL     OW24274   0.785   1.555   2.461
 7792SOL    HW124275   0.767   1.545   2.559
 7792SOL    HW224276   0.708   1.517   2.409
 7793SOL     OW24277   4.716   0.890   6.185
 7793SOL    HW124278   4.786   0.836   6.233
 7793SOL    HW224279   4.751   0.982   6.167
 7794SOL     OW24280   0.699   6.812   3.123
 7794SOL    HW124281   0.790   6.834   3.159
 7794SOL    HW224282   0.630   6.841   3.188
 7795SOL     OW24283   2.939   5.605   6.693
 7795SOL    HW124284   3.027   5.644   6.722
 7795SOL    HW224285   2.864   5.661   6.728
 7796SOL     OW24286   3.988   3.803   6.464
 7796SOL    HW124287   3.969   3.731   6.530
 7796SOL    HW224288   4.081   3.838   6.479
 7797SOL     OW24289   0.924   6.208   2.458
 7797SOL    HW124290   0.877   6.160   2.384
 7797SOL    HW224291   0.964   6.293   2.424
 7798SOL     OW24292   1.125   3.338   0.810
 7798SOL    HW124293   1.054   3.381   0.753
 7798SOL    HW224294   1.158   3.256   0.764
 7799SOL     OW24295   2.590   5.533   3.225
 7799SOL    HW124296   2.657   5.461   3.206
 7799SOL    HW224297   2.537   5.510   3.306
 7800SOL     OW24298   0.427   6.746   1.958
 7800SOL    HW124299   0.516   6.703   1.972
 7800SOL    HW224300   0.368   6.683   1.906
 7801SOL     OW24301   1.487   2.401   2.466
 7801SOL    HW124302   1.575   2.433   2.430
 7801SOL    HW224303   1.430   2.371   2.390
 7802SOL     OW24304   6.944   3.824   4.380
 7802SOL    HW124305   6.854   3.816   4.337
 7802SOL    HW224306   6.933   3.827   4.479
 7803SOL     OW24307   4.214   3.017   5.461
 7803SOL    HW124308   4.210   2.931   5.411
 7803SOL    HW224309   4.208   2.998   5.560
 7804SOL     OW24310   3.166   1.986   5.235
 7804SOL    HW124311   3.119   2.071   5.258
 7804SOL    HW224312   3.199   1.991   5.140
 7805SOL     OW24313   5.743   3.049   0.812
 7805SOL    HW124314   5.836   3.013   0.820
 7805SOL    HW224315   5.743   3.128   0.751
 7806SOL     OW24316   6.924   2.336   5.660
 7806SOL    HW124317   6.891   2.243   5.673
 7806SOL    HW224318   7.022   2.339   5.674
 7807SOL     OW24319   2.121   4.740   6.309
 7807SOL    HW124320   2.040   4.681   6.310
 7807SOL    HW224321   2.095   4.833   6.335
 7808SOL     OW24322   4.958   3.722   3.009
 7808SOL    HW124323   4.918   3.799   2.960
 7808SOL    HW224324   4.996   3.754   3.096
 7809SOL     OW24325   5.315   4.637   3.307
 7809SOL    HW124326   5.396   4.587   3.275
 7809SOL    HW224327   5.322   4.733   3.278
 7810SOL     OW24328   3.677   6.519   5.422
 7810SOL    HW124329   3.743   6.566   5.364
 7810SOL    HW224330   3.713   6.514   5.515
 7811SOL     OW24331   1.449   5.994   2.814
 7811SOL    HW124332   1.385   5.972   2.740
 7811SOL    HW224333   1.542   6.000   2.776
 7812SOL     OW24334   3.239   1.928   5.926
 7812SOL    HW124335   3.242   1.873   6.009
 7812SOL    HW224336   3.197   2.017   5.945
 7813SOL     OW24337   5.950   0.595   0.446
 7813SOL    HW124338   5.892   0.661   0.399
 7813SOL    HW224339   5.990   0.638   0.527
 7814SOL     OW24340   6.928   3.218   2.095
 7814SOL    HW124341   6.965   3.199   2.004
 7814SOL    HW224342   6.830   3.236   2.088
 7815SOL     OW24343   6.233   3.774   5.298
 7815SOL    HW124344   6.197   3.711   5.229
 7815SOL    HW224345   6.159   3.828   5.337
 7816SOL     OW24346   0.307   0.424   5.395
 7816SOL    HW124347   0.306   0.336   5.347
 7816SOL    HW224348   0.399   0.444   5.428
 7817SOL     OW24349   3.180   3.147   6.729
 7817SOL    HW124350   3.140   3.189   6.648
 7817SOL    HW224351   3.267   3.104   6.705
 7818SOL     OW24352   5.741   1.019   2.497
 7818SOL    HW124353   5.718   0.975   2.584
 7818SOL    HW224354   5.666   1.079   2.470
 7819SOL     OW24355   1.470   3.785   3.863
 7819SOL    HW124356   1.470   3.708   3.927
 7819SOL    HW224357   1.498   3.869   3.911
 7820SOL     OW24358   1.996   6.942   6.030
 7820SOL    HW124359   1.978   6.896   6.117
 7820SOL    HW224360   1.967   6.883   5.955
 7821SOL     OW24361   5.227   5.683   6.508
 7821SOL    HW124362   5.263   5.619   6.576
 7821SOL    HW224363   5.134   5.657   6.484
 7822SOL     OW24364   0.666   0.289   4.664
 7822SOL    HW124365   0.746   0.349   4.657
 7822SOL    HW224366   0.639   0.280   4.760
 7823SOL     OW24367   2.153   3.366   5.518
 7823SOL    HW124368   2.199   3.409   5.595
 7823SOL    HW224369   2.093   3.432   5.473
 7824SOL     OW24370   5.079   2.670   3.291
 7824SOL    HW124371   5.030   2.705   3.212
 7824SOL    HW224372   5.065   2.731   3.369
 7825SOL     OW24373   3.524   3.720   2.587
 7825SOL    HW124374   3.499   3.808   2.548
 7825SOL    HW224375   3.570   3.733   2.675
 7826SOL     OW24376   6.930   0.240   0.902
 7826SOL    HW124377   6.911   0.256   0.805
 7826SOL    HW224378   6.909   0.145   0.925
 7827SOL     OW24379   5.127   4.704   0.643
 7827SOL    HW124380   5.065   4.636   0.680
 7827SOL    HW224381   5.161   4.675   0.554
 7828SOL     OW24382   0.530   5.764   1.002
 7828SOL    HW124383   0.570   5.794   0.916
 7828SOL    HW224384   0.602   5.750   1.070
 7829SOL     OW24385   3.921   3.019   2.114
 7829SOL    HW124386   3.922   3.118   2.125
 7829SOL    HW224387   3.833   2.990   2.077
 7830SOL     OW24388   5.933   3.009   6.799
 7830SOL    HW124389   5.951   3.049   6.889
 7830SOL    HW224390   6.008   3.032   6.736
 7831SOL     OW24391   1.640   2.507   6.954
 7831SOL    HW124392   1.673   2.446   6.883
 7831SOL    HW224393   1.543   2.526   6.940
 7832SOL     OW24394   2.846   2.624   5.554
 7832SOL    HW124395   2.911   2.614   5.478
 7832SOL    HW224396   2.887   2.586   5.637
 7833SOL     OW24397   0.879   6.744   0.697
 7833SOL    HW124398   0.872   6.666   0.759
 7833SOL    HW224399   0.917   6.822   0.746
 7834SOL     OW24400   0.466   0.648   1.177
 7834SOL    HW124401   0.395   0.618   1.114
 7834SOL    HW224402   0.527   0.571   1.198
 7835SOL     OW24403   2.242   2.495   5.195
 7835SOL    HW124404   2.168   2.477   5.129
 7835SOL    HW224405   2.291   2.577   5.169
 7836SOL     OW24406   2.052   6.684   0.314
 7836SOL    HW124407   2.022   6.735   0.395
 7836SOL    HW224408   2.044   6.743   0.233
 7837SOL     OW24409   5.920   0.204   2.604
 7837SOL    HW124410   5.900   0.156   2.519
 7837SOL    HW224411   5.841   0.199   2.665
 7838SOL     OW24412   3.826   0.075   3.945
 7838SOL    HW124413   3.772   0.142   3.994
 7838SOL    HW224414   3.922   0.103   3.943
 7839SOL     OW24415   6.333   4.856   4.180
 7839SOL    HW124416   6.234   4.859   4.191
 7839SOL    HW224417   6.370   4.782   4.237
 7840SOL     OW24418   5.519   3.132   5.321
 7840SOL    HW124419   5.497   3.196   5.395
 7840SOL    HW224420   5.527   3.182   5.235
 7841SOL     OW24421   0.897   1.848   6.407
 7841SOL    HW124422   0.991   1.823   6.382
 7841SOL    HW224423   0.874   1.809   6.496
 7842SOL     OW24424   3.300   0.982   2.814
 7842SOL    HW124425   3.355   1.002   2.894
 7842SOL    HW224426   3.347   0.916   2.756
 7843SOL     OW24427   5.334   3.460   1.005
 7843SOL    HW124428   5.421   3.418   1.033
 7843SOL    HW224429   5.307   3.424   0.916
 7844SOL     OW24430   4.584   1.176   4.097
 7844SOL    HW124431   4.553   1.178   4.002
 7844SOL    HW224432   4.663   1.114   4.106
 7845SOL     OW24433   6.935   1.021   4.497
 7845SOL    HW124434   6.921   0.975   4.410
 7845SOL    HW224435   6.863   1.089   4.512
 7846SOL     OW24436   3.038   6.761   2.469
 7846SOL    HW124437   3.105   6.687   2.467
 7846SOL    HW224438   3.023   6.795   2.377
 7847SOL     OW24439   6.845   0.493   0.176
 7847SOL    HW124440   6.755   0.536   0.174
 7847SOL    HW224441   6.912   0.554   0.133
 7848SOL     OW24442   4.934   4.457   0.967
 7848SOL    HW124443   4.879   4.459   1.050
 7848SOL    HW224444   5.011   4.520   0.976
 7849SOL     OW24445   6.077   3.923   5.003
 7849SOL    HW124446   6.177   3.931   5.003
 7849SOL    HW224447   6.048   3.867   4.926
 7850SOL     OW24448   1.061   0.938   4.465
 7850SOL    HW124449   1.019   0.864   4.519
 7850SOL    HW224450   1.065   0.910   4.369
 7851SOL     OW24451   5.677   6.711   0.166
 7851SOL    HW124452   5.591   6.694   0.118
 7851SOL    HW224453   5.742   6.638   0.145
 7852SOL     OW24454   2.368   5.732   0.103
 7852SOL    HW124455   2.353   5.635   0.082
 7852SOL    HW224456   2.457   5.743   0.147
 7853SOL     OW24457   2.773   3.270   0.548
 7853SOL    HW124458   2.693   3.293   0.603
 7853SOL    HW224459   2.744   3.256   0.453
 7854SOL     OW24460   3.274   4.033   2.739
 7854SOL    HW124461   3.354   4.084   2.706
 7854SOL    HW224462   3.303   3.964   2.805
 7855SOL     OW24463   4.045   6.117   5.969
 7855SOL    HW124464   4.088   6.042   6.020
 7855SOL    HW224465   4.024   6.192   6.032
 7856SOL     OW24466   4.762   3.190   6.246
 7856SOL    HW124467   4.824   3.116   6.222
 7856SOL    HW224468   4.697   3.158   6.314
 7857SOL     OW24469   6.986   1.610   5.264
 7857SOL    HW124470   0.050   1.647   5.235
 7857SOL    HW224471   6.984   1.511   5.249
 7858SOL     OW24472   5.929   4.102   3.276
 7858SOL    HW124473   5.972   4.186   3.242
 7858SOL    HW224474   5.843   4.087   3.228
 7859SOL     OW24475   1.097   5.656   6.994
 7859SOL    HW124476   1.063   5.584   6.933
 7859SOL    HW224477   1.140   5.614   0.050
 7860SOL     OW24478   4.136   0.035   2.199
 7860SOL    HW124479   4.232   0.059   2.214
 7860SOL    HW224480   4.104   0.077   2.114
 7861SOL     OW24481   5.087   4.249   0.587
 7861SOL    HW124482   5.176   4.218   0.619
 7861SOL    HW224483   5.068   4.209   0.497
 7862SOL     OW24484   3.085   4.664   1.717
 7862SOL    HW124485   3.042   4.753   1.730
 7862SOL    HW224486   3.039   4.595   1.773
 7863SOL     OW24487   6.977   5.862   1.968
 7863SOL    HW124488   7.016   5.810   1.892
 7863SOL    HW224489   0.025   5.913   2.014
 7864SOL     OW24490   0.442   5.465   4.896
 7864SOL    HW124491   0.441   5.553   4.849
 7864SOL    HW224492   0.423   5.392   4.831
 7865SOL     OW24493   3.378   7.010   3.142
 7865SOL    HW124494   3.380   0.030   3.233
 7865SOL    HW224495   3.290   0.005   3.099
 7866SOL     OW24496   2.916   2.239   4.223
 7866SOL    HW124497   2.989   2.183   4.262
 7866SOL    HW224498   2.921   2.238   4.124
 7867SOL     OW24499   5.642   4.131   2.170
 7867SOL    HW124500   5.614   4.218   2.129
 7867SOL    HW224501   5.562   4.083   2.205
 7868SOL     OW24502   5.095   0.026   0.970
 7868SOL    HW124503   5.035   7.004   0.904
 7868SOL    HW224504   5.057   0.116   0.992
 7869SOL     OW24505   0.423   3.234   1.912
 7869SOL    HW124506   0.344   3.246   1.972
 7869SOL    HW224507   0.427   3.309   1.847
 7870SOL     OW24508   0.049   6.079   3.994
 7870SOL    HW124509   6.984   6.079   3.947
 7870SOL    HW224510   0.035   6.066   4.092
 7871SOL     OW24511   5.368   2.682   3.045
 7871SOL    HW124512   5.325   2.772   3.046
 7871SOL    HW224513   5.332   2.628   2.969
 7872SOL     OW24514   6.622   3.140   3.306
 7872SOL    HW124515   6.680   3.206   3.259
 7872SOL    HW224516   6.534   3.182   3.327
 7873SOL     OW24517   0.108   4.872   5.312
 7873SOL    HW124518   0.170   4.941   5.276
 7873SOL    HW224519   0.058   4.910   5.390
 7874SOL     OW24520   5.601   1.182   0.397
 7874SOL    HW124521   5.687   1.219   0.361
 7874SOL    HW224522   5.529   1.192   0.328
 7875SOL     OW24523   4.463   2.899   6.822
 7875SOL    HW124524   4.489   2.805   6.843
 7875SOL    HW224525   4.544   2.957   6.823
 7876SOL     OW24526   6.636   0.755   4.134
 7876SOL    HW124527   6.654   0.708   4.047
 7876SOL    HW224528   6.600   0.847   4.115
 7877SOL     OW24529   0.379   2.158   2.595
 7877SOL    HW124530   0.379   2.186   2.499
 7877SOL    HW224531   0.391   2.059   2.600
 7878SOL     OW24532   4.892   4.030   1.743
 7878SOL    HW124533   4.851   4.120   1.760
 7878SOL    HW224534   4.931   4.029   1.651
 7879SOL     OW24535   5.119   0.409   3.956
 7879SOL    HW124536   5.131   0.342   4.029
 7879SOL    HW224537   5.198   0.469   3.952
 7880SOL     OW24538   0.439   0.157   6.595
 7880SOL    HW124539   0.421   0.131   6.689
 7880SOL    HW224540   0.446   0.257   6.588
 7881SOL     OW24541   0.073   4.992   3.970
 7881SOL    HW124542   0.151   4.933   3.992
 7881SOL    HW224543   0.090   5.040   3.885
 7882SOL     OW24544   0.010   3.973   2.290
 7882SOL    HW124545   6.973   4.052   2.286
 7882SOL    HW224546   0.009   3.924   2.203
 7883SOL     OW24547   3.421   1.564   4.251
 7883SOL    HW124548   3.468   1.651   4.264
 7883SOL    HW224549   3.460   1.515   4.173
 7884SOL     OW24550   0.128   3.708   4.025
 7884SOL    HW124551   0.134   3.689   4.124
 7884SOL    HW224552   0.217   3.690   3.983
 7885SOL     OW24553   5.965   5.445   3.042
 7885SOL    HW124554   5.982   5.543   3.058
 7885SOL    HW224555   6.035   5.409   2.980
 7886SOL     OW24556   4.896   3.040   2.898
 7886SOL    HW124557   4.813   3.025   2.844
 7886SOL    HW224558   4.947   3.117   2.860
 7887SOL     OW24559   2.233   3.258   0.980
 7887SOL    HW124560   2.254   3.327   0.911
 7887SOL    HW224561   2.140   3.224   0.966
 7888SOL     OW24562   5.713   2.342   4.473
 7888SOL    HW124563   5.653   2.363   4.395
 7888SOL    HW224564   5.696   2.408   4.546
 7889SOL     OW24565   5.904   5.668   0.256
 7889SOL    HW124566   5.899   5.574   0.290
 7889SOL    HW224567   5.831   5.722   0.298
 7890SOL     OW24568   1.090   3.484   4.616
 7890SOL    HW124569   1.007   3.472   4.670
 7890SOL    HW224570   1.162   3.523   4.674
 7891SOL     OW24571   0.635   1.412   4.506
 7891SOL    HW124572   0.541   1.388   4.531
 7891SOL    HW224573   0.699   1.369   4.570
 7892SOL     OW24574   0.511   2.620   5.728
 7892SOL    HW124575   0.423   2.642   5.685
 7892SOL    HW224576   0.581   2.683   5.694
 7893SOL     OW24577   6.278   0.645   0.301
 7893SOL    HW124578   6.232   0.727   0.334
 7893SOL    HW224579   6.309   0.590   0.378
 7894SOL     OW24580   3.361   1.576   6.070
 7894SOL    HW124581   3.418   1.504   6.109
 7894SOL    HW224582   3.333   1.550   5.977
 7895SOL     OW24583   4.394   6.677   4.041
 7895SOL    HW124584   4.336   6.600   4.014
 7895SOL    HW224585   4.344   6.735   4.106
 7896SOL     OW24586   2.959   2.092   1.073
 7896SOL    HW124587   2.946   2.106   0.975
 7896SOL    HW224588   3.056   2.102   1.095
 7897SOL     OW24589   3.747   3.540   0.275
 7897SOL    HW124590   3.726   3.462   0.216
 7897SOL    HW224591   3.662   3.583   0.304
 7898SOL     OW24592   5.242   0.289   3.733
 7898SOL    HW124593   5.293   0.357   3.682
 7898SOL    HW224594   5.175   0.334   3.791
 7899SOL     OW24595   5.871   4.239   2.499
 7899SOL    HW124596   5.956   4.267   2.544
 7899SOL    HW224597   5.804   4.214   2.568
 7900SOL     OW24598   0.669   4.187   1.292
 7900SOL    HW124599   0.644   4.176   1.196
 7900SOL    HW224600   0.587   4.174   1.349
 7901SOL     OW24601   6.253   1.263   5.999
 7901SOL    HW124602   6.207   1.253   6.087
 7901SOL    HW224603   6.297   1.176   5.975
 7902SOL     OW24604   0.757   6.583   3.423
 7902SOL    HW124605   0.818   6.609   3.348
 7902SOL    HW224606   0.775   6.489   3.450
 7903SOL     OW24607   2.863   2.366   5.222
 7903SOL    HW124608   2.870   2.452   5.272
 7903SOL    HW224609   2.833   2.385   5.128
 7904SOL     OW24610   4.890   1.217   2.378
 7904SOL    HW124611   4.913   1.296   2.435
 7904SOL    HW224612   4.964   1.201   2.312
 7905SOL     OW24613   5.831   0.970   0.729
 7905SOL    HW124614   5.776   0.994   0.649
 7905SOL    HW224615   5.916   0.927   0.700
 7906SOL     OW24616   2.078   5.288   0.755
 7906SOL    HW124617   2.119   5.356   0.815
 7906SOL    HW224618   2.060   5.330   0.666
 7907SOL     OW24619   6.401   0.288   2.788
 7907SOL    HW124620   6.437   0.372   2.748
 7907SOL    HW224621   6.376   0.304   2.883
 7908SOL     OW24622   0.466   0.209   6.910
 7908SOL    HW124623   0.411   0.287   6.883
 7908SOL    HW224624   0.516   0.231   6.994
 7909SOL     OW24625   5.819   4.333   1.898
 7909SOL    HW124626   5.725   4.313   1.926
 7909SOL    HW224627   5.819   4.377   1.808
 7910SOL     OW24628   1.536   3.324   0.489
 7910SOL    HW124629   1.602   3.392   0.456
 7910SOL    HW224630   1.447   3.342   0.447
 7911SOL     OW24631   0.599   4.073   1.041
 7911SOL    HW124632   0.678   4.012   1.048
 7911SOL    HW224633   0.515   4.022   1.059
 7912SOL     OW24634   5.712   5.958   0.716
 7912SOL    HW124635   5.617   5.963   0.749
 7912SOL    HW224636   5.712   5.919   0.624
 7913SOL     OW24637   0.687   3.700   0.974
 7913SOL    HW124638   0.722   3.767   1.039
 7913SOL    HW224639   0.647   3.622   1.024
 7914SOL     OW24640   6.588   5.437   4.771
 7914SOL    HW124641   6.666   5.500   4.771
 7914SOL    HW224642   6.561   5.417   4.677
 7915SOL     OW24643   3.807   6.318   2.756
 7915SOL    HW124644   3.878   6.309   2.686
 7915SOL    HW224645   3.797   6.231   2.804
 7916SOL     OW24646   1.762   0.722   4.365
 7916SOL    HW124647   1.717   0.668   4.294
 7916SOL    HW224648   1.802   0.804   4.324
 7917SOL     OW24649   4.045   3.674   1.142
 7917SOL    HW124650   4.033   3.693   1.239
 7917SOL    HW224651   4.054   3.575   1.128
 7918SOL     OW24652   2.117   1.748   4.669
 7918SOL    HW124653   2.100   1.674   4.734
 7918SOL    HW224654   2.139   1.832   4.719
 7919SOL     OW24655   1.697   5.957   2.687
 7919SOL    HW124656   1.755   5.876   2.698
 7919SOL    HW224657   1.753   6.034   2.657
 7920SOL     OW24658   5.049   0.532   0.960
 7920SOL    HW124659   5.109   0.470   0.911
 7920SOL    HW224660   5.048   0.621   0.913
 7921SOL     OW24661   5.000   1.626   2.018
 7921SOL    HW124662   5.069   1.690   1.985
 7921SOL    HW224663   4.941   1.671   2.084
 7922SOL     OW24664   0.845   5.813   1.466
 7922SOL    HW124665   0.847   5.913   1.462
 7922SOL    HW224666   0.890   5.783   1.550
 7923SOL     OW24667   4.437   2.014   0.488
 7923SOL    HW124668   4.369   2.046   0.422
 7923SOL    HW224669   4.504   1.956   0.441
 7924SOL     OW24670   6.578   6.990   0.717
 7924SOL    HW124671   6.502   0.029   0.736
 7924SOL    HW224672   6.604   6.943   0.801
 7925SOL     OW24673   1.777   6.409   0.311
 7925SOL    HW124674   1.872   6.379   0.304
 7925SOL    HW224675   1.763   6.456   0.398
 7926SOL     OW24676   4.331   5.527   6.887
 7926SOL    HW124677   4.361   5.609   6.935
 7926SOL    HW224678   4.390   5.511   6.808
 7927SOL     OW24679   4.828   0.584   1.806
 7927SOL    HW124680   4.768   0.533   1.744
 7927SOL    HW224681   4.785   0.592   1.896
 7928SOL     OW24682   6.864   1.271   3.546
 7928SOL    HW124683   6.788   1.225   3.499
 7928SOL    HW224684   6.871   1.365   3.513
 7929SOL     OW24685   3.437   4.858   5.713
 7929SOL    HW124686   3.384   4.783   5.672
 7929SOL    HW224687   3.384   4.899   5.787
 7930SOL     OW24688   4.402   6.026   5.735
 7930SOL    HW124689   4.479   6.023   5.799
 7930SOL    HW224690   4.343   6.103   5.758
 7931SOL     OW24691   3.849   2.409   0.577
 7931SOL    HW124692   3.757   2.369   0.582
 7931SOL    HW224693   3.877   2.437   0.669
 7932SOL     OW24694   1.593   5.640   2.622
 7932SOL    HW124695   1.686   5.674   2.609
 7932SOL    HW224696   1.528   5.716   2.611
 7933SOL     OW24697   0.555   0.762   6.351
 7933SOL    HW124698   0.485   0.709   6.400
 7933SOL    HW224699   0.645   0.743   6.392
 7934SOL     OW24700   0.915   4.631   0.875
 7934SOL    HW124701   0.954   4.571   0.805
 7934SOL    HW224702   0.883   4.715   0.831
 7935SOL     OW24703   4.790   2.941   3.636
 7935SOL    HW124704   4.723   2.910   3.568
 7935SOL    HW224705   4.785   3.040   3.645
 7936SOL     OW24706   2.895   6.330   4.188
 7936SOL    HW124707   2.869   6.350   4.283
 7936SOL    HW224708   2.949   6.406   4.152
 7937SOL     OW24709   3.481   0.368   0.071
 7937SOL    HW124710   3.474   0.434   0.145
 7937SOL    HW224711   3.534   0.407   7.020
 7938SOL     OW24712   3.634   6.702   4.399
 7938SOL    HW124713   3.652   6.681   4.302
 7938SOL    HW224714   3.536   6.698   4.416
 7939SOL     OW24715   0.237   1.581   3.924
 7939SOL    HW124716   0.190   1.493   3.923
 7939SOL    HW224717   0.262   1.604   4.018
 7940SOL     OW24718   4.988   1.055   3.183
 7940SOL    HW124719   5.031   0.974   3.144
 7940SOL    HW224720   4.942   1.029   3.269
 7941SOL     OW24721   3.877   6.696   1.893
 7941SOL    HW124722   3.801   6.756   1.870
 7941SOL    HW224723   3.932   6.737   1.965
 7942SOL     OW24724   1.398   4.653   1.503
 7942SOL    HW124725   1.347   4.688   1.582
 7942SOL    HW224726   1.352   4.572   1.467
 7943SOL     OW24727   1.479   5.855   6.288
 7943SOL    HW124728   1.464   5.804   6.372
 7943SOL    HW224729   1.430   5.941   6.291
 7944SOL     OW24730   1.907   2.900   0.907
 7944SOL    HW124731   1.820   2.910   0.858
 7944SOL    HW224732   1.897   2.829   0.977
 7945SOL     OW24733   5.747   4.590   2.648
 7945SOL    HW124734   5.785   4.521   2.587
 7945SOL    HW224735   5.670   4.636   2.603
 7946SOL     OW24736   4.038   1.384   5.899
 7946SOL    HW124737   3.939   1.377   5.884
 7946SOL    HW224738   4.061   1.351   5.990
 7947SOL     OW24739   0.725   3.356   5.540
 7947SOL    HW124740   0.704   3.261   5.562
 7947SOL    HW224741   0.818   3.378   5.569
 7948SOL     OW24742   0.979   4.666   2.074
 7948SOL    HW124743   1.009   4.604   2.146
 7948SOL    HW224744   0.880   4.679   2.080
 7949SOL     OW24745   3.371   5.333   6.202
 7949SOL    HW124746   3.354   5.243   6.162
 7949SOL    HW224747   3.287   5.367   6.245
 7950SOL     OW24748   5.265   5.420   5.271
 7950SOL    HW124749   5.244   5.362   5.350
 7950SOL    HW224750   5.184   5.470   5.244
 7951SOL     OW24751   2.757   5.318   3.209
 7951SOL    HW124752   2.795   5.228   3.185
 7951SOL    HW224753   2.712   5.312   3.298
 7952SOL     OW24754   5.123   3.253   6.777
 7952SOL    HW124755   5.218   3.265   6.749
 7952SOL    HW224756   5.069   3.332   6.748
 7953SOL     OW24757   2.456   0.848   0.807
 7953SOL    HW124758   2.417   0.875   0.895
 7953SOL    HW224759   2.494   0.928   0.761
 7954SOL     OW24760   3.507   3.192   6.684
 7954SOL    HW124761   3.568   3.123   6.646
 7954SOL    HW224762   3.478   3.255   6.612
 7955SOL     OW24763   1.929   1.304   6.935
 7955SOL    HW124764   1.915   1.242   6.858
 7955SOL    HW224765   2.023   1.295   6.968
 7956SOL     OW24766   6.356   6.281   1.040
 7956SOL    HW124767   6.404   6.215   0.982
 7956SOL    HW224768   6.258   6.273   1.025
 7957SOL     OW24769   4.415   0.625   5.337
 7957SOL    HW124770   4.481   0.555   5.308
 7957SOL    HW224771   4.464   0.711   5.354
 7958SOL     OW24772   5.744   2.526   0.482
 7958SOL    HW124773   5.708   2.531   0.575
 7958SOL    HW224774   5.778   2.433   0.465
 7959SOL     OW24775   5.603   1.553   6.283
 7959SOL    HW124776   5.660   1.607   6.221
 7959SOL    HW224777   5.506   1.571   6.263
 7960SOL     OW24778   0.745   0.130   5.758
 7960SOL    HW124779   0.738   0.056   5.692
 7960SOL    HW224780   0.671   0.195   5.743
 7961SOL     OW24781   7.001   6.935   0.447
 7961SOL    HW124782   6.902   6.917   0.449
 7961SOL    HW224783   0.006   6.952   0.353
 7962SOL     OW24784   5.686   7.003   5.990
 7962SOL    HW124785   5.618   6.932   6.007
 7962SOL    HW224786   5.764   6.991   6.053
 7963SOL     OW24787   0.143   5.136   4.755
 7963SOL    HW124788   0.074   5.099   4.694
 7963SOL    HW224789   0.101   5.164   4.841
 7964SOL     OW24790   6.056   3.814   2.746
 7964SOL    HW124791   6.052   3.778   2.839
 7964SOL    HW224792   6.104   3.902   2.746
 7965SOL     OW24793   3.987   2.326   6.479
 7965SOL    HW124794   3.936   2.244   6.505
 7965SOL    HW224795   3.979   2.394   6.553
 7966SOL     OW24796   4.828   3.863   5.156
 7966SOL    HW124797   4.785   3.880   5.245
 7966SOL    HW224798   4.813   3.768   5.129
 7967SOL     OW24799   1.479   4.221   2.380
 7967SOL    HW124800   1.497   4.241   2.476
 7967SOL    HW224801   1.384   4.191   2.370
 7968SOL     OW24802   6.666   2.625   4.366
 7968SOL    HW124803   6.630   2.561   4.299
 7968SOL    HW224804   6.732   2.686   4.322
 7969SOL     OW24805   4.549   5.308   0.100
 7969SOL    HW124806   4.556   5.408   0.099
 7969SOL    HW224807   4.460   5.280   0.065
 7970SOL     OW24808   5.748   3.146   2.513
 7970SOL    HW124809   5.829   3.190   2.473
 7970SOL    HW224810   5.767   3.049   2.528
 7971SOL     OW24811   2.513   0.763   6.917
 7971SOL    HW124812   2.501   0.837   6.982
 7971SOL    HW224813   2.545   0.681   6.965
 7972SOL     OW24814   3.851   3.549   2.703
 7972SOL    HW124815   3.890   3.535   2.794
 7972SOL    HW224816   3.789   3.474   2.681
 7973SOL     OW24817   6.740   3.586   2.730
 7973SOL    HW124818   6.760   3.683   2.720
 7973SOL    HW224819   6.687   3.555   2.651
 7974SOL     OW24820   6.543   2.256   6.022
 7974SOL    HW124821   6.500   2.195   5.955
 7974SOL    HW224822   6.492   2.252   6.108
 7975SOL     OW24823   5.065   0.488   1.243
 7975SOL    HW124824   5.072   0.538   1.156
 7975SOL    HW224825   5.132   0.523   1.307
 7976SOL     OW24826   0.693   7.022   6.605
 7976SOL    HW124827   0.601   0.028   6.631
 7976SOL    HW224828   0.759   0.068   6.633
 7977SOL     OW24829   5.840   5.943   2.276
 7977SOL    HW124830   5.817   5.847   2.256
 7977SOL    HW224831   5.787   5.974   2.356
 7978SOL     OW24832   0.172   4.154   0.947
 7978SOL    HW124833   0.244   4.223   0.947
 7978SOL    HW224834   0.092   4.189   0.898
 7979SOL     OW24835   1.355   2.951   4.882
 7979SOL    HW124836   1.314   3.041   4.897
 7979SOL    HW224837   1.423   2.956   4.810
 7980SOL     OW24838   4.090   5.630   6.804
 7980SOL    HW124839   4.168   5.568   6.814
 7980SOL    HW224840   4.027   5.594   6.735
 7981SOL     OW24841   1.392   4.190   3.261
 7981SOL    HW124842   1.323   4.181   3.190
 7981SOL    HW224843   1.470   4.130   3.240
 7982SOL     OW24844   6.886   1.840   5.393
 7982SOL    HW124845   6.849   1.815   5.482
 7982SOL    HW224846   6.936   1.763   5.355
 7983SOL     OW24847   4.650   1.501   2.260
 7983SOL    HW124848   4.627   1.414   2.304
 7983SOL    HW224849   4.632   1.494   2.162
 7984SOL     OW24850   0.668   1.810   2.349
 7984SOL    HW124851   0.666   1.760   2.263
 7984SOL    HW224852   0.739   1.772   2.408
 7985SOL     OW24853   2.688   2.007   5.461
 7985SOL    HW124854   2.676   2.104   5.480
 7985SOL    HW224855   2.783   1.981   5.477
 7986SOL     OW24856   2.767   1.247   3.811
 7986SOL    HW124857   2.859   1.242   3.848
 7986SOL    HW224858   2.759   1.188   3.731
 7987SOL     OW24859   1.270   3.361   0.393
 7987SOL    HW124860   1.214   3.350   0.475
 7987SOL    HW224861   1.282   3.272   0.349
 7988SOL     OW24862   0.368   1.318   0.401
 7988SOL    HW124863   0.378   1.221   0.378
 7988SOL    HW224864   0.296   1.329   0.470
 7989SOL     OW24865   0.621   4.953   0.150
 7989SOL    HW124866   0.601   4.900   0.067
 7989SOL    HW224867   0.686   4.903   0.207
 7990SOL     OW24868   3.135   5.451   5.371
 7990SOL    HW124869   3.158   5.521   5.303
 7990SOL    HW224870   3.105   5.368   5.325
 7991SOL     OW24871   6.208   1.935   4.778
 7991SOL    HW124872   6.134   1.933   4.711
 7991SOL    HW224873   6.292   1.902   4.735
 7992SOL     OW24874   2.739   0.399   0.702
 7992SOL    HW124875   2.665   0.462   0.729
 7992SOL    HW224876   2.827   0.439   0.728
 7993SOL     OW24877   6.848   5.990   0.749
 7993SOL    HW124878   6.839   6.086   0.778
 7993SOL    HW224879   6.762   5.960   0.707
 7994SOL     OW24880   5.466   0.319   3.020
 7994SOL    HW124881   5.473   0.365   3.109
 7994SOL    HW224882   5.511   0.374   2.950
 7995SOL     OW24883   6.970   4.300   1.292
 7995SOL    HW124884   7.021   4.369   1.344
 7995SOL    HW224885   0.007   4.222   1.274
 7996SOL     OW24886   3.427   0.975   2.454
 7996SOL    HW124887   3.501   0.990   2.389
 7996SOL    HW224888   3.428   1.047   2.523
 7997SOL     OW24889   0.453   2.527   0.339
 7997SOL    HW124890   0.392   2.593   0.296
 7997SOL    HW224891   0.491   2.467   0.268
 7998SOL     OW24892   2.343   1.104   0.561
 7998SOL    HW124893   2.435   1.126   0.594
 7998SOL    HW224894   2.293   1.053   0.631
 7999SOL     OW24895   0.688   0.579   4.905
 7999SOL    HW124896   0.784   0.584   4.877
 7999SOL    HW224897   0.665   0.660   4.959
 8000SOL     OW24898   5.177   5.538   6.938
 8000SOL    HW124899   5.219   5.508   6.853
 8000SOL    HW224900   5.236   5.604   6.984
 8001SOL     OW24901   4.942   6.574   1.131
 8001SOL    HW124902   4.852   6.549   1.096
 8001SOL    HW224903   5.008   6.577   1.056
 8002SOL     OW24904   1.011   6.722   5.403
 8002SOL    HW124905   0.926   6.677   5.375
 8002SOL    HW224906   1.072   6.730   5.325
 8003SOL     OW24907   2.693   6.652   2.682
 8003SOL    HW124908   2.740   6.642   2.770
 8003SOL    HW224909   2.707   6.744   2.646
 8004SOL     OW24910   1.182   3.084   3.898
 8004SOL    HW124911   1.227   3.002   3.933
 8004SOL    HW224912   1.213   3.101   3.805
 8005SOL     OW24913   2.710   0.706   3.538
 8005SOL    HW124914   2.665   0.617   3.539
 8005SOL    HW224915   2.662   0.767   3.474
 8006SOL     OW24916   3.306   4.843   5.186
 8006SOL    HW124917   3.298   4.851   5.086
 8006SOL    HW224918   3.389   4.792   5.208
 8007SOL     OW24919   6.224   0.744   6.674
 8007SOL    HW124920   6.140   0.691   6.657
 8007SOL    HW224921   6.296   0.713   6.613
 8008SOL     OW24922   5.176   6.935   5.818
 8008SOL    HW124923   5.160   6.899   5.725
 8008SOL    HW224924   5.214   6.863   5.875
 8009SOL     OW24925   4.960   1.257   6.933
 8009SOL    HW124926   5.016   1.331   6.897
 8009SOL    HW224927   5.013   1.172   6.932
 8010SOL     OW24928   2.704   2.274   5.473
 8010SOL    HW124929   2.653   2.348   5.517
 8010SOL    HW224930   2.702   2.287   5.374
 8011SOL     OW24931   4.101   1.865   2.390
 8011SOL    HW124932   4.193   1.825   2.381
 8011SOL    HW224933   4.039   1.821   2.325
 8012SOL     OW24934   0.789   2.612   5.452
 8012SOL    HW124935   0.857   2.682   5.474
 8012SOL    HW224936   0.729   2.644   5.379
 8013SOL     OW24937   2.494   2.546   2.695
 8013SOL    HW124938   2.526   2.576   2.785
 8013SOL    HW224939   2.564   2.491   2.651
 8014SOL     OW24940   1.732   1.186   2.707
 8014SOL    HW124941   1.706   1.104   2.758
 8014SOL    HW224942   1.778   1.159   2.623
 8015SOL     OW24943   2.179   6.880   5.491
 8015SOL    HW124944   2.238   6.933   5.551
 8015SOL    HW224945   2.146   6.798   5.539
 8016SOL     OW24946   4.701   1.465   4.885
 8016SOL    HW124947   4.642   1.532   4.930
 8016SOL    HW224948   4.654   1.428   4.805
 8017SOL     OW24949   6.819   0.016   1.011
 8017SOL    HW124950   6.721   0.017   1.030
 8017SOL    HW224951   6.860   6.958   1.052
 8018SOL     OW24952   4.249   2.412   0.220
 8018SOL    HW124953   4.249   2.330   0.164
 8018SOL    HW224954   4.161   2.459   0.213
 8019SOL     OW24955   2.441   2.904   1.327
 8019SOL    HW124956   2.377   2.959   1.274
 8019SOL    HW224957   2.516   2.874   1.268
 8020SOL     OW24958   0.273   0.235   5.196
 8020SOL    HW124959   0.182   0.200   5.219
 8020SOL    HW224960   0.275   0.264   5.100
 8021SOL     OW24961   1.277   2.610   2.431
 8021SOL    HW124962   1.314   2.518   2.437
 8021SOL    HW224963   1.207   2.614   2.360
 8022SOL     OW24964   4.273   1.527   1.757
 8022SOL    HW124965   4.254   1.602   1.693
 8022SOL    HW224966   4.324   1.563   1.835
 8023SOL     OW24967   4.437   6.104   3.278
 8023SOL    HW124968   4.441   6.203   3.266
 8023SOL    HW224969   4.500   6.076   3.350
 8024SOL     OW24970   2.191   6.833   6.583
 8024SOL    HW124971   2.131   6.866   6.510
 8024SOL    HW224972   2.259   6.903   6.605
 8025SOL     OW24973   1.725   5.014   1.456
 8025SOL    HW124974   1.646   4.954   1.445
 8025SOL    HW224975   1.801   4.963   1.495
 8026SOL     OW24976   1.011   5.916   6.652
 8026SOL    HW124977   0.962   5.892   6.736
 8026SOL    HW224978   1.010   5.838   6.590
 8027SOL     OW24979   3.456   7.022   0.034
 8027SOL    HW124980   3.417   6.935   0.004
 8027SOL    HW224981   3.426   0.071   6.995
 8028SOL     OW24982   3.029   5.626   5.091
 8028SOL    HW124983   3.109   5.571   5.067
 8028SOL    HW224984   2.954   5.566   5.120
 8029SOL     OW24985   6.330   0.097   0.727
 8029SOL    HW124986   6.307   0.082   0.631
 8029SOL    HW224987   6.275   0.172   0.763
 8030SOL     OW24988   0.447   4.108   0.562
 8030SOL    HW124989   0.425   4.158   0.646
 8030SOL    HW224990   0.377   4.038   0.545
 8031SOL     OW24991   6.646   1.343   2.657
 8031SOL    HW124992   6.674   1.371   2.749
 8031SOL    HW224993   6.701   1.265   2.628
 8032SOL     OW24994   5.385   3.021   1.479
 8032SOL    HW124995   5.309   3.020   1.544
 8032SOL    HW224996   5.471   3.024   1.529
 8033SOL     OW24997   4.320   3.729   0.795
 8033SOL    HW124998   4.233   3.739   0.747
 8033SOL    HW224999   4.350   3.633   0.790
 8034SOL     OW25000   5.538   0.380   5.396
 8034SOL    HW125001   5.532   0.479   5.404
 8034SOL    HW225002   5.446   0.341   5.394
 8035SOL     OW25003   5.687   2.045   2.691
 8035SOL    HW125004   5.613   2.080   2.749
 8035SOL    HW225005   5.775   2.068   2.733
 8036SOL     OW25006   6.149   2.601   3.609
 8036SOL    HW125007   6.238   2.594   3.564
 8036SOL    HW225008   6.077   2.608   3.541
 8037SOL     OW25009   1.427   2.460   5.946
 8037SOL    HW125010   1.483   2.415   5.876
 8037SOL    HW225011   1.376   2.536   5.904
 8038SOL     OW25012   0.204   5.584   2.878
 8038SOL    HW125013   0.149   5.559   2.798
 8038SOL    HW225014   0.264   5.660   2.855
 8039SOL     OW25015   1.006   2.359   5.373
 8039SOL    HW125016   0.927   2.396   5.323
 8039SOL    HW225017   1.079   2.337   5.307
 8040SOL     OW25018   2.308   6.011   5.900
 8040SOL    HW125019   2.365   6.074   5.952
 8040SOL    HW225020   2.366   5.941   5.858
 8041SOL     OW25021   3.369   1.401   3.206
 8041SOL    HW125022   3.321   1.350   3.135
 8041SOL    HW225023   3.384   1.495   3.176
 8042SOL     OW25024   4.053   4.257   5.556
 8042SOL    HW125025   4.035   4.335   5.495
 8042SOL    HW225026   3.969   4.203   5.566
 8043SOL     OW25027   5.436   5.007   0.312
 8043SOL    HW125028   5.370   5.019   0.386
 8043SOL    HW225029   5.471   5.096   0.285
 8044SOL     OW25030   3.254   4.065   1.443
 8044SOL    HW125031   3.331   4.065   1.507
 8044SOL    HW225032   3.274   4.002   1.368
 8045SOL     OW25033   0.497   1.386   2.684
 8045SOL    HW125034   0.501   1.404   2.782
 8045SOL    HW225035   0.420   1.326   2.664
 8046SOL     OW25036   0.873   5.361   1.972
 8046SOL    HW125037   0.911   5.279   2.015
 8046SOL    HW225038   0.824   5.415   2.040
 8047SOL     OW25039   3.619   6.809   6.294
 8047SOL    HW125040   3.598   6.810   6.197
 8047SOL    HW225041   3.548   6.858   6.344
 8048SOL     OW25042   3.737   3.085   0.148
 8048SOL    HW125043   3.829   3.077   0.188
 8048SOL    HW225044   3.669   3.079   0.220
 8049SOL     OW25045   1.743   1.198   0.842
 8049SOL    HW125046   1.724   1.238   0.753
 8049SOL    HW225047   1.825   1.240   0.881
 8050SOL     OW25048   0.974   4.530   5.888
 8050SOL    HW125049   0.938   4.484   5.969
 8050SOL    HW225050   1.016   4.464   5.827
 8051SOL     OW25051   3.475   5.524   4.045
 8051SOL    HW125052   3.509   5.618   4.047
 8051SOL    HW225053   3.447   5.496   4.136
 8052SOL     OW25054   2.238   2.810   2.318
 8052SOL    HW125055   2.245   2.799   2.417
 8052SOL    HW225056   2.306   2.751   2.273
 8053SOL     OW25057   2.622   2.906   6.385
 8053SOL    HW125058   2.547   2.865   6.333
 8053SOL    HW225059   2.610   2.887   6.483
 8054SOL     OW25060   5.106   3.849   5.116
 8054SOL    HW125061   5.029   3.802   5.073
 8054SOL    HW225062   5.083   3.945   5.129
 8055SOL     OW25063   7.004   0.273   5.619
 8055SOL    HW125064   0.071   0.302   5.648
 8055SOL    HW225065   6.984   0.311   5.529
 8056SOL     OW25066   2.302   1.172   4.590
 8056SOL    HW125067   2.232   1.185   4.660
 8056SOL    HW225068   2.359   1.255   4.586
 8057SOL     OW25069   2.549   2.436   2.215
 8057SOL    HW125070   2.634   2.436   2.268
 8057SOL    HW225071   2.571   2.431   2.117
 8058SOL     OW25072   3.079   6.709   2.984
 8058SOL    HW125073   3.129   6.678   3.065
 8058SOL    HW225074   3.112   6.659   2.903
 8059SOL     OW25075   2.741   3.151   6.291
 8059SOL    HW125076   2.719   3.059   6.321
 8059SOL    HW225077   2.769   3.206   6.370
 8060SOL     OW25078   6.432   7.006   5.704
 8060SOL    HW125079   6.524   6.980   5.733
 8060SOL    HW225080   6.435   0.018   5.611
 8061SOL     OW25081   0.047   1.057   1.957
 8061SOL    HW125082   0.061   0.991   2.031
 8061SOL    HW225083   6.994   1.117   1.980
 8062SOL     OW25084   4.613   5.896   5.570
 8062SOL    HW125085   4.607   5.996   5.562
 8062SOL    HW225086   4.581   5.869   5.661
 8063SOL     OW25087   3.573   6.092   3.002
 8063SOL    HW125088   3.579   6.084   3.102
 8063SOL    HW225089   3.499   6.034   2.969
 8064SOL     OW25090   5.621   2.030   0.653
 8064SOL    HW125091   5.660   2.053   0.564
 8064SOL    HW225092   5.606   1.932   0.659
 8065SOL     OW25093   2.915   5.769   5.688
 8065SOL    HW125094   2.818   5.751   5.706
 8065SOL    HW225095   2.925   5.856   5.641
 8066SOL     OW25096   0.413   0.207   4.550
 8066SOL    HW125097   0.506   0.225   4.584
 8066SOL    HW225098   0.403   0.109   4.531
 8067SOL     OW25099   4.867   3.200   3.697
 8067SOL    HW125100   4.864   3.229   3.793
 8067SOL    HW225101   4.894   3.277   3.640
 8068SOL     OW25102   6.401   4.136   1.219
 8068SOL    HW125103   6.328   4.137   1.151
 8068SOL    HW225104   6.379   4.201   1.292
 8069SOL     OW25105   2.648   4.729   2.474
 8069SOL    HW125106   2.644   4.710   2.376
 8069SOL    HW225107   2.742   4.750   2.500
 8070SOL     OW25108   5.036   5.002   6.782
 8070SOL    HW125109   4.964   4.986   6.850
 8070SOL    HW225110   5.010   4.960   6.695
 8071SOL     OW25111   2.878   6.970   5.588
 8071SOL    HW125112   2.796   0.001   5.607
 8071SOL    HW225113   2.942   6.978   5.665
 8072SOL     OW25114   1.940   2.703   6.295
 8072SOL    HW125115   1.881   2.783   6.286
 8072SOL    HW225116   1.992   2.709   6.380
 8073SOL     OW25117   3.427   0.106   6.773
 8073SOL    HW125118   3.492   0.036   6.743
 8073SOL    HW225119   3.336   0.084   6.740
 8074SOL     OW25120   1.536   1.345   6.733
 8074SOL    HW125121   1.601   1.284   6.687
 8074SOL    HW225122   1.562   1.357   6.828
 8075SOL     OW25123   0.472   6.590   0.581
 8075SOL    HW125124   0.468   6.583   0.681
 8075SOL    HW225125   0.548   6.534   0.547
 8076SOL     OW25126   0.152   6.503   0.397
 8076SOL    HW125127   0.241   6.509   0.441
 8076SOL    HW225128   0.145   6.573   0.326
 8077SOL     OW25129   4.220   5.314   0.850
 8077SOL    HW125130   4.223   5.409   0.819
 8077SOL    HW225131   4.151   5.304   0.922
 8078SOL     OW25132   0.590   0.539   1.989
 8078SOL    HW125133   0.682   0.554   2.026
 8078SOL    HW225134   0.578   0.593   1.905
 8079SOL     OW25135   1.529   2.389   4.940
 8079SOL    HW125136   1.580   2.474   4.952
 8079SOL    HW225137   1.589   2.318   4.903
 8080SOL     OW25138   0.971   3.583   3.220
 8080SOL    HW125139   0.912   3.652   3.262
 8080SOL    HW225140   0.981   3.604   3.122
 8081SOL     OW25141   6.311   5.871   4.687
 8081SOL    HW125142   6.371   5.816   4.628
 8081SOL    HW225143   6.229   5.897   4.636
 8082SOL     OW25144   3.627   1.943   2.057
 8082SOL    HW125145   3.631   2.042   2.048
 8082SOL    HW225146   3.719   1.907   2.069
 8083SOL     OW25147   5.984   2.499   5.272
 8083SOL    HW125148   6.011   2.514   5.177
 8083SOL    HW225149   5.948   2.407   5.283
 8084SOL     OW25150   2.364   0.450   6.386
 8084SOL    HW125151   2.461   0.455   6.360
 8084SOL    HW225152   2.323   0.540   6.378
 8085SOL     OW25153   0.908   6.178   4.785
 8085SOL    HW125154   0.902   6.079   4.768
 8085SOL    HW225155   0.998   6.211   4.756
 8086SOL     OW25156   0.040   1.477   1.924
 8086SOL    HW125157   6.977   1.504   1.967
 8086SOL    HW225158   0.105   1.553   1.931
 8087SOL     OW25159   1.119   0.765   0.393
 8087SOL    HW125160   1.042   0.732   0.338
 8087SOL    HW225161   1.185   0.809   0.334
 8088SOL     OW25162   5.488   6.791   5.240
 8088SOL    HW125163   5.473   6.866   5.305
 8088SOL    HW225164   5.576   6.747   5.260
 8089SOL     OW25165   5.443   2.347   5.970
 8089SOL    HW125166   5.539   2.351   5.941
 8089SOL    HW225167   5.418   2.252   5.989
 8090SOL     OW25168   4.343   1.772   5.747
 8090SOL    HW125169   4.313   1.846   5.687
 8090SOL    HW225170   4.264   1.721   5.780
 8091SOL     OW25171   1.384   4.725   4.877
 8091SOL    HW125172   1.344   4.648   4.828
 8091SOL    HW225173   1.370   4.809   4.824
 8092SOL     OW25174   4.813   2.468   5.925
 8092SOL    HW125175   4.818   2.432   5.832
 8092SOL    HW225176   4.882   2.539   5.938
 8093SOL     OW25177   3.927   6.582   2.231
 8093SOL    HW125178   3.953   6.677   2.211
 8093SOL    HW225179   3.850   6.555   2.174
 8094SOL     OW25180   1.163   3.884   3.787
 8094SOL    HW125181   1.170   3.815   3.858
 8094SOL    HW225182   1.254   3.902   3.749
 8095SOL     OW25183   1.116   4.075   5.869
 8095SOL    HW125184   1.215   4.072   5.860
 8095SOL    HW225185   1.076   3.991   5.832
 8096SOL     OW25186   1.046   6.381   2.301
 8096SOL    HW125187   1.051   6.464   2.245
 8096SOL    HW225188   0.986   6.315   2.257
 8097SOL     OW25189   3.545   5.400   5.027
 8097SOL    HW125190   3.524   5.307   4.995
 8097SOL    HW225191   3.480   5.465   4.988
 8098SOL     OW25192   1.007   5.553   4.843
 8098SOL    HW125193   1.007   5.492   4.923
 8098SOL    HW225194   0.925   5.538   4.789
 8099SOL     OW25195   2.939   5.559   4.349
 8099SOL    HW125196   3.000   5.578   4.426
 8099SOL    HW225197   2.993   5.548   4.265
 8100SOL     OW25198   0.251   0.565   6.054
 8100SOL    HW125199   0.185   0.575   5.980
 8100SOL    HW225200   0.285   0.470   6.056
 8101SOL     OW25201   2.587   6.075   1.852
 8101SOL    HW125202   2.632   6.061   1.940
 8101SOL    HW225203   2.608   5.999   1.790
 8102SOL     OW25204   0.960   2.758   4.252
 8102SOL    HW125205   1.008   2.678   4.216
 8102SOL    HW225206   0.896   2.729   4.323
 8103SOL     OW25207   3.265   1.355   2.174
 8103SOL    HW125208   3.248   1.382   2.269
 8103SOL    HW225209   3.253   1.434   2.114
 8104SOL     OW25210   2.543   6.670   6.958
 8104SOL    HW125211   2.548   6.632   6.866
 8104SOL    HW225212   2.485   6.752   6.957
 8105SOL     OW25213   6.828   1.615   2.376
 8105SOL    HW125214   6.872   1.546   2.318
 8105SOL    HW225215   6.891   1.642   2.449
 8106SOL     OW25216   2.209   5.790   4.745
 8106SOL    HW125217   2.146   5.867   4.755
 8106SOL    HW225218   2.177   5.713   4.800
 8107SOL     OW25219   1.820   5.399   5.029
 8107SOL    HW125220   1.831   5.458   5.110
 8107SOL    HW225221   1.853   5.307   5.051
 8108SOL     OW25222   0.016   1.180   6.612
 8108SOL    HW125223   0.041   1.116   6.686
 8108SOL    HW225224   0.018   1.274   6.648
 8109SOL     OW25225   6.625   3.240   6.959
 8109SOL    HW125226   6.554   3.231   6.890
 8109SOL    HW225227   6.715   3.224   6.917
 8110SOL     OW25228   4.166   5.231   0.589
 8110SOL    HW125229   4.067   5.232   0.574
 8110SOL    HW225230   4.186   5.269   0.679
 8111SOL     OW25231   5.846   1.146   3.010
 8111SOL    HW125232   5.795   1.173   3.092
 8111SOL    HW225233   5.782   1.131   2.935
 8112SOL     OW25234   0.810   2.987   5.401
 8112SOL    HW125235   0.774   3.019   5.489
 8112SOL    HW225236   0.859   2.901   5.415
 8113SOL     OW25237   5.993   2.898   0.793
 8113SOL    HW125238   5.921   2.830   0.778
 8113SOL    HW225239   6.072   2.876   0.735
 8114SOL     OW25240   2.136   4.255   1.638
 8114SOL    HW125241   2.075   4.334   1.642
 8114SOL    HW225242   2.082   4.173   1.620
 8115SOL     OW25243   2.587   0.220   6.995
 8115SOL    HW125244   2.489   0.218   6.974
 8115SOL    HW225245   2.639   0.216   6.909
 8116SOL     OW25246   3.122   4.916   1.283
 8116SOL    HW125247   3.084   4.953   1.198
 8116SOL    HW225248   3.110   4.817   1.284
 8117SOL     OW25249   2.814   6.993   3.230
 8117SOL    HW125250   2.891   7.023   3.174
 8117SOL    HW225251   2.847   6.967   3.321
 8118SOL     OW25252   6.328   3.325   0.330
 8118SOL    HW125253   6.322   3.415   0.373
 8118SOL    HW225254   6.421   3.309   0.298
 8119SOL     OW25255   5.997   5.545   6.203
 8119SOL    HW125256   5.979   5.548   6.301
 8119SOL    HW225257   6.096   5.547   6.187
 8120SOL     OW25258   2.219   6.168   1.084
 8120SOL    HW125259   2.216   6.242   1.017
 8120SOL    HW225260   2.261   6.087   1.044
 8121SOL     OW25261   1.210   3.390   2.994
 8121SOL    HW125262   1.153   3.321   3.038
 8121SOL    HW225263   1.152   3.463   2.958
 8122SOL     OW25264   0.790   4.554   2.400
 8122SOL    HW125265   0.759   4.623   2.334
 8122SOL    HW225266   0.858   4.495   2.357
 8123SOL     OW25267   0.653   2.131   6.206
 8123SOL    HW125268   0.731   2.182   6.169
 8123SOL    HW225269   0.582   2.195   6.234
 8124SOL     OW25270   5.942   4.746   4.012
 8124SOL    HW125271   5.852   4.754   3.971
 8124SOL    HW225272   6.011   4.731   3.941
 8125SOL     OW25273   1.115   7.012   2.783
 8125SOL    HW125274   1.155   6.983   2.695
 8125SOL    HW225275   1.024   0.026   2.767
 8126SOL     OW25276   3.899   5.023   4.294
 8126SOL    HW125277   3.826   5.091   4.287
 8126SOL    HW225278   3.906   4.973   4.207
 8127SOL     OW25279   2.968   2.838   0.463
 8127SOL    HW125280   3.024   2.889   0.528
 8127SOL    HW225281   2.952   2.894   0.382
 8128SOL     OW25282   3.238   2.888   2.157
 8128SOL    HW125283   3.225   2.946   2.237
 8128SOL    HW225284   3.207   2.795   2.178
 8129SOL     OW25285   1.556   2.789   0.373
 8129SOL    HW125286   1.567   2.728   0.294
 8129SOL    HW225287   1.555   2.884   0.342
 8130SOL     OW25288   1.470   5.806   6.608
 8130SOL    HW125289   1.541   5.740   6.636
 8130SOL    HW225290   1.404   5.816   6.682
 8131SOL     OW25291   1.943   3.314   1.177
 8131SOL    HW125292   1.971   3.300   1.082
 8131SOL    HW225293   1.978   3.239   1.234
 8132SOL     OW25294   6.707   6.904   4.499
 8132SOL    HW125295   6.735   6.997   4.522
 8132SOL    HW225296   6.768   6.867   4.429
 8133SOL     OW25297   3.615   4.849   0.949
 8133SOL    HW125298   3.639   4.757   0.918
 8133SOL    HW225299   3.528   4.877   0.909
 8134SOL     OW25300   6.066   0.355   4.987
 8134SOL    HW125301   6.084   0.429   4.923
 8134SOL    HW225302   6.150   0.305   5.005
 8135SOL     OW25303   2.566   6.821   1.631
 8135SOL    HW125304   2.639   6.826   1.700
 8135SOL    HW225305   2.595   6.870   1.549
 8136SOL     OW25306   4.696   5.007   2.576
 8136SOL    HW125307   4.619   5.061   2.610
 8136SOL    HW225308   4.683   4.988   2.479
 8137SOL     OW25309   3.954   1.659   4.848
 8137SOL    HW125310   4.008   1.580   4.878
 8137SOL    HW225311   3.929   1.648   4.752
 8138SOL     OW25312   5.513   0.648   1.723
 8138SOL    HW125313   5.445   0.605   1.663
 8138SOL    HW225314   5.589   0.683   1.668
 8139SOL     OW25315   1.270   1.264   2.703
 8139SOL    HW125316   1.184   1.231   2.664
 8139SOL    HW225317   1.305   1.196   2.768
 8140SOL     OW25318   4.046   1.539   3.985
 8140SOL    HW125319   4.082   1.449   4.008
 8140SOL    HW225320   3.964   1.557   4.040
 8141SOL     OW25321   4.206   5.477   5.444
 8141SOL    HW125322   4.125   5.449   5.392
 8141SOL    HW225323   4.253   5.550   5.394
 8142SOL     OW25324   5.830   5.045   0.322
 8142SOL    HW125325   5.878   5.027   0.408
 8142SOL    HW225326   5.877   5.001   0.247
 8143SOL     OW25327   5.705   4.236   5.876
 8143SOL    HW125328   5.675   4.296   5.802
 8143SOL    HW225329   5.779   4.280   5.927
 8144SOL     OW25330   5.435   6.662   0.034
 8144SOL    HW125331   5.425   6.720   6.977
 8144SOL    HW225332   5.360   6.597   0.038
 8145SOL     OW25333   6.169   5.669   2.190
 8145SOL    HW125334   6.117   5.736   2.243
 8145SOL    HW225335   6.175   5.583   2.241
 8146SOL     OW25336   3.478   0.902   5.790
 8146SOL    HW125337   3.424   0.978   5.754
 8146SOL    HW225338   3.575   0.919   5.771
 8147SOL     OW25339   5.158   1.966   4.410
 8147SOL    HW125340   5.064   1.978   4.379
 8147SOL    HW225341   5.213   1.926   4.337
 8148SOL     OW25342   5.667   2.644   3.061
 8148SOL    HW125343   5.570   2.636   3.040
 8148SOL    HW225344   5.719   2.647   2.975
 8149SOL     OW25345   4.616   4.897   3.170
 8149SOL    HW125346   4.620   4.828   3.241
 8149SOL    HW225347   4.538   4.957   3.185
 8150SOL     OW25348   1.109   5.193   6.754
 8150SOL    HW125349   1.064   5.237   6.676
 8150SOL    HW225350   1.057   5.112   6.780
 8151SOL     OW25351   1.166   2.191   5.227
 8151SOL    HW125352   1.176   2.119   5.296
 8151SOL    HW225353   1.255   2.209   5.186
 8152SOL     OW25354   2.093   0.725   3.343
 8152SOL    HW125355   1.993   0.720   3.340
 8152SOL    HW225356   2.132   0.634   3.326
 8153SOL     OW25357   2.572   6.267   0.729
 8153SOL    HW125358   2.591   6.364   0.742
 8153SOL    HW225359   2.498   6.256   0.663
 8154SOL     OW25360   1.859   6.354   3.469
 8154SOL    HW125361   1.867   6.442   3.516
 8154SOL    HW225362   1.843   6.282   3.537
 8155SOL     OW25363   3.115   3.484   3.286
 8155SOL    HW125364   3.040   3.432   3.244
 8155SOL    HW225365   3.195   3.424   3.296
 8156SOL     OW25366   5.616   0.837   4.970
 8156SOL    HW125367   5.540   0.887   5.011
 8156SOL    HW225368   5.697   0.846   5.028
 8157SOL     OW25369   5.808   4.287   6.854
 8157SOL    HW125370   5.726   4.286   6.797
 8157SOL    HW225371   5.889   4.274   6.796
 8158SOL     OW25372   1.585   5.893   1.887
 8158SOL    HW125373   1.612   5.805   1.926
 8158SOL    HW225374   1.509   5.880   1.823
 8159SOL     OW25375   2.165   5.617   2.038
 8159SOL    HW125376   2.097   5.690   2.031
 8159SOL    HW225377   2.252   5.655   2.071
 8160SOL     OW25378   4.198   2.234   1.725
 8160SOL    HW125379   4.150   2.282   1.652
 8160SOL    HW225380   4.134   2.216   1.800
 8161SOL     OW25381   4.733   1.330   0.421
 8161SOL    HW125382   4.785   1.273   0.357
 8161SOL    HW225383   4.705   1.275   0.499
 8162SOL     OW25384   5.286   6.615   1.250
 8162SOL    HW125385   5.234   6.677   1.309
 8162SOL    HW225386   5.286   6.650   1.157
 8163SOL     OW25387   2.210   4.297   4.893
 8163SOL    HW125388   2.288   4.358   4.883
 8163SOL    HW225389   2.242   4.205   4.914
 8164SOL     OW25390   4.360   2.401   1.953
 8164SOL    HW125391   4.274   2.451   1.949
 8164SOL    HW225392   4.370   2.345   1.871
 8165SOL     OW25393   2.090   4.233   1.251
 8165SOL    HW125394   2.004   4.266   1.292
 8165SOL    HW225395   2.165   4.247   1.315
 8166SOL     OW25396   2.596   0.368   1.400
 8166SOL    HW125397   2.621   0.461   1.427
 8166SOL    HW225398   2.594   0.361   1.301
 8167SOL     OW25399   5.759   2.474   3.781
 8167SOL    HW125400   5.782   2.459   3.684
 8167SOL    HW225401   5.818   2.418   3.838
 8168SOL     OW25402   3.606   0.908   2.960
 8168SOL    HW125403   3.683   0.963   2.992
 8168SOL    HW225404   3.610   0.898   2.861
 8169SOL     OW25405   4.058   3.422   6.436
 8169SOL    HW125406   4.030   3.483   6.361
 8169SOL    HW225407   3.982   3.409   6.499
 8170SOL     OW25408   0.949   6.021   3.947
 8170SOL    HW125409   0.969   5.974   3.861
 8170SOL    HW225410   0.851   6.039   3.953
 8171SOL     OW25411   1.031   2.309   5.830
 8171SOL    HW125412   0.956   2.357   5.784
 8171SOL    HW225413   1.045   2.220   5.787
 8172SOL     OW25414   0.426   6.349   0.853
 8172SOL    HW125415   0.446   6.441   0.885
 8172SOL    HW225416   0.496   6.320   0.788
 8173SOL     OW25417   4.030   2.579   0.178
 8173SOL    HW125418   4.071   2.625   0.099
 8173SOL    HW225419   3.987   2.648   0.237
 8174SOL     OW25420   5.552   0.802   2.002
 8174SOL    HW125421   5.475   0.773   2.058
 8174SOL    HW225422   5.554   0.747   1.918
 8175SOL     OW25423   0.749   2.598   6.262
 8175SOL    HW125424   0.735   2.662   6.338
 8175SOL    HW225425   0.842   2.561   6.266
 8176SOL     OW25426   2.854   5.453   2.447
 8176SOL    HW125427   2.847   5.381   2.378
 8176SOL    HW225428   2.850   5.413   2.539
 8177SOL     OW25429   6.776   6.558   4.794
 8177SOL    HW125430   6.775   6.563   4.694
 8177SOL    HW225431   6.870   6.566   4.827
 8178SOL     OW25432   1.674   6.497   6.548
 8178SOL    HW125433   1.770   6.483   6.522
 8178SOL    HW225434   1.615   6.448   6.484
 8179SOL     OW25435   3.574   2.457   0.380
 8179SOL    HW125436   3.575   2.429   0.476
 8179SOL    HW225437   3.606   2.551   0.373
 8180SOL     OW25438   6.616   6.571   5.021
 8180SOL    HW125439   6.550   6.496   5.015
 8180SOL    HW225440   6.686   6.559   4.951
 8181SOL     OW25441   2.758   2.399   3.277
 8181SOL    HW125442   2.852   2.379   3.249
 8181SOL    HW225443   2.743   2.367   3.371
 8182SOL     OW25444   4.175   2.169   5.228
 8182SOL    HW125445   4.183   2.237   5.301
 8182SOL    HW225446   4.099   2.107   5.248
 8183SOL     OW25447   1.642   3.373   4.473
 8183SOL    HW125448   1.570   3.442   4.482
 8183SOL    HW225449   1.648   3.321   4.559
 8184SOL     OW25450   6.765   6.552   5.574
 8184SOL    HW125451   6.849   6.515   5.534
 8184SOL    HW225452   6.720   6.482   5.630
 8185SOL     OW25453   2.779   1.072   2.289
 8185SOL    HW125454   2.866   1.097   2.332
 8185SOL    HW225455   2.789   0.985   2.242
 8186SOL     OW25456   3.522   5.933   6.005
 8186SOL    HW125457   3.449   5.864   6.006
 8186SOL    HW225458   3.601   5.896   5.957
 8187SOL     OW25459   2.088   1.643   4.989
 8187SOL    HW125460   1.996   1.603   4.983
 8187SOL    HW225461   2.150   1.592   4.930
 8188SOL     OW25462   6.202   2.510   3.242
 8188SOL    HW125463   6.285   2.562   3.222
 8188SOL    HW225464   6.157   2.486   3.156
 8189SOL     OW25465   6.630   4.172   2.406
 8189SOL    HW125466   6.533   4.176   2.380
 8189SOL    HW225467   6.642   4.215   2.495
 8190SOL     OW25468   4.926   3.476   3.678
 8190SOL    HW125469   4.933   3.576   3.687
 8190SOL    HW225470   4.891   3.438   3.763
 8191SOL     OW25471   0.834   4.732   4.053
 8191SOL    HW125472   0.790   4.766   3.969
 8191SOL    HW225473   0.817   4.634   4.062
 8192SOL     OW25474   2.201   4.728   1.853
 8192SOL    HW125475   2.137   4.773   1.791
 8192SOL    HW225476   2.213   4.784   1.935
 8193SOL     OW25477   3.971   6.708   5.553
 8193SOL    HW125478   3.925   6.706   5.642
 8193SOL    HW225479   4.023   6.793   5.544
 8194SOL     OW25480   0.049   0.957   6.770
 8194SOL    HW125481   0.024   0.906   6.853
 8194SOL    HW225482   7.009   0.935   6.697
 8195SOL     OW25483   6.802   6.378   0.503
 8195SOL    HW125484   6.806   6.420   0.594
 8195SOL    HW225485   6.827   6.444   0.434
 8196SOL     OW25486   3.003   6.749   6.300
 8196SOL    HW125487   3.094   6.791   6.298
 8196SOL    HW225488   2.991   6.693   6.218
 8197SOL     OW25489   0.591   0.413   6.293
 8197SOL    HW125490   0.560   0.321   6.272
 8197SOL    HW225491   0.548   0.479   6.232
 8198SOL     OW25492   2.823   6.580   3.222
 8198SOL    HW125493   2.757   6.643   3.181
 8198SOL    HW225494   2.868   6.527   3.151
 8199SOL     OW25495   6.630   3.694   0.509
 8199SOL    HW125496   6.661   3.690   0.604
 8199SOL    HW225497   6.540   3.737   0.505
 8200SOL     OW25498   4.976   4.859   0.319
 8200SOL    HW125499   5.012   4.766   0.319
 8200SOL    HW225500   4.966   4.891   0.413
 8201SOL     OW25501   6.066   0.396   3.051
 8201SOL    HW125502   6.001   0.353   3.113
 8201SOL    HW225503   6.017   0.445   2.979
 8202SOL     OW25504   1.588   3.487   3.479
 8202SOL    HW125505   1.527   3.521   3.408
 8202SOL    HW225506   1.599   3.557   3.550
 8203SOL     OW25507   5.680   3.409   1.540
 8203SOL    HW125508   5.722   3.323   1.569
 8203SOL    HW225509   5.581   3.401   1.545
 8204SOL     OW25510   3.204   0.082   1.967
 8204SOL    HW125511   3.211   0.134   2.052
 8204SOL    HW225512   3.181   7.011   1.988
 8205SOL     OW25513   5.753   5.414   2.001
 8205SOL    HW125514   5.844   5.456   2.003
 8205SOL    HW225515   5.710   5.434   1.913
 8206SOL     OW25516   4.724   2.066   4.410
 8206SOL    HW125517   4.777   2.135   4.460
 8206SOL    HW225518   4.641   2.044   4.462
 8207SOL     OW25519   2.504   6.291   6.796
 8207SOL    HW125520   2.449   6.292   6.879
 8207SOL    HW225521   2.449   6.254   6.721
 8208SOL     OW25522   1.576   4.546   1.033
 8208SOL    HW125523   1.568   4.563   0.935
 8208SOL    HW225524   1.583   4.447   1.049
 8209SOL     OW25525   0.271   7.019   4.849
 8209SOL    HW125526   0.178   7.001   4.883
 8209SOL    HW225527   0.289   0.093   4.852
 8210SOL     OW25528   2.973   1.806   6.577
 8210SOL    HW125529   2.925   1.859   6.508
 8210SOL    HW225530   2.907   1.765   6.640
 8211SOL     OW25531   3.109   3.202   4.512
 8211SOL    HW125532   3.160   3.195   4.598
 8211SOL    HW225533   3.074   3.295   4.501
 8212SOL     OW25534   3.182   0.482   1.234
 8212SOL    HW125535   3.140   0.392   1.239
 8212SOL    HW225536   3.253   0.490   1.305
 8213SOL     OW25537   4.785   4.263   1.819
 8213SOL    HW125538   4.797   4.311   1.732
 8213SOL    HW225539   4.690   4.273   1.849
 8214SOL     OW25540   4.463   6.129   4.298
 8214SOL    HW125541   4.539   6.192   4.287
 8214SOL    HW225542   4.480   6.070   4.377
 8215SOL     OW25543   4.389   6.983   0.580
 8215SOL    HW125544   4.374   6.901   0.526
 8215SOL    HW225545   4.302   0.006   0.596
 8216SOL     OW25546   5.793   4.902   1.287
 8216SOL    HW125547   5.804   4.827   1.353
 8216SOL    HW225548   5.770   4.865   1.198
 8217SOL     OW25549   2.632   6.540   3.831
 8217SOL    HW125550   2.557   6.605   3.844
 8217SOL    HW225551   2.602   6.466   3.770
 8218SOL     OW25552   2.689   7.008   4.970
 8218SOL    HW125553   2.684   0.008   5.067
 8218SOL    HW225554   2.605   6.961   4.943
 8219SOL     OW25555   3.905   3.988   1.099
 8219SOL    HW125556   3.880   3.909   1.044
 8219SOL    HW225557   3.853   4.068   1.068
 8220SOL     OW25558   3.747   3.321   4.319
 8220SOL    HW125559   3.733   3.369   4.232
 8220SOL    HW225560   3.745   3.387   4.394
 8221SOL     OW25561   5.167   3.656   3.280
 8221SOL    HW125562   5.083   3.632   3.329
 8221SOL    HW225563   5.190   3.582   3.216
 8222SOL     OW25564   6.340   3.484   0.618
 8222SOL    HW125565   6.292   3.538   0.687
 8222SOL    HW225566   6.437   3.478   0.641
 8223SOL     OW25567   0.931   5.757   5.601
 8223SOL    HW125568   1.020   5.769   5.645
 8223SOL    HW225569   0.873   5.698   5.658
 8224SOL     OW25570   5.376   2.177   0.596
 8224SOL    HW125571   5.468   2.155   0.627
 8224SOL    HW225572   5.362   2.141   0.504
 8225SOL     OW25573   5.145   1.357   0.610
 8225SOL    HW125574   5.215   1.409   0.659
 8225SOL    HW225575   5.078   1.420   0.570
 8226SOL     OW25576   3.985   0.254   0.470
 8226SOL    HW125577   3.911   0.267   0.536
 8226SOL    HW225578   3.951   0.273   0.378
 8227SOL     OW25579   5.027   2.389   2.998
 8227SOL    HW125580   5.042   2.296   2.964
 8227SOL    HW225581   4.945   2.427   2.955
 8228SOL     OW25582   2.263   0.374   4.656
 8228SOL    HW125583   2.209   0.457   4.639
 8228SOL    HW225584   2.352   0.400   4.694
 8229SOL     OW25585   4.429   3.955   0.458
 8229SOL    HW125586   4.421   4.046   0.418
 8229SOL    HW225587   4.435   3.962   0.557
 8230SOL     OW25588   5.985   0.393   6.300
 8230SOL    HW125589   5.895   0.435   6.311
 8230SOL    HW225590   6.040   0.411   6.381
 8231SOL     OW25591   2.750   1.760   2.588
 8231SOL    HW125592   2.681   1.699   2.551
 8231SOL    HW225593   2.839   1.738   2.549
 8232SOL     OW25594   3.819   5.567   2.842
 8232SOL    HW125595   3.797   5.517   2.759
 8232SOL    HW225596   3.915   5.551   2.866
 8233SOL     OW25597   0.538   1.037   6.195
 8233SOL    HW125598   0.587   0.970   6.251
 8233SOL    HW225599   0.578   1.127   6.208
 8234SOL     OW25600   1.106   2.360   0.936
 8234SOL    HW125601   1.085   2.389   0.843
 8234SOL    HW225602   1.197   2.394   0.961
 8235SOL     OW25603   1.047   6.070   1.422
 8235SOL    HW125604   0.977   6.093   1.490
 8235SOL    HW225605   1.134   6.054   1.469
 8236SOL     OW25606   0.282   6.064   1.447
 8236SOL    HW125607   0.312   6.159   1.453
 8236SOL    HW225608   0.362   6.004   1.436
 8237SOL     OW25609   3.915   5.198   0.505
 8237SOL    HW125610   3.828   5.219   0.550
 8237SOL    HW225611   3.898   5.163   0.413
 8238SOL     OW25612   0.942   4.199   0.358
 8238SOL    HW125613   0.848   4.174   0.383
 8238SOL    HW225614   0.963   4.162   0.268
 8239SOL     OW25615   1.783   1.318   5.099
 8239SOL    HW125616   1.711   1.271   5.048
 8239SOL    HW225617   1.817   1.395   5.046
 8240SOL     OW25618   3.232   3.576   4.790
 8240SOL    HW125619   3.150   3.524   4.815
 8240SOL    HW225620   3.231   3.665   4.837
 8241SOL     OW25621   1.661   4.079   5.933
 8241SOL    HW125622   1.676   4.175   5.957
 8241SOL    HW225623   1.728   4.051   5.865
 8242SOL     OW25624   0.787   2.974   3.194
 8242SOL    HW125625   0.812   3.071   3.199
 8242SOL    HW225626   0.691   2.966   3.170
 8243SOL     OW25627   0.498   5.868   4.521
 8243SOL    HW125628   0.514   5.940   4.589
 8243SOL    HW225629   0.580   5.811   4.514
 8244SOL     OW25630   0.426   1.063   4.661
 8244SOL    HW125631   0.418   1.031   4.566
 8244SOL    HW225632   0.522   1.082   4.682
 8245SOL     OW25633   5.225   1.893   3.161
 8245SOL    HW125634   5.173   1.808   3.151
 8245SOL    HW225635   5.170   1.960   3.210
 8246SOL     OW25636   2.009   5.276   6.897
 8246SOL    HW125637   1.972   5.232   6.815
 8246SOL    HW225638   2.001   5.375   6.887
 8247SOL     OW25639   2.957   5.122   3.156
 8247SOL    HW125640   3.054   5.148   3.156
 8247SOL    HW225641   2.949   5.023   3.160
 8248SOL     OW25642   6.702   4.987   3.047
 8248SOL    HW125643   6.722   4.937   3.132
 8248SOL    HW225644   6.603   4.995   3.036
 8249SOL     OW25645   3.490   1.693   6.439
 8249SOL    HW125646   3.392   1.695   6.459
 8249SOL    HW225647   3.530   1.608   6.475
 8250SOL     OW25648   1.129   1.383   0.104
 8250SOL    HW125649   1.216   1.382   0.151
 8250SOL    HW225650   1.143   1.403   0.007
 8251SOL     OW25651   0.680   2.107   4.676
 8251SOL    HW125652   0.771   2.136   4.645
 8251SOL    HW225653   0.617   2.185   4.670
 8252SOL     OW25654   1.194   2.064   6.234
 8252SOL    HW125655   1.182   2.047   6.136
 8252SOL    HW225656   1.291   2.063   6.257
 8253SOL     OW25657   4.406   6.009   0.281
 8253SOL    HW125658   4.458   5.934   0.321
 8253SOL    HW225659   4.469   6.072   0.234
 8254SOL     OW25660   5.307   4.517   6.263
 8254SOL    HW125661   5.307   4.577   6.183
 8254SOL    HW225662   5.326   4.571   6.345
 8255SOL     OW25663   1.628   6.964   6.223
 8255SOL    HW125664   1.657   7.019   6.145
 8255SOL    HW225665   1.532   6.937   6.212
 8256SOL     OW25666   1.031   5.087   4.682
 8256SOL    HW125667   0.964   5.082   4.757
 8256SOL    HW225668   1.001   5.028   4.607
 8257SOL     OW25669   5.338   3.818   3.101
 8257SOL    HW125670   5.261   3.832   3.038
 8257SOL    HW225671   5.302   3.800   3.193
 8258SOL     OW25672   6.871   3.744   1.811
 8258SOL    HW125673   6.854   3.645   1.812
 8258SOL    HW225674   6.793   3.791   1.852
 8259SOL     OW25675   5.432   1.658   4.329
 8259SOL    HW125676   5.392   1.721   4.262
 8259SOL    HW225677   5.491   1.709   4.391
 8260SOL     OW25678   4.404   1.353   1.215
 8260SOL    HW125679   4.479   1.315   1.269
 8260SOL    HW225680   4.432   1.438   1.172
 8261SOL     OW25681   5.761   0.761   2.301
 8261SOL    HW125682   5.754   0.844   2.358
 8261SOL    HW225683   5.671   0.739   2.264
 8262SOL     OW25684   5.526   4.011   1.852
 8262SOL    HW125685   5.583   4.030   1.772
 8262SOL    HW225686   5.574   4.043   1.934
 8263SOL     OW25687   6.584   2.489   5.878
 8263SOL    HW125688   6.552   2.397   5.900
 8263SOL    HW225689   6.621   2.532   5.960
 8264SOL     OW25690   2.977   0.081   3.043
 8264SOL    HW125691   3.052   0.031   2.999
 8264SOL    HW225692   3.004   0.176   3.055
 8265SOL     OW25693   5.237   6.862   0.306
 8265SOL    HW125694   5.197   6.882   0.395
 8265SOL    HW225695   5.335   6.879   0.309
 8266SOL     OW25696   2.426   0.947   3.584
 8266SOL    HW125697   2.343   0.921   3.534
 8266SOL    HW225698   2.447   1.043   3.565
 8267SOL     OW25699   1.639   4.267   2.664
 8267SOL    HW125700   1.685   4.186   2.626
 8267SOL    HW225701   1.564   4.239   2.723
 8268SOL     OW25702   3.886   5.183   6.350
 8268SOL    HW125703   3.823   5.260   6.361
 8268SOL    HW225704   3.889   5.130   6.435
 8269SOL     OW25705   6.045   2.737   3.995
 8269SOL    HW125706   6.123   2.765   3.939
 8269SOL    HW225707   6.078   2.682   4.072
 8270SOL     OW25708   3.723   6.855   6.780
 8270SOL    HW125709   3.645   6.822   6.726
 8270SOL    HW225710   3.708   6.833   6.877
 8271SOL     OW25711   3.601   6.248   6.611
 8271SOL    HW125712   3.505   6.227   6.589
 8271SOL    HW225713   3.607   6.342   6.645
 8272SOL     OW25714   0.778   0.278   1.894
 8272SOL    HW125715   0.788   0.370   1.932
 8272SOL    HW225716   0.866   0.247   1.857
 8273SOL     OW25717   4.039   0.586   6.669
 8273SOL    HW125718   4.067   0.617   6.578
 8273SOL    HW225719   4.039   0.486   6.671
 8274SOL     OW25720   5.207   6.598   5.495
 8274SOL    HW125721   5.186   6.554   5.408
 8274SOL    HW225722   5.296   6.566   5.528
 8275SOL     OW25723   5.481   0.436   3.338
 8275SOL    HW125724   5.509   0.342   3.356
 8275SOL    HW225725   5.556   0.498   3.361
 8276SOL     OW25726   0.329   1.885   6.364
 8276SOL    HW125727   0.266   1.928   6.299
 8276SOL    HW225728   0.339   1.944   6.444
 8277SOL     OW25729   1.252   6.605   6.746
 8277SOL    HW125730   1.220   6.641   6.834
 8277SOL    HW225731   1.187   6.630   6.674
 8278SOL     OW25732   3.292   1.251   0.093
 8278SOL    HW125733   3.377   1.295   0.123
 8278SOL    HW225734   3.258   1.298   0.012
 8279SOL     OW25735   4.317   5.434   4.992
 8279SOL    HW125736   4.303   5.402   4.899
 8279SOL    HW225737   4.401   5.395   5.029
 8280SOL     OW25738   5.461   3.545   0.516
 8280SOL    HW125739   5.502   3.558   0.606
 8280SOL    HW225740   5.532   3.530   0.448
 8281SOL     OW25741   2.766   5.312   0.421
 8281SOL    HW125742   2.812   5.349   0.502
 8281SOL    HW225743   2.806   5.353   0.339
 8282SOL     OW25744   3.096   2.538   0.724
 8282SOL    HW125745   3.190   2.555   0.694
 8282SOL    HW225746   3.075   2.598   0.802
 8283SOL     OW25747   0.105   5.540   3.500
 8283SOL    HW125748   0.143   5.632   3.510
 8283SOL    HW225749   0.043   5.538   3.422
 8284SOL     OW25750   3.019   1.838   1.942
 8284SOL    HW125751   3.095   1.780   1.969
 8284SOL    HW225752   2.978   1.803   1.858
 8285SOL     OW25753   2.894   4.565   6.274
 8285SOL    HW125754   2.944   4.483   6.304
 8285SOL    HW225755   2.929   4.645   6.322
 8286SOL     OW25756   5.637   1.914   5.601
 8286SOL    HW125757   5.585   1.829   5.608
 8286SOL    HW225758   5.575   1.992   5.601
 8287SOL     OW25759   2.092   0.124   3.839
 8287SOL    HW125760   2.181   0.113   3.883
 8287SOL    HW225761   2.072   0.044   3.783
 8288SOL     OW25762   2.652   0.670   3.104
 8288SOL    HW125763   2.610   0.626   3.024
 8288SOL    HW225764   2.658   0.768   3.089
 8289SOL     OW25765   6.814   1.029   5.734
 8289SOL    HW125766   6.886   1.012   5.801
 8289SOL    HW225767   6.855   1.067   5.651
 8290SOL     OW25768   4.642   2.727   1.898
 8290SOL    HW125769   4.606   2.686   1.814
 8290SOL    HW225770   4.653   2.825   1.885
 8291SOL     OW25771   3.907   5.518   6.626
 8291SOL    HW125772   3.858   5.465   6.696
 8291SOL    HW225773   3.849   5.592   6.593
 8292SOL     OW25774   0.774   3.218   4.687
 8292SOL    HW125775   0.831   3.248   4.611
 8292SOL    HW225776   0.696   3.279   4.696
 8293SOL     OW25777   2.896   4.962   3.629
 8293SOL    HW125778   2.955   4.899   3.680
 8293SOL    HW225779   2.944   4.996   3.549
 8294SOL     OW25780   4.526   3.445   5.572
 8294SOL    HW125781   4.560   3.378   5.639
 8294SOL    HW225782   4.543   3.537   5.606
 8295SOL     OW25783   5.150   4.361   2.589
 8295SOL    HW125784   5.065   4.408   2.610
 8295SOL    HW225785   5.184   4.316   2.672
 8296SOL     OW25786   3.936   6.041   2.066
 8296SOL    HW125787   3.949   6.093   1.981
 8296SOL    HW225788   3.840   6.016   2.076
 8297SOL     OW25789   5.683   4.569   3.362
 8297SOL    HW125790   5.644   4.488   3.317
 8297SOL    HW225791   5.654   4.651   3.313
 8298SOL     OW25792   6.819   6.880   6.582
 8298SOL    HW125793   6.773   6.965   6.609
 8298SOL    HW225794   6.771   6.840   6.504
 8299SOL     OW25795   0.549   3.460   1.088
 8299SOL    HW125796   0.468   3.486   1.139
 8299SOL    HW225797   0.631   3.472   1.145
 8300SOL     OW25798   5.532   4.807   2.656
 8300SOL    HW125799   5.444   4.760   2.655
 8300SOL    HW225800   5.517   4.905   2.666
 8301SOL     OW25801   4.863   6.675   0.247
 8301SOL    HW125802   4.917   6.677   0.163
 8301SOL    HW225803   4.769   6.699   0.227
 8302SOL     OW25804   3.492   6.741   5.316
 8302SOL    HW125805   3.585   6.754   5.280
 8302SOL    HW225806   3.431   6.808   5.275
 8303SOL     OW25807   0.348   5.810   2.880
 8303SOL    HW125808   0.337   5.820   2.782
 8303SOL    HW225809   0.385   5.895   2.919
 8304SOL     OW25810   6.103   4.120   3.007
 8304SOL    HW125811   6.024   4.163   2.963
 8304SOL    HW225812   6.134   4.042   2.953
 8305SOL     OW25813   5.038   6.583   4.861
 8305SOL    HW125814   4.967   6.514   4.847
 8305SOL    HW225815   5.121   6.538   4.896
 8306SOL     OW25816   6.519   1.094   2.173
 8306SOL    HW125817   6.450   1.093   2.100
 8306SOL    HW225818   6.540   1.000   2.199
 8307SOL     OW25819   1.659   3.501   2.967
 8307SOL    HW125820   1.710   3.441   2.906
 8307SOL    HW225821   1.655   3.593   2.929
 8308SOL     OW25822   1.315   5.200   0.807
 8308SOL    HW125823   1.217   5.202   0.787
 8308SOL    HW225824   1.347   5.293   0.828
 8309SOL     OW25825   6.391   5.109   4.642
 8309SOL    HW125826   6.432   5.049   4.712
 8309SOL    HW225827   6.383   5.059   4.556
 8310SOL     OW25828   1.744   6.870   0.653
 8310SOL    HW125829   1.727   6.957   0.699
 8310SOL    HW225830   1.658   6.835   0.615
 8311SOL     OW25831   5.341   6.495   3.260
 8311SOL    HW125832   5.307   6.493   3.166
 8311SOL    HW225833   5.295   6.570   3.310
 8312SOL     OW25834   5.498   1.548   0.316
 8312SOL    HW125835   5.536   1.569   0.226
 8312SOL    HW225836   5.472   1.633   0.362
 8313SOL     OW25837   5.353   2.394   5.349
 8313SOL    HW125838   5.317   2.350   5.431
 8313SOL    HW225839   5.438   2.350   5.322
 8314SOL     OW25840   4.984   6.369   4.072
 8314SOL    HW125841   4.940   6.429   4.006
 8314SOL    HW225842   4.993   6.277   4.033
 8315SOL     OW25843   3.500   4.205   4.603
 8315SOL    HW125844   3.517   4.122   4.551
 8315SOL    HW225845   3.546   4.282   4.558
 8316SOL     OW25846   2.243   2.194   6.323
 8316SOL    HW125847   2.157   2.182   6.274
 8316SOL    HW225848   2.224   2.197   6.422
 8317SOL     OW25849   1.509   2.017   3.720
 8317SOL    HW125850   1.525   1.956   3.643
 8317SOL    HW225851   1.585   2.011   3.784
 8318SOL     OW25852   4.397   0.462   6.601
 8318SOL    HW125853   4.331   0.400   6.644
 8318SOL    HW225854   4.444   0.514   6.672
 8319SOL     OW25855   1.450   6.308   6.940
 8319SOL    HW125856   1.391   6.366   6.996
 8319SOL    HW225857   1.528   6.362   6.908
 8320SOL     OW25858   3.091   2.988   5.078
 8320SOL    HW125859   3.074   3.017   4.984
 8320SOL    HW225860   3.181   2.946   5.084
 8321SOL     OW25861   0.230   6.740   1.036
 8321SOL    HW125862   0.225   6.839   1.021
 8321SOL    HW225863   0.313   6.719   1.088
 8322SOL     OW25864   0.605   0.110   0.409
 8322SOL    HW125865   0.602   0.025   0.463
 8322SOL    HW225866   0.570   0.185   0.465
 8323SOL     OW25867   5.841   4.605   0.932
 8323SOL    HW125868   5.884   4.617   0.842
 8323SOL    HW225869   5.896   4.542   0.987
 8324SOL     OW25870   5.094   5.365   6.200
 8324SOL    HW125871   5.134   5.448   6.238
 8324SOL    HW225872   5.015   5.388   6.143
 8325SOL     OW25873   1.563   5.540   6.377
 8325SOL    HW125874   1.584   5.547   6.474
 8325SOL    HW225875   1.539   5.446   6.354
 8326SOL     OW25876   1.501   3.333   0.054
 8326SOL    HW125877   1.481   3.236   0.072
 8326SOL    HW225878   1.531   3.344   6.983
 8327SOL     OW25879   0.814   6.530   4.589
 8327SOL    HW125880   0.883   6.457   4.589
 8327SOL    HW225881   0.785   6.547   4.495
 8328SOL     OW25882   0.905   0.307   0.538
 8328SOL    HW125883   0.896   0.347   0.446
 8328SOL    HW225884   0.909   0.207   0.531
 8329SOL     OW25885   1.822   2.931   4.793
 8329SOL    HW125886   1.902   2.967   4.746
 8329SOL    HW225887   1.824   2.959   4.889
 8330SOL     OW25888   3.938   1.142   0.231
 8330SOL    HW125889   3.993   1.127   0.150
 8330SOL    HW225890   3.842   1.153   0.205
 8331SOL     OW25891   1.862   2.444   5.968
 8331SOL    HW125892   1.836   2.402   5.881
 8331SOL    HW225893   1.961   2.452   5.973
 8332SOL     OW25894   6.300   5.382   1.325
 8332SOL    HW125895   6.366   5.309   1.337
 8332SOL    HW225896   6.207   5.346   1.336
 8333SOL     OW25897   2.162   4.175   0.156
 8333SOL    HW125898   2.098   4.201   0.084
 8333SOL    HW225899   2.184   4.078   0.147
 8334SOL     OW25900   3.854   2.449   6.283
 8334SOL    HW125901   3.897   2.402   6.360
 8334SOL    HW225902   3.780   2.394   6.246
 8335SOL     OW25903   5.194   3.953   6.216
 8335SOL    HW125904   5.162   3.859   6.221
 8335SOL    HW225905   5.128   4.013   6.262
 8336SOL     OW25906   0.596   4.037   3.820
 8336SOL    HW125907   0.669   4.098   3.789
 8336SOL    HW225908   0.610   4.015   3.917
 8337SOL     OW25909   0.895   1.138   4.354
 8337SOL    HW125910   0.801   1.114   4.328
 8337SOL    HW225911   0.956   1.063   4.333
 8338SOL     OW25912   4.374   5.569   1.554
 8338SOL    HW125913   4.465   5.544   1.587
 8338SOL    HW225914   4.348   5.657   1.593
 8339SOL     OW25915   6.083   0.353   1.394
 8339SOL    HW125916   5.983   0.347   1.398
 8339SOL    HW225917   6.113   0.341   1.299
 8340SOL     OW25918   6.327   2.050   6.617
 8340SOL    HW125919   6.396   2.120   6.634
 8340SOL    HW225920   6.325   2.027   6.520
 8341SOL     OW25921   3.714   0.605   0.968
 8341SOL    HW125922   3.749   0.535   1.030
 8341SOL    HW225923   3.728   0.695   1.008
 8342SOL     OW25924   4.600   0.584   0.389
 8342SOL    HW125925   4.649   0.506   0.428
 8342SOL    HW225926   4.502   0.569   0.398
 8343SOL     OW25927   5.442   3.808   4.138
 8343SOL    HW125928   5.496   3.822   4.055
 8343SOL    HW225929   5.380   3.731   4.125
 8344SOL     OW25930   1.115   5.261   5.185
 8344SOL    HW125931   1.081   5.166   5.189
 8344SOL    HW225932   1.205   5.266   5.227
 8345SOL     OW25933   4.538   0.921   3.644
 8345SOL    HW125934   4.514   0.843   3.702
 8345SOL    HW225935   4.551   0.890   3.549
 8346SOL     OW25936   5.943   3.864   5.286
 8346SOL    HW125937   5.864   3.824   5.333
 8346SOL    HW225938   5.946   3.830   5.192
 8347SOL     OW25939   2.287   0.574   6.924
 8347SOL    HW125940   2.188   0.590   6.934
 8347SOL    HW225941   2.334   0.661   6.918
 8348SOL     OW25942   3.201   6.026   1.945
 8348SOL    HW125943   3.236   6.016   1.852
 8348SOL    HW225944   3.223   5.944   1.998
 8349SOL     OW25945   0.051   6.740   2.488
 8349SOL    HW125946   0.006   6.666   2.539
 8349SOL    HW225947   0.042   6.825   2.538
 8350SOL     OW25948   2.114   0.273   0.509
 8350SOL    HW125949   2.044   0.343   0.524
 8350SOL    HW225950   2.205   0.314   0.514
 8351SOL     OW25951   0.109   3.108   3.365
 8351SOL    HW125952   0.097   3.012   3.340
 8351SOL    HW225953   0.022   3.146   3.394
 8352SOL     OW25954   2.997   6.130   1.757
 8352SOL    HW125955   2.942   6.184   1.821
 8352SOL    HW225956   3.027   6.046   1.803
 8353SOL     OW25957   1.290   4.931   2.223
 8353SOL    HW125958   1.349   4.864   2.266
 8353SOL    HW225959   1.293   5.017   2.275
 8354SOL     OW25960   3.677   0.602   3.056
 8354SOL    HW125961   3.653   0.524   3.115
 8354SOL    HW225962   3.625   0.683   3.085
 8355SOL     OW25963   2.607   6.456   6.302
 8355SOL    HW125964   2.645   6.431   6.390
 8355SOL    HW225965   2.562   6.377   6.261
 8356SOL     OW25966   2.123   5.527   0.894
 8356SOL    HW125967   2.140   5.614   0.941
 8356SOL    HW225968   2.085   5.461   0.958
 8357SOL     OW25969   4.679   6.194   5.535
 8357SOL    HW125970   4.694   6.280   5.487
 8357SOL    HW225971   4.668   6.211   5.633
 8358SOL     OW25972   0.794   1.120   5.109
 8358SOL    HW125973   0.700   1.151   5.097
 8358SOL    HW225974   0.856   1.198   5.099
 8359SOL     OW25975   3.912   2.302   5.532
 8359SOL    HW125976   3.861   2.294   5.446
 8359SOL    HW225977   4.010   2.305   5.512
 8360SOL     OW25978   4.460   0.821   1.476
 8360SOL    HW125979   4.540   0.856   1.426
 8360SOL    HW225980   4.489   0.792   1.567
 8361SOL     OW25981   4.082   0.789   0.124
 8361SOL    HW125982   4.174   0.784   0.164
 8361SOL    HW225983   4.089   0.789   0.025
 8362SOL     OW25984   6.644   4.167   1.549
 8362SOL    HW125985   6.584   4.242   1.522
 8362SOL    HW225986   6.678   4.121   1.467
 8363SOL     OW25987   2.708   3.219   0.310
 8363SOL    HW125988   2.761   3.184   0.233
 8363SOL    HW225989   2.654   3.298   0.281
 8364SOL     OW25990   0.187   3.304   4.400
 8364SOL    HW125991   0.276   3.287   4.359
 8364SOL    HW225992   0.199   3.345   4.491
 8365SOL     OW25993   1.376   2.082   2.235
 8365SOL    HW125994   1.414   2.045   2.150
 8365SOL    HW225995   1.386   2.182   2.235
 8366SOL     OW25996   4.915   5.013   2.309
 8366SOL    HW125997   4.987   4.955   2.347
 8366SOL    HW225998   4.874   4.969   2.230
 8367SOL     OW25999   3.731   5.227   4.262
 8367SOL    HW126000   3.738   5.275   4.175
 8367SOL    HW226001   3.698   5.290   4.332
 8368SOL     OW26002   6.258   6.425   6.832
 8368SOL    HW126003   6.257   6.521   6.805
 8368SOL    HW226004   6.273   6.418   6.931
 8369SOL     OW26005   2.794   6.684   1.367
 8369SOL    HW126006   2.744   6.646   1.289
 8369SOL    HW226007   2.866   6.620   1.395
 8370SOL     OW26008   2.455   3.578   6.660
 8370SOL    HW126009   2.481   3.629   6.742
 8370SOL    HW226010   2.457   3.480   6.679
 8371SOL     OW26011   1.943   4.490   6.032
 8371SOL    HW126012   1.933   4.539   6.119
 8371SOL    HW226013   1.994   4.406   6.047
 8372SOL     OW26014   2.625   5.920   2.629
 8372SOL    HW126015   2.579   5.888   2.712
 8372SOL    HW226016   2.585   6.007   2.601
 8373SOL     OW26017   6.915   1.334   4.062
 8373SOL    HW126018   6.876   1.322   4.154
 8373SOL    HW226019   6.975   1.413   4.062
 8374SOL     OW26020   1.182   0.624   4.215
 8374SOL    HW126021   1.150   0.593   4.305
 8374SOL    HW226022   1.199   0.545   4.157
 8375SOL     OW26023   3.386   0.632   4.938
 8375SOL    HW126024   3.434   0.554   4.897
 8375SOL    HW226025   3.450   0.686   4.992
 8376SOL     OW26026   2.081   0.524   2.752
 8376SOL    HW126027   2.076   0.455   2.824
 8376SOL    HW226028   2.140   0.600   2.782
 8377SOL     OW26029   4.509   5.105   0.272
 8377SOL    HW126030   4.525   5.196   0.234
 8377SOL    HW226031   4.567   5.092   0.353
 8378SOL     OW26032   5.396   6.377   3.871
 8378SOL    HW126033   5.390   6.450   3.802
 8378SOL    HW226034   5.483   6.328   3.860
 8379SOL     OW26035   5.893   1.336   1.292
 8379SOL    HW126036   5.842   1.298   1.370
 8379SOL    HW226037   5.990   1.342   1.316
 8380SOL     OW26038   6.604   5.626   0.522
 8380SOL    HW126039   6.614   5.643   0.620
 8380SOL    HW226040   6.633   5.707   0.471
 8381SOL     OW26041   0.521   1.969   2.188
 8381SOL    HW126042   0.581   1.920   2.250
 8381SOL    HW226043   0.428   1.970   2.225
 8382SOL     OW26044   1.950   0.652   1.357
 8382SOL    HW126045   1.997   0.575   1.314
 8382SOL    HW226046   2.003   0.735   1.344
 8383SOL     OW26047   3.050   6.543   6.483
 8383SOL    HW126048   3.032   6.633   6.444
 8383SOL    HW226049   3.065   6.552   6.582
 8384SOL     OW26050   0.516   3.023   2.285
 8384SOL    HW126051   0.604   2.987   2.256
 8384SOL    HW226052   0.458   2.948   2.317
 8385SOL     OW26053   3.979   3.403   1.535
 8385SOL    HW126054   3.998   3.421   1.631
 8385SOL    HW226055   3.890   3.359   1.526
 8386SOL     OW26056   2.641   6.020   2.117
 8386SOL    HW126057   2.620   6.079   2.195
 8386SOL    HW226058   2.739   6.000   2.116
 8387SOL     OW26059   1.711   1.441   2.452
 8387SOL    HW126060   1.642   1.376   2.485
 8387SOL    HW226061   1.716   1.519   2.514
 8388SOL     OW26062   4.138   6.345   1.552
 8388SOL    HW126063   4.040   6.355   1.534
 8388SOL    HW226064   4.185   6.319   1.467
 8389SOL     OW26065   0.349   2.421   3.997
 8389SOL    HW126066   0.249   2.416   4.008
 8389SOL    HW226067   0.392   2.355   4.058
 8390SOL     OW26068   3.366   0.691   5.646
 8390SOL    HW126069   3.409   0.762   5.702
 8390SOL    HW226070   3.434   0.654   5.582
 8391SOL     OW26071   5.679   5.875   1.062
 8391SOL    HW126072   5.692   5.782   1.028
 8391SOL    HW226073   5.766   5.924   1.061
 8392SOL     OW26074   5.370   6.323   5.996
 8392SOL    HW126075   5.353   6.401   5.936
 8392SOL    HW226076   5.297   6.256   5.983
 8393SOL     OW26077   6.813   5.764   2.939
 8393SOL    HW126078   6.896   5.723   2.901
 8393SOL    HW226079   6.822   5.864   2.940
 8394SOL     OW26080   0.857   2.017   3.022
 8394SOL    HW126081   0.885   2.085   3.091
 8394SOL    HW226082   0.895   2.043   2.933
 8395SOL     OW26083   0.193   6.158   5.917
 8395SOL    HW126084   0.177   6.159   5.818
 8395SOL    HW226085   0.231   6.069   5.943
 8396SOL     OW26086   4.614   3.210   1.655
 8396SOL    HW126087   4.606   3.137   1.722
 8396SOL    HW226088   4.539   3.275   1.667
 8397SOL     OW26089   2.388   5.976   3.484
 8397SOL    HW126090   2.372   6.055   3.543
 8397SOL    HW226091   2.317   5.971   3.415
 8398SOL     OW26092   4.917   2.141   0.622
 8398SOL    HW126093   4.903   2.089   0.707
 8398SOL    HW226094   4.928   2.238   0.643
 8399SOL     OW26095   5.699   5.842   0.482
 8399SOL    HW126096   5.615   5.865   0.433
 8399SOL    HW226097   5.777   5.885   0.437
 8400SOL     OW26098   6.421   0.798   3.502
 8400SOL    HW126099   6.453   0.745   3.423
 8400SOL    HW226100   6.325   0.822   3.488
 8401SOL     OW26101   2.876   4.316   6.593
 8401SOL    HW126102   2.784   4.353   6.592
 8401SOL    HW226103   2.919   4.331   6.504
 8402SOL     OW26104   4.214   2.177   0.095
 8402SOL    HW126105   4.295   2.119   0.091
 8402SOL    HW226106   4.187   2.205   0.003
 8403SOL     OW26107   1.934   1.587   4.450
 8403SOL    HW126108   2.028   1.590   4.484
 8403SOL    HW226109   1.897   1.495   4.460
 8404SOL     OW26110   4.185   4.989   5.634
 8404SOL    HW126111   4.159   5.081   5.605
 8404SOL    HW226112   4.192   4.986   5.733
 8405SOL     OW26113   0.670   2.679   5.172
 8405SOL    HW126114   0.770   2.684   5.176
 8405SOL    HW226115   0.642   2.624   5.093
 8406SOL     OW26116   5.512   3.712   1.472
 8406SOL    HW126117   5.420   3.744   1.450
 8406SOL    HW226118   5.527   3.716   1.571
 8407SOL     OW26119   4.890   4.173   2.746
 8407SOL    HW126120   4.880   4.077   2.770
 8407SOL    HW226121   4.816   4.200   2.685
 8408SOL     OW26122   4.966   2.162   4.822
 8408SOL    HW126123   4.910   2.234   4.864
 8408SOL    HW226124   5.020   2.201   4.748
 8409SOL     OW26125   0.335   2.208   3.812
 8409SOL    HW126126   0.322   2.299   3.852
 8409SOL    HW226127   0.246   2.164   3.801
 8410SOL     OW26128   4.070   0.113   1.542
 8410SOL    HW126129   4.092   0.183   1.609
 8410SOL    HW226130   4.131   0.034   1.555
 8411SOL     OW26131   1.815   3.268   4.241
 8411SOL    HW126132   1.914   3.252   4.246
 8411SOL    HW226133   1.783   3.245   4.149
 8412SOL     OW26134   5.684   2.021   3.821
 8412SOL    HW126135   5.618   2.060   3.756
 8412SOL    HW226136   5.701   1.925   3.799
 8413SOL     OW26137   3.372   4.933   0.835
 8413SOL    HW126138   3.369   5.028   0.803
 8413SOL    HW226139   3.352   4.871   0.759
 8414SOL     OW26140   4.140   6.366   2.799
 8414SOL    HW126141   4.098   6.440   2.853
 8414SOL    HW226142   4.086   6.351   2.716
 8415SOL     OW26143   6.810   3.853   2.708
 8415SOL    HW126144   6.887   3.876   2.650
 8415SOL    HW226145   6.777   3.935   2.755
 8416SOL     OW26146   5.430   3.978   2.750
 8416SOL    HW126147   5.344   3.968   2.701
 8416SOL    HW226148   5.413   3.972   2.849
 8417SOL     OW26149   2.628   5.927   6.265
 8417SOL    HW126150   2.668   6.010   6.304
 8417SOL    HW226151   2.639   5.852   6.330
 8418SOL     OW26152   6.483   5.291   2.477
 8418SOL    HW126153   6.498   5.359   2.549
 8418SOL    HW226154   6.416   5.223   2.508
 8419SOL     OW26155   4.580   0.526   3.694
 8419SOL    HW126156   4.491   0.553   3.731
 8419SOL    HW226157   4.653   0.559   3.755
 8420SOL     OW26158   3.930   0.976   6.489
 8420SOL    HW126159   3.875   0.901   6.525
 8420SOL    HW226160   4.024   0.970   6.524
 8421SOL     OW26161   2.501   6.869   2.083
 8421SOL    HW126162   2.587   6.852   2.034
 8421SOL    HW226163   2.493   6.804   2.159
 8422SOL     OW26164   4.016   6.455   1.134
 8422SOL    HW126165   4.002   6.548   1.098
 8422SOL    HW226166   3.932   6.424   1.179
 8423SOL     OW26167   3.196   4.195   1.163
 8423SOL    HW126168   3.211   4.151   1.251
 8423SOL    HW226169   3.201   4.127   1.090
 8424SOL     OW26170   3.421   1.675   2.555
 8424SOL    HW126171   3.344   1.713   2.607
 8424SOL    HW226172   3.455   1.744   2.491
 8425SOL     OW26173   6.177   4.485   0.087
 8425SOL    HW126174   6.125   4.425   0.026
 8425SOL    HW226175   6.274   4.477   0.067
 8426SOL     OW26176   3.938   3.460   2.965
 8426SOL    HW126177   3.901   3.401   3.037
 8426SOL    HW226178   3.997   3.529   3.005
 8427SOL     OW26179   2.294   3.715   6.493
 8427SOL    HW126180   2.350   3.672   6.563
 8427SOL    HW226181   2.352   3.766   6.430
 8428SOL     OW26182   6.358   4.222   2.358
 8428SOL    HW126183   6.296   4.144   2.358
 8428SOL    HW226184   6.368   4.257   2.265
 8429SOL     OW26185   2.251   6.482   2.805
 8429SOL    HW126186   2.323   6.420   2.774
 8429SOL    HW226187   2.243   6.558   2.740
 8430SOL     OW26188   4.671   4.685   3.336
 8430SOL    HW126189   4.690   4.717   3.429
 8430SOL    HW226190   4.754   4.646   3.296
 8431SOL     OW26191   3.654   4.569   1.111
 8431SOL    HW126192   3.594   4.490   1.120
 8431SOL    HW226193   3.668   4.590   1.014
 8432SOL     OW26194   4.107   6.968   0.325
 8432SOL    HW126195   4.147   6.988   0.414
 8432SOL    HW226196   4.138   0.012   0.258
 8433SOL     OW26197   1.189   2.050   5.945
 8433SOL    HW126198   1.092   2.045   5.920
 8433SOL    HW226199   1.244   2.061   5.863
 8434SOL     OW26200   5.271   0.022   5.263
 8434SOL    HW126201   5.315   6.991   5.192
 8434SOL    HW226202   5.305   7.017   5.353
 8435SOL     OW26203   4.366   1.758   1.375
 8435SOL    HW126204   4.305   1.813   1.318
 8435SOL    HW226205   4.421   1.698   1.317
 8436SOL     OW26206   4.222   4.284   1.625
 8436SOL    HW126207   4.275   4.263   1.707
 8436SOL    HW226208   4.234   4.211   1.558
 8437SOL     OW26209   0.393   1.204   1.252
 8437SOL    HW126210   0.413   1.106   1.246
 8437SOL    HW226211   0.473   1.252   1.286
 8438SOL     OW26212   1.659   6.633   1.746
 8438SOL    HW126213   1.729   6.664   1.681
 8438SOL    HW226214   1.571   6.673   1.721
 8439SOL     OW26215   0.457   5.892   2.623
 8439SOL    HW126216   0.495   5.965   2.567
 8439SOL    HW226217   0.457   5.807   2.570
 8440SOL     OW26218   0.489   1.090   2.529
 8440SOL    HW126219   0.540   1.026   2.471
 8440SOL    HW226220   0.469   1.046   2.617
 8441SOL     OW26221   4.980   5.592   6.433
 8441SOL    HW126222   4.923   5.562   6.509
 8441SOL    HW226223   4.923   5.640   6.366
 8442SOL     OW26224   2.087   4.826   6.984
 8442SOL    HW126225   2.113   4.915   6.947
 8442SOL    HW226226   2.170   4.776   7.010
 8443SOL     OW26227   1.823   0.644   2.788
 8443SOL    HW126228   1.827   0.633   2.888
 8443SOL    HW226229   1.910   0.613   2.749
 8444SOL     OW26230   3.597   6.377   3.469
 8444SOL    HW126231   3.638   6.423   3.548
 8444SOL    HW226232   3.499   6.367   3.484
 8445SOL     OW26233   4.106   4.820   2.303
 8445SOL    HW126234   4.113   4.845   2.399
 8445SOL    HW226235   4.010   4.828   2.273
 8446SOL     OW26236   5.869   4.529   2.419
 8446SOL    HW126237   5.868   4.434   2.389
 8446SOL    HW226238   5.958   4.551   2.459
 8447SOL     OW26239   4.556   2.525   2.152
 8447SOL    HW126240   4.493   2.483   2.086
 8447SOL    HW226241   4.531   2.621   2.165
 8448SOL     OW26242   1.070   3.330   6.483
 8448SOL    HW126243   1.106   3.421   6.460
 8448SOL    HW226244   1.023   3.292   6.403
 8449SOL     OW26245   1.565   2.914   4.689
 8449SOL    HW126246   1.572   2.845   4.617
 8449SOL    HW226247   1.657   2.942   4.717
 8450SOL     OW26248   2.228   5.169   2.494
 8450SOL    HW126249   2.201   5.162   2.398
 8450SOL    HW226250   2.228   5.078   2.536
 8451SOL     OW26251   3.516   2.687   1.021
 8451SOL    HW126252   3.525   2.786   1.013
 8451SOL    HW226253   3.606   2.644   1.019
 8452SOL     OW26254   6.779   6.118   0.460
 8452SOL    HW126255   6.786   6.202   0.513
 8452SOL    HW226256   6.796   6.137   0.364
 8453SOL     OW26257   6.487   4.124   6.378
 8453SOL    HW126258   6.466   4.171   6.293
 8453SOL    HW226259   6.487   4.190   6.454
 8454SOL     OW26260   1.583   0.290   4.285
 8454SOL    HW126261   1.501   0.307   4.338
 8454SOL    HW226262   1.659   0.266   4.346
 8455SOL     OW26263   4.943   1.360   1.412
 8455SOL    HW126264   5.023   1.357   1.353
 8455SOL    HW226265   4.926   1.454   1.441
 8456SOL     OW26266   5.484   5.792   2.966
 8456SOL    HW126267   5.507   5.882   3.001
 8456SOL    HW226268   5.389   5.790   2.936
 8457SOL     OW26269   0.190   5.978   6.270
 8457SOL    HW126270   0.182   6.076   6.285
 8457SOL    HW226271   0.262   5.941   6.329
 8458SOL     OW26272   1.275   1.669   0.650
 8458SOL    HW126273   1.339   1.640   0.579
 8458SOL    HW226274   1.217   1.742   0.614
 8459SOL     OW26275   3.321   5.829   2.095
 8459SOL    HW126276   3.301   5.817   2.192
 8459SOL    HW226277   3.307   5.743   2.047
 8460SOL     OW26278   4.468   1.688   0.883
 8460SOL    HW126279   4.483   1.630   0.803
 8460SOL    HW226280   4.371   1.689   0.905
 8461SOL     OW26281   6.288   3.977   1.783
 8461SOL    HW126282   6.324   3.928   1.863
 8461SOL    HW226283   6.208   3.929   1.749
 8462SOL     OW26284   3.267   4.784   6.765
 8462SOL    HW126285   3.324   4.823   6.838
 8462SOL    HW226286   3.173   4.819   6.775
 8463SOL     OW26287   6.622   1.360   0.010
 8463SOL    HW126288   6.630   1.393   0.104
 8463SOL    HW226289   6.556   1.285   0.007
 8464SOL     OW26290   0.146   3.530   0.132
 8464SOL    HW126291   0.142   3.527   0.032
 8464SOL    HW226292   0.219   3.592   0.161
 8465SOL     OW26293   4.138   3.245   1.245
 8465SOL    HW126294   4.163   3.254   1.342
 8465SOL    HW226295   4.041   3.222   1.238
 8466SOL     OW26296   6.024   0.974   5.948
 8466SOL    HW126297   6.049   0.892   5.896
 8466SOL    HW226298   5.935   0.959   5.991
 8467SOL     OW26299   3.460   0.801   1.039
 8467SOL    HW126300   3.489   0.893   1.014
 8467SOL    HW226301   3.501   0.776   1.127
 8468SOL     OW26302   6.304   3.042   0.385
 8468SOL    HW126303   6.360   2.995   0.316
 8468SOL    HW226304   6.316   3.140   0.376
 8469SOL     OW26305   4.057   2.983   5.813
 8469SOL    HW126306   4.013   2.967   5.901
 8469SOL    HW226307   4.055   3.080   5.792
 8470SOL     OW26308   1.682   5.307   1.467
 8470SOL    HW126309   1.700   5.209   1.459
 8470SOL    HW226310   1.601   5.322   1.524
 8471SOL     OW26311   3.684   2.181   5.091
 8471SOL    HW126312   3.586   2.168   5.107
 8471SOL    HW226313   3.727   2.094   5.069
 8472SOL     OW26314   5.790   1.547   6.014
 8472SOL    HW126315   5.841   1.468   5.981
 8472SOL    HW226316   5.850   1.627   6.018
 8473SOL     OW26317   4.581   4.842   6.278
 8473SOL    HW126318   4.541   4.768   6.332
 8473SOL    HW226319   4.612   4.806   6.190
 8474SOL     OW26320   3.658   3.763   2.802
 8474SOL    HW126321   3.698   3.672   2.819
 8474SOL    HW226322   3.723   3.833   2.831
 8475SOL     OW26323   6.727   2.904   2.212
 8475SOL    HW126324   6.728   2.806   2.230
 8475SOL    HW226325   6.665   2.923   2.136
 8476SOL     OW26326   6.138   0.017   2.010
 8476SOL    HW126327   6.188   0.062   1.935
 8476SOL    HW226328   6.125   0.082   2.085
 8477SOL     OW26329   6.232   6.491   1.543
 8477SOL    HW126330   6.214   6.556   1.469
 8477SOL    HW226331   6.155   6.491   1.607
 8478SOL     OW26332   6.367   7.019   5.452
 8478SOL    HW126333   6.320   6.958   5.388
 8478SOL    HW226334   6.442   0.042   5.404
 8479SOL     OW26335   0.694   2.663   1.495
 8479SOL    HW126336   0.657   2.695   1.582
 8479SOL    HW226337   0.718   2.742   1.438
 8480SOL     OW26338   4.860   4.467   0.441
 8480SOL    HW126339   4.927   4.492   0.372
 8480SOL    HW226340   4.901   4.474   0.532
 8481SOL     OW26341   4.057   2.139   3.650
 8481SOL    HW126342   4.145   2.188   3.652
 8481SOL    HW226343   4.013   2.153   3.562
 8482SOL     OW26344   4.297   1.171   0.363
 8482SOL    HW126345   4.303   1.271   0.362
 8482SOL    HW226346   4.263   1.139   0.275
 8483SOL     OW26347   3.042   5.192   3.435
 8483SOL    HW126348   2.963   5.166   3.379
 8483SOL    HW226349   3.014   5.262   3.501
 8484SOL     OW26350   5.657   5.852   3.973
 8484SOL    HW126351   5.654   5.848   3.873
 8484SOL    HW226352   5.675   5.761   4.010
 8485SOL     OW26353   2.658   2.684   0.443
 8485SOL    HW126354   2.631   2.767   0.396
 8485SOL    HW226355   2.753   2.662   0.421
 8486SOL     OW26356   1.042   1.177   2.614
 8486SOL    HW126357   0.948   1.204   2.592
 8486SOL    HW226358   1.045   1.079   2.632
 8487SOL     OW26359   6.222   1.768   5.933
 8487SOL    HW126360   6.179   1.680   5.949
 8487SOL    HW226361   6.321   1.756   5.927
 8488SOL     OW26362   5.065   4.322   1.520
 8488SOL    HW126363   5.063   4.370   1.608
 8488SOL    HW226364   5.089   4.387   1.448
 8489SOL     OW26365   4.853   1.220   1.794
 8489SOL    HW126366   4.879   1.314   1.774
 8489SOL    HW226367   4.936   1.163   1.801
 8490SOL     OW26368   2.316   0.237   6.924
 8490SOL    HW126369   2.322   0.175   6.846
 8490SOL    HW226370   2.317   0.332   6.891
 8491SOL     OW26371   3.353   5.707   2.392
 8491SOL    HW126372   3.357   5.781   2.459
 8491SOL    HW226373   3.261   5.667   2.392
 8492SOL     OW26374   6.361   5.772   4.257
 8492SOL    HW126375   6.427   5.842   4.287
 8492SOL    HW226376   6.272   5.815   4.242
 8493SOL     OW26377   3.801   0.463   7.023
 8493SOL    HW126378   3.812   0.368   6.996
 8493SOL    HW226379   3.858   0.483   0.079
 8494SOL     OW26380   6.437   5.087   2.255
 8494SOL    HW126381   6.441   5.178   2.296
 8494SOL    HW226382   6.388   5.025   2.316
 8495SOL     OW26383   6.523   5.503   0.074
 8495SOL    HW126384   6.574   5.503   0.160
 8495SOL    HW226385   6.520   5.595   0.036
 8496SOL     OW26386   5.331   2.286   2.672
 8496SOL    HW126387   5.233   2.293   2.693
 8496SOL    HW226388   5.344   2.298   2.573
 8497SOL     OW26389   6.166   1.073   3.895
 8497SOL    HW126390   6.174   0.977   3.923
 8497SOL    HW226391   6.163   1.131   3.976
 8498SOL     OW26392   5.006   0.574   4.337
 8498SOL    HW126393   4.984   0.488   4.382
 8498SOL    HW226394   4.990   0.650   4.401
 8499SOL     OW26395   6.345   6.700   6.239
 8499SOL    HW126396   6.409   6.624   6.249
 8499SOL    HW226397   6.265   6.684   6.296
 8500SOL     OW26398   1.556   0.866   4.644
 8500SOL    HW126399   1.540   0.790   4.580
 8500SOL    HW226400   1.640   0.914   4.619
 8501SOL     OW26401   0.889   2.035   5.915
 8501SOL    HW126402   0.897   1.974   5.994
 8501SOL    HW226403   0.852   2.123   5.944
 8502SOL     OW26404   0.498   2.815   7.003
 8502SOL    HW126405   0.502   2.913   6.983
 8502SOL    HW226406   0.587   2.774   6.985
 8503SOL     OW26407   5.656   0.362   4.146
 8503SOL    HW126408   5.677   0.333   4.239
 8503SOL    HW226409   5.640   0.281   4.089
 8504SOL     OW26410   2.166   5.670   2.347
 8504SOL    HW126411   2.214   5.758   2.341
 8504SOL    HW226412   2.107   5.659   2.267
 8505SOL     OW26413   5.308   3.161   2.742
 8505SOL    HW126414   5.318   3.131   2.837
 8505SOL    HW226415   5.396   3.192   2.707
 8506SOL     OW26416   1.921   0.329   6.981
 8506SOL    HW126417   1.832   0.320   0.002
 8506SOL    HW226418   1.992   0.336   0.028
 8507SOL     OW26419   4.679   6.057   5.847
 8507SOL    HW126420   4.767   6.046   5.800
 8507SOL    HW226421   4.686   6.131   5.914
 8508SOL     OW26422   3.454   1.724   0.102
 8508SOL    HW126423   3.398   1.714   0.019
 8508SOL    HW226424   3.398   1.758   0.176
 8509SOL     OW26425   5.460   0.891   3.772
 8509SOL    HW126426   5.463   0.951   3.853
 8509SOL    HW226427   5.385   0.919   3.712
 8510SOL     OW26428   6.614   2.165   4.595
 8510SOL    HW126429   6.674   2.119   4.528
 8510SOL    HW226430   6.536   2.206   4.547
 8511SOL     OW26431   5.763   2.661   1.863
 8511SOL    HW126432   5.828   2.733   1.886
 8511SOL    HW226433   5.789   2.576   1.910
 8512SOL     OW26434   1.710   6.901   4.914
 8512SOL    HW126435   1.733   6.894   5.011
 8512SOL    HW226436   1.755   6.827   4.864
 8513SOL     OW26437   5.402   5.779   6.338
 8513SOL    HW126438   5.311   5.764   6.376
 8513SOL    HW226439   5.417   5.718   6.260
 8514SOL     OW26440   2.299   5.759   3.839
 8514SOL    HW126441   2.378   5.766   3.778
 8514SOL    HW226442   2.313   5.818   3.919
 8515SOL     OW26443   5.028   2.109   1.262
 8515SOL    HW126444   4.981   2.046   1.324
 8515SOL    HW226445   4.961   2.150   1.200
 8516SOL     OW26446   6.955   2.012   2.377
 8516SOL    HW126447   6.930   2.105   2.404
 8516SOL    HW226448   6.932   1.997   2.281
 8517SOL     OW26449   2.366   2.649   6.599
 8517SOL    HW126450   2.357   2.556   6.634
 8517SOL    HW226451   2.459   2.682   6.616
 8518SOL     OW26452   3.652   5.720   0.508
 8518SOL    HW126453   3.597   5.801   0.488
 8518SOL    HW226454   3.724   5.711   0.439
 8519SOL     OW26455   1.162   5.597   2.829
 8519SOL    HW126456   1.259   5.576   2.821
 8519SOL    HW226457   1.143   5.630   2.921
 8520SOL     OW26458   3.464   0.862   0.317
 8520SOL    HW126459   3.393   0.830   0.379
 8520SOL    HW226460   3.442   0.835   0.224
 8521SOL     OW26461   1.128   6.224   6.229
 8521SOL    HW126462   1.046   6.230   6.172
 8521SOL    HW226463   1.103   6.190   6.320
 8522SOL     OW26464   1.505   5.756   4.980
 8522SOL    HW126465   1.532   5.670   4.937
 8522SOL    HW226466   1.567   5.829   4.951
 8523SOL     OW26467   1.379   0.063   6.771
 8523SOL    HW126468   1.474   0.091   6.756
 8523SOL    HW226469   1.317   0.134   6.738
 8524SOL     OW26470   1.069   2.766   6.262
 8524SOL    HW126471   1.162   2.800   6.248
 8524SOL    HW226472   1.017   2.834   6.314
 8525SOL     OW26473   5.920   3.183   2.730
 8525SOL    HW126474   5.842   3.195   2.668
 8525SOL    HW226475   5.980   3.263   2.724
 8526SOL     OW26476   1.886   2.949   2.379
 8526SOL    HW126477   1.857   3.017   2.446
 8526SOL    HW226478   1.906   2.994   2.292
 8527SOL     OW26479   4.394   0.932   4.586
 8527SOL    HW126480   4.474   0.969   4.539
 8527SOL    HW226481   4.331   0.892   4.519
 8528SOL     OW26482   4.768   2.383   6.643
 8528SOL    HW126483   4.824   2.344   6.716
 8528SOL    HW226484   4.790   2.480   6.631
 8529SOL     OW26485   0.259   4.889   0.042
 8529SOL    HW126486   0.282   4.960   0.109
 8529SOL    HW226487   0.316   4.899   6.985
 8530SOL     OW26488   1.513   3.635   5.601
 8530SOL    HW126489   1.506   3.695   5.522
 8530SOL    HW226490   1.543   3.544   5.572
 8531SOL     OW26491   4.510   4.824   2.775
 8531SOL    HW126492   4.447   4.891   2.814
 8531SOL    HW226493   4.590   4.871   2.737
 8532SOL     OW26494   2.208   3.751   5.799
 8532SOL    HW126495   2.281   3.701   5.754
 8532SOL    HW226496   2.237   3.777   5.891
 8533SOL     OW26497   3.674   0.306   5.414
 8533SOL    HW126498   3.763   0.300   5.368
 8533SOL    HW226499   3.612   0.238   5.376
 8534SOL     OW26500   1.456   2.700   3.083
 8534SOL    HW126501   1.540   2.731   3.039
 8534SOL    HW226502   1.422   2.771   3.145
 8535SOL     OW26503   0.183   2.291   4.320
 8535SOL    HW126504   0.258   2.238   4.280
 8535SOL    HW226505   0.144   2.241   4.397
 8536SOL     OW26506   0.200   1.824   5.784
 8536SOL    HW126507   0.229   1.875   5.865
 8536SOL    HW226508   0.281   1.787   5.737
 8537SOL     OW26509   5.431   0.530   1.965
 8537SOL    HW126510   5.425   0.583   1.880
 8537SOL    HW226511   5.355   0.465   1.969
 8538SOL     OW26512   5.876   1.255   4.660
 8538SOL    HW126513   5.860   1.276   4.756
 8538SOL    HW226514   5.843   1.331   4.604
 8539SOL     OW26515   0.081   3.443   2.451
 8539SOL    HW126516   0.137   3.501   2.511
 8539SOL    HW226517   0.008   3.498   2.411
 8540SOL     OW26518   4.657   0.497   6.921
 8540SOL    HW126519   4.720   0.551   6.977
 8540SOL    HW226520   4.563   0.521   6.944
 8541SOL     OW26521   3.401   0.135   5.401
 8541SOL    HW126522   3.353   0.069   5.343
 8541SOL    HW226523   3.402   0.225   5.357
 8542SOL     OW26524   1.286   4.586   6.709
 8542SOL    HW126525   1.342   4.665   6.734
 8542SOL    HW226526   1.264   4.591   6.611
 8543SOL     OW26527   2.464   2.137   6.660
 8543SOL    HW126528   2.442   2.071   6.732
 8543SOL    HW226529   2.516   2.092   6.588
 8544SOL     OW26530   5.673   4.387   5.649
 8544SOL    HW126531   5.632   4.457   5.590
 8544SOL    HW226532   5.772   4.386   5.636
 8545SOL     OW26533   2.838   0.578   6.494
 8545SOL    HW126534   2.910   0.563   6.427
 8545SOL    HW226535   2.842   0.506   6.564
 8546SOL     OW26536   5.472   6.928   1.239
 8546SOL    HW126537   5.495   7.023   1.218
 8546SOL    HW226538   5.373   6.917   1.239
 8547SOL     OW26539   6.342   6.129   5.312
 8547SOL    HW126540   6.426   6.141   5.364
 8547SOL    HW226541   6.263   6.137   5.373
 8548SOL     OW26542   0.245   3.103   5.928
 8548SOL    HW126543   0.266   3.176   5.863
 8548SOL    HW226544   0.205   3.025   5.880
 8549SOL     OW26545   1.781   0.175   3.832
 8549SOL    HW126546   1.769   0.268   3.866
 8549SOL    HW226547   1.876   0.162   3.802
 8550SOL     OW26548   6.789   4.239   6.030
 8550SOL    HW126549   6.829   4.153   6.063
 8550SOL    HW226550   6.857   4.289   5.977
 8551SOL     OW26551   2.030   1.395   6.429
 8551SOL    HW126552   2.029   1.419   6.525
 8551SOL    HW226553   1.962   1.323   6.412
 8552SOL     OW26554   2.875   1.825   3.247
 8552SOL    HW126555   2.885   1.889   3.171
 8552SOL    HW226556   2.881   1.732   3.212
 8553SOL     OW26557   4.864   3.512   6.787
 8553SOL    HW126558   4.781   3.458   6.805
 8553SOL    HW226559   4.911   3.530   6.873
 8554SOL     OW26560   1.755   1.131   1.128
 8554SOL    HW126561   1.693   1.191   1.179
 8554SOL    HW226562   1.732   1.134   1.031
 8555SOL     OW26563   4.384   1.420   4.066
 8555SOL    HW126564   4.320   1.346   4.044
 8555SOL    HW226565   4.333   1.503   4.087
 8556SOL     OW26566   2.070   6.268   0.386
 8556SOL    HW126567   2.138   6.254   0.458
 8556SOL    HW226568   2.088   6.204   0.311
 8557SOL     OW26569   0.239   0.550   0.104
 8557SOL    HW126570   0.174   0.626   0.100
 8557SOL    HW226571   0.325   0.581   0.143
 8558SOL     OW26572   3.268   5.908   4.631
 8558SOL    HW126573   3.178   5.919   4.590
 8558SOL    HW226574   3.269   5.951   4.721
 8559SOL     OW26575   1.255   5.074   2.743
 8559SOL    HW126576   1.227   5.085   2.647
 8559SOL    HW226577   1.205   5.139   2.800
 8560SOL     OW26578   3.108   4.557   1.465
 8560SOL    HW126579   3.163   4.477   1.488
 8560SOL    HW226580   3.059   4.588   1.546
 8561SOL     OW26581   4.750   0.711   2.311
 8561SOL    HW126582   4.811   0.783   2.343
 8561SOL    HW226583   4.773   0.625   2.356
 8562SOL     OW26584   5.038   1.687   6.652
 8562SOL    HW126585   4.950   1.646   6.674
 8562SOL    HW226586   5.052   1.686   6.553
 8563SOL     OW26587   2.524   5.056   1.968
 8563SOL    HW126588   2.570   5.144   1.965
 8563SOL    HW226589   2.589   4.984   1.993
 8564SOL     OW26590   4.180   0.481   6.992
 8564SOL    HW126591   4.110   0.547   6.963
 8564SOL    HW226592   4.267   0.503   6.948
 8565SOL     OW26593   2.435   4.745   0.874
 8565SOL    HW126594   2.374   4.812   0.916
 8565SOL    HW226595   2.381   4.667   0.841
 8566SOL     OW26596   3.481   1.208   2.596
 8566SOL    HW126597   3.526   1.269   2.530
 8566SOL    HW226598   3.526   1.215   2.685
 8567SOL     OW26599   2.080   2.898   2.042
 8567SOL    HW126600   2.135   2.881   2.124
 8567SOL    HW226601   1.999   2.839   2.044
 8568SOL     OW26602   6.092   0.442   6.535
 8568SOL    HW126603   6.042   0.389   6.604
 8568SOL    HW226604   6.191   0.427   6.548
 8569SOL     OW26605   4.592   2.202   6.282
 8569SOL    HW126606   4.571   2.107   6.262
 8569SOL    HW226607   4.682   2.225   6.245
 8570SOL     OW26608   1.727   2.521   3.007
 8570SOL    HW126609   1.650   2.546   3.067
 8570SOL    HW226610   1.793   2.596   3.005
 8571SOL     OW26611   1.399   1.044   2.856
 8571SOL    HW126612   1.461   0.968   2.838
 8571SOL    HW226613   1.429   1.092   2.938
 8572SOL     OW26614   2.913   4.537   5.588
 8572SOL    HW126615   2.862   4.502   5.509
 8572SOL    HW226616   2.942   4.461   5.646
 8573SOL     OW26617   4.118   6.274   0.382
 8573SOL    HW126618   4.053   6.310   0.449
 8573SOL    HW226619   4.078   6.281   0.291
 8574SOL     OW26620   5.333   0.980   5.007
 8574SOL    HW126621   5.309   0.940   4.919
 8574SOL    HW226622   5.391   1.060   4.992
 8575SOL     OW26623   3.103   6.013   3.422
 8575SOL    HW126624   3.165   6.015   3.343
 8575SOL    HW226625   3.055   6.100   3.430
 8576SOL     OW26626   1.218   4.813   3.355
 8576SOL    HW126627   1.186   4.804   3.260
 8576SOL    HW226628   1.222   4.723   3.397
 8577SOL     OW26629   1.525   1.822   0.760
 8577SOL    HW126630   1.505   1.748   0.696
 8577SOL    HW226631   1.583   1.788   0.834
 8578SOL     OW26632   6.687   6.729   6.170
 8578SOL    HW126633   6.781   6.723   6.138
 8578SOL    HW226634   6.664   6.647   6.223
 8579SOL     OW26635   3.179   6.067   2.720
 8579SOL    HW126636   3.212   6.161   2.731
 8579SOL    HW226637   3.105   6.050   2.785
 8580SOL     OW26638   2.528   0.573   1.125
 8580SOL    HW126639   2.557   0.483   1.159
 8580SOL    HW226640   2.492   0.627   1.200
 8581SOL     OW26641   3.152   5.171   1.643
 8581SOL    HW126642   3.219   5.185   1.716
 8581SOL    HW226643   3.199   5.148   1.558
 8582SOL     OW26644   3.766   4.675   6.047
 8582SOL    HW126645   3.681   4.622   6.037
 8582SOL    HW226646   3.752   4.746   6.116
 8583SOL     OW26647   4.602   0.451   2.949
 8583SOL    HW126648   4.568   0.482   2.860
 8583SOL    HW226649   4.556   0.504   3.021
 8584SOL     OW26650   6.589   1.470   4.856
 8584SOL    HW126651   6.641   1.529   4.794
 8584SOL    HW226652   6.491   1.484   4.842
 8585SOL     OW26653   5.096   2.336   2.404
 8585SOL    HW126654   5.116   2.409   2.339
 8585SOL    HW226655   5.062   2.256   2.355
 8586SOL     OW26656   6.538   6.013   0.597
 8586SOL    HW126657   6.611   6.040   0.535
 8586SOL    HW226658   6.449   6.030   0.554
 8587SOL     OW26659   1.084   1.820   6.848
 8587SOL    HW126660   1.156   1.865   6.795
 8587SOL    HW226661   1.050   1.741   6.799
 8588SOL     OW26662   2.246   1.595   6.808
 8588SOL    HW126663   2.244   1.635   6.716
 8588SOL    HW226664   2.336   1.611   6.849
 8589SOL     OW26665   6.592   2.495   6.794
 8589SOL    HW126666   6.523   2.556   6.754
 8589SOL    HW226667   6.682   2.537   6.785
 8590SOL     OW26668   1.362   1.139   3.813
 8590SOL    HW126669   1.340   1.235   3.832
 8590SOL    HW226670   1.421   1.103   3.886
 8591SOL     OW26671   6.393   4.272   6.783
 8591SOL    HW126672   6.343   4.189   6.757
 8591SOL    HW226673   6.336   4.352   6.764
 8592SOL     OW26674   1.011   1.756   5.850
 8592SOL    HW126675   1.086   1.768   5.914
 8592SOL    HW226676   0.948   1.687   5.885
 8593SOL     OW26677   3.908   1.361   0.411
 8593SOL    HW126678   3.926   1.344   0.508
 8593SOL    HW226679   3.928   1.278   0.358
 8594SOL     OW26680   6.326   3.000   5.530
 8594SOL    HW126681   6.419   2.964   5.524
 8594SOL    HW226682   6.298   3.034   5.440
 8595SOL     OW26683   6.260   6.660   2.449
 8595SOL    HW126684   6.205   6.658   2.532
 8595SOL    HW226685   6.297   6.752   2.435
 8596SOL     OW26686   1.003   1.493   3.977
 8596SOL    HW126687   0.974   1.568   3.917
 8596SOL    HW226688   0.924   1.434   3.997
 8597SOL     OW26689   5.652   3.268   6.952
 8597SOL    HW126690   5.673   3.171   6.935
 8597SOL    HW226691   5.651   3.284   0.027
 8598SOL     OW26692   5.878   6.840   4.062
 8598SOL    HW126693   5.906   6.936   4.051
 8598SOL    HW226694   5.912   6.787   3.984
 8599SOL     OW26695   0.452   3.399   4.072
 8599SOL    HW126696   0.443   3.493   4.040
 8599SOL    HW226697   0.472   3.339   3.994
 8600SOL     OW26698   4.266   2.232   1.124
 8600SOL    HW126699   4.331   2.179   1.071
 8600SOL    HW226700   4.301   2.324   1.139
 8601SOL     OW26701   1.034   6.702   3.290
 8601SOL    HW126702   1.128   6.718   3.322
 8601SOL    HW226703   1.036   6.660   3.200
 8602SOL     OW26704   2.666   6.785   5.215
 8602SOL    HW126705   2.645   6.748   5.125
 8602SOL    HW226706   2.632   6.879   5.221
 8603SOL     OW26707   0.180   0.301   0.067
 8603SOL    HW126708   0.239   0.235   0.022
 8603SOL    HW226709   0.226   0.389   0.072
 8604SOL     OW26710   0.181   4.615   5.890
 8604SOL    HW126711   0.131   4.693   5.853
 8604SOL    HW226712   0.240   4.646   5.964
 8605SOL     OW26713   0.105   5.564   4.539
 8605SOL    HW126714   0.157   5.518   4.610
 8605SOL    HW226715   0.106   5.663   4.556
 8606SOL     OW26716   1.691   2.523   0.413
 8606SOL    HW126717   1.721   2.445   0.358
 8606SOL    HW226718   1.758   2.597   0.406
 8607SOL     OW26719   2.572   4.289   1.480
 8607SOL    HW126720   2.631   4.244   1.412
 8607SOL    HW226721   2.629   4.322   1.555
 8608SOL     OW26722   2.282   5.028   2.840
 8608SOL    HW126723   2.340   5.088   2.896
 8608SOL    HW226724   2.340   4.968   2.785
 8609SOL     OW26725   4.921   1.226   4.460
 8609SOL    HW126726   4.837   1.232   4.406
 8609SOL    HW226727   4.996   1.271   4.411
 8610SOL     OW26728   0.255   6.049   3.197
 8610SOL    HW126729   0.322   6.065   3.124
 8610SOL    HW226730   0.262   5.954   3.228
 8611SOL     OW26731   3.322   1.605   5.062
 8611SOL    HW126732   3.354   1.511   5.066
 8611SOL    HW226733   3.222   1.607   5.060
 8612SOL     OW26734   3.875   3.976   3.969
 8612SOL    HW126735   3.852   4.011   3.878
 8612SOL    HW226736   3.910   4.051   4.026
 8613SOL     OW26737   3.924   3.001   1.555
 8613SOL    HW126738   3.856   3.073   1.541
 8613SOL    HW226739   3.933   2.981   1.652
 8614SOL     OW26740   1.400   1.963   2.853
 8614SOL    HW126741   1.394   1.868   2.884
 8614SOL    HW226742   1.412   1.964   2.753
 8615SOL     OW26743   4.216   1.501   4.547
 8615SOL    HW126744   4.261   1.423   4.503
 8615SOL    HW226745   4.229   1.583   4.492
 8616SOL     OW26746   4.687   4.190   2.951
 8616SOL    HW126747   4.759   4.183   2.881
 8616SOL    HW226748   4.610   4.242   2.914
 8617SOL     OW26749   3.287   0.128   3.803
 8617SOL    HW126750   3.199   0.146   3.759
 8617SOL    HW226751   3.344   0.074   3.742
 8618SOL     OW26752   5.740   4.828   0.600
 8618SOL    HW126753   5.794   4.760   0.649
 8618SOL    HW226754   5.797   4.874   0.532
 8619SOL     OW26755   5.134   5.062   0.770
 8619SOL    HW126756   5.229   5.075   0.743
 8619SOL    HW226757   5.126   4.981   0.828
 8620SOL     OW26758   1.907   0.286   5.009
 8620SOL    HW126759   1.987   0.344   5.023
 8620SOL    HW226760   1.833   0.340   4.970
 8621SOL     OW26761   5.628   2.744   1.437
 8621SOL    HW126762   5.707   2.794   1.403
 8621SOL    HW226763   5.649   2.707   1.528
 8622SOL     OW26764   6.502   4.961   2.751
 8622SOL    HW126765   6.482   4.997   2.842
 8622SOL    HW226766   6.600   4.941   2.745
 8623SOL     OW26767   0.799   3.435   4.305
 8623SOL    HW126768   0.792   3.343   4.344
 8623SOL    HW226769   0.783   3.430   4.206
 8624SOL     OW26770   2.936   3.991   5.115
 8624SOL    HW126771   2.858   3.977   5.055
 8624SOL    HW226772   2.917   4.066   5.178
 8625SOL     OW26773   4.236   2.521   5.649
 8625SOL    HW126774   4.328   2.559   5.635
 8625SOL    HW226775   4.177   2.591   5.689
 8626SOL     OW26776   3.944   4.255   0.808
 8626SOL    HW126777   4.008   4.195   0.856
 8626SOL    HW226778   3.968   4.259   0.711
 8627SOL     OW26779   1.665   0.600   1.988
 8627SOL    HW126780   1.687   0.507   2.018
 8627SOL    HW226781   1.571   0.622   2.012
 8628SOL     OW26782   0.849   6.311   0.825
 8628SOL    HW126783   0.928   6.313   0.763
 8628SOL    HW226784   0.832   6.217   0.854
 8629SOL     OW26785   6.518   6.666   5.476
 8629SOL    HW126786   6.500   6.664   5.378
 8629SOL    HW226787   6.616   6.654   5.493
 8630SOL     OW26788   5.360   3.391   2.426
 8630SOL    HW126789   5.434   3.344   2.472
 8630SOL    HW226790   5.293   3.423   2.493
 8631SOL     OW26791   2.703   0.025   0.361
 8631SOL    HW126792   2.737   7.019   0.450
 8631SOL    HW226793   2.725   6.980   0.291
 8632SOL     OW26794   5.359   4.773   5.623
 8632SOL    HW126795   5.445   4.813   5.657
 8632SOL    HW226796   5.342   4.806   5.530
 8633SOL     OW26797   5.462   3.960   6.165
 8633SOL    HW126798   5.464   4.053   6.130
 8633SOL    HW226799   5.367   3.934   6.185
 8634SOL     OW26800   4.642   3.304   0.220
 8634SOL    HW126801   4.740   3.322   0.218
 8634SOL    HW226802   4.602   3.343   0.303
 8635SOL     OW26803   5.694   2.468   6.168
 8635SOL    HW126804   5.599   2.443   6.187
 8635SOL    HW226805   5.714   2.557   6.209
 8636SOL     OW26806   5.193   6.930   1.210
 8636SOL    HW126807   5.103   6.900   1.243
 8636SOL    HW226808   5.187   6.953   1.113
 8637SOL     OW26809   1.408   1.989   0.380
 8637SOL    HW126810   1.427   1.894   0.356
 8637SOL    HW226811   1.409   1.999   0.480
 8638SOL     OW26812   4.839   2.288   4.513
 8638SOL    HW126813   4.845   2.344   4.596
 8638SOL    HW226814   4.921   2.302   4.458
 8639SOL     OW26815   3.333   4.061   6.744
 8639SOL    HW126816   3.338   4.047   6.843
 8639SOL    HW226817   3.256   4.122   6.723
 8640SOL     OW26818   2.840   3.377   1.533
 8640SOL    HW126819   2.834   3.312   1.457
 8640SOL    HW226820   2.764   3.362   1.596
 8641SOL     OW26821   4.423   6.368   2.334
 8641SOL    HW126822   4.435   6.431   2.411
 8641SOL    HW226823   4.497   6.382   2.268
 8642SOL     OW26824   1.165   5.710   3.832
 8642SOL    HW126825   1.090   5.773   3.809
 8642SOL    HW226826   1.211   5.681   3.748
 8643SOL     OW26827   4.061   5.842   1.298
 8643SOL    HW126828   4.138   5.902   1.317
 8643SOL    HW226829   4.038   5.846   1.201
 8644SOL     OW26830   6.661   1.766   6.639
 8644SOL    HW126831   6.760   1.749   6.635
 8644SOL    HW226832   6.612   1.679   6.630
 8645SOL     OW26833   5.744   3.651   2.200
 8645SOL    HW126834   5.782   3.576   2.254
 8645SOL    HW226835   5.774   3.738   2.238
 8646SOL     OW26836   0.236   2.389   4.954
 8646SOL    HW126837   0.280   2.454   5.016
 8646SOL    HW226838   0.183   2.323   5.007
 8647SOL     OW26839   2.563   5.347   1.856
 8647SOL    HW126840   2.513   5.384   1.778
 8647SOL    HW226841   2.529   5.387   1.940
 8648SOL     OW26842   5.251   5.362   0.265
 8648SOL    HW126843   5.296   5.323   0.346
 8648SOL    HW226844   5.211   5.288   0.211
 8649SOL     OW26845   4.396   0.481   1.593
 8649SOL    HW126846   4.364   0.573   1.618
 8649SOL    HW226847   4.352   0.452   1.508
 8650SOL     OW26848   2.089   6.868   4.608
 8650SOL    HW126849   2.095   6.833   4.702
 8650SOL    HW226850   2.068   6.966   4.610
 8651SOL     OW26851   3.518   1.918   1.154
 8651SOL    HW126852   3.563   1.963   1.231
 8651SOL    HW226853   3.578   1.846   1.119
 8652SOL     OW26854   1.001   3.021   3.546
 8652SOL    HW126855   0.991   2.982   3.638
 8652SOL    HW226856   0.956   2.962   3.480
 8653SOL     OW26857   6.800   1.730   6.010
 8653SOL    HW126858   6.851   1.750   5.926
 8653SOL    HW226859   6.820   1.800   6.078
 8654SOL     OW26860   0.465   4.428   1.736
 8654SOL    HW126861   0.420   4.507   1.778
 8654SOL    HW226862   0.395   4.372   1.690
 8655SOL     OW26863   0.548   0.684   4.407
 8655SOL    HW126864   0.495   0.641   4.480
 8655SOL    HW226865   0.536   0.633   4.322
 8656SOL     OW26866   4.735   0.195   1.210
 8656SOL    HW126867   4.707   0.141   1.289
 8656SOL    HW226868   4.654   0.234   1.166
 8657SOL     OW26869   4.524   1.204   3.425
 8657SOL    HW126870   4.512   1.245   3.335
 8657SOL    HW226871   4.621   1.185   3.442
 8658SOL     OW26872   6.673   4.496   0.482
 8658SOL    HW126873   6.757   4.549   0.493
 8658SOL    HW226874   6.695   4.399   0.475
 8659SOL     OW26875   4.262   0.852   2.591
 8659SOL    HW126876   4.293   0.945   2.576
 8659SOL    HW226877   4.165   0.844   2.565
 8660SOL     OW26878   6.489   3.632   1.738
 8660SOL    HW126879   6.526   3.725   1.735
 8660SOL    HW226880   6.390   3.635   1.727
 8661SOL     OW26881   6.265   3.898   2.922
 8661SOL    HW126882   6.339   3.842   2.885
 8661SOL    HW226883   6.203   3.841   2.975
 8662SOL     OW26884   2.468   4.534   3.451
 8662SOL    HW126885   2.376   4.506   3.425
 8662SOL    HW226886   2.517   4.566   3.370
 8663SOL     OW26887   4.133   5.372   2.572
 8663SOL    HW126888   4.195   5.302   2.538
 8663SOL    HW226889   4.075   5.404   2.497
 8664SOL     OW26890   3.233   6.013   4.220
 8664SOL    HW126891   3.273   5.926   4.248
 8664SOL    HW226892   3.284   6.051   4.143
 8665SOL     OW26893   5.684   3.070   6.411
 8665SOL    HW126894   5.585   3.059   6.415
 8665SOL    HW226895   5.725   3.029   6.493
 8666SOL     OW26896   4.721   6.356   2.539
 8666SOL    HW126897   4.638   6.303   2.553
 8666SOL    HW226898   4.738   6.414   2.619
 8667SOL     OW26899   5.168   1.920   3.671
 8667SOL    HW126900   5.221   1.882   3.595
 8667SOL    HW226901   5.099   1.983   3.635
 8668SOL     OW26902   4.995   2.541   5.006
 8668SOL    HW126903   4.974   2.588   4.920
 8668SOL    HW226904   4.992   2.606   5.082
 8669SOL     OW26905   5.859   6.132   5.699
 8669SOL    HW126906   5.855   6.202   5.771
 8669SOL    HW226907   5.831   6.044   5.737
 8670SOL     OW26908   6.039   4.066   5.955
 8670SOL    HW126909   6.022   3.979   6.001
 8670SOL    HW226910   5.993   4.067   5.867
 8671SOL     OW26911   6.850   1.850   2.612
 8671SOL    HW126912   6.894   1.877   2.527
 8671SOL    HW226913   6.756   1.886   2.614
 8672SOL     OW26914   0.889   0.770   3.338
 8672SOL    HW126915   0.928   0.756   3.247
 8672SOL    HW226916   0.789   0.770   3.332
 8673SOL     OW26917   0.661   1.102   1.001
 8673SOL    HW126918   0.717   1.092   0.919
 8673SOL    HW226919   0.612   1.016   1.020
 8674SOL     OW26920   6.466   4.668   3.646
 8674SOL    HW126921   6.541   4.602   3.639
 8674SOL    HW226922   6.499   4.759   3.618
 8675SOL     OW26923   3.947   2.050   5.378
 8675SOL    HW126924   3.971   2.004   5.464
 8675SOL    HW226925   3.856   2.021   5.349
 8676SOL     OW26926   5.379   1.816   0.655
 8676SOL    HW126927   5.363   1.819   0.556
 8676SOL    HW226928   5.403   1.723   0.682
 8677SOL     OW26929   2.135   6.624   6.236
 8677SOL    HW126930   2.056   6.684   6.250
 8677SOL    HW226931   2.207   6.676   6.190
 8678SOL     OW26932   1.275   1.896   0.997
 8678SOL    HW126933   1.285   1.805   0.959
 8678SOL    HW226934   1.242   1.959   0.925
 8679SOL     OW26935   1.688   1.570   4.656
 8679SOL    HW126936   1.726   1.478   4.643
 8679SOL    HW226937   1.600   1.563   4.703
 8680SOL     OW26938   6.320   1.255   6.543
 8680SOL    HW126939   6.322   1.164   6.585
 8680SOL    HW226940   6.403   1.270   6.489
 8681SOL     OW26941   5.584   5.940   1.947
 8681SOL    HW126942   5.549   5.962   2.038
 8681SOL    HW226943   5.562   6.015   1.885
 8682SOL     OW26944   1.181   0.862   1.055
 8682SOL    HW126945   1.155   0.823   0.967
 8682SOL    HW226946   1.104   0.911   1.095
 8683SOL     OW26947   1.647   4.160   4.569
 8683SOL    HW126948   1.624   4.063   4.558
 8683SOL    HW226949   1.700   4.190   4.491
 8684SOL     OW26950   0.854   3.950   4.611
 8684SOL    HW126951   0.914   3.870   4.611
 8684SOL    HW226952   0.814   3.963   4.520
 8685SOL     OW26953   5.127   2.316   5.131
 8685SOL    HW126954   5.214   2.363   5.144
 8685SOL    HW226955   5.067   2.372   5.074
 8686SOL     OW26956   0.451   5.138   2.784
 8686SOL    HW126957   0.501   5.053   2.767
 8686SOL    HW226958   0.507   5.216   2.757
 8687SOL     OW26959   5.191   3.905   4.790
 8687SOL    HW126960   5.283   3.878   4.818
 8687SOL    HW226961   5.124   3.843   4.832
 8688SOL     OW26962   0.727   3.993   6.202
 8688SOL    HW126963   0.639   3.976   6.157
 8688SOL    HW226964   0.792   4.031   6.135
 8689SOL     OW26965   3.962   3.526   6.828
 8689SOL    HW126966   3.942   3.565   6.918
 8689SOL    HW226967   4.048   3.565   6.793
 8690SOL     OW26968   1.743   2.197   3.275
 8690SOL    HW126969   1.793   2.165   3.355
 8690SOL    HW226970   1.792   2.273   3.233
 8691SOL     OW26971   3.293   2.571   5.298
 8691SOL    HW126972   3.296   2.478   5.261
 8691SOL    HW226973   3.367   2.582   5.365
 8692SOL     OW26974   4.238   1.781   5.397
 8692SOL    HW126975   4.186   1.817   5.320
 8692SOL    HW226976   4.263   1.857   5.458
 8693SOL     OW26977   6.624   0.042   6.677
 8693SOL    HW126978   6.547   0.020   6.618
 8693SOL    HW226979   6.637   0.142   6.679
 8694SOL     OW26980   6.213   3.496   4.187
 8694SOL    HW126981   6.266   3.559   4.129
 8694SOL    HW226982   6.145   3.449   4.131
 8695SOL     OW26983   3.769   4.243   5.990
 8695SOL    HW126984   3.753   4.146   5.970
 8695SOL    HW226985   3.766   4.258   6.089
 8696SOL     OW26986   3.390   5.693   6.078
 8696SOL    HW126987   3.303   5.648   6.059
 8696SOL    HW226988   3.456   5.627   6.113
 8697SOL     OW26989   1.446   3.277   5.754
 8697SOL    HW126990   1.422   3.186   5.787
 8697SOL    HW226991   1.525   3.270   5.693
 8698SOL     OW26992   5.636   5.638   5.159
 8698SOL    HW126993   5.649   5.695   5.240
 8698SOL    HW226994   5.704   5.663   5.090
 8699SOL     OW26995   1.225   3.018   6.900
 8699SOL    HW126996   1.192   2.988   6.810
 8699SOL    HW226997   1.293   3.091   6.889
 8700SOL     OW26998   0.933   6.635   4.829
 8700SOL    HW126999   0.856   6.627   4.892
 8700SOL    HW227000   0.906   6.602   4.739
 8701SOL     OW27001   0.625   2.568   0.541
 8701SOL    HW127002   0.612   2.497   0.610
 8701SOL    HW227003   0.556   2.558   0.469
 8702SOL     OW27004   5.173   4.865   2.086
 8702SOL    HW127005   5.152   4.863   2.183
 8702SOL    HW227006   5.271   4.881   2.073
 8703SOL     OW27007   2.690   5.407   1.227
 8703SOL    HW127008   2.777   5.449   1.199
 8703SOL    HW227009   2.708   5.314   1.259
 8704SOL     OW27010   0.546   0.514   4.166
 8704SOL    HW127011   0.641   0.536   4.145
 8704SOL    HW227012   0.488   0.538   4.089
 8705SOL     OW27013   4.384   2.674   0.233
 8705SOL    HW127014   4.440   2.707   0.157
 8705SOL    HW227015   4.359   2.579   0.217
 8706SOL     OW27016   4.589   3.096   6.473
 8706SOL    HW127017   4.551   3.014   6.430
 8706SOL    HW227018   4.515   3.162   6.489
 8707SOL     OW27019   1.819   2.241   4.897
 8707SOL    HW127020   1.832   2.213   4.802
 8707SOL    HW227021   1.905   2.278   4.933
 8708SOL     OW27022   6.186   2.287   1.464
 8708SOL    HW127023   6.095   2.286   1.423
 8708SOL    HW227024   6.250   2.330   1.401
 8709SOL     OW27025   6.574   0.473   5.846
 8709SOL    HW127026   6.493   0.499   5.793
 8709SOL    HW227027   6.615   0.392   5.805
 8710SOL     OW27028   2.721   1.251   3.200
 8710SOL    HW127029   2.721   1.289   3.107
 8710SOL    HW227030   2.648   1.182   3.207
 8711SOL     OW27031   1.675   0.794   1.795
 8711SOL    HW127032   1.766   0.835   1.807
 8711SOL    HW227033   1.660   0.724   1.864
 8712SOL     OW27034   2.073   3.470   5.850
 8712SOL    HW127035   2.044   3.547   5.794
 8712SOL    HW227036   2.049   3.486   5.946
 8713SOL     OW27037   0.236   5.116   1.598
 8713SOL    HW127038   0.246   5.186   1.669
 8713SOL    HW227039   0.143   5.120   1.561
 8714SOL     OW27040   0.139   6.009   6.924
 8714SOL    HW127041   0.176   5.940   6.986
 8714SOL    HW227042   0.063   5.970   6.873
 8715SOL     OW27043   2.320   3.369   1.425
 8715SOL    HW127044   2.222   3.346   1.427
 8715SOL    HW227045   2.360   3.350   1.514
 8716SOL     OW27046   6.724   6.877   1.878
 8716SOL    HW127047   6.724   6.974   1.852
 8716SOL    HW227048   6.697   6.821   1.799
 8717SOL     OW27049   2.906   4.130   0.961
 8717SOL    HW127050   2.939   4.203   1.020
 8717SOL    HW227051   2.865   4.169   0.879
 8718SOL     OW27052   2.356   4.244   6.732
 8718SOL    HW127053   2.411   4.314   6.686
 8718SOL    HW227054   2.289   4.207   6.668
 8719SOL     OW27055   4.305   0.080   5.601
 8719SOL    HW127056   4.274   0.175   5.593
 8719SOL    HW227057   4.405   0.077   5.600
 8720SOL     OW27058   6.648   4.738   5.057
 8720SOL    HW127059   6.612   4.821   5.015
 8720SOL    HW227060   6.619   4.734   5.153
 8721SOL     OW27061   0.476   0.449   6.576
 8721SOL    HW127062   0.527   0.435   6.491
 8721SOL    HW227063   0.533   0.497   6.642
 8722SOL     OW27064   3.311   1.519   1.228
 8722SOL    HW127065   3.385   1.461   1.194
 8722SOL    HW227066   3.233   1.514   1.166
 8723SOL     OW27067   4.815   0.183   2.439
 8723SOL    HW127068   4.790   0.087   2.428
 8723SOL    HW227069   4.770   0.238   2.370
 8724SOL     OW27070   4.241   1.115   4.755
 8724SOL    HW127071   4.292   1.065   4.685
 8724SOL    HW227072   4.213   1.051   4.827
 8725SOL     OW27073   0.123   6.569   3.759
 8725SOL    HW127074   0.040   6.565   3.815
 8725SOL    HW227075   0.156   6.663   3.756
 8726SOL     OW27076   0.449   0.870   0.762
 8726SOL    HW127077   0.533   0.845   0.810
 8726SOL    HW227078   0.391   0.790   0.752
 8727SOL     OW27079   4.501   5.263   6.069
 8727SOL    HW127080   4.573   5.225   6.011
 8727SOL    HW227081   4.414   5.263   6.021
 8728SOL     OW27082   6.921   0.128   3.452
 8728SOL    HW127083   7.014   0.161   3.468
 8728SOL    HW227084   6.877   0.107   3.539
 8729SOL     OW27085   3.906   6.707   6.499
 8729SOL    HW127086   3.944   6.658   6.578
 8729SOL    HW227087   3.840   6.649   6.452
 8730SOL     OW27088   4.525   5.397   1.951
 8730SOL    HW127089   4.537   5.300   1.971
 8730SOL    HW227090   4.610   5.434   1.914
 8731SOL     OW27091   0.443   1.495   3.398
 8731SOL    HW127092   0.394   1.576   3.366
 8731SOL    HW227093   0.385   1.414   3.387
 8732SOL     OW27094   5.853   6.555   0.655
 8732SOL    HW127095   5.881   6.571   0.749
 8732SOL    HW227096   5.794   6.629   0.624
 8733SOL     OW27097   6.363   5.616   1.694
 8733SOL    HW127098   6.390   5.632   1.599
 8733SOL    HW227099   6.342   5.703   1.737
 8734SOL     OW27100   0.167   3.760   2.353
 8734SOL    HW127101   0.162   3.747   2.452
 8734SOL    HW227102   0.118   3.844   2.328
 8735SOL     OW27103   1.009   3.747   5.499
 8735SOL    HW127104   1.028   3.766   5.402
 8735SOL    HW227105   0.978   3.653   5.509
 8736SOL     OW27106   0.894   6.086   3.403
 8736SOL    HW127107   0.924   6.173   3.365
 8736SOL    HW227108   0.973   6.025   3.414
 8737SOL     OW27109   1.710   6.641   0.170
 8737SOL    HW127110   1.724   6.549   0.205
 8737SOL    HW227111   1.723   6.707   0.244
 8738SOL     OW27112   1.109   2.420   3.518
 8738SOL    HW127113   1.053   2.469   3.585
 8738SOL    HW227114   1.198   2.399   3.557
 8739SOL     OW27115   4.824   4.245   5.795
 8739SOL    HW127116   4.769   4.182   5.740
 8739SOL    HW227117   4.782   4.336   5.793
 8740SOL     OW27118   2.543   0.877   5.294
 8740SOL    HW127119   2.598   0.794   5.307
 8740SOL    HW227120   2.448   0.858   5.319
 8741SOL     OW27121   0.870   0.108   2.734
 8741SOL    HW127122   0.808   0.029   2.734
 8741SOL    HW227123   0.819   0.191   2.710
 8742SOL     OW27124   2.337   1.685   2.617
 8742SOL    HW127125   2.426   1.683   2.572
 8742SOL    HW227126   2.306   1.780   2.624
 8743SOL     OW27127   0.370   2.065   1.754
 8743SOL    HW127128   0.273   2.074   1.734
 8743SOL    HW227129   0.385   1.983   1.809
 8744SOL     OW27130   3.280   4.532   6.304
 8744SOL    HW127131   3.224   4.600   6.256
 8744SOL    HW227132   3.373   4.532   6.267
 8745SOL     OW27133   5.817   1.338   5.809
 8745SOL    HW127134   5.857   1.408   5.750
 8745SOL    HW227135   5.837   1.247   5.771
 8746SOL     OW27136   4.352   4.998   4.838
 8746SOL    HW127137   4.376   4.965   4.747
 8746SOL    HW227138   4.258   5.033   4.836
 8747SOL     OW27139   0.291   0.452   1.507
 8747SOL    HW127140   0.316   0.356   1.525
 8747SOL    HW227141   0.288   0.503   1.593
 8748SOL     OW27142   0.001   1.888   3.433
 8748SOL    HW127143   0.053   1.972   3.443
 8748SOL    HW227144   7.017   1.843   3.522
 8749SOL     OW27145   2.868   1.118   4.566
 8749SOL    HW127146   2.887   1.205   4.519
 8749SOL    HW227147   2.829   1.053   4.501
 8750SOL     OW27148   4.161   2.952   6.598
 8750SOL    HW127149   4.067   2.939   6.567
 8750SOL    HW227150   4.192   2.869   6.645
 8751SOL     OW27151   1.304   6.144   1.617
 8751SOL    HW127152   1.395   6.137   1.656
 8751SOL    HW227153   1.283   6.240   1.597
 8752SOL     OW27154   5.375   3.644   6.746
 8752SOL    HW127155   5.428   3.664   6.828
 8752SOL    HW227156   5.289   3.695   6.749
 8753SOL     OW27157   2.626   2.916   0.308
 8753SOL    HW127158   2.661   2.995   0.360
 8753SOL    HW227159   2.563   2.948   0.237
 8754SOL     OW27160   2.179   5.055   6.865
 8754SOL    HW127161   2.214   5.101   6.783
 8754SOL    HW227162   2.112   5.114   6.910
 8755SOL     OW27163   6.638   2.604   2.243
 8755SOL    HW127164   6.643   2.583   2.145
 8755SOL    HW227165   6.628   2.519   2.295
 8756SOL     OW27166   1.744   1.711   2.072
 8756SOL    HW127167   1.726   1.726   2.169
 8756SOL    HW227168   1.821   1.767   2.043
 8757SOL     OW27169   5.485   6.496   5.547
 8757SOL    HW127170   5.545   6.558   5.597
 8757SOL    HW227171   5.534   6.458   5.468
 8758SOL     OW27172   3.399   5.682   5.031
 8758SOL    HW127173   3.487   5.670   5.077
 8758SOL    HW227174   3.351   5.760   5.070
 8759SOL     OW27175   5.806   0.785   0.318
 8759SOL    HW127176   5.813   0.843   0.237
 8759SOL    HW227177   5.745   0.828   0.385
 8760SOL     OW27178   2.379   2.469   4.270
 8760SOL    HW127179   2.299   2.529   4.260
 8760SOL    HW227180   2.415   2.478   4.363
 8761SOL     OW27181   4.634   1.244   2.393
 8761SOL    HW127182   4.582   1.172   2.348
 8761SOL    HW227183   4.732   1.229   2.379
 8762SOL     OW27184   1.452   4.616   2.822
 8762SOL    HW127185   1.495   4.552   2.887
 8762SOL    HW227186   1.523   4.659   2.766
 8763SOL     OW27187   0.806   0.973   6.310
 8763SOL    HW127188   0.878   0.994   6.244
 8763SOL    HW227189   0.828   0.886   6.356
 8764SOL     OW27190   2.773   5.017   5.431
 8764SOL    HW127191   2.737   4.931   5.396
 8764SOL    HW227192   2.817   5.001   5.520
 8765SOL     OW27193   5.206   0.825   4.790
 8765SOL    HW127194   5.277   0.769   4.748
 8765SOL    HW227195   5.144   0.766   4.843
 8766SOL     OW27196   4.919   5.682   5.875
 8766SOL    HW127197   4.837   5.704   5.822
 8766SOL    HW227198   4.925   5.583   5.888
 8767SOL     OW27199   2.335   0.953   4.047
 8767SOL    HW127200   2.376   1.000   4.126
 8767SOL    HW227201   2.371   0.992   3.963
 8768SOL     OW27202   6.147   1.959   6.810
 8768SOL    HW127203   6.073   1.916   6.757
 8768SOL    HW227204   6.230   1.961   6.755
 8769SOL     OW27205   6.277   0.265   0.077
 8769SOL    HW127206   6.233   0.302   0.159
 8769SOL    HW227207   6.376   0.261   0.090
 8770SOL     OW27208   5.206   3.559   0.426
 8770SOL    HW127209   5.174   3.652   0.409
 8770SOL    HW227210   5.304   3.560   0.444
 8771SOL     OW27211   0.342   3.689   0.263
 8771SOL    HW127212   0.323   3.782   0.294
 8771SOL    HW227213   0.385   3.638   0.337
 8772SOL     OW27214   5.538   6.981   4.209
 8772SOL    HW127215   5.568   0.002   4.125
 8772SOL    HW227216   5.496   0.025   4.270
 8773SOL     OW27217   6.984   1.275   3.779
 8773SOL    HW127218   6.915   1.320   3.836
 8773SOL    HW227219   6.952   1.272   3.684
 8774SOL     OW27220   1.747   1.759   0.961
 8774SOL    HW127221   1.727   1.678   1.016
 8774SOL    HW227222   1.804   1.734   0.883
 8775SOL     OW27223   5.626   1.941   4.121
 8775SOL    HW127224   5.705   1.881   4.136
 8775SOL    HW227225   5.629   1.978   4.028
 8776SOL     OW27226   4.277   3.046   0.728
 8776SOL    HW127227   4.190   2.997   0.725
 8776SOL    HW227228   4.272   3.126   0.669
 8777SOL     OW27229   0.397   1.893   3.606
 8777SOL    HW127230   0.469   1.824   3.605
 8777SOL    HW227231   0.340   1.880   3.688
 8778SOL     OW27232   3.432   4.941   6.923
 8778SOL    HW127233   3.377   4.959   7.005
 8778SOL    HW227234   3.479   4.854   6.935
 8779SOL     OW27235   4.627   4.705   4.051
 8779SOL    HW127236   4.703   4.659   4.005
 8779SOL    HW227237   4.578   4.641   4.109
 8780SOL     OW27238   5.719   4.995   3.626
 8780SOL    HW127239   5.747   4.910   3.581
 8780SOL    HW227240   5.634   4.980   3.676
 8781SOL     OW27241   3.364   6.877   1.616
 8781SOL    HW127242   3.340   6.782   1.593
 8781SOL    HW227243   3.303   6.939   1.566
 8782SOL     OW27244   5.251   1.712   1.873
 8782SOL    HW127245   5.258   1.773   1.953
 8782SOL    HW227246   5.313   1.745   1.802
 8783SOL     OW27247   5.183   3.606   4.625
 8783SOL    HW127248   5.136   3.560   4.549
 8783SOL    HW227249   5.231   3.687   4.591
 8784SOL     OW27250   5.850   0.540   0.796
 8784SOL    HW127251   5.873   0.467   0.731
 8784SOL    HW227252   5.918   0.541   0.870
 8785SOL     OW27253   0.379   4.881   6.278
 8785SOL    HW127254   0.461   4.829   6.299
 8785SOL    HW227255   0.315   4.874   6.355
 8786SOL     OW27256   4.527   1.615   2.486
 8786SOL    HW127257   4.440   1.662   2.506
 8786SOL    HW227258   4.526   1.583   2.391
 8787SOL     OW27259   3.580   6.370   0.812
 8787SOL    HW127260   3.559   6.284   0.858
 8787SOL    HW227261   3.636   6.352   0.731
 8788SOL     OW27262   0.246   7.023   4.251
 8788SOL    HW127263   0.334   0.036   4.283
 8788SOL    HW227264   0.186   7.009   4.330
 8789SOL     OW27265   6.612   3.218   5.645
 8789SOL    HW127266   6.533   3.249   5.593
 8789SOL    HW227267   6.695   3.257   5.605
 8790SOL     OW27268   5.864   3.207   5.827
 8790SOL    HW127269   5.878   3.223   5.925
 8790SOL    HW227270   5.911   3.123   5.801
 8791SOL     OW27271   3.698   5.844   5.322
 8791SOL    HW127272   3.776   5.783   5.309
 8791SOL    HW227273   3.711   5.898   5.406
 8792SOL     OW27274   5.243   5.213   1.068
 8792SOL    HW127275   5.206   5.131   1.024
 8792SOL    HW227276   5.176   5.251   1.131
 8793SOL     OW27277   6.990   5.189   4.205
 8793SOL    HW127278   6.931   5.228   4.134
 8793SOL    HW227279   0.038   5.134   4.162
 8794SOL     OW27280   0.478   0.712   2.423
 8794SOL    HW127281   0.414   0.718   2.500
 8794SOL    HW227282   0.558   0.769   2.441
 8795SOL     OW27283   1.225   5.794   6.199
 8795SOL    HW127284   1.214   5.828   6.105
 8795SOL    HW227285   1.321   5.798   6.225
 8796SOL     OW27286   6.795   3.777   3.232
 8796SOL    HW127287   6.729   3.705   3.256
 8796SOL    HW227288   6.751   3.844   3.173
 8797SOL     OW27289   4.524   0.046   4.132
 8797SOL    HW127290   4.602   7.008   4.137
 8797SOL    HW227291   4.442   7.017   4.110
 8798SOL     OW27292   3.211   6.452   5.748
 8798SOL    HW127293   3.241   6.522   5.813
 8798SOL    HW227294   3.289   6.420   5.694
 8799SOL     OW27295   1.529   5.513   2.380
 8799SOL    HW127296   1.544   5.558   2.468
 8799SOL    HW227297   1.467   5.436   2.393
 8800SOL     OW27298   6.702   5.459   6.017
 8800SOL    HW127299   6.784   5.511   6.039
 8800SOL    HW227300   6.621   5.506   6.053
 8801SOL     OW27301   6.018   3.104   5.521
 8801SOL    HW127302   6.030   3.027   5.583
 8801SOL    HW227303   5.939   3.088   5.462
 8802SOL     OW27304   1.102   6.499   6.274
 8802SOL    HW127305   1.176   6.558   6.308
 8802SOL    HW227306   1.132   6.404   6.275
 8803SOL     OW27307   5.880   6.912   6.866
 8803SOL    HW127308   5.785   6.908   6.835
 8803SOL    HW227309   5.936   6.957   6.796
 8804SOL     OW27310   1.926   6.066   2.484
 8804SOL    HW127311   1.860   6.140   2.494
 8804SOL    HW227312   1.923   6.031   2.390
 8805SOL     OW27313   5.387   5.170   3.401
 8805SOL    HW127314   5.354   5.246   3.346
 8805SOL    HW227315   5.377   5.192   3.498
 8806SOL     OW27316   2.190   0.575   1.225
 8806SOL    HW127317   2.151   0.638   1.157
 8806SOL    HW227318   2.253   0.625   1.284
 8807SOL     OW27319   5.201   2.591   1.597
 8807SOL    HW127320   5.153   2.514   1.554
 8807SOL    HW227321   5.222   2.660   1.527
 8808SOL     OW27322   2.227   2.667   0.359
 8808SOL    HW127323   2.242   2.612   0.442
 8808SOL    HW227324   2.134   2.649   0.325
 8809SOL     OW27325   0.199   3.736   2.951
 8809SOL    HW127326   0.179   3.661   3.014
 8809SOL    HW227327   0.202   3.701   2.858
 8810SOL     OW27328   1.076   1.082   6.267
 8810SOL    HW127329   1.154   1.021   6.273
 8810SOL    HW227330   1.090   1.148   6.194
 8811SOL     OW27331   3.764   5.450   2.583
 8811SOL    HW127332   3.726   5.499   2.504
 8811SOL    HW227333   3.794   5.359   2.554
 8812SOL     OW27334   4.992   1.408   6.466
 8812SOL    HW127335   4.912   1.349   6.474
 8812SOL    HW227336   5.058   1.385   6.536
 8813SOL     OW27337   1.883   3.999   3.319
 8813SOL    HW127338   1.834   4.065   3.262
 8813SOL    HW227339   1.903   3.917   3.265
 8814SOL     OW27340   4.990   0.088   5.959
 8814SOL    HW127341   5.074   0.038   5.940
 8814SOL    HW227342   4.968   0.081   6.056
 8815SOL     OW27343   5.838   1.460   6.857
 8815SOL    HW127344   5.929   1.463   6.899
 8815SOL    HW227345   5.802   1.367   6.862
 8816SOL     OW27346   0.990   6.340   4.587
 8816SOL    HW127347   0.983   6.269   4.517
 8816SOL    HW227348   1.086   6.348   4.616
 8817SOL     OW27349   1.709   2.956   3.300
 8817SOL    HW127350   1.615   2.924   3.291
 8817SOL    HW227351   1.717   3.014   3.381
 8818SOL     OW27352   1.619   0.552   4.181
 8818SOL    HW127353   1.604   0.571   4.084
 8818SOL    HW227354   1.594   0.458   4.202
 8819SOL     OW27355   5.694   3.920   6.028
 8819SOL    HW127356   5.617   3.953   6.083
 8819SOL    HW227357   5.685   3.955   5.934
 8820SOL     OW27358   2.990   0.344   4.911
 8820SOL    HW127359   3.068   0.314   4.967
 8820SOL    HW227360   3.021   0.414   4.846
 8821SOL     OW27361   0.354   4.307   6.554
 8821SOL    HW127362   0.263   4.299   6.513
 8821SOL    HW227363   0.345   4.311   6.654
 8822SOL     OW27364   6.577   6.457   4.165
 8822SOL    HW127365   6.562   6.556   4.172
 8822SOL    HW227366   6.491   6.409   4.183
 8823SOL     OW27367   4.015   0.892   2.513
 8823SOL    HW127368   3.985   0.963   2.577
 8823SOL    HW227369   3.959   0.896   2.430
 8824SOL     OW27370   2.253   0.863   2.508
 8824SOL    HW127371   2.178   0.798   2.498
 8824SOL    HW227372   2.217   0.955   2.518
 8825SOL     OW27373   0.043   5.646   0.124
 8825SOL    HW127374   7.003   5.722   0.117
 8825SOL    HW227375   0.013   5.584   0.196
 8826SOL     OW27376   1.635   3.663   0.467
 8826SOL    HW127377   1.670   3.597   0.401
 8826SOL    HW227378   1.662   3.755   0.441
 8827SOL     OW27379   4.365   0.095   2.060
 8827SOL    HW127380   4.455   0.051   2.056
 8827SOL    HW227381   4.326   0.099   1.967
 8828SOL     OW27382   3.079   3.376   6.202
 8828SOL    HW127383   3.167   3.423   6.198
 8828SOL    HW227384   3.011   3.434   6.247
 8829SOL     OW27385   6.649   1.184   2.408
 8829SOL    HW127386   6.622   1.278   2.428
 8829SOL    HW227387   6.599   1.151   2.328
 8830SOL     OW27388   3.102   0.898   3.794
 8830SOL    HW127389   3.009   0.861   3.795
 8830SOL    HW227390   3.123   0.934   3.703
 8831SOL     OW27391   0.414   2.214   2.344
 8831SOL    HW127392   0.378   2.273   2.273
 8831SOL    HW227393   0.509   2.191   2.324
 8832SOL     OW27394   5.744   0.870   4.120
 8832SOL    HW127395   5.827   0.905   4.164
 8832SOL    HW227396   5.758   0.774   4.095
 8833SOL     OW27397   3.995   2.728   1.506
 8833SOL    HW127398   3.916   2.667   1.505
 8833SOL    HW227399   3.967   2.819   1.537
 8834SOL     OW27400   5.298   4.494   5.349
 8834SOL    HW127401   5.258   4.403   5.343
 8834SOL    HW227402   5.227   4.560   5.376
 8835SOL     OW27403   0.028   0.604   5.919
 8835SOL    HW127404   0.012   0.627   5.823
 8835SOL    HW227405   6.978   0.545   5.952
 8836SOL     OW27406   4.649   2.032   1.080
 8836SOL    HW127407   4.628   1.959   1.144
 8836SOL    HW227408   4.564   2.064   1.037
 8837SOL     OW27409   4.995   0.215   1.140
 8837SOL    HW127410   5.010   0.287   1.208
 8837SOL    HW227411   4.907   0.171   1.157
 8838SOL     OW27412   0.415   3.826   2.645
 8838SOL    HW127413   0.415   3.921   2.614
 8838SOL    HW227414   0.321   3.791   2.645
 8839SOL     OW27415   5.025   5.361   3.366
 8839SOL    HW127416   5.004   5.264   3.377
 8839SOL    HW227417   5.099   5.372   3.300
 8840SOL     OW27418   0.007   0.964   1.217
 8840SOL    HW127419   0.031   0.915   1.301
 8840SOL    HW227420   6.976   1.044   1.240
 8841SOL     OW27421   3.205   1.611   1.486
 8841SOL    HW127422   3.235   1.582   1.395
 8841SOL    HW227423   3.153   1.697   1.478
 8842SOL     OW27424   3.571   2.934   4.175
 8842SOL    HW127425   3.473   2.923   4.193
 8842SOL    HW227426   3.623   2.889   4.248
 8843SOL     OW27427   2.346   5.345   6.822
 8843SOL    HW127428   2.306   5.397   6.897
 8843SOL    HW227429   2.274   5.317   6.759
 8844SOL     OW27430   4.440   2.099   5.292
 8844SOL    HW127431   4.342   2.111   5.278
 8844SOL    HW227432   4.486   2.187   5.282
 8845SOL     OW27433   0.033   4.780   1.583
 8845SOL    HW127434   6.957   4.778   1.572
 8845SOL    HW227435   0.074   4.825   1.504
 8846SOL     OW27436   5.876   4.576   4.455
 8846SOL    HW127437   5.781   4.607   4.464
 8846SOL    HW227438   5.911   4.602   4.365
 8847SOL     OW27439   2.673   1.688   3.394
 8847SOL    HW127440   2.712   1.774   3.361
 8847SOL    HW227441   2.623   1.645   3.319
 8848SOL     OW27442   3.715   1.531   0.856
 8848SOL    HW127443   3.706   1.539   0.757
 8848SOL    HW227444   3.703   1.621   0.898
 8849SOL     OW27445   2.449   4.854   4.493
 8849SOL    HW127446   2.514   4.896   4.556
 8849SOL    HW227447   2.356   4.869   4.526
 8850SOL     OW27448   2.981   0.795   1.720
 8850SOL    HW127449   2.978   0.797   1.620
 8850SOL    HW227450   2.978   0.889   1.756
 8851SOL     OW27451   0.226   4.981   2.542
 8851SOL    HW127452   0.238   5.061   2.600
 8851SOL    HW227453   0.309   4.966   2.488
 8852SOL     OW27454   4.988   2.766   5.215
 8852SOL    HW127455   4.994   2.848   5.158
 8852SOL    HW227456   4.928   2.782   5.293
 8853SOL     OW27457   4.414   1.100   5.795
 8853SOL    HW127458   4.499   1.050   5.777
 8853SOL    HW227459   4.352   1.043   5.849
 8854SOL     OW27460   1.234   1.973   6.696
 8854SOL    HW127461   1.276   2.028   6.769
 8854SOL    HW227462   1.301   1.958   6.623
 8855SOL     OW27463   6.079   4.722   6.752
 8855SOL    HW127464   6.158   4.751   6.804
 8855SOL    HW227465   6.085   4.758   6.658
 8856SOL     OW27466   5.893   0.997   4.522
 8856SOL    HW127467   5.824   0.926   4.538
 8856SOL    HW227468   5.872   1.077   4.577
 8857SOL     OW27469   6.944   2.583   4.072
 8857SOL    HW127470   6.884   2.573   3.992
 8857SOL    HW227471   6.896   2.637   4.141
 8858SOL     OW27472   0.075   3.442   6.655
 8858SOL    HW127473   0.003   3.373   6.658
 8858SOL    HW227474   0.097   3.463   6.560
 8859SOL     OW27475   2.149   5.378   5.541
 8859SOL    HW127476   2.226   5.436   5.569
 8859SOL    HW227477   2.184   5.295   5.498
 8860SOL     OW27478   1.354   2.347   2.241
 8860SOL    HW127479   1.387   2.391   2.158
 8860SOL    HW227480   1.254   2.348   2.242
 8861SOL     OW27481   3.471   3.847   0.166
 8861SOL    HW127482   3.408   3.793   0.111
 8861SOL    HW227483   3.502   3.793   0.245
 8862SOL     OW27484   6.255   1.961   4.025
 8862SOL    HW127485   6.179   1.896   4.037
 8862SOL    HW227486   6.318   1.926   3.956
 8863SOL     OW27487   2.289   5.595   5.253
 8863SOL    HW127488   2.304   5.600   5.155
 8863SOL    HW227489   2.345   5.522   5.292
 8864SOL     OW27490   1.213   2.373   6.646
 8864SOL    HW127491   1.178   2.428   6.570
 8864SOL    HW227492   1.298   2.328   6.618
 8865SOL     OW27493   3.517   2.591   6.272
 8865SOL    HW127494   3.527   2.540   6.186
 8865SOL    HW227495   3.544   2.533   6.348
 8866SOL     OW27496   3.740   6.454   4.508
 8866SOL    HW127497   3.691   6.378   4.465
 8866SOL    HW227498   3.704   6.541   4.473
 8867SOL     OW27499   6.938   3.084   3.993
 8867SOL    HW127500   6.892   3.167   4.026
 8867SOL    HW227501   6.931   3.079   3.894
 8868SOL     OW27502   4.004   3.936   0.043
 8868SOL    HW127503   3.942   4.006   0.080
 8868SOL    HW227504   4.098   3.957   0.071
 8869SOL     OW27505   5.189   2.506   3.748
 8869SOL    HW127506   5.270   2.509   3.690
 8869SOL    HW227507   5.217   2.513   3.844
 8870SOL     OW27508   4.218   1.336   0.723
 8870SOL    HW127509   4.139   1.322   0.663
 8870SOL    HW227510   4.188   1.331   0.819
 8871SOL     OW27511   2.525   1.813   3.926
 8871SOL    HW127512   2.581   1.747   3.877
 8871SOL    HW227513   2.569   1.838   4.012
 8872SOL     OW27514   1.738   3.259   4.709
 8872SOL    HW127515   1.671   3.221   4.773
 8872SOL    HW227516   1.816   3.296   4.759
 8873SOL     OW27517   0.124   5.870   4.545
 8873SOL    HW127518   0.195   5.887   4.613
 8873SOL    HW227519   0.161   5.883   4.453
 8874SOL     OW27520   2.899   0.808   0.426
 8874SOL    HW127521   2.963   0.823   0.351
 8874SOL    HW227522   2.834   0.736   0.400
 8875SOL     OW27523   2.115   2.436   4.392
 8875SOL    HW127524   2.088   2.429   4.296
 8875SOL    HW227525   2.144   2.346   4.425
 8876SOL     OW27526   1.270   6.967   4.615
 8876SOL    HW127527   1.364   6.981   4.648
 8876SOL    HW227528   1.206   6.999   4.685
 8877SOL     OW27529   2.804   6.685   4.699
 8877SOL    HW127530   2.834   6.734   4.780
 8877SOL    HW227531   2.778   6.591   4.725
 8878SOL     OW27532   6.238   4.474   6.738
 8878SOL    HW127533   6.257   4.523   6.653
 8878SOL    HW227534   6.194   4.536   6.803
 8879SOL     OW27535   4.904   6.450   5.101
 8879SOL    HW127536   4.861   6.459   5.011
 8879SOL    HW227537   4.854   6.382   5.155
 8880SOL     OW27538   6.880   4.894   5.044
 8880SOL    HW127539   6.938   4.864   5.119
 8880SOL    HW227540   6.812   4.822   5.024
 8881SOL     OW27541   6.149   0.801   0.904
 8881SOL    HW127542   6.229   0.784   0.963
 8881SOL    HW227543   6.087   0.864   0.951
 8882SOL     OW27544   5.581   1.725   6.503
 8882SOL    HW127545   5.663   1.720   6.561
 8882SOL    HW227546   5.575   1.642   6.447
 8883SOL     OW27547   6.460   1.141   5.740
 8883SOL    HW127548   6.388   1.111   5.678
 8883SOL    HW227549   6.481   1.069   5.805
 8884SOL     OW27550   6.831   0.109   6.352
 8884SOL    HW127551   6.917   0.058   6.349
 8884SOL    HW227552   6.826   0.159   6.439
 8885SOL     OW27553   5.275   3.980   1.945
 8885SOL    HW127554   5.369   3.966   1.912
 8885SOL    HW227555   5.262   3.928   2.030
 8886SOL     OW27556   3.139   6.910   6.604
 8886SOL    HW127557   3.049   6.908   6.559
 8886SOL    HW227558   3.158   7.002   6.635
 8887SOL     OW27559   2.778   1.638   1.092
 8887SOL    HW127560   2.729   1.626   1.178
 8887SOL    HW227561   2.837   1.718   1.098
 8888SOL     OW27562   3.229   1.641   1.993
 8888SOL    HW127563   3.198   1.579   1.921
 8888SOL    HW227564   3.327   1.656   1.985
 8889SOL     OW27565   3.610   7.008   4.765
 8889SOL    HW127566   3.669   0.062   4.745
 8889SOL    HW227567   3.568   7.019   4.855
 8890SOL     OW27568   1.109   4.778   4.675
 8890SOL    HW127569   1.106   4.777   4.775
 8890SOL    HW227570   1.182   4.839   4.644
 8891SOL     OW27571   4.484   2.607   6.399
 8891SOL    HW127572   4.527   2.671   6.464
 8891SOL    HW227573   4.553   2.546   6.361
 8892SOL     OW27574   1.704   6.232   2.451
 8892SOL    HW127575   1.609   6.204   2.435
 8892SOL    HW227576   1.738   6.282   2.371
 8893SOL     OW27577   0.641   1.324   1.166
 8893SOL    HW127578   0.633   1.395   1.097
 8893SOL    HW227579   0.659   1.236   1.122
 8894SOL     OW27580   4.141   2.741   6.129
 8894SOL    HW127581   4.077   2.665   6.120
 8894SOL    HW227582   4.092   2.828   6.117
 8895SOL     OW27583   1.122   6.861   2.186
 8895SOL    HW127584   1.073   6.940   2.225
 8895SOL    HW227585   1.163   6.887   2.099
 8896SOL     OW27586   1.542   3.291   4.986
 8896SOL    HW127587   1.566   3.204   5.028
 8896SOL    HW227588   1.504   3.274   4.895
 8897SOL     OW27589   1.187   2.570   1.415
 8897SOL    HW127590   1.246   2.649   1.400
 8897SOL    HW227591   1.138   2.581   1.502
 8898SOL     OW27592   5.545   3.860   3.893
 8898SOL    HW127593   5.644   3.870   3.892
 8898SOL    HW227594   5.502   3.944   3.861
 8899SOL     OW27595   1.571   4.288   6.911
 8899SOL    HW127596   1.534   4.259   7.000
 8899SOL    HW227597   1.530   4.233   6.838
 8900SOL     OW27598   6.062   1.807   4.141
 8900SOL    HW127599   6.122   1.796   4.220
 8900SOL    HW227600   5.969   1.778   4.165
 8901SOL     OW27601   1.716   6.781   2.909
 8901SOL    HW127602   1.716   6.732   2.821
 8901SOL    HW227603   1.782   6.740   2.971
 8902SOL     OW27604   1.544   5.399   5.788
 8902SOL    HW127605   1.580   5.323   5.842
 8902SOL    HW227606   1.620   5.458   5.760
 8903SOL     OW27607   2.218   1.405   3.401
 8903SOL    HW127608   2.144   1.391   3.467
 8903SOL    HW227609   2.242   1.502   3.399
 8904SOL     OW27610   1.373   6.518   3.448
 8904SOL    HW127611   1.297   6.494   3.508
 8904SOL    HW227612   1.359   6.477   3.358
 8905SOL     OW27613   2.499   3.805   5.327
 8905SOL    HW127614   2.457   3.851   5.249
 8905SOL    HW227615   2.551   3.871   5.381
 8906SOL     OW27616   6.536   5.954   5.663
 8906SOL    HW127617   6.543   5.943   5.564
 8906SOL    HW227618   6.440   5.962   5.689
 8907SOL     OW27619   3.106   2.830   5.538
 8907SOL    HW127620   3.186   2.779   5.506
 8907SOL    HW227621   3.050   2.858   5.460
 8908SOL     OW27622   0.630   3.034   1.455
 8908SOL    HW127623   0.536   3.019   1.486
 8908SOL    HW227624   0.630   3.098   1.378
 8909SOL     OW27625   1.950   0.749   6.613
 8909SOL    HW127626   2.018   0.686   6.576
 8909SOL    HW227627   1.882   0.770   6.542
 8910SOL     OW27628   3.303   3.617   0.052
 8910SOL    HW127629   3.320   3.587   6.982
 8910SOL    HW227630   3.326   3.542   0.115
 8911SOL     OW27631   3.959   2.101   3.902
 8911SOL    HW127632   3.986   2.092   3.806
 8911SOL    HW227633   3.861   2.118   3.907
 8912SOL     OW27634   4.448   2.873   5.729
 8912SOL    HW127635   4.459   2.833   5.820
 8912SOL    HW227636   4.448   2.799   5.660
 8913SOL     OW27637   5.341   4.065   0.962
 8913SOL    HW127638   5.294   4.010   0.893
 8913SOL    HW227639   5.281   4.079   1.041
 8914SOL     OW27640   3.921   1.925   4.868
 8914SOL    HW127641   3.922   1.977   4.782
 8914SOL    HW227642   3.932   1.828   4.848
 8915SOL     OW27643   1.398   4.484   2.230
 8915SOL    HW127644   1.424   4.411   2.293
 8915SOL    HW227645   1.356   4.444   2.148
 8916SOL     OW27646   6.650   3.385   2.887
 8916SOL    HW127647   6.679   3.469   2.842
 8916SOL    HW227648   6.574   3.344   2.836
 8917SOL     OW27649   6.145   5.190   6.596
 8917SOL    HW127650   6.111   5.112   6.648
 8917SOL    HW227651   6.127   5.274   6.647
 8918SOL     OW27652   5.413   5.502   6.219
 8918SOL    HW127653   5.412   5.434   6.292
 8918SOL    HW227654   5.471   5.470   6.144
 8919SOL     OW27655   2.885   4.821   0.580
 8919SOL    HW127656   2.800   4.831   0.631
 8919SOL    HW227657   2.913   4.725   0.580
 8920SOL     OW27658   6.094   5.753   5.849
 8920SOL    HW127659   6.135   5.836   5.809
 8920SOL    HW227660   6.074   5.688   5.776
 8921SOL     OW27661   1.768   6.907   4.140
 8921SOL    HW127662   1.707   6.969   4.092
 8921SOL    HW227663   1.833   6.959   4.195
 8922SOL     OW27664   0.318   4.197   6.911
 8922SOL    HW127665   0.406   4.216   6.953
 8922SOL    HW227666   0.327   4.119   6.849
 8923SOL     OW27667   2.135   4.545   5.765
 8923SOL    HW127668   2.074   4.512   5.837
 8923SOL    HW227669   2.190   4.620   5.800
 8924SOL     OW27670   2.715   5.271   5.348
 8924SOL    HW127671   2.709   5.280   5.248
 8924SOL    HW227672   2.746   5.179   5.372
 8925SOL     OW27673   7.015   6.907   2.246
 8925SOL    HW127674   0.022   6.832   2.305
 8925SOL    HW227675   6.976   6.980   2.303
 8926SOL     OW27676   5.212   2.224   0.794
 8926SOL    HW127677   5.133   2.286   0.800
 8926SOL    HW227678   5.248   2.225   0.701
 8927SOL     OW27679   2.364   2.216   4.771
 8927SOL    HW127680   2.460   2.230   4.796
 8927SOL    HW227681   2.308   2.288   4.812
 8928SOL     OW27682   0.796   6.909   5.467
 8928SOL    HW127683   0.740   6.920   5.385
 8928SOL    HW227684   0.875   6.851   5.446
 8929SOL     OW27685   5.518   3.878   3.543
 8929SOL    HW127686   5.531   3.831   3.630
 8929SOL    HW227687   5.490   3.812   3.473
 8930SOL     OW27688   1.038   4.980   5.095
 8930SOL    HW127689   1.118   4.923   5.077
 8930SOL    HW227690   0.972   4.928   5.150
 8931SOL     OW27691   4.481   1.089   0.785
 8931SOL    HW127692   4.495   1.053   0.878
 8931SOL    HW227693   4.383   1.092   0.765
 8932SOL     OW27694   0.043   7.004   0.205
 8932SOL    HW127695   7.002   0.051   0.177
 8932SOL    HW227696   0.060   6.942   0.129
 8933SOL     OW27697   1.514   0.575   4.997
 8933SOL    HW127698   1.545   0.517   5.072
 8933SOL    HW227699   1.476   0.660   5.034
 8934SOL     OW27700   3.358   5.961   2.903
 8934SOL    HW127701   3.302   6.002   2.831
 8934SOL    HW227702   3.348   5.862   2.902
 8935SOL     OW27703   4.953   2.055   3.590
 8935SOL    HW127704   4.908   2.044   3.501
 8935SOL    HW227705   4.987   2.148   3.599
 8936SOL     OW27706   0.982   5.150   2.111
 8936SOL    HW127707   1.009   5.054   2.102
 8936SOL    HW227708   1.061   5.204   2.141
 8937SOL     OW27709   4.968   0.023   4.003
 8937SOL    HW127710   5.038   0.092   4.021
 8937SOL    HW227711   5.006   6.974   3.947
 8938SOL     OW27712   6.262   0.956   1.432
 8938SOL    HW127713   6.330   0.949   1.505
 8938SOL    HW227714   6.217   0.867   1.420
 8939SOL     OW27715   7.006   3.048   3.707
 8939SOL    HW127716   6.939   3.016   3.640
 8939SOL    HW227717   0.074   3.022   3.678
 8940SOL     OW27718   6.328   2.784   1.024
 8940SOL    HW127719   6.294   2.787   1.118
 8940SOL    HW227720   6.370   2.695   1.006
 8941SOL     OW27721   4.157   2.612   1.692
 8941SOL    HW127722   4.252   2.640   1.706
 8941SOL    HW227723   4.111   2.680   1.634
 8942SOL     OW27724   5.743   4.982   4.487
 8942SOL    HW127725   5.812   4.911   4.476
 8942SOL    HW227726   5.654   4.947   4.456
 8943SOL     OW27727   4.597   3.584   0.037
 8943SOL    HW127728   4.634   3.503   0.084
 8943SOL    HW227729   4.638   3.666   0.077
 8944SOL     OW27730   5.938   5.919   4.693
 8944SOL    HW127731   5.956   5.899   4.790
 8944SOL    HW227732   5.861   5.864   4.662
 8945SOL     OW27733   5.506   4.773   4.854
 8945SOL    HW127734   5.489   4.721   4.771
 8945SOL    HW227735   5.561   4.853   4.833
 8946SOL     OW27736   5.064   1.214   5.301
 8946SOL    HW127737   5.102   1.306   5.292
 8946SOL    HW227738   4.967   1.215   5.277
 8947SOL     OW27739   1.827   5.411   6.558
 8947SOL    HW127740   1.882   5.450   6.485
 8947SOL    HW227741   1.859   5.318   6.578
 8948SOL     OW27742   6.609   0.872   2.825
 8948SOL    HW127743   6.513   0.843   2.832
 8948SOL    HW227744   6.633   0.880   2.728
 8949SOL     OW27745   3.855   6.907   0.581
 8949SOL    HW127746   3.841   6.889   0.678
 8949SOL    HW227747   3.949   6.883   0.556
 8950SOL     OW27748   4.216   3.519   0.340
 8950SOL    HW127749   4.168   3.497   0.255
 8950SOL    HW227750   4.254   3.611   0.335
 8951SOL     OW27751   1.819   2.182   4.637
 8951SOL    HW127752   1.857   2.108   4.582
 8951SOL    HW227753   1.785   2.255   4.578
 8952SOL     OW27754   1.714   3.521   4.180
 8952SOL    HW127755   1.730   3.433   4.224
 8952SOL    HW227756   1.770   3.591   4.224
 8953SOL     OW27757   1.280   4.448   1.332
 8953SOL    HW127758   1.282   4.362   1.282
 8953SOL    HW227759   1.278   4.524   1.267
 8954SOL     OW27760   1.800   4.949   5.707
 8954SOL    HW127761   1.772   5.027   5.763
 8954SOL    HW227762   1.882   4.973   5.655
 8955SOL     OW27763   5.695   2.622   4.268
 8955SOL    HW127764   5.723   2.544   4.211
 8955SOL    HW227765   5.595   2.624   4.274
 8956SOL     OW27766   0.697   5.332   6.535
 8956SOL    HW127767   0.656   5.297   6.450
 8956SOL    HW227768   0.671   5.272   6.611
 8957SOL     OW27769   0.706   5.878   3.332
 8957SOL    HW127770   0.626   5.876   3.391
 8957SOL    HW227771   0.761   5.960   3.353
 8958SOL     OW27772   1.611   3.411   5.491
 8958SOL    HW127773   1.599   3.414   5.392
 8958SOL    HW227774   1.683   3.346   5.514
 8959SOL     OW27775   6.758   2.552   3.092
 8959SOL    HW127776   6.788   2.525   3.184
 8959SOL    HW227777   6.831   2.532   3.027
 8960SOL     OW27778   5.505   4.621   2.891
 8960SOL    HW127779   5.510   4.536   2.838
 8960SOL    HW227780   5.529   4.698   2.832
 8961SOL     OW27781   2.139   0.615   5.548
 8961SOL    HW127782   2.055   0.642   5.596
 8961SOL    HW227783   2.116   0.550   5.475
 8962SOL     OW27784   0.157   6.060   2.395
 8962SOL    HW127785   0.095   6.068   2.317
 8962SOL    HW227786   0.112   6.006   2.467
 8963SOL     OW27787   5.008   6.920   4.469
 8963SOL    HW127788   4.958   6.987   4.524
 8963SOL    HW227789   5.036   6.844   4.527
 8964SOL     OW27790   0.942   3.176   4.437
 8964SOL    HW127791   0.999   3.134   4.508
 8964SOL    HW227792   0.999   3.202   4.360
 8965SOL     OW27793   3.805   5.744   6.547
 8965SOL    HW127794   3.738   5.786   6.608
 8965SOL    HW227795   3.763   5.724   6.459
 8966SOL     OW27796   4.559   5.469   5.351
 8966SOL    HW127797   4.513   5.556   5.333
 8966SOL    HW227798   4.496   5.394   5.333
 8967SOL     OW27799   3.025   6.973   4.070
 8967SOL    HW127800   3.116   6.934   4.062
 8967SOL    HW227801   2.973   6.955   3.986
 8968SOL     OW27802   4.080   5.212   2.236
 8968SOL    HW127803   4.086   5.165   2.325
 8968SOL    HW227804   4.020   5.160   2.175
 8969SOL     OW27805   0.870   0.452   2.396
 8969SOL    HW127806   0.910   0.366   2.363
 8969SOL    HW227807   0.775   0.457   2.366
 8970SOL     OW27808   2.128   0.621   4.570
 8970SOL    HW127809   2.152   0.651   4.477
 8970SOL    HW227810   2.029   0.611   4.577
 8971SOL     OW27811   3.832   5.361   0.279
 8971SOL    HW127812   3.866   5.385   0.370
 8971SOL    HW227813   3.828   5.261   0.270
 8972SOL     OW27814   6.272   4.486   0.344
 8972SOL    HW127815   6.219   4.467   0.261
 8972SOL    HW227816   6.241   4.426   0.418
 8973SOL     OW27817   1.397   2.892   3.284
 8973SOL    HW127818   1.300   2.868   3.294
 8973SOL    HW227819   1.409   2.989   3.306
 8974SOL     OW27820   2.282   4.149   4.529
 8974SOL    HW127821   2.281   4.105   4.618
 8974SOL    HW227822   2.302   4.081   4.458
 8975SOL     OW27823   6.857   5.979   6.046
 8975SOL    HW127824   6.908   5.920   5.983
 8975SOL    HW227825   6.868   5.945   6.139
 8976SOL     OW27826   6.762   6.580   2.197
 8976SOL    HW127827   6.803   6.638   2.126
 8976SOL    HW227828   6.664   6.574   2.182
 8977SOL     OW27829   6.779   5.007   6.375
 8977SOL    HW127830   6.816   5.070   6.307
 8977SOL    HW227831   6.813   4.914   6.355
 8978SOL     OW27832   5.735   5.973   6.641
 8978SOL    HW127833   5.675   5.900   6.607
 8978SOL    HW227834   5.729   6.051   6.580
 8979SOL     OW27835   1.059   4.755   5.597
 8979SOL    HW127836   1.144   4.750   5.545
 8979SOL    HW227837   1.079   4.786   5.690
 8980SOL     OW27838   3.664   0.271   5.668
 8980SOL    HW127839   3.581   0.307   5.711
 8980SOL    HW227840   3.664   0.296   5.571
 8981SOL     OW27841   4.413   2.971   0.144
 8981SOL    HW127842   4.395   3.037   0.217
 8981SOL    HW227843   4.434   3.020   0.059
 8982SOL     OW27844   0.485   1.446   1.697
 8982SOL    HW127845   0.394   1.442   1.656
 8982SOL    HW227846   0.525   1.355   1.699
 8983SOL     OW27847   1.643   6.659   2.370
 8983SOL    HW127848   1.676   6.581   2.316
 8983SOL    HW227849   1.567   6.630   2.427
 8984SOL     OW27850   6.477   0.443   4.080
 8984SOL    HW127851   6.473   0.462   4.178
 8984SOL    HW227852   6.520   0.520   4.033
 8985SOL     OW27853   5.017   2.672   0.883
 8985SOL    HW127854   5.091   2.664   0.950
 8985SOL    HW227855   4.957   2.748   0.909
 8986SOL     OW27856   0.163   5.412   0.208
 8986SOL    HW127857   0.150   5.313   0.210
 8986SOL    HW227858   0.197   5.439   0.118
 8987SOL     OW27859   1.901   0.686   2.096
 8987SOL    HW127860   1.808   0.659   2.070
 8987SOL    HW227861   1.942   0.738   2.021
 8988SOL     OW27862   1.903   5.286   2.116
 8988SOL    HW127863   1.869   5.256   2.027
 8988SOL    HW227864   1.992   5.242   2.134
 8989SOL     OW27865   5.514   1.298   2.109
 8989SOL    HW127866   5.467   1.382   2.134
 8989SOL    HW227867   5.608   1.319   2.083
 8990SOL     OW27868   3.818   0.569   1.629
 8990SOL    HW127869   3.809   0.478   1.588
 8990SOL    HW227870   3.782   0.567   1.722
 8991SOL     OW27871   2.046   2.422   0.884
 8991SOL    HW127872   2.040   2.521   0.897
 8991SOL    HW227873   1.961   2.389   0.845
 8992SOL     OW27874   0.804   3.908   0.249
 8992SOL    HW127875   0.748   3.966   0.190
 8992SOL    HW227876   0.770   3.914   0.343
 8993SOL     OW27877   6.259   3.692   3.805
 8993SOL    HW127878   6.261   3.784   3.846
 8993SOL    HW227879   6.250   3.700   3.706
 8994SOL     OW27880   1.089   5.224   2.921
 8994SOL    HW127881   1.044   5.211   3.009
 8994SOL    HW227882   1.047   5.301   2.872
 8995SOL     OW27883   2.202   3.953   4.703
 8995SOL    HW127884   2.247   3.972   4.790
 8995SOL    HW227885   2.196   3.854   4.688
 8996SOL     OW27886   0.688   4.428   2.071
 8996SOL    HW127887   0.697   4.512   2.017
 8996SOL    HW227888   0.760   4.425   2.140
 8997SOL     OW27889   4.482   1.538   5.681
 8997SOL    HW127890   4.447   1.630   5.696
 8997SOL    HW227891   4.406   1.475   5.667
 8998SOL     OW27892   1.021   2.489   6.243
 8998SOL    HW127893   1.068   2.577   6.252
 8998SOL    HW227894   1.060   2.423   6.307
 8999SOL     OW27895   6.256   1.335   4.407
 8999SOL    HW127896   6.233   1.355   4.312
 8999SOL    HW227897   6.239   1.239   4.427
 9000SOL     OW27898   3.054   4.148   0.662
 9000SOL    HW127899   3.094   4.220   0.604
 9000SOL    HW227900   2.965   4.178   0.694
 9001SOL     OW27901   1.316   4.236   3.701
 9001SOL    HW127902   1.310   4.274   3.793
 9001SOL    HW227903   1.312   4.310   3.634
 9002SOL     OW27904   5.115   4.669   5.457
 9002SOL    HW127905   5.029   4.620   5.466
 9002SOL    HW227906   5.146   4.698   5.547
 9003SOL     OW27907   5.454   2.338   6.302
 9003SOL    HW127908   5.441   2.261   6.240
 9003SOL    HW227909   5.550   2.345   6.328
 9004SOL     OW27910   4.538   6.048   1.311
 9004SOL    HW127911   4.613   5.988   1.336
 9004SOL    HW227912   4.570   6.143   1.304
 9005SOL     OW27913   5.005   2.042   2.961
 9005SOL    HW127914   5.066   2.002   2.893
 9005SOL    HW227915   5.060   2.082   3.035
 9006SOL     OW27916   1.524   6.269   1.322
 9006SOL    HW127917   1.433   6.229   1.310
 9006SOL    HW227918   1.563   6.236   1.409
 9007SOL     OW27919   2.601   6.378   4.513
 9007SOL    HW127920   2.526   6.315   4.533
 9007SOL    HW227921   2.638   6.414   4.599
 9008SOL     OW27922   6.545   4.765   2.343
 9008SOL    HW127923   6.478   4.753   2.269
 9008SOL    HW227924   6.505   4.732   2.428
 9009SOL     OW27925   3.743   6.477   1.014
 9009SOL    HW127926   3.679   6.463   1.089
 9009SOL    HW227927   3.696   6.460   0.927
 9010SOL     OW27928   1.166   6.304   4.935
 9010SOL    HW127929   1.086   6.353   4.971
 9010SOL    HW227930   1.218   6.365   4.875
 9011SOL     OW27931   4.437   2.166   0.924
 9011SOL    HW127932   4.497   2.246   0.927
 9011SOL    HW227933   4.452   2.117   0.838
 9012SOL     OW27934   6.873   5.425   1.218
 9012SOL    HW127935   6.884   5.467   1.127
 9012SOL    HW227936   6.797   5.470   1.265
 9013SOL     OW27937   5.437   6.024   3.342
 9013SOL    HW127938   5.353   6.072   3.318
 9013SOL    HW227939   5.420   5.962   3.419
 9014SOL     OW27940   2.640   1.066   1.156
 9014SOL    HW127941   2.716   1.103   1.210
 9014SOL    HW227942   2.666   0.977   1.120
 9015SOL     OW27943   0.546   0.940   5.705
 9015SOL    HW127944   0.447   0.938   5.721
 9015SOL    HW227945   0.572   1.028   5.666
 9016SOL     OW27946   6.765   6.238   6.676
 9016SOL    HW127947   6.787   6.322   6.727
 9016SOL    HW227948   6.666   6.230   6.666
 9017SOL     OW27949   6.756   3.024   3.565
 9017SOL    HW127950   6.767   3.090   3.491
 9017SOL    HW227951   6.667   3.038   3.609
 9018SOL     OW27952   3.752   2.338   5.320
 9018SOL    HW127953   3.672   2.390   5.350
 9018SOL    HW227954   3.728   2.283   5.240
 9019SOL     OW27955   1.852   0.252   0.909
 9019SOL    HW127956   1.784   0.316   0.943
 9019SOL    HW227957   1.944   0.291   0.922
 9020SOL     OW27958   0.502   5.009   3.165
 9020SOL    HW127959   0.443   4.990   3.243
 9020SOL    HW227960   0.544   4.924   3.133
 9021SOL     OW27961   6.843   5.574   4.776
 9021SOL    HW127962   6.910   5.624   4.831
 9021SOL    HW227963   6.881   5.486   4.749
 9022SOL     OW27964   3.128   0.566   6.995
 9022SOL    HW127965   3.033   0.554   6.967
 9022SOL    HW227966   3.160   0.484   0.018
 9023SOL     OW27967   3.339   2.887   3.383
 9023SOL    HW127968   3.408   2.873   3.454
 9023SOL    HW227969   3.368   2.845   3.298
 9024SOL     OW27970   1.697   6.622   0.493
 9024SOL    HW127971   1.781   6.605   0.546
 9024SOL    HW227972   1.711   6.701   0.434
 9025SOL     OW27973   5.968   4.934   0.526
 9025SOL    HW127974   5.986   4.961   0.621
 9025SOL    HW227975   6.048   4.954   0.470
 9026SOL     OW27976   3.330   2.828   5.132
 9026SOL    HW127977   3.303   2.733   5.118
 9026SOL    HW227978   3.374   2.838   5.221
 9027SOL     OW27979   2.011   2.845   3.409
 9027SOL    HW127980   2.015   2.943   3.427
 9027SOL    HW227981   1.951   2.802   3.477
 9028SOL     OW27982   2.768   4.802   4.300
 9028SOL    HW127983   2.699   4.874   4.307
 9028SOL    HW227984   2.732   4.727   4.245
 9029SOL     OW27985   5.177   5.723   3.250
 9029SOL    HW127986   5.144   5.787   3.181
 9029SOL    HW227987   5.102   5.663   3.278
 9030SOL     OW27988   2.542   1.095   1.522
 9030SOL    HW127989   2.482   1.166   1.484
 9030SOL    HW227990   2.496   1.050   1.598
 9031SOL     OW27991   2.537   6.567   6.694
 9031SOL    HW127992   2.452   6.575   6.640
 9031SOL    HW227993   2.546   6.474   6.729
 9032SOL     OW27994   1.935   1.569   1.781
 9032SOL    HW127995   1.963   1.635   1.711
 9032SOL    HW227996   1.978   1.593   1.868
 9033SOL     OW27997   1.048   3.605   2.672
 9033SOL    HW127998   1.002   3.608   2.583
 9033SOL    HW227999   1.147   3.592   2.658
 9034SOL     OW28000   3.040   6.586   6.050
 9034SOL    HW128001   3.024   6.668   5.995
 9034SOL    HW228002   3.002   6.507   6.004
 9035SOL     OW28003   0.087   1.379   4.756
 9035SOL    HW128004   0.022   1.381   4.680
 9035SOL    HW228005   0.037   1.383   4.843
 9036SOL     OW28006   1.444   1.947   5.101
 9036SOL    HW128007   1.536   1.920   5.075
 9036SOL    HW228008   1.429   2.043   5.079
 9037SOL     OW28009   2.074   3.682   6.164
 9037SOL    HW128010   2.101   3.607   6.224
 9037SOL    HW228011   2.061   3.765   6.218
 9038SOL     OW28012   5.819   6.434   5.520
 9038SOL    HW128013   5.788   6.347   5.480
 9038SOL    HW228014   5.919   6.440   5.512
 9039SOL     OW28015   1.902   5.292   5.587
 9039SOL    HW128016   1.867   5.224   5.523
 9039SOL    HW228017   1.987   5.331   5.551
 9040SOL     OW28018   2.143   1.124   2.557
 9040SOL    HW128019   2.059   1.178   2.542
 9040SOL    HW228020   2.209   1.180   2.607
 9041SOL     OW28021   1.824   3.253   6.998
 9041SOL    HW128022   1.820   3.294   0.066
 9041SOL    HW228023   1.881   3.310   6.939
 9042SOL     OW28024   3.158   4.891   3.512
 9042SOL    HW128025   3.147   4.863   3.608
 9042SOL    HW228026   3.249   4.931   3.500
 9043SOL     OW28027   6.995   2.401   6.040
 9043SOL    HW128028   0.046   2.440   5.987
 9043SOL    HW228029   6.971   2.311   6.003
 9044SOL     OW28030   6.263   5.978   0.504
 9044SOL    HW128031   6.237   5.928   0.421
 9044SOL    HW228032   6.220   5.935   0.584
 9045SOL     OW28033   3.270   6.443   4.255
 9045SOL    HW128034   3.350   6.466   4.200
 9045SOL    HW228035   3.194   6.504   4.231
 9046SOL     OW28036   3.432   4.117   5.094
 9046SOL    HW128037   3.456   4.078   5.182
 9046SOL    HW228038   3.350   4.072   5.059
 9047SOL     OW28039   1.263   4.820   5.098
 9047SOL    HW128040   1.309   4.768   5.026
 9047SOL    HW228041   1.310   4.806   5.185
 9048SOL     OW28042   0.823   2.723   4.483
 9048SOL    HW128043   0.798   2.629   4.508
 9048SOL    HW228044   0.768   2.787   4.536
 9049SOL     OW28045   5.257   5.513   6.000
 9049SOL    HW128046   5.232   5.610   6.001
 9049SOL    HW228047   5.319   5.494   6.076
 9050SOL     OW28048   0.395   5.290   5.998
 9050SOL    HW128049   0.410   5.224   6.072
 9050SOL    HW228050   0.456   5.368   6.009
 9051SOL     OW28051   5.304   6.422   6.237
 9051SOL    HW128052   5.321   6.344   6.297
 9051SOL    HW228053   5.326   6.397   6.143
 9052SOL     OW28054   1.962   5.196   5.122
 9052SOL    HW128055   2.047   5.246   5.102
 9052SOL    HW228056   1.970   5.102   5.089
 9053SOL     OW28057   3.133   1.711   3.404
 9053SOL    HW128058   3.065   1.726   3.476
 9053SOL    HW228059   3.186   1.795   3.390
 9054SOL     OW28060   3.140   0.355   0.897
 9054SOL    HW128061   3.113   0.295   0.973
 9054SOL    HW228062   3.212   0.417   0.928
 9055SOL     OW28063   1.363   2.287   3.629
 9055SOL    HW128064   1.386   2.196   3.665
 9055SOL    HW228065   1.433   2.315   3.564
 9056SOL     OW28066   5.384   1.319   2.875
 9056SOL    HW128067   5.429   1.272   2.799
 9056SOL    HW228068   5.453   1.350   2.940
 9057SOL     OW28069   4.859   5.644   6.186
 9057SOL    HW128070   4.922   5.637   6.109
 9057SOL    HW228071   4.846   5.740   6.210
 9058SOL     OW28072   1.457   3.186   4.733
 9058SOL    HW128073   1.497   3.109   4.684
 9058SOL    HW228074   1.360   3.193   4.709
 9059SOL     OW28075   0.326   1.531   2.132
 9059SOL    HW128076   0.272   1.614   2.114
 9059SOL    HW228077   0.273   1.470   2.191
 9060SOL     OW28078   0.337   4.746   0.874
 9060SOL    HW128079   0.341   4.820   0.942
 9060SOL    HW228080   0.302   4.664   0.917
 9061SOL     OW28081   5.251   4.638   1.942
 9061SOL    HW128082   5.202   4.707   1.995
 9061SOL    HW228083   5.349   4.658   1.945
 9062SOL     OW28084   0.526   5.546   3.559
 9062SOL    HW128085   0.577   5.493   3.491
 9062SOL    HW228086   0.502   5.488   3.636
 9063SOL     OW28087   3.652   1.549   1.660
 9063SOL    HW128088   3.634   1.558   1.562
 9063SOL    HW228089   3.740   1.591   1.681
 9064SOL     OW28090   0.645   5.099   3.504
 9064SOL    HW128091   0.726   5.157   3.515
 9064SOL    HW228092   0.565   5.157   3.491
 9065SOL     OW28093   2.396   4.624   5.326
 9065SOL    HW128094   2.450   4.693   5.374
 9065SOL    HW228095   2.400   4.538   5.376
 9066SOL     OW28096   4.910   4.781   5.306
 9066SOL    HW128097   4.998   4.741   5.328
 9066SOL    HW228098   4.839   4.740   5.364
 9067SOL     OW28099   0.514   7.019   4.396
 9067SOL    HW128100   0.579   6.948   4.372
 9067SOL    HW228101   0.437   6.978   4.445
 9068SOL     OW28102   4.943   6.905   4.930
 9068SOL    HW128103   4.979   6.949   5.013
 9068SOL    HW228104   4.933   6.974   4.858
 9069SOL     OW28105   5.045   1.825   1.652
 9069SOL    HW128106   5.117   1.808   1.720
 9069SOL    HW228107   5.085   1.819   1.560
 9070SOL     OW28108   1.502   1.996   6.144
 9070SOL    HW128109   1.523   1.963   6.052
 9070SOL    HW228110   1.534   2.090   6.155
 9071SOL     OW28111   5.177   1.403   5.693
 9071SOL    HW128112   5.134   1.428   5.780
 9071SOL    HW228113   5.272   1.378   5.710
 9072SOL     OW28114   4.763   1.043   2.796
 9072SOL    HW128115   4.699   1.074   2.866
 9072SOL    HW228116   4.809   1.122   2.755
 9073SOL     OW28117   4.629   1.144   6.382
 9073SOL    HW128118   4.670   1.169   6.294
 9073SOL    HW228119   4.536   1.180   6.386
 9074SOL     OW28120   1.808   0.085   2.152
 9074SOL    HW128121   1.855   0.136   2.080
 9074SOL    HW228122   1.874   0.056   2.221
 9075SOL     OW28123   6.705   6.736   1.368
 9075SOL    HW128124   6.704   6.835   1.351
 9075SOL    HW228125   6.742   6.689   1.289
 9076SOL     OW28126   6.854   0.829   2.047
 9076SOL    HW128127   6.954   0.822   2.044
 9076SOL    HW228128   6.818   0.766   2.116
 9077SOL     OW28129   6.100   1.560   6.189
 9077SOL    HW128130   6.144   1.479   6.230
 9077SOL    HW228131   6.105   1.553   6.089
 9078SOL     OW28132   5.206   5.828   6.842
 9078SOL    HW128133   5.164   5.740   6.819
 9078SOL    HW228134   5.272   5.815   6.916
 9079SOL     OW28135   1.397   0.604   6.413
 9079SOL    HW128136   1.383   0.691   6.461
 9079SOL    HW228137   1.310   0.554   6.409
 9080SOL     OW28138   5.787   3.870   1.441
 9080SOL    HW128139   5.747   3.781   1.460
 9080SOL    HW228140   5.877   3.859   1.399
 9081SOL     OW28141   3.882   2.029   0.466
 9081SOL    HW128142   3.799   2.044   0.412
 9081SOL    HW228143   3.946   2.105   0.451
 9082SOL     OW28144   2.846   6.013   6.002
 9082SOL    HW128145   2.787   6.063   6.065
 9082SOL    HW228146   2.817   6.031   5.908
 9083SOL     OW28147   4.189   5.166   0.154
 9083SOL    HW128148   4.256   5.192   0.084
 9083SOL    HW228149   4.114   5.116   0.111
 9084SOL     OW28150   0.455   2.818   5.942
 9084SOL    HW128151   0.383   2.808   6.011
 9084SOL    HW228152   0.474   2.729   5.901
 9085SOL     OW28153   2.523   5.166   6.921
 9085SOL    HW128154   2.454   5.230   6.886
 9085SOL    HW228155   2.606   5.172   6.866
 9086SOL     OW28156   6.672   4.220   0.373
 9086SOL    HW128157   6.767   4.226   0.342
 9086SOL    HW228158   6.664   4.147   0.440
 9087SOL     OW28159   6.048   0.944   1.111
 9087SOL    HW128160   6.019   0.918   1.203
 9087SOL    HW228161   6.057   1.044   1.106
 9088SOL     OW28162   6.706   6.929   0.474
 9088SOL    HW128163   6.654   6.865   0.417
 9088SOL    HW228164   6.660   6.939   0.562
 9089SOL     OW28165   4.947   5.760   3.983
 9089SOL    HW128166   4.904   5.847   4.008
 9089SOL    HW228167   4.880   5.686   3.991
 9090SOL     OW28168   5.789   6.637   4.705
 9090SOL    HW128169   5.704   6.590   4.729
 9090SOL    HW228170   5.858   6.617   4.773
 9091SOL     OW28171   2.477   1.933   1.587
 9091SOL    HW128172   2.522   1.867   1.647
 9091SOL    HW228173   2.520   1.932   1.497
 9092SOL     OW28174   1.093   6.477   5.746
 9092SOL    HW128175   1.135   6.559   5.706
 9092SOL    HW228176   1.033   6.434   5.679
 9093SOL     OW28177   2.185   4.955   0.643
 9093SOL    HW128178   2.104   5.013   0.650
 9093SOL    HW228179   2.267   5.007   0.667
 9094SOL     OW28180   0.269   5.224   2.075
 9094SOL    HW128181   0.359   5.207   2.036
 9094SOL    HW228182   0.278   5.242   2.173
 9095SOL     OW28183   3.605   3.411   6.872
 9095SOL    HW128184   3.519   3.446   6.835
 9095SOL    HW228185   3.653   3.360   6.801
 9096SOL     OW28186   5.863   2.661   2.832
 9096SOL    HW128187   5.888   2.587   2.770
 9096SOL    HW228188   5.842   2.743   2.779
 9097SOL     OW28189   1.272   3.972   6.717
 9097SOL    HW128190   1.266   4.068   6.688
 9097SOL    HW228191   1.344   3.926   6.665
 9098SOL     OW28192   3.825   4.049   2.003
 9098SOL    HW128193   3.844   4.146   1.986
 9098SOL    HW228194   3.824   4.032   2.102
 9099SOL     OW28195   2.739   3.658   1.229
 9099SOL    HW128196   2.653   3.646   1.180
 9099SOL    HW228197   2.779   3.746   1.203
 9100SOL     OW28198   1.005   3.101   0.979
 9100SOL    HW128199   1.071   3.173   0.961
 9100SOL    HW228200   1.052   3.015   0.995
 9101SOL     OW28201   1.507   2.767   2.228
 9101SOL    HW128202   1.542   2.775   2.321
 9101SOL    HW228203   1.514   2.855   2.181
 9102SOL     OW28204   4.132   5.406   1.972
 9102SOL    HW128205   4.119   5.342   2.048
 9102SOL    HW228206   4.045   5.449   1.949
 9103SOL     OW28207   6.820   4.107   0.860
 9103SOL    HW128208   6.858   4.199   0.863
 9103SOL    HW228209   6.793   4.078   0.952
 9104SOL     OW28210   4.666   6.317   1.325
 9104SOL    HW128211   4.749   6.272   1.291
 9104SOL    HW228212   4.681   6.349   1.418
 9105SOL     OW28213   1.728   1.672   6.483
 9105SOL    HW128214   1.755   1.768   6.481
 9105SOL    HW228215   1.770   1.624   6.406
 9106SOL     OW28216   5.687   4.989   6.953
 9106SOL    HW128217   5.600   4.964   6.996
 9106SOL    HW228218   5.741   4.906   6.937
 9107SOL     OW28219   3.355   0.098   0.736
 9107SOL    HW128220   3.433   0.120   0.677
 9107SOL    HW228221   3.274   0.146   0.704
 9108SOL     OW28222   4.414   5.265   5.239
 9108SOL    HW128223   4.454   5.236   5.152
 9108SOL    HW228224   4.331   5.211   5.256
 9109SOL     OW28225   3.252   2.097   3.777
 9109SOL    HW128226   3.233   1.999   3.775
 9109SOL    HW228227   3.234   2.136   3.686
 9110SOL     OW28228   1.645   4.218   3.635
 9110SOL    HW128229   1.548   4.225   3.611
 9110SOL    HW228230   1.691   4.302   3.608
 9111SOL     OW28231   3.836   4.496   1.312
 9111SOL    HW128232   3.847   4.408   1.266
 9111SOL    HW228233   3.756   4.543   1.275
 9112SOL     OW28234   0.421   4.519   2.130
 9112SOL    HW128235   0.515   4.486   2.130
 9112SOL    HW228236   0.402   4.565   2.216
 9113SOL     OW28237   5.224   0.269   0.255
 9113SOL    HW128238   5.286   0.299   0.182
 9113SOL    HW228239   5.131   0.262   0.220
 9114SOL     OW28240   2.512   4.821   2.199
 9114SOL    HW128241   2.574   4.742   2.194
 9114SOL    HW228242   2.421   4.791   2.226
 9115SOL     OW28243   1.344   4.925   4.660
 9115SOL    HW128244   1.316   4.994   4.726
 9115SOL    HW228245   1.417   4.961   4.602
 9116SOL     OW28246   6.965   1.797   6.697
 9116SOL    HW128247   6.907   1.807   6.778
 9116SOL    HW228248   0.026   1.749   6.721
 9117SOL     OW28249   6.378   2.679   6.730
 9117SOL    HW128250   6.380   2.768   6.686
 9117SOL    HW228251   6.309   2.678   6.802
 9118SOL     OW28252   0.062   6.369   1.318
 9118SOL    HW128253   0.058   6.270   1.316
 9118SOL    HW228254   7.003   6.407   1.278
 9119SOL     OW28255   5.679   0.524   2.060
 9119SOL    HW128256   5.721   0.611   2.035
 9119SOL    HW228257   5.591   0.514   2.012
 9120SOL     OW28258   5.613   1.318   5.977
 9120SOL    HW128259   5.625   1.392   6.042
 9120SOL    HW228260   5.698   1.304   5.926
 9121SOL     OW28261   0.285   2.731   5.532
 9121SOL    HW128262   0.210   2.673   5.499
 9121SOL    HW228263   0.358   2.733   5.463
 9122SOL     OW28264   1.696   2.817   2.976
 9122SOL    HW128265   1.756   2.897   2.969
 9122SOL    HW228266   1.668   2.790   2.884
 9123SOL     OW28267   2.715   6.588   5.890
 9123SOL    HW128268   2.777   6.510   5.896
 9123SOL    HW228269   2.763   6.665   5.847
 9124SOL     OW28270   6.610   5.980   5.395
 9124SOL    HW128271   6.676   5.993   5.320
 9124SOL    HW228272   6.567   5.890   5.386
 9125SOL     OW28273   4.964   4.377   3.479
 9125SOL    HW128274   4.999   4.380   3.385
 9125SOL    HW228275   4.881   4.321   3.482
 9126SOL     OW28276   5.914   0.865   1.670
 9126SOL    HW128277   5.817   0.890   1.673
 9126SOL    HW228278   5.968   0.937   1.715
 9127SOL     OW28279   5.670   0.271   6.345
 9127SOL    HW128280   5.576   0.300   6.365
 9127SOL    HW228281   5.669   0.198   6.276
 9128SOL     OW28282   3.718   1.909   5.303
 9128SOL    HW128283   3.654   1.941   5.233
 9128SOL    HW228284   3.708   1.810   5.314
 9129SOL     OW28285   1.513   2.587   6.600
 9129SOL    HW128286   1.560   2.623   6.519
 9129SOL    HW228287   1.442   2.651   6.628
 9130SOL     OW28288   6.787   4.476   0.167
 9130SOL    HW128289   6.782   4.481   0.067
 9130SOL    HW228290   6.706   4.430   0.202
 9131SOL     OW28291   0.512   4.404   4.440
 9131SOL    HW128292   0.456   4.332   4.482
 9131SOL    HW228293   0.539   4.470   4.510
 9132SOL     OW28294   6.552   4.069   3.768
 9132SOL    HW128295   6.593   3.985   3.803
 9132SOL    HW228296   6.607   4.104   3.692
 9133SOL     OW28297   2.347   4.527   1.107
 9133SOL    HW128298   2.374   4.519   1.203
 9133SOL    HW228299   2.413   4.582   1.057
 9134SOL     OW28300   3.892   6.839   0.195
 9134SOL    HW128301   3.961   6.891   0.246
 9134SOL    HW228302   3.855   6.767   0.253
 9135SOL     OW28303   6.635   6.860   2.741
 9135SOL    HW128304   6.561   6.810   2.698
 9135SOL    HW228305   6.601   6.947   2.776
 9136SOL     OW28306   5.075   5.033   5.808
 9136SOL    HW128307   5.058   5.125   5.773
 9136SOL    HW228308   5.062   4.966   5.735
 9137SOL     OW28309   5.218   1.607   1.474
 9137SOL    HW128310   5.272   1.659   1.540
 9137SOL    HW228311   5.200   1.664   1.393
 9138SOL     OW28312   6.041   4.673   6.028
 9138SOL    HW128313   6.040   4.769   6.055
 9138SOL    HW228314   6.135   4.645   6.008
 9139SOL     OW28315   3.133   1.166   5.900
 9139SOL    HW128316   3.160   1.091   5.960
 9139SOL    HW228317   3.087   1.130   5.819
 9140SOL     OW28318   6.428   2.322   2.878
 9140SOL    HW128319   6.411   2.380   2.798
 9140SOL    HW228320   6.467   2.235   2.848
 9141SOL     OW28321   5.522   0.329   5.972
 9141SOL    HW128322   5.548   0.411   6.024
 9141SOL    HW228323   5.600   0.298   5.918
 9142SOL     OW28324   0.305   3.400   5.277
 9142SOL    HW128325   0.395   3.425   5.313
 9142SOL    HW228326   0.235   3.455   5.323
 9143SOL     OW28327   4.331   3.141   0.383
 9143SOL    HW128328   4.234   3.165   0.388
 9143SOL    HW228329   4.386   3.224   0.392
 9144SOL     OW28330   2.069   6.105   5.988
 9144SOL    HW128331   2.163   6.073   6.000
 9144SOL    HW228332   2.067   6.178   5.920
 9145SOL     OW28333   0.173   4.645   0.679
 9145SOL    HW128334   0.208   4.653   0.585
 9145SOL    HW228335   0.243   4.678   0.743
 9146SOL     OW28336   5.454   2.429   1.612
 9146SOL    HW128337   5.530   2.493   1.625
 9146SOL    HW228338   5.367   2.476   1.630
 9147SOL     OW28339   4.822   6.497   3.839
 9147SOL    HW128340   4.749   6.544   3.889
 9147SOL    HW228341   4.782   6.439   3.768
 9148SOL     OW28342   5.942   6.406   2.645
 9148SOL    HW128343   5.979   6.314   2.655
 9148SOL    HW228344   5.847   6.407   2.676
 9149SOL     OW28345   4.778   2.933   4.108
 9149SOL    HW128346   4.774   2.922   4.009
 9149SOL    HW228347   4.718   2.866   4.152
 9150SOL     OW28348   4.525   6.277   3.006
 9150SOL    HW128349   4.539   6.242   2.914
 9150SOL    HW228350   4.447   6.340   3.006
 9151SOL     OW28351   1.419   4.040   2.015
 9151SOL    HW128352   1.473   4.006   1.938
 9151SOL    HW228353   1.459   4.125   2.049
 9152SOL     OW28354   2.477   5.806   4.315
 9152SOL    HW128355   2.473   5.725   4.373
 9152SOL    HW228356   2.571   5.824   4.288
 9153SOL     OW28357   1.334   2.466   6.881
 9153SOL    HW128358   1.274   2.471   6.960
 9153SOL    HW228359   1.281   2.448   6.799
 9154SOL     OW28360   2.795   6.131   6.402
 9154SOL    HW128361   2.822   6.180   6.485
 9154SOL    HW228362   2.859   6.057   6.383
 9155SOL     OW28363   2.016   3.403   6.860
 9155SOL    HW128364   2.056   3.462   6.789
 9155SOL    HW228365   2.089   3.347   6.901
 9156SOL     OW28366   3.023   2.292   1.411
 9156SOL    HW128367   3.095   2.342   1.460
 9156SOL    HW228368   3.033   2.307   1.313
 9157SOL     OW28369   6.048   4.903   5.423
 9157SOL    HW128370   5.983   4.828   5.432
 9157SOL    HW228371   6.118   4.878   5.355
 9158SOL     OW28372   6.910   3.915   4.649
 9158SOL    HW128373   6.918   4.014   4.662
 9158SOL    HW228374   6.819   3.885   4.675
 9159SOL     OW28375   0.266   5.779   3.132
 9159SOL    HW128376   0.278   5.772   3.033
 9159SOL    HW228377   0.351   5.750   3.178
 9160SOL     OW28378   0.257   6.822   5.689
 9160SOL    HW128379   0.309   6.805   5.773
 9160SOL    HW228380   0.175   6.875   5.712
 9161SOL     OW28381   4.928   4.132   4.758
 9161SOL    HW128382   4.941   4.124   4.857
 9161SOL    HW228383   4.857   4.199   4.739
 9162SOL     OW28384   5.156   2.420   3.239
 9162SOL    HW128385   5.107   2.402   3.154
 9162SOL    HW228386   5.126   2.507   3.278
 9163SOL     OW28387   2.222   2.932   3.794
 9163SOL    HW128388   2.138   2.919   3.847
 9163SOL    HW228389   2.269   2.844   3.785
 9164SOL     OW28390   2.791   0.848   6.509
 9164SOL    HW128391   2.839   0.897   6.436
 9164SOL    HW228392   2.797   0.749   6.492
 9165SOL     OW28393   6.154   0.741   5.875
 9165SOL    HW128394   6.191   0.705   5.960
 9165SOL    HW228395   6.069   0.693   5.853
 9166SOL     OW28396   4.965   6.323   1.252
 9166SOL    HW128397   5.031   6.323   1.327
 9166SOL    HW228398   4.960   6.415   1.213
 9167SOL     OW28399   2.036   2.915   5.978
 9167SOL    HW128400   2.093   2.951   5.904
 9167SOL    HW228401   2.036   2.979   6.054
 9168SOL     OW28402   2.311   6.959   5.947
 9168SOL    HW128403   2.212   6.957   5.963
 9168SOL    HW228404   2.328   6.965   5.849
 9169SOL     OW28405   6.964   0.814   5.116
 9169SOL    HW128406   6.959   0.739   5.051
 9169SOL    HW228407   6.873   0.854   5.129
 9170SOL     OW28408   0.050   5.115   6.532
 9170SOL    HW128409   0.071   5.071   6.444
 9170SOL    HW228410   6.976   5.137   6.535
 9171SOL     OW28411   3.204   5.878   0.056
 9171SOL    HW128412   3.195   5.834   6.990
 9171SOL    HW228413   3.239   5.971   0.044
 9172SOL     OW28414   3.390   1.061   4.933
 9172SOL    HW128415   3.420   1.152   4.904
 9172SOL    HW228416   3.294   1.048   4.908
 9173SOL     OW28417   5.414   5.015   4.596
 9173SOL    HW128418   5.346   4.971   4.655
 9173SOL    HW228419   5.506   4.994   4.629
 9174SOL     OW28420   5.973   3.813   0.639
 9174SOL    HW128421   5.884   3.770   0.653
 9174SOL    HW228422   6.045   3.755   0.677
 9175SOL     OW28423   2.569   6.271   5.194
 9175SOL    HW128424   2.630   6.241   5.121
 9175SOL    HW228425   2.476   6.237   5.176
 9176SOL     OW28426   1.873   1.166   5.531
 9176SOL    HW128427   1.901   1.239   5.470
 9176SOL    HW228428   1.820   1.204   5.607
 9177SOL     OW28429   0.901   4.375   4.116
 9177SOL    HW128430   0.810   4.406   4.143
 9177SOL    HW228431   0.934   4.306   4.181
 9178SOL     OW28432   2.096   4.662   0.720
 9178SOL    HW128433   2.051   4.722   0.786
 9178SOL    HW228434   2.106   4.710   0.632
 9179SOL     OW28435   2.493   5.227   4.029
 9179SOL    HW128436   2.447   5.236   4.117
 9179SOL    HW228437   2.469   5.140   3.987
 9180SOL     OW28438   6.122   2.177   3.130
 9180SOL    HW128439   6.123   2.275   3.145
 9180SOL    HW228440   6.105   2.158   3.033
 9181SOL     OW28441   4.516   2.622   2.916
 9181SOL    HW128442   4.481   2.558   2.848
 9181SOL    HW228443   4.477   2.601   3.006
 9182SOL     OW28444   3.026   0.100   2.737
 9182SOL    HW128445   3.060   0.058   2.821
 9182SOL    HW228446   2.926   0.098   2.737
 9183SOL     OW28447   5.386   6.030   0.557
 9183SOL    HW128448   5.365   6.027   0.459
 9183SOL    HW228449   5.417   6.121   0.581
 9184SOL     OW28450   5.143   0.952   0.544
 9184SOL    HW128451   5.114   1.008   0.622
 9184SOL    HW228452   5.101   0.988   0.460
 9185SOL     OW28453   4.152   6.905   5.502
 9185SOL    HW128454   4.187   6.850   5.426
 9185SOL    HW228455   4.222   6.970   5.532
 9186SOL     OW28456   6.325   1.640   4.460
 9186SOL    HW128457   6.419   1.624   4.488
 9186SOL    HW228458   6.262   1.599   4.527
 9187SOL     OW28459   2.451   0.133   1.450
 9187SOL    HW128460   2.367   0.187   1.448
 9187SOL    HW228461   2.528   0.189   1.420
 9188SOL     OW28462   2.501   6.573   1.782
 9188SOL    HW128463   2.505   6.529   1.692
 9188SOL    HW228464   2.539   6.665   1.775
 9189SOL     OW28465   5.453   6.083   2.457
 9189SOL    HW128466   5.543   6.060   2.494
 9189SOL    HW228467   5.451   6.179   2.429
 9190SOL     OW28468   1.630   5.142   0.445
 9190SOL    HW128469   1.698   5.089   0.496
 9190SOL    HW228470   1.674   5.186   0.367
 9191SOL     OW28471   5.811   1.174   5.379
 9191SOL    HW128472   5.736   1.163   5.444
 9191SOL    HW228473   5.856   1.086   5.365
 9192SOL     OW28474   0.268   4.036   4.582
 9192SOL    HW128475   0.327   3.973   4.632
 9192SOL    HW228476   0.292   4.036   4.485
 9193SOL     OW28477   4.279   3.883   0.106
 9193SOL    HW128478   4.269   3.837   0.194
 9193SOL    HW228479   4.356   3.844   0.057
 9194SOL     OW28480   3.432   0.863   3.526
 9194SOL    HW128481   3.509   0.868   3.590
 9194SOL    HW228482   3.390   0.953   3.517
 9195SOL     OW28483   2.029   2.363   4.153
 9195SOL    HW128484   2.029   2.279   4.099
 9195SOL    HW228485   2.063   2.439   4.096
 9196SOL     OW28486   4.199   1.161   5.233
 9196SOL    HW128487   4.168   1.072   5.265
 9196SOL    HW228488   4.218   1.156   5.135
 9197SOL     OW28489   1.947   4.455   1.623
 9197SOL    HW128490   1.934   4.537   1.678
 9197SOL    HW228491   1.865   4.397   1.629
 9198SOL     OW28492   6.353   5.471   5.148
 9198SOL    HW128493   6.285   5.408   5.112
 9198SOL    HW228494   6.334   5.563   5.115
 9199SOL     OW28495   0.379   3.623   6.612
 9199SOL    HW128496   0.426   3.647   6.697
 9199SOL    HW228497   0.408   3.533   6.582
 9200SOL     OW28498   2.283   6.824   1.217
 9200SOL    HW128499   2.222   6.764   1.164
 9200SOL    HW228500   2.265   6.812   1.315
 9201SOL     OW28501   0.419   3.442   0.403
 9201SOL    HW128502   0.364   3.372   0.448
 9201SOL    HW228503   0.474   3.400   0.331
 9202SOL     OW28504   2.457   6.795   3.786
 9202SOL    HW128505   2.431   6.832   3.875
 9202SOL    HW228506   2.381   6.742   3.748
 9203SOL     OW28507   0.382   5.489   6.957
 9203SOL    HW128508   0.454   5.500   6.889
 9203SOL    HW228509   0.391   5.558   0.005
 9204SOL     OW28510   4.896   2.570   6.841
 9204SOL    HW128511   4.823   2.531   6.898
 9204SOL    HW228512   4.876   2.666   6.823
 9205SOL     OW28513   6.373   4.122   2.804
 9205SOL    HW128514   6.368   4.059   2.882
 9205SOL    HW228515   6.304   4.096   2.736
 9206SOL     OW28516   3.628   5.391   1.415
 9206SOL    HW128517   3.608   5.295   1.395
 9206SOL    HW228518   3.648   5.402   1.512
 9207SOL     OW28519   4.226   5.025   0.393
 9207SOL    HW128520   4.208   5.080   0.475
 9207SOL    HW228521   4.226   5.085   0.312
 9208SOL     OW28522   6.024   4.340   4.483
 9208SOL    HW128523   5.964   4.420   4.477
 9208SOL    HW228524   6.021   4.290   4.396
 9209SOL     OW28525   3.089   1.291   0.260
 9209SOL    HW128526   3.091   1.225   0.335
 9209SOL    HW228527   3.154   1.262   0.189
 9210SOL     OW28528   6.583   1.427   3.246
 9210SOL    HW128529   6.581   1.381   3.158
 9210SOL    HW228530   6.492   1.423   3.288
 9211SOL     OW28531   6.759   2.524   3.895
 9211SOL    HW128532   6.713   2.607   3.865
 9211SOL    HW228533   6.722   2.495   3.983
 9212SOL     OW28534   4.024   5.195   4.587
 9212SOL    HW128535   3.970   5.122   4.544
 9212SOL    HW228536   3.983   5.283   4.565
 9213SOL     OW28537   5.823   3.031   5.347
 9213SOL    HW128538   5.858   2.938   5.335
 9213SOL    HW228539   5.724   3.031   5.332
 9214SOL     OW28540   6.899   5.503   5.760
 9214SOL    HW128541   6.908   5.580   5.697
 9214SOL    HW228542   6.815   5.514   5.814
 9215SOL     OW28543   0.961   2.369   0.260
 9215SOL    HW128544   0.945   2.304   0.335
 9215SOL    HW228545   0.909   2.340   0.180
 9216SOL     OW28546   2.676   0.105   3.554
 9216SOL    HW128547   2.733   0.098   3.472
 9216SOL    HW228548   2.607   0.176   3.542
 9217SOL     OW28549   0.270   1.067   6.263
 9217SOL    HW128550   0.229   0.977   6.249
 9217SOL    HW228551   0.356   1.074   6.213
 9218SOL     OW28552   4.164   6.691   0.308
 9218SOL    HW128553   4.215   6.609   0.281
 9218SOL    HW228554   4.152   6.751   0.229
 9219SOL     OW28555   0.503   3.076   6.928
 9219SOL    HW128556   0.440   3.144   6.965
 9219SOL    HW228557   0.564   3.119   6.862
 9220SOL     OW28558   3.351   6.209   1.234
 9220SOL    HW128559   3.371   6.205   1.136
 9220SOL    HW228560   3.432   6.180   1.286
 9221SOL     OW28561   3.648   0.657   4.214
 9221SOL    HW128562   3.694   0.740   4.182
 9221SOL    HW228563   3.551   0.675   4.228
 9222SOL     OW28564   2.508   0.467   6.733
 9222SOL    HW128565   2.529   0.546   6.676
 9222SOL    HW228566   2.446   0.494   6.806
 9223SOL     OW28567   1.883   2.044   5.100
 9223SOL    HW128568   1.838   2.102   5.031
 9223SOL    HW228569   1.979   2.072   5.109
 9224SOL     OW28570   3.219   5.321   4.449
 9224SOL    HW128571   3.194   5.415   4.471
 9224SOL    HW228572   3.136   5.267   4.436
 9225SOL     OW28573   3.308   6.559   6.404
 9225SOL    HW128574   3.294   6.627   6.333
 9225SOL    HW228575   3.232   6.493   6.403
 9226SOL     OW28576   5.772   6.412   1.306
 9226SOL    HW128577   5.682   6.426   1.266
 9226SOL    HW228578   5.784   6.315   1.329
 9227SOL     OW28579   0.947   4.878   3.594
 9227SOL    HW128580   0.904   4.889   3.504
 9227SOL    HW228581   1.044   4.898   3.587
 9228SOL     OW28582   1.194   0.772   5.959
 9228SOL    HW128583   1.168   0.856   5.911
 9228SOL    HW228584   1.284   0.784   6.001
 9229SOL     OW28585   1.755   5.682   4.410
 9229SOL    HW128586   1.800   5.650   4.327
 9229SOL    HW228587   1.717   5.604   4.460
 9230SOL     OW28588   5.613   0.357   2.331
 9230SOL    HW128589   5.589   0.265   2.301
 9230SOL    HW228590   5.622   0.417   2.252
 9231SOL     OW28591   2.098   3.198   4.187
 9231SOL    HW128592   2.132   3.266   4.252
 9231SOL    HW228593   2.159   3.119   4.187
 9232SOL     OW28594   3.598   5.143   1.339
 9232SOL    HW128595   3.624   5.047   1.350
 9232SOL    HW228596   3.532   5.152   1.264
 9233SOL     OW28597   6.091   5.181   1.582
 9233SOL    HW128598   6.158   5.135   1.524
 9233SOL    HW228599   6.136   5.254   1.634
 9234SOL     OW28600   3.154   5.683   4.157
 9234SOL    HW128601   3.105   5.765   4.130
 9234SOL    HW228602   3.223   5.706   4.227
 9235SOL     OW28603   1.717   1.698   2.965
 9235SOL    HW128604   1.770   1.782   2.973
 9235SOL    HW228605   1.753   1.643   2.890
 9236SOL     OW28606   3.579   4.127   5.479
 9236SOL    HW128607   3.656   4.113   5.541
 9236SOL    HW228608   3.613   4.145   5.387
 9237SOL     OW28609   1.507   4.423   4.568
 9237SOL    HW128610   1.566   4.342   4.574
 9237SOL    HW228611   1.416   4.396   4.537
 9238SOL     OW28612   3.991   2.135   5.975
 9238SOL    HW128613   3.930   2.108   5.901
 9238SOL    HW228614   4.041   2.218   5.949
 9239SOL     OW28615   0.152   3.871   0.957
 9239SOL    HW128616   0.175   3.960   0.919
 9239SOL    HW228617   0.086   3.882   1.031
 9240SOL     OW28618   5.803   1.329   0.777
 9240SOL    HW128619   5.776   1.363   0.686
 9240SOL    HW228620   5.721   1.309   0.830
 9241SOL     OW28621   6.389   5.522   6.387
 9241SOL    HW128622   6.477   5.568   6.385
 9241SOL    HW228623   6.398   5.433   6.431
 9242SOL     OW28624   0.026   5.078   0.507
 9242SOL    HW128625   0.009   5.145   0.580
 9242SOL    HW228626   7.000   4.994   0.527
 9243SOL     OW28627   6.258   5.387   3.163
 9243SOL    HW128628   6.278   5.482   3.187
 9243SOL    HW228629   6.205   5.384   3.078
 9244SOL     OW28630   4.896   5.974   6.527
 9244SOL    HW128631   4.990   5.941   6.520
 9244SOL    HW228632   4.846   5.917   6.592
 9245SOL     OW28633   1.444   5.269   2.505
 9245SOL    HW128634   1.363   5.212   2.496
 9245SOL    HW228635   1.520   5.214   2.541
 9246SOL     OW28636   5.941   4.861   3.316
 9246SOL    HW128637   5.870   4.924   3.283
 9246SOL    HW228638   5.934   4.775   3.266
 9247SOL     OW28639   0.743   0.005   2.970
 9247SOL    HW128640   0.721   0.079   3.034
 9247SOL    HW228641   0.742   6.942   3.019
 9248SOL     OW28642   2.395   2.620   6.063
 9248SOL    HW128643   2.326   2.564   6.019
 9248SOL    HW228644   2.474   2.629   6.003
 9249SOL     OW28645   5.277   2.277   5.578
 9249SOL    HW128646   5.238   2.315   5.662
 9249SOL    HW228647   5.224   2.197   5.550
 9250SOL     OW28648   5.187   3.961   4.542
 9250SOL    HW128649   5.217   3.921   4.629
 9250SOL    HW228650   5.143   3.890   4.486
 9251SOL     OW28651   4.028   1.705   3.023
 9251SOL    HW128652   4.076   1.790   3.002
 9251SOL    HW228653   3.931   1.725   3.038
 9252SOL     OW28654   6.705   0.149   4.819
 9252SOL    HW128655   6.647   0.068   4.814
 9252SOL    HW228656   6.668   0.220   4.759
 9253SOL     OW28657   3.284   6.227   6.143
 9253SOL    HW128658   3.235   6.155   6.094
 9253SOL    HW228659   3.240   6.245   6.231
 9254SOL     OW28660   5.209   3.666   1.404
 9254SOL    HW128661   5.157   3.631   1.482
 9254SOL    HW228662   5.198   3.604   1.327
 9255SOL     OW28663   5.258   2.823   0.068
 9255SOL    HW128664   5.233   2.760   7.019
 9255SOL    HW228665   5.219   2.913   0.048
 9256SOL     OW28666   4.455   4.629   2.944
 9256SOL    HW128667   4.405   4.670   3.020
 9256SOL    HW228668   4.497   4.702   2.889
 9257SOL     OW28669   0.990   4.403   2.736
 9257SOL    HW128670   1.043   4.414   2.820
 9257SOL    HW228671   0.902   4.362   2.758
 9258SOL     OW28672   3.178   3.083   3.729
 9258SOL    HW128673   3.218   3.147   3.663
 9258SOL    HW228674   3.093   3.121   3.765
 9259SOL     OW28675   0.820   2.108   1.293
 9259SOL    HW128676   0.914   2.129   1.318
 9259SOL    HW228677   0.764   2.191   1.303
 9260SOL     OW28678   4.673   2.506   5.514
 9260SOL    HW128679   4.732   2.432   5.545
 9260SOL    HW228680   4.708   2.594   5.547
 9261SOL     OW28681   4.216   0.272   6.694
 9261SOL    HW128682   4.274   0.216   6.634
 9261SOL    HW228683   4.120   0.257   6.670
 9262SOL     OW28684   5.879   2.187   5.823
 9262SOL    HW128685   5.841   2.124   5.891
 9262SOL    HW228686   5.817   2.264   5.811
 9263SOL     OW28687   5.768   4.101   1.584
 9263SOL    HW128688   5.842   4.124   1.647
 9263SOL    HW228689   5.778   4.006   1.555
 9264SOL     OW28690   6.231   3.818   0.321
 9264SOL    HW128691   6.137   3.851   0.322
 9264SOL    HW228692   6.241   3.747   0.252
 9265SOL     OW28693   3.246   1.620   0.411
 9265SOL    HW128694   3.281   1.700   0.459
 9265SOL    HW228695   3.284   1.537   0.452
 9266SOL     OW28696   2.575   6.018   3.231
 9266SOL    HW128697   2.497   6.075   3.255
 9266SOL    HW228698   2.640   6.016   3.307
 9267SOL     OW28699   0.403   4.256   4.634
 9267SOL    HW128700   0.344   4.319   4.685
 9267SOL    HW228701   0.358   4.167   4.628
 9268SOL     OW28702   0.745   6.611   2.722
 9268SOL    HW128703   0.711   6.584   2.811
 9268SOL    HW228704   0.845   6.608   2.722
 9269SOL     OW28705   2.811   2.495   0.089
 9269SOL    HW128706   2.868   2.566   0.046
 9269SOL    HW228707   2.776   2.529   0.176
 9270SOL     OW28708   5.953   6.988   5.655
 9270SOL    HW128709   5.859   6.986   5.621
 9270SOL    HW228710   5.980   6.896   5.683
 9271SOL     OW28711   1.717   6.139   1.172
 9271SOL    HW128712   1.740   6.180   1.084
 9271SOL    HW228713   1.666   6.206   1.227
 9272SOL     OW28714   3.180   4.292   5.957
 9272SOL    HW128715   3.197   4.389   5.977
 9272SOL    HW228716   3.196   4.237   6.039
 9273SOL     OW28717   4.499   5.957   3.784
 9273SOL    HW128718   4.536   5.864   3.787
 9273SOL    HW228719   4.401   5.955   3.803
 9274SOL     OW28720   5.503   1.968   6.381
 9274SOL    HW128721   5.511   1.877   6.422
 9274SOL    HW228722   5.447   2.027   6.440
 9275SOL     OW28723   0.992   1.149   0.118
 9275SOL    HW128724   0.905   1.180   0.156
 9275SOL    HW228725   1.055   1.226   0.111
 9276SOL     OW28726   2.564   5.036   4.248
 9276SOL    HW128727   2.482   5.086   4.220
 9276SOL    HW228728   2.635   5.047   4.179
 9277SOL     OW28729   3.557   3.301   0.543
 9277SOL    HW128730   3.648   3.340   0.531
 9277SOL    HW228731   3.497   3.332   0.469
 9278SOL     OW28732   1.677   1.646   4.058
 9278SOL    HW128733   1.715   1.669   3.968
 9278SOL    HW228734   1.720   1.704   4.128
 9279SOL     OW28735   4.159   0.329   2.115
 9279SOL    HW128736   4.167   0.243   2.064
 9279SOL    HW228737   4.100   0.392   2.065
 9280SOL     OW28738   1.543   6.841   3.657
 9280SOL    HW128739   1.588   6.836   3.746
 9280SOL    HW228740   1.444   6.837   3.669
 9281SOL     OW28741   2.494   3.161   0.932
 9281SOL    HW128742   2.546   3.246   0.929
 9281SOL    HW228743   2.396   3.181   0.939
 9282SOL     OW28744   4.935   1.967   4.243
 9282SOL    HW128745   4.853   1.970   4.300
 9282SOL    HW228746   4.935   2.045   4.180
 9283SOL     OW28747   6.211   1.234   2.882
 9283SOL    HW128748   6.201   1.280   2.793
 9283SOL    HW228749   6.289   1.172   2.879
 9284SOL     OW28750   3.744   4.555   0.055
 9284SOL    HW128751   3.815   4.495   0.019
 9284SOL    HW228752   3.662   4.501   0.074
 9285SOL     OW28753   5.579   2.888   0.166
 9285SOL    HW128754   5.525   2.871   0.084
 9285SOL    HW228755   5.607   2.801   0.207
 9286SOL     OW28756   5.459   6.737   5.740
 9286SOL    HW128757   5.477   6.835   5.742
 9286SOL    HW228758   5.542   6.689   5.711
 9287SOL     OW28759   3.604   5.882   1.126
 9287SOL    HW128760   3.554   5.917   1.048
 9287SOL    HW228761   3.621   5.784   1.114
 9288SOL     OW28762   4.051   1.360   6.167
 9288SOL    HW128763   4.024   1.332   6.259
 9288SOL    HW228764   4.063   1.460   6.166
 9289SOL     OW28765   4.401   1.829   2.330
 9289SOL    HW128766   4.447   1.841   2.242
 9289SOL    HW228767   4.414   1.910   2.386
 9290SOL     OW28768   4.300   1.551   5.261
 9290SOL    HW128769   4.354   1.563   5.177
 9290SOL    HW228770   4.296   1.638   5.310
 9291SOL     OW28771   1.883   0.754   5.218
 9291SOL    HW128772   1.868   0.815   5.296
 9291SOL    HW228773   1.981   0.742   5.204
 9292SOL     OW28774   6.517   3.107   6.324
 9292SOL    HW128775   6.453   3.161   6.378
 9292SOL    HW228776   6.488   3.011   6.326
 9293SOL     OW28777   5.548   4.313   0.645
 9293SOL    HW128778   5.599   4.392   0.679
 9293SOL    HW228779   5.600   4.269   0.572
 9294SOL     OW28780   3.652   6.342   6.957
 9294SOL    HW128781   3.672   6.394   6.874
 9294SOL    HW228782   3.563   6.299   6.949
 9295SOL     OW28783   5.172   1.608   3.157
 9295SOL    HW128784   5.198   1.534   3.219
 9295SOL    HW228785   5.194   1.582   3.063
 9296SOL     OW28786   6.559   6.801   6.420
 9296SOL    HW128787   6.579   6.811   6.323
 9296SOL    HW228788   6.555   6.704   6.444
 9297SOL     OW28789   0.175   0.633   1.335
 9297SOL    HW128790   0.148   0.724   1.365
 9297SOL    HW228791   0.174   0.570   1.413
 9298SOL     OW28792   2.323   6.355   5.742
 9298SOL    HW128793   2.380   6.360   5.824
 9298SOL    HW228794   2.362   6.288   5.679
 9299SOL     OW28795   1.209   2.905   4.264
 9299SOL    HW128796   1.120   2.865   4.284
 9299SOL    HW228797   1.273   2.832   4.239
 9300SOL     OW28798   6.417   5.026   4.381
 9300SOL    HW128799   6.505   5.052   4.342
 9300SOL    HW228800   6.363   4.977   4.313
 9301SOL     OW28801   5.043   4.353   3.191
 9301SOL    HW128802   5.139   4.348   3.220
 9301SOL    HW228803   5.036   4.324   3.096
 9302SOL     OW28804   2.337   2.647   3.720
 9302SOL    HW128805   2.415   2.585   3.707
 9302SOL    HW228806   2.330   2.707   3.640
 9303SOL     OW28807   3.836   6.559   0.662
 9303SOL    HW128808   3.773   6.613   0.717
 9303SOL    HW228809   3.908   6.521   0.722
 9304SOL     OW28810   3.687   3.962   0.282
 9304SOL    HW128811   3.625   3.921   0.215
 9304SOL    HW228812   3.725   4.047   0.245
 9305SOL     OW28813   5.408   1.773   1.657
 9305SOL    HW128814   5.485   1.713   1.634
 9305SOL    HW228815   5.438   1.868   1.655
 9306SOL     OW28816   0.586   4.838   4.443
 9306SOL    HW128817   0.571   4.763   4.508
 9306SOL    HW228818   0.681   4.836   4.411
 9307SOL     OW28819   1.388   2.761   0.957
 9307SOL    HW128820   1.465   2.774   1.018
 9307SOL    HW228821   1.420   2.751   0.863
 9308SOL     OW28822   0.830   3.914   1.141
 9308SOL    HW128823   0.918   3.896   1.099
 9308SOL    HW228824   0.824   3.867   1.229
 9309SOL     OW28825   3.833   5.098   5.232
 9309SOL    HW128826   3.803   5.025   5.294
 9309SOL    HW228827   3.767   5.173   5.235
 9310SOL     OW28828   4.375   6.050   6.388
 9310SOL    HW128829   4.418   5.968   6.349
 9310SOL    HW228830   4.277   6.034   6.400
 9311SOL     OW28831   6.012   4.442   1.102
 9311SOL    HW128832   5.991   4.357   1.150
 9311SOL    HW228833   6.041   4.511   1.168
 9312SOL     OW28834   1.859   4.407   0.292
 9312SOL    HW128835   1.837   4.372   0.201
 9312SOL    HW228836   1.833   4.504   0.298
 9313SOL     OW28837   6.738   1.214   1.789
 9313SOL    HW128838   6.740   1.288   1.722
 9313SOL    HW228839   6.743   1.252   1.882
 9314SOL     OW28840   4.141   5.177   6.691
 9314SOL    HW128841   4.084   5.229   6.754
 9314SOL    HW228842   4.096   5.090   6.670
 9315SOL     OW28843   6.131   0.137   5.529
 9315SOL    HW128844   6.227   0.111   5.540
 9315SOL    HW228845   6.073   0.066   5.569
 9316SOL     OW28846   4.628   5.742   4.693
 9316SOL    HW128847   4.543   5.700   4.727
 9316SOL    HW228848   4.695   5.745   4.767
 9317SOL     OW28849   5.937   6.101   2.996
 9317SOL    HW128850   5.871   6.127   3.066
 9317SOL    HW228851   5.945   6.001   2.994
 9318SOL     OW28852   6.905   0.898   5.421
 9318SOL    HW128853   6.902   0.815   5.366
 9318SOL    HW228854   6.937   0.876   5.513
 9319SOL     OW28855   0.605   2.889   6.171
 9319SOL    HW128856   0.582   2.986   6.157
 9319SOL    HW228857   0.571   2.835   6.095
 9320SOL     OW28858   3.948   2.490   5.733
 9320SOL    HW128859   3.927   2.429   5.656
 9320SOL    HW228860   3.954   2.584   5.700
 9321SOL     OW28861   6.111   0.140   2.297
 9321SOL    HW128862   6.188   0.107   2.352
 9321SOL    HW228863   6.026   0.103   2.335
 9322SOL     OW28864   7.009   6.223   6.124
 9322SOL    HW128865   0.049   6.164   6.073
 9322SOL    HW228866   6.930   6.244   6.066
 9323SOL     OW28867   1.469   6.860   5.752
 9323SOL    HW128868   1.506   6.874   5.660
 9323SOL    HW228869   1.480   6.945   5.805
 9324SOL     OW28870   2.052   5.059   0.356
 9324SOL    HW128871   1.978   5.022   0.412
 9324SOL    HW228872   2.131   4.998   0.360
 9325SOL     OW28873   5.133   1.855   1.354
 9325SOL    HW128874   5.046   1.824   1.316
 9325SOL    HW228875   5.202   1.859   1.281
 9326SOL     OW28876   2.768   6.854   0.600
 9326SOL    HW128877   2.729   6.779   0.548
 9326SOL    HW228878   2.776   6.828   0.696
 9327SOL     OW28879   4.771   6.961   3.280
 9327SOL    HW128880   4.840   6.923   3.218
 9327SOL    HW228881   4.801   0.027   3.313
 9328SOL     OW28882   4.107   1.321   6.921
 9328SOL    HW128883   4.029   1.379   6.898
 9328SOL    HW228884   4.074   1.229   6.944
 9329SOL     OW28885   6.965   2.960   2.957
 9329SOL    HW128886   6.950   3.056   2.934
 9329SOL    HW228887   0.013   2.953   3.026
 9330SOL     OW28888   0.364   6.017   0.320
 9330SOL    HW128889   0.418   6.092   0.282
 9330SOL    HW228890   0.361   6.024   0.419
 9331SOL     OW28891   0.595   1.159   6.583
 9331SOL    HW128892   0.668   1.127   6.522
 9331SOL    HW228893   0.514   1.101   6.572
 9332SOL     OW28894   3.089   3.997   3.459
 9332SOL    HW128895   3.025   3.921   3.466
 9332SOL    HW228896   3.091   4.030   3.364
 9333SOL     OW28897   4.860   4.063   0.660
 9333SOL    HW128898   4.774   4.113   0.649
 9333SOL    HW228899   4.936   4.127   0.660
 9334SOL     OW28900   3.699   0.309   3.225
 9334SOL    HW128901   3.780   0.367   3.229
 9334SOL    HW228902   3.645   0.322   3.309
 9335SOL     OW28903   1.356   1.545   6.702
 9335SOL    HW128904   1.400   1.625   6.661
 9335SOL    HW228905   1.418   1.467   6.698
 9336SOL     OW28906   2.949   6.359   6.296
 9336SOL    HW128907   2.963   6.443   6.347
 9336SOL    HW228908   2.963   6.376   6.199
 9337SOL     OW28909   4.926   0.521   2.705
 9337SOL    HW128910   4.880   0.606   2.733
 9337SOL    HW228911   4.874   0.443   2.738
 9338SOL     OW28912   4.448   0.349   2.259
 9338SOL    HW128913   4.380   0.307   2.199
 9338SOL    HW228914   4.430   0.447   2.266
 9339SOL     OW28915   5.815   0.037   0.680
 9339SOL    HW128916   5.897   7.005   0.697
 9339SOL    HW228917   5.770   0.057   0.767
 9340SOL     OW28918   5.134   3.629   5.350
 9340SOL    HW128919   5.130   3.685   5.268
 9340SOL    HW228920   5.188   3.547   5.331
 9341SOL     OW28921   1.305   5.826   6.864
 9341SOL    HW128922   1.240   5.762   6.904
 9341SOL    HW228923   1.257   5.911   6.839
 9342SOL     OW28924   2.628   0.280   4.554
 9342SOL    HW128925   2.665   0.362   4.596
 9342SOL    HW228926   2.575   0.304   4.473
 9343SOL     OW28927   6.022   4.919   4.461
 9343SOL    HW128928   6.034   4.927   4.362
 9343SOL    HW228929   6.060   5.000   4.506
 9344SOL     OW28930   5.035   6.223   0.586
 9344SOL    HW128931   5.013   6.193   0.679
 9344SOL    HW228932   5.121   6.273   0.587
 9345SOL     OW28933   6.484   2.811   2.680
 9345SOL    HW128934   6.525   2.899   2.705
 9345SOL    HW228935   6.482   2.802   2.581
 9346SOL     OW28936   5.786   0.533   1.146
 9346SOL    HW128937   5.733   0.572   1.070
 9346SOL    HW228938   5.802   0.603   1.215
 9347SOL     OW28939   1.541   5.950   1.250
 9347SOL    HW128940   1.617   6.013   1.232
 9347SOL    HW228941   1.543   5.876   1.183
 9348SOL     OW28942   4.151   5.891   0.841
 9348SOL    HW128943   4.076   5.894   0.775
 9348SOL    HW228944   4.135   5.959   0.913
 9349SOL     OW28945   0.723   6.766   2.247
 9349SOL    HW128946   0.757   6.817   2.168
 9349SOL    HW228947   0.662   6.693   2.215
 9350SOL     OW28948   0.861   2.870   5.986
 9350SOL    HW128949   0.811   2.915   6.060
 9350SOL    HW228950   0.941   2.823   6.023
 9351SOL     OW28951   3.140   2.375   6.677
 9351SOL    HW128952   3.111   2.285   6.646
 9351SOL    HW228953   3.200   2.417   6.608
 9352SOL     OW28954   2.489   3.742   6.901
 9352SOL    HW128955   2.402   3.735   6.950
 9352SOL    HW228956   2.476   3.797   6.818
 9353SOL     OW28957   1.138   5.611   1.933
 9353SOL    HW128958   1.091   5.680   1.988
 9353SOL    HW228959   1.072   5.567   1.871
 9354SOL     OW28960   6.528   2.221   6.752
 9354SOL    HW128961   6.619   2.179   6.756
 9354SOL    HW228962   6.535   2.316   6.782
 9355SOL     OW28963   0.665   1.564   4.957
 9355SOL    HW128964   0.588   1.522   4.908
 9355SOL    HW228965   0.630   1.632   5.022
 9356SOL     OW28966   4.286   6.984   1.817
 9356SOL    HW128967   4.300   6.891   1.851
 9356SOL    HW228968   4.285   6.982   1.717
 9357SOL     OW28969   1.069   2.114   0.044
 9357SOL    HW128970   1.131   2.131   6.991
 9357SOL    HW228971   1.114   2.140   0.130
 9358SOL     OW28972   0.651   3.728   2.577
 9358SOL    HW128973   0.702   3.661   2.631
 9358SOL    HW228974   0.559   3.738   2.615
 9359SOL     OW28975   2.058   6.295   5.815
 9359SOL    HW128976   2.156   6.306   5.800
 9359SOL    HW228977   2.024   6.370   5.872
 9360SOL     OW28978   1.622   6.897   6.480
 9360SOL    HW128979   1.616   6.909   6.381
 9360SOL    HW228980   1.570   6.816   6.507
 9361SOL     OW28981   1.889   5.991   3.453
 9361SOL    HW128982   1.972   6.018   3.404
 9361SOL    HW228983   1.865   6.061   3.520
 9362SOL     OW28984   2.457   1.078   2.472
 9362SOL    HW128985   2.472   0.979   2.471
 9362SOL    HW228986   2.360   1.098   2.482
 9363SOL     OW28987   3.197   5.207   2.434
 9363SOL    HW128988   3.101   5.185   2.417
 9363SOL    HW228989   3.224   5.285   2.378
 9364SOL     OW28990   1.820   2.509   2.122
 9364SOL    HW128991   1.761   2.467   2.191
 9364SOL    HW228992   1.915   2.500   2.149
 9365SOL     OW28993   3.280   1.795   3.955
 9365SOL    HW128994   3.217   1.782   4.032
 9365SOL    HW228995   3.269   1.721   3.890
 9366SOL     OW28996   3.499   6.012   0.664
 9366SOL    HW128997   3.491   5.972   0.755
 9366SOL    HW228998   3.444   5.960   0.599
 9367SOL     OW28999   5.692   0.113   0.907
 9367SOL    HW129000   5.713   0.158   0.994
 9367SOL    HW229001   5.609   0.058   0.917
 9368SOL     OW29002   3.673   0.813   2.400
 9368SOL    HW129003   3.730   0.881   2.353
 9368SOL    HW229004   3.622   0.760   2.332
 9369SOL     OW29005   1.156   4.894   6.579
 9369SOL    HW129006   1.075   4.845   6.545
 9369SOL    HW229007   1.214   4.921   6.502
 9370SOL     OW29008   4.294   1.879   4.668
 9370SOL    HW129009   4.209   1.846   4.626
 9370SOL    HW229010   4.371   1.829   4.630
 9371SOL     OW29011   3.509   6.164   1.434
 9371SOL    HW129012   3.568   6.084   1.444
 9371SOL    HW229013   3.547   6.241   1.485
 9372SOL     OW29014   4.672   6.845   1.721
 9372SOL    HW129015   4.642   6.873   1.630
 9372SOL    HW229016   4.770   6.866   1.732
 9373SOL     OW29017   6.473   1.685   0.177
 9373SOL    HW129018   6.472   1.595   0.133
 9373SOL    HW229019   6.528   1.748   0.122
 9374SOL     OW29020   0.305   4.873   5.735
 9374SOL    HW129021   0.220   4.825   5.714
 9374SOL    HW229022   0.285   4.970   5.750
 9375SOL     OW29023   0.247   1.707   6.126
 9375SOL    HW129024   0.182   1.782   6.121
 9375SOL    HW229025   0.308   1.719   6.204
 9376SOL     OW29026   1.944   3.760   2.448
 9376SOL    HW129027   1.889   3.717   2.520
 9376SOL    HW229028   2.003   3.692   2.405
 9377SOL     OW29029   2.292   5.923   2.289
 9377SOL    HW129030   2.336   5.870   2.216
 9377SOL    HW229031   2.249   6.004   2.250
 9378SOL     OW29032   3.781   0.424   3.782
 9378SOL    HW129033   3.795   0.336   3.737
 9378SOL    HW229034   3.699   0.469   3.745
 9379SOL     OW29035   4.552   6.622   4.302
 9379SOL    HW129036   4.546   6.714   4.342
 9379SOL    HW229037   4.462   6.593   4.271
 9380SOL     OW29038   4.874   5.606   6.786
 9380SOL    HW129039   4.854   5.516   6.747
 9380SOL    HW229040   4.918   5.594   6.875
 9381SOL     OW29041   5.663   2.110   5.127
 9381SOL    HW129042   5.674   2.032   5.067
 9381SOL    HW229043   5.622   2.081   5.214
 9382SOL     OW29044   3.764   0.506   4.400
 9382SOL    HW129045   3.723   0.552   4.321
 9382SOL    HW229046   3.853   0.548   4.420
 9383SOL     OW29047   4.963   4.065   3.565
 9383SOL    HW129048   5.029   4.124   3.609
 9383SOL    HW229049   4.876   4.114   3.555
 9384SOL     OW29050   1.756   0.252   1.813
 9384SOL    HW129051   1.831   0.278   1.874
 9384SOL    HW229052   1.722   0.334   1.765
 9385SOL     OW29053   4.259   1.137   3.637
 9385SOL    HW129054   4.256   1.214   3.574
 9385SOL    HW229055   4.318   1.160   3.715
 9386SOL     OW29056   4.206   6.212   5.754
 9386SOL    HW129057   4.136   6.257   5.698
 9386SOL    HW229058   4.164   6.177   5.838
 9387SOL     OW29059   3.733   2.196   6.877
 9387SOL    HW129060   3.811   2.179   6.817
 9387SOL    HW229061   3.761   2.186   6.973
 9388SOL     OW29062   2.139   6.902   4.340
 9388SOL    HW129063   2.060   6.953   4.308
 9388SOL    HW229064   2.119   6.861   4.429
 9389SOL     OW29065   3.333   5.195   1.842
 9389SOL    HW129066   3.328   5.210   1.941
 9389SOL    HW229067   3.419   5.149   1.820
 9390SOL     OW29068   4.459   4.943   5.896
 9390SOL    HW129069   4.387   4.876   5.879
 9390SOL    HW229070   4.418   5.030   5.924
 9391SOL     OW29071   0.885   6.554   4.310
 9391SOL    HW129072   0.941   6.586   4.233
 9391SOL    HW229073   0.879   6.455   4.308
 9392SOL     OW29074   5.427   4.389   2.775
 9392SOL    HW129075   5.458   4.366   2.682
 9392SOL    HW229076   5.346   4.334   2.798
 9393SOL     OW29077   3.076   6.913   5.352
 9393SOL    HW129078   3.000   6.879   5.297
 9393SOL    HW229079   3.041   6.961   5.432
 9394SOL     OW29080   4.758   6.793   0.965
 9394SOL    HW129081   4.687   6.863   0.959
 9394SOL    HW229082   4.841   6.825   0.920
 9395SOL     OW29083   2.753   1.992   0.481
 9395SOL    HW129084   2.749   1.899   0.443
 9395SOL    HW229085   2.818   1.994   0.557
 9396SOL     OW29086   1.269   6.209   6.726
 9396SOL    HW129087   1.282   6.293   6.779
 9396SOL    HW229088   1.358   6.167   6.707
 9397SOL     OW29089   3.947   0.305   6.654
 9397SOL    HW129090   3.929   0.213   6.620
 9397SOL    HW229091   3.938   0.307   6.753
 9398SOL     OW29092   0.173   1.643   6.804
 9398SOL    HW129093   0.213   1.586   6.732
 9398SOL    HW229094   0.225   1.729   6.810
 9399SOL     OW29095   1.997   2.783   3.989
 9399SOL    HW129096   1.958   2.827   4.070
 9399SOL    HW229097   1.944   2.810   3.908
 9400SOL     OW29098   5.492   1.317   0.621
 9400SOL    HW129099   5.506   1.271   0.534
 9400SOL    HW229100   5.434   1.259   0.680
 9401SOL     OW29101   0.315   2.079   2.936
 9401SOL    HW129102   0.329   2.049   3.031
 9401SOL    HW229103   0.403   2.105   2.896
 9402SOL     OW29104   1.573   5.691   3.199
 9402SOL    HW129105   1.653   5.751   3.201
 9402SOL    HW229106   1.560   5.656   3.107
 9403SOL     OW29107   6.440   2.560   1.844
 9403SOL    HW129108   6.469   2.656   1.842
 9403SOL    HW229109   6.444   2.522   1.751
 9404SOL     OW29110   2.000   3.158   0.915
 9404SOL    HW129111   1.965   3.064   0.911
 9404SOL    HW229112   1.925   3.222   0.900
 9405SOL     OW29113   0.241   5.126   5.520
 9405SOL    HW129114   0.316   5.076   5.477
 9405SOL    HW229115   0.267   5.151   5.613
 9406SOL     OW29116   6.930   3.071   0.053
 9406SOL    HW129117   6.917   3.156   0.002
 9406SOL    HW229118   6.939   2.995   7.012
 9407SOL     OW29119   1.496   4.894   5.348
 9407SOL    HW129120   1.484   4.992   5.334
 9407SOL    HW229121   1.576   4.863   5.297
 9408SOL     OW29122   6.672   4.754   4.438
 9408SOL    HW129123   6.678   4.757   4.338
 9408SOL    HW229124   6.743   4.693   4.474
 9409SOL     OW29125   6.952   5.089   2.099
 9409SOL    HW129126   6.989   5.054   2.185
 9409SOL    HW229127   6.990   5.179   2.080
 9410SOL     OW29128   3.841   1.192   1.834
 9410SOL    HW129129   3.872   1.107   1.876
 9410SOL    HW229130   3.919   1.249   1.810
 9411SOL     OW29131   2.975   3.217   3.851
 9411SOL    HW129132   2.929   3.293   3.896
 9411SOL    HW229133   2.950   3.215   3.754
 9412SOL     OW29134   6.387   6.959   1.677
 9412SOL    HW129135   6.339   6.995   1.757
 9412SOL    HW229136   6.382   6.859   1.677
 9413SOL     OW29137   4.135   4.802   3.797
 9413SOL    HW129138   4.146   4.734   3.725
 9413SOL    HW229139   4.225   4.823   3.837
 9414SOL     OW29140   2.201   2.208   4.492
 9414SOL    HW129141   2.212   2.203   4.591
 9414SOL    HW229142   2.281   2.169   4.448
 9415SOL     OW29143   3.695   1.413   1.928
 9415SOL    HW129144   3.694   1.473   1.849
 9415SOL    HW229145   3.720   1.320   1.900
 9416SOL     OW29146   6.482   5.106   6.306
 9416SOL    HW129147   6.463   5.159   6.388
 9416SOL    HW229148   6.545   5.031   6.328
 9417SOL     OW29149   3.989   6.198   1.850
 9417SOL    HW129150   3.924   6.274   1.845
 9417SOL    HW229151   4.081   6.232   1.829
 9418SOL     OW29152   3.250   2.162   4.279
 9418SOL    HW129153   3.306   2.161   4.361
 9418SOL    HW229154   3.308   2.145   4.199
 9419SOL     OW29155   2.340   2.764   6.870
 9419SOL    HW129156   2.426   2.723   6.901
 9419SOL    HW229157   2.301   2.709   6.797
 9420SOL     OW29158   5.488   3.773   6.961
 9420SOL    HW129159   5.446   3.825   0.011
 9420SOL    HW229160   5.585   3.758   6.981
 9421SOL     OW29161   3.738   6.275   5.812
 9421SOL    HW129162   3.687   6.269   5.897
 9421SOL    HW229163   3.744   6.184   5.770
 9422SOL     OW29164   2.562   5.510   4.821
 9422SOL    HW129165   2.632   5.582   4.820
 9422SOL    HW229166   2.568   5.456   4.737
 9423SOL     OW29167   4.760   4.943   3.666
 9423SOL    HW129168   4.813   5.024   3.691
 9423SOL    HW229169   4.809   4.891   3.596
 9424SOL     OW29170   5.570   0.703   4.732
 9424SOL    HW129171   5.474   0.697   4.705
 9424SOL    HW229172   5.580   0.773   4.803
 9425SOL     OW29173   6.797   5.261   0.179
 9425SOL    HW129174   6.889   5.233   0.206
 9425SOL    HW229175   6.774   5.348   0.223
 9426SOL     OW29176   6.839   2.457   6.239
 9426SOL    HW129177   6.893   2.447   6.155
 9426SOL    HW229178   6.871   2.390   6.306
 9427SOL     OW29179   4.084   5.454   3.320
 9427SOL    HW129180   4.013   5.486   3.383
 9427SOL    HW229181   4.155   5.524   3.313
 9428SOL     OW29182   6.357   0.041   5.979
 9428SOL    HW129183   6.296   0.119   5.991
 9428SOL    HW229184   6.385   0.035   5.883
 9429SOL     OW29185   2.244   1.913   3.961
 9429SOL    HW129186   2.184   1.835   3.977
 9429SOL    HW229187   2.338   1.888   3.985
 9430SOL     OW29188   0.013   1.878   4.566
 9430SOL    HW129189   0.069   1.955   4.598
 9430SOL    HW229190   0.061   1.831   4.491
 9431SOL     OW29191   0.270   5.150   5.801
 9431SOL    HW129192   0.178   5.175   5.832
 9431SOL    HW229193   0.338   5.186   5.865
 9432SOL     OW29194   6.595   1.288   4.050
 9432SOL    HW129195   6.604   1.226   4.128
 9432SOL    HW229196   6.501   1.320   4.044
 9433SOL     OW29197   4.411   5.541   2.847
 9433SOL    HW129198   4.483   5.499   2.792
 9433SOL    HW229199   4.452   5.601   2.916
 9434SOL     OW29200   5.183   5.273   4.107
 9434SOL    HW129201   5.124   5.352   4.095
 9434SOL    HW229202   5.201   5.259   4.205
 9435SOL     OW29203   0.518   2.584   1.894
 9435SOL    HW129204   0.558   2.634   1.971
 9435SOL    HW229205   0.591   2.558   1.830
 9436SOL     OW29206   1.883   0.584   3.075
 9436SOL    HW129207   1.845   0.617   3.161
 9436SOL    HW229208   1.965   0.529   3.093
 9437SOL     OW29209   6.324   5.726   4.941
 9437SOL    HW129210   6.275   5.774   5.014
 9437SOL    HW229211   6.329   5.786   4.861
 9438SOL     OW29212   3.768   5.792   2.600
 9438SOL    HW129213   3.717   5.840   2.529
 9438SOL    HW229214   3.707   5.730   2.649
 9439SOL     OW29215   1.172   3.070   0.723
 9439SOL    HW129216   1.260   3.034   0.691
 9439SOL    HW229217   1.109   2.994   0.738
 9440SOL     OW29218   2.416   5.539   3.498
 9440SOL    HW129219   2.364   5.473   3.552
 9440SOL    HW229220   2.353   5.610   3.464
 9441SOL     OW29221   6.928   6.269   4.629
 9441SOL    HW129222   6.834   6.293   4.609
 9441SOL    HW229223   6.962   6.324   4.706
 9442SOL     OW29224   4.425   3.397   0.434
 9442SOL    HW129225   4.502   3.460   0.435
 9442SOL    HW229226   4.341   3.447   0.413
 9443SOL     OW29227   1.816   4.188   3.140
 9443SOL    HW129228   1.755   4.242   3.198
 9443SOL    HW229229   1.903   4.236   3.130
 9444SOL     OW29230   0.895   4.452   6.733
 9444SOL    HW129231   0.945   4.467   6.819
 9444SOL    HW229232   0.959   4.460   6.656
 9445SOL     OW29233   6.908   1.413   4.566
 9445SOL    HW129234   6.894   1.417   4.467
 9445SOL    HW229235   6.843   1.348   4.606
 9446SOL     OW29236   6.454   5.079   2.985
 9446SOL    HW129237   6.467   5.164   3.035
 9446SOL    HW229238   6.359   5.049   2.995
 9447SOL     OW29239   5.246   4.394   2.087
 9447SOL    HW129240   5.152   4.360   2.083
 9447SOL    HW229241   5.260   4.461   2.014
 9448SOL     OW29242   5.540   0.047   5.129
 9448SOL    HW129243   5.505   0.034   5.036
 9448SOL    HW229244   5.560   6.981   5.169
 9449SOL     OW29245   5.889   0.214   1.817
 9449SOL    HW129246   5.952   0.260   1.755
 9449SOL    HW229247   5.940   0.166   1.888
 9450SOL     OW29248   2.023   5.776   4.053
 9450SOL    HW129249   2.099   5.799   3.992
 9450SOL    HW229250   1.939   5.820   4.021
 9451SOL     OW29251   3.805   6.050   6.528
 9451SOL    HW129252   3.735   6.117   6.556
 9451SOL    HW229253   3.779   6.009   6.441
 9452SOL     OW29254   6.562   3.928   0.236
 9452SOL    HW129255   6.644   3.897   0.283
 9452SOL    HW229256   6.587   3.976   0.153
 9453SOL     OW29257   4.395   5.932   3.049
 9453SOL    HW129258   4.324   5.933   2.979
 9453SOL    HW229259   4.381   6.008   3.113
 9454SOL     OW29260   4.877   3.449   0.168
 9454SOL    HW129261   4.939   3.464   0.091
 9454SOL    HW229262   4.898   3.514   0.240
 9455SOL     OW29263   3.051   2.048   2.264
 9455SOL    HW129264   2.993   2.066   2.344
 9455SOL    HW229265   2.995   2.010   2.191
 9456SOL     OW29266   7.023   3.074   1.874
 9456SOL    HW129267   0.082   3.021   1.893
 9456SOL    HW229268   6.976   3.035   1.795
 9457SOL     OW29269   0.163   5.339   3.687
 9457SOL    HW129270   0.211   5.394   3.755
 9457SOL    HW229271   0.118   5.399   3.621
 9458SOL     OW29272   5.988   3.554   0.176
 9458SOL    HW129273   5.965   3.472   0.229
 9458SOL    HW229274   6.087   3.567   0.176
 9459SOL     OW29275   4.489   4.813   5.032
 9459SOL    HW129276   4.584   4.843   5.040
 9459SOL    HW229277   4.452   4.841   4.944
 9460SOL     OW29278   1.448   1.716   2.923
 9460SOL    HW129279   1.545   1.698   2.940
 9460SOL    HW229280   1.400   1.630   2.907
 9461SOL     OW29281   0.990   2.184   2.846
 9461SOL    HW129282   0.954   2.253   2.908
 9461SOL    HW229283   1.014   2.226   2.759
 9462SOL     OW29284   1.255   1.475   4.277
 9462SOL    HW129285   1.295   1.510   4.192
 9462SOL    HW229286   1.184   1.408   4.256
 9463SOL     OW29287   5.663   5.582   0.978
 9463SOL    HW129288   5.593   5.609   0.912
 9463SOL    HW229289   5.625   5.512   1.039
 9464SOL     OW29290   0.850   1.080   1.630
 9464SOL    HW129291   0.818   1.072   1.535
 9464SOL    HW229292   0.814   1.164   1.670
 9465SOL     OW29293   6.520   4.513   0.707
 9465SOL    HW129294   6.509   4.607   0.741
 9465SOL    HW229295   6.575   4.514   0.624
 9466SOL     OW29296   3.014   5.067   5.979
 9466SOL    HW129297   3.006   5.042   5.882
 9466SOL    HW229298   2.935   5.031   6.029
 9467SOL     OW29299   2.497   3.646   1.121
 9467SOL    HW129300   2.464   3.551   1.123
 9467SOL    HW229301   2.429   3.703   1.075
 9468SOL     OW29302   6.060   2.014   0.492
 9468SOL    HW129303   6.146   2.024   0.441
 9468SOL    HW229304   5.995   2.084   0.462
 9469SOL     OW29305   0.924   6.395   1.269
 9469SOL    HW129306   0.996   6.409   1.337
 9469SOL    HW229307   0.896   6.299   1.269
 9470SOL     OW29308   3.695   4.378   0.700
 9470SOL    HW129309   3.779   4.344   0.740
 9470SOL    HW229310   3.662   4.313   0.631
 9471SOL     OW29311   5.977   3.270   4.948
 9471SOL    HW129312   5.938   3.237   4.862
 9471SOL    HW229313   5.938   3.360   4.969
 9472SOL     OW29314   1.621   3.112   6.104
 9472SOL    HW129315   1.581   3.060   6.028
 9472SOL    HW229316   1.636   3.207   6.075
 9473SOL     OW29317   3.279   5.009   0.141
 9473SOL    HW129318   3.259   5.100   0.176
 9473SOL    HW229319   3.220   4.942   0.186
 9474SOL     OW29320   5.880   2.860   1.380
 9474SOL    HW129321   5.842   2.864   1.288
 9474SOL    HW229322   5.937   2.941   1.396
 9475SOL     OW29323   4.752   4.025   6.032
 9475SOL    HW129324   4.809   4.102   6.003
 9475SOL    HW229325   4.743   3.960   5.957
 9476SOL     OW29326   3.642   3.986   6.187
 9476SOL    HW129327   3.727   3.990   6.134
 9476SOL    HW229328   3.564   3.987   6.125
 9477SOL     OW29329   2.319   4.229   1.090
 9477SOL    HW129330   2.258   4.199   1.164
 9477SOL    HW229331   2.310   4.328   1.079
 9478SOL     OW29332   5.464   2.054   0.337
 9478SOL    HW129333   5.480   2.088   0.244
 9478SOL    HW229334   5.544   2.004   0.368
 9479SOL     OW29335   3.806   0.775   1.449
 9479SOL    HW129336   3.794   0.696   1.508
 9479SOL    HW229337   3.888   0.825   1.477
 9480SOL     OW29338   6.474   6.952   0.039
 9480SOL    HW129339   6.398   6.947   6.998
 9480SOL    HW229340   6.439   6.947   0.133
 9481SOL     OW29341   4.047   1.241   3.279
 9481SOL    HW129342   3.996   1.156   3.264
 9481SOL    HW229343   3.983   1.317   3.292
 9482SOL     OW29344   6.136   6.554   0.230
 9482SOL    HW129345   6.040   6.579   0.245
 9482SOL    HW229346   6.187   6.566   0.316
 9483SOL     OW29347   6.941   0.728   0.696
 9483SOL    HW129348   6.885   0.810   0.711
 9483SOL    HW229349   6.888   0.647   0.721
 9484SOL     OW29350   3.881   5.979   5.087
 9484SOL    HW129351   3.871   6.070   5.045
 9484SOL    HW229352   3.793   5.950   5.123
 9485SOL     OW29353   0.052   1.388   6.787
 9485SOL    HW129354   0.044   1.350   6.879
 9485SOL    HW229355   0.078   1.485   6.793
 9486SOL     OW29356   5.087   5.846   0.273
 9486SOL    HW129357   5.038   5.760   0.283
 9486SOL    HW229358   5.052   5.913   0.338
 9487SOL     OW29359   2.871   3.463   3.475
 9487SOL    HW129360   2.948   3.415   3.516
 9487SOL    HW229361   2.826   3.519   3.544
 9488SOL     OW29362   1.077   1.823   0.516
 9488SOL    HW129363   1.000   1.868   0.562
 9488SOL    HW229364   1.043   1.744   0.465
 9489SOL     OW29365   4.786   4.213   0.397
 9489SOL    HW129366   4.870   4.174   0.359
 9489SOL    HW229367   4.803   4.307   0.425
 9490SOL     OW29368   5.805   3.952   3.893
 9490SOL    HW129369   5.839   3.924   3.803
 9490SOL    HW229370   5.819   4.050   3.905
 9491SOL     OW29371   4.948   6.089   2.830
 9491SOL    HW129372   5.004   6.055   2.754
 9491SOL    HW229373   4.858   6.045   2.827
 9492SOL     OW29374   4.845   2.484   4.708
 9492SOL    HW129375   4.926   2.541   4.692
 9492SOL    HW229376   4.763   2.534   4.684
 9493SOL     OW29377   4.002   0.114   3.021
 9493SOL    HW129378   4.022   0.212   3.022
 9493SOL    HW229379   4.058   0.069   2.951
 9494SOL     OW29380   5.505   2.293   1.882
 9494SOL    HW129381   5.483   2.196   1.891
 9494SOL    HW229382   5.468   2.328   1.796
 9495SOL     OW29383   1.228   1.116   2.352
 9495SOL    HW129384   1.327   1.103   2.356
 9495SOL    HW229385   1.207   1.214   2.352
 9496SOL     OW29386   4.862   2.132   2.165
 9496SOL    HW129387   4.860   2.089   2.075
 9496SOL    HW229388   4.881   2.229   2.156
 9497SOL     OW29389   5.050   5.129   4.832
 9497SOL    HW129390   5.141   5.089   4.826
 9497SOL    HW229391   5.055   5.216   4.882
 9498SOL     OW29392   0.048   5.701   3.871
 9498SOL    HW129393   0.010   5.728   3.960
 9498SOL    HW229394   7.001   5.654   3.818
 9499SOL     OW29395   6.215   6.103   5.952
 9499SOL    HW129396   6.301   6.151   5.969
 9499SOL    HW229397   6.146   6.169   5.919
 9500SOL     OW29398   4.114   0.885   1.054
 9500SOL    HW129399   4.167   0.970   1.064
 9500SOL    HW229400   4.021   0.907   1.024
 9501SOL     OW29401   1.559   3.040   5.093
 9501SOL    HW129402   1.519   3.054   5.183
 9501SOL    HW229403   1.494   2.992   5.034
 9502SOL     OW29404   5.874   4.962   5.053
 9502SOL    HW129405   5.775   4.962   5.037
 9502SOL    HW229406   5.911   4.871   5.036
 9503SOL     OW29407   0.752   2.713   6.963
 9503SOL    HW129408   0.839   2.683   6.924
 9503SOL    HW229409   0.765   2.738   0.035
 9504SOL     OW29410   6.745   5.056   1.837
 9504SOL    HW129411   6.715   4.999   1.913
 9504SOL    HW229412   6.745   5.152   1.865
 9505SOL     OW29413   4.094   4.893   5.318
 9505SOL    HW129414   4.048   4.907   5.230
 9505SOL    HW229415   4.026   4.866   5.387
 9506SOL     OW29416   3.035   1.479   1.073
 9506SOL    HW129417   2.973   1.552   1.104
 9506SOL    HW229418   3.013   1.453   0.980
 9507SOL     OW29419   5.246   0.083   1.970
 9507SOL    HW129420   5.160   0.041   1.997
 9507SOL    HW229421   5.311   0.012   1.942
 9508SOL     OW29422   5.436   1.683   2.858
 9508SOL    HW129423   5.515   1.671   2.798
 9508SOL    HW229424   5.461   1.656   2.952
 9509SOL     OW29425   6.333   0.076   3.044
 9509SOL    HW129426   6.407   0.060   2.978
 9509SOL    HW229427   6.310   0.173   3.044
 9510SOL     OW29428   0.719   2.414   3.310
 9510SOL    HW129429   0.755   2.339   3.365
 9510SOL    HW229430   0.772   2.497   3.327
 9511SOL     OW29431   1.898   1.699   0.744
 9511SOL    HW129432   1.977   1.652   0.783
 9511SOL    HW229433   1.929   1.770   0.681
 9512SOL     OW29434   6.672   1.964   1.160
 9512SOL    HW129435   6.754   2.006   1.199
 9512SOL    HW229436   6.591   2.010   1.196
 9513SOL     OW29437   3.836   5.075   0.285
 9513SOL    HW129438   3.884   5.039   0.205
 9513SOL    HW229439   3.749   5.026   0.296
 9514SOL     OW29440   3.171   3.282   0.780
 9514SOL    HW129441   3.127   3.230   0.853
 9514SOL    HW229442   3.104   3.344   0.738
 9515SOL     OW29443   1.705   5.176   3.848
 9515SOL    HW129444   1.640   5.232   3.797
 9515SOL    HW229445   1.660   5.139   3.929
 9516SOL     OW29446   6.641   4.053   0.580
 9516SOL    HW129447   6.560   4.000   0.556
 9516SOL    HW229448   6.621   4.109   0.661
 9517SOL     OW29449   1.202   4.802   0.256
 9517SOL    HW129450   1.270   4.876   0.254
 9517SOL    HW229451   1.137   4.815   0.182
 9518SOL     OW29452   1.510   1.257   0.082
 9518SOL    HW129453   1.469   1.189   0.021
 9518SOL    HW229454   1.438   1.305   0.132
 9519SOL     OW29455   1.166   2.581   5.099
 9519SOL    HW129456   1.213   2.611   5.182
 9519SOL    HW229457   1.222   2.603   5.019
 9520SOL     OW29458   2.798   6.657   2.243
 9520SOL    HW129459   2.799   6.613   2.154
 9520SOL    HW229460   2.826   6.591   2.313
 9521SOL     OW29461   5.445   5.410   4.238
 9521SOL    HW129462   5.363   5.462   4.265
 9521SOL    HW229463   5.474   5.352   4.314
 9522SOL     OW29464   3.781   6.085   0.891
 9522SOL    HW129465   3.720   6.020   0.846
 9522SOL    HW229466   3.855   6.110   0.829
 9523SOL     OW29467   3.386   5.773   4.281
 9523SOL    HW129468   3.462   5.775   4.215
 9523SOL    HW229469   3.419   5.738   4.368
 9524SOL     OW29470   4.143   3.436   1.024
 9524SOL    HW129471   4.186   3.387   1.100
 9524SOL    HW229472   4.205   3.435   0.945
 9525SOL     OW29473   3.085   0.842   6.385
 9525SOL    HW129474   3.182   0.817   6.388
 9525SOL    HW229475   3.032   0.764   6.353
 9526SOL     OW29476   5.745   5.072   2.240
 9526SOL    HW129477   5.670   5.107   2.182
 9526SOL    HW229478   5.789   4.995   2.193
 9527SOL     OW29479   6.809   1.774   1.946
 9527SOL    HW129480   6.728   1.817   1.908
 9527SOL    HW229481   6.881   1.770   1.877
 9528SOL     OW29482   6.922   1.020   2.251
 9528SOL    HW129483   6.899   0.942   2.193
 9528SOL    HW229484   6.895   1.105   2.205
 9529SOL     OW29485   0.730   3.148   6.034
 9529SOL    HW129486   0.689   3.204   6.107
 9529SOL    HW229487   0.661   3.129   5.964
 9530SOL     OW29488   1.284   2.032   3.860
 9530SOL    HW129489   1.369   2.052   3.811
 9530SOL    HW229490   1.254   1.940   3.838
 9531SOL     OW29491   3.500   6.682   2.770
 9531SOL    HW129492   3.530   6.692   2.676
 9531SOL    HW229493   3.579   6.660   2.828
 9532SOL     OW29494   2.093   0.212   1.766
 9532SOL    HW129495   2.191   0.209   1.783
 9532SOL    HW229496   2.074   0.175   1.674
 9533SOL     OW29497   1.870   0.889   5.450
 9533SOL    HW129498   1.872   0.984   5.482
 9533SOL    HW229499   1.780   0.871   5.409
 9534SOL     OW29500   5.596   2.517   4.659
 9534SOL    HW129501   5.531   2.589   4.638
 9534SOL    HW229502   5.554   2.451   4.722
 9535SOL     OW29503   2.112   1.570   5.746
 9535SOL    HW129504   2.120   1.471   5.734
 9535SOL    HW229505   2.142   1.595   5.838
 9536SOL     OW29506   1.876   6.233   5.612
 9536SOL    HW129507   1.925   6.247   5.698
 9536SOL    HW229508   1.928   6.170   5.554
 9537SOL     OW29509   2.989   6.952   1.247
 9537SOL    HW129510   3.059   6.881   1.246
 9537SOL    HW229511   2.915   6.925   1.308
 9538SOL     OW29512   6.508   2.653   4.603
 9538SOL    HW129513   6.564   2.625   4.525
 9538SOL    HW229514   6.538   2.743   4.635
 9539SOL     OW29515   0.849   5.759   0.973
 9539SOL    HW129516   0.806   5.749   1.063
 9539SOL    HW229517   0.947   5.771   0.985
 9540SOL     OW29518   4.844   4.390   5.134
 9540SOL    HW129519   4.935   4.428   5.122
 9540SOL    HW229520   4.776   4.464   5.129
 9541SOL     OW29521   2.167   2.546   4.007
 9541SOL    HW129522   2.151   2.640   4.038
 9541SOL    HW229523   2.127   2.534   3.916
 9542SOL     OW29524   4.940   3.647   3.987
 9542SOL    HW129525   5.014   3.651   3.921
 9542SOL    HW229526   4.941   3.730   4.044
 9543SOL     OW29527   5.351   2.162   2.417
 9543SOL    HW129528   5.352   2.071   2.458
 9543SOL    HW229529   5.298   2.160   2.332
 9544SOL     OW29530   3.506   1.798   2.289
 9544SOL    HW129531   3.407   1.791   2.295
 9544SOL    HW229532   3.531   1.838   2.201
 9545SOL     OW29533   6.999   0.421   4.048
 9545SOL    HW129534   7.012   0.475   4.131
 9545SOL    HW229535   6.954   0.334   4.071
 9546SOL     OW29536   2.898   5.298   0.713
 9546SOL    HW129537   2.938   5.351   0.788
 9546SOL    HW229538   2.935   5.205   0.715
 9547SOL     OW29539   0.151   6.277   3.252
 9547SOL    HW129540   0.153   6.317   3.343
 9547SOL    HW229541   0.199   6.190   3.252
 9548SOL     OW29542   4.724   6.095   3.175
 9548SOL    HW129543   4.752   6.139   3.260
 9548SOL    HW229544   4.654   6.150   3.130
 9549SOL     OW29545   2.600   5.975   0.642
 9549SOL    HW129546   2.629   6.033   0.718
 9549SOL    HW229547   2.580   6.032   0.562
 9550SOL     OW29548   1.064   1.594   0.257
 9550SOL    HW129549   0.981   1.577   0.311
 9550SOL    HW229550   1.084   1.513   0.201
 9551SOL     OW29551   1.448   6.363   4.748
 9551SOL    HW129552   1.482   6.433   4.685
 9551SOL    HW229553   1.365   6.322   4.710
 9552SOL     OW29554   1.045   5.178   3.192
 9552SOL    HW129555   0.971   5.201   3.255
 9552SOL    HW229556   1.121   5.138   3.243
 9553SOL     OW29557   5.894   4.540   5.152
 9553SOL    HW129558   5.913   4.443   5.159
 9553SOL    HW229559   5.944   4.578   5.074
 9554SOL     OW29560   2.233   1.421   1.911
 9554SOL    HW129561   2.268   1.333   1.878
 9554SOL    HW229562   2.246   1.490   1.840
 9555SOL     OW29563   7.020   2.394   0.165
 9555SOL    HW129564   6.954   2.460   0.204
 9555SOL    HW229565   0.087   2.436   0.161
 9556SOL     OW29566   1.708   1.993   1.775
 9556SOL    HW129567   1.673   2.087   1.774
 9556SOL    HW229568   1.670   1.944   1.852
 9557SOL     OW29569   5.278   1.495   2.074
 9557SOL    HW129570   5.281   1.398   2.051
 9557SOL    HW229571   5.256   1.549   1.993
 9558SOL     OW29572   6.335   5.015   2.524
 9558SOL    HW129573   6.379   5.015   2.614
 9558SOL    HW229574   6.259   4.950   2.525
 9559SOL     OW29575   6.822   2.980   2.516
 9559SOL    HW129576   6.886   3.016   2.448
 9559SOL    HW229577   6.809   2.882   2.500
 9560SOL     OW29578   3.164   1.658   4.154
 9560SOL    HW129579   3.241   1.640   4.216
 9560SOL    HW229580   3.136   1.572   4.111
 9561SOL     OW29581   3.785   6.342   1.279
 9561SOL    HW129582   3.755   6.340   1.374
 9561SOL    HW229583   3.796   6.248   1.245
 9562SOL     OW29584   5.673   5.544   2.818
 9562SOL    HW129585   5.583   5.528   2.857
 9562SOL    HW229586   5.744   5.515   2.882
 9563SOL     OW29587   6.650   5.773   6.655
 9563SOL    HW129588   6.671   5.860   6.609
 9563SOL    HW229589   6.704   5.700   6.614
 9564SOL     OW29590   2.473   6.905   0.108
 9564SOL    HW129591   2.422   6.966   0.168
 9564SOL    HW229592   2.471   6.940   0.014
 9565SOL     OW29593   3.798   5.869   4.257
 9565SOL    HW129594   3.739   5.906   4.328
 9565SOL    HW229595   3.860   5.802   4.297
 9566SOL     OW29596   2.809   4.900   5.083
 9566SOL    HW129597   2.889   4.951   5.115
 9566SOL    HW229598   2.819   4.804   5.108
 9567SOL     OW29599   6.067   5.571   5.654
 9567SOL    HW129600   6.094   5.477   5.675
 9567SOL    HW229601   6.106   5.598   5.566
 9568SOL     OW29602   4.270   3.563   6.535
 9568SOL    HW129603   4.200   3.498   6.507
 9568SOL    HW229604   4.305   3.612   6.455
 9569SOL     OW29605   6.235   0.889   0.433
 9569SOL    HW129606   6.308   0.931   0.487
 9569SOL    HW229607   6.207   0.951   0.360
 9570SOL     OW29608   0.136   0.468   0.422
 9570SOL    HW129609   0.102   0.425   0.338
 9570SOL    HW229610   0.150   0.566   0.405
 9571SOL     OW29611   2.312   3.794   0.212
 9571SOL    HW129612   2.280   3.761   0.123
 9571SOL    HW229613   2.412   3.795   0.213
 9572SOL     OW29614   1.673   4.536   1.316
 9572SOL    HW129615   1.625   4.539   1.229
 9572SOL    HW229616   1.628   4.470   1.377
 9573SOL     OW29617   0.500   2.398   1.229
 9573SOL    HW129618   0.496   2.465   1.155
 9573SOL    HW229619   0.588   2.405   1.275
 9574SOL     OW29620   2.495   1.967   5.222
 9574SOL    HW129621   2.515   1.999   5.315
 9574SOL    HW229622   2.434   2.032   5.177
 9575SOL     OW29623   5.299   0.537   1.638
 9575SOL    HW129624   5.340   0.446   1.641
 9575SOL    HW229625   5.203   0.532   1.665
 9576SOL     OW29626   3.673   2.052   5.973
 9576SOL    HW129627   3.603   2.086   5.910
 9576SOL    HW229628   3.705   1.963   5.942
 9577SOL     OW29629   0.828   6.310   3.134
 9577SOL    HW129630   0.907   6.344   3.184
 9577SOL    HW229631   0.782   6.240   3.188
 9578SOL     OW29632   5.816   3.327   2.136
 9578SOL    HW129633   5.815   3.227   2.147
 9578SOL    HW229634   5.728   3.364   2.167
 9579SOL     OW29635   1.016   6.579   2.707
 9579SOL    HW129636   1.086   6.644   2.677
 9579SOL    HW229637   1.059   6.499   2.747
 9580SOL     OW29638   4.279   3.814   6.230
 9580SOL    HW129639   4.243   3.895   6.183
 9580SOL    HW229640   4.287   3.834   6.328
 9581SOL     OW29641   1.426   4.802   6.422
 9581SOL    HW129642   1.519   4.809   6.384
 9581SOL    HW229643   1.429   4.815   6.521
 9582SOL     OW29644   4.675   5.505   4.553
 9582SOL    HW129645   4.679   5.595   4.598
 9582SOL    HW229646   4.595   5.501   4.493
 9583SOL     OW29647   2.343   4.253   1.810
 9583SOL    HW129648   2.264   4.252   1.748
 9583SOL    HW229649   2.377   4.346   1.820
 9584SOL     OW29650   5.940   5.571   6.514
 9584SOL    HW129651   5.933   5.671   6.511
 9584SOL    HW229652   6.005   5.544   6.585
 9585SOL     OW29653   6.036   0.128   4.367
 9585SOL    HW129654   6.079   0.167   4.448
 9585SOL    HW229655   6.031   0.028   4.377
 9586SOL     OW29656   5.457   3.365   3.325
 9586SOL    HW129657   5.420   3.281   3.287
 9586SOL    HW229658   5.522   3.406   3.260
 9587SOL     OW29659   4.995   6.119   1.930
 9587SOL    HW129660   5.053   6.058   1.877
 9587SOL    HW229661   4.971   6.075   2.017
 9588SOL     OW29662   6.804   0.720   2.300
 9588SOL    HW129663   6.877   0.775   2.340
 9588SOL    HW229664   6.796   0.634   2.351
 9589SOL     OW29665   2.618   1.359   6.181
 9589SOL    HW129666   2.678   1.279   6.192
 9589SOL    HW229667   2.551   1.340   6.109
 9590SOL     OW29668   6.910   4.739   4.756
 9590SOL    HW129669   6.944   4.802   4.825
 9590SOL    HW229670   6.879   4.655   4.800
 9591SOL     OW29671   1.394   4.848   1.938
 9591SOL    HW129672   1.315   4.887   1.986
 9591SOL    HW229673   1.470   4.913   1.941
 9592SOL     OW29674   5.047   5.286   2.298
 9592SOL    HW129675   4.994   5.202   2.284
 9592SOL    HW229676   5.070   5.295   2.395
 9593SOL     OW29677   0.797   2.487   4.073
 9593SOL    HW129678   0.740   2.567   4.090
 9593SOL    HW229679   0.893   2.512   4.081
 9594SOL     OW29680   5.831   6.927   1.855
 9594SOL    HW129681   5.750   6.881   1.818
 9594SOL    HW229682   5.807   6.973   1.940
 9595SOL     OW29683   0.578   4.567   4.632
 9595SOL    HW129684   0.568   4.656   4.677
 9595SOL    HW229685   0.607   4.499   4.699
 9596SOL     OW29686   4.781   6.003   3.978
 9596SOL    HW129687   4.766   6.021   4.076
 9596SOL    HW229688   4.743   6.078   3.924
 9597SOL     OW29689   2.378   3.949   1.219
 9597SOL    HW129690   2.291   3.962   1.265
 9597SOL    HW229691   2.362   3.926   1.123
 9598SOL     OW29692   6.734   5.183   6.000
 9598SOL    HW129693   6.657   5.120   5.988
 9598SOL    HW229694   6.700   5.276   6.006
 9599SOL     OW29695   5.390   1.767   4.837
 9599SOL    HW129696   5.469   1.721   4.795
 9599SOL    HW229697   5.340   1.818   4.767
 9600SOL     OW29698   1.664   6.433   6.861
 9600SOL    HW129699   1.676   6.417   6.763
 9600SOL    HW229700   1.749   6.410   6.909
 9601SOL     OW29701   0.668   5.092   5.743
 9601SOL    HW129702   0.733   5.034   5.693
 9601SOL    HW229703   0.636   5.044   5.824
 9602SOL     OW29704   1.941   5.577   0.669
 9602SOL    HW129705   1.966   5.642   0.598
 9602SOL    HW229706   2.023   5.554   0.723
 9603SOL     OW29707   1.246   5.175   4.470
 9603SOL    HW129708   1.181   5.150   4.542
 9603SOL    HW229709   1.197   5.218   4.394
 9604SOL     OW29710   0.176   0.831   0.008
 9604SOL    HW129711   0.260   0.878   7.007
 9604SOL    HW229712   0.124   0.887   0.073
 9605SOL     OW29713   2.293   5.926   6.275
 9605SOL    HW129714   2.382   5.941   6.232
 9605SOL    HW229715   2.260   6.012   6.315
 9606SOL     OW29716   6.364   6.279   4.302
 9606SOL    HW129717   6.376   6.230   4.215
 9606SOL    HW229718   6.273   6.321   4.304
 9607SOL     OW29719   0.839   3.023   1.908
 9607SOL    HW129720   0.928   3.007   1.864
 9607SOL    HW229721   0.785   3.085   1.851
 9608SOL     OW29722   0.009   6.262   2.930
 9608SOL    HW129723   7.012   6.331   2.999
 9608SOL    HW229724   0.101   6.278   2.893
 9609SOL     OW29725   1.898   2.691   3.607
 9609SOL    HW129726   1.852   2.602   3.602
 9609SOL    HW229727   1.846   2.752   3.666
 9610SOL     OW29728   3.224   1.766   6.208
 9610SOL    HW129729   3.306   1.712   6.189
 9610SOL    HW229730   3.151   1.739   6.145
 9611SOL     OW29731   6.531   6.462   1.182
 9611SOL    HW129732   6.459   6.404   1.145
 9611SOL    HW229733   6.510   6.558   1.162
 9612SOL     OW29734   6.021   3.212   2.432
 9612SOL    HW129735   6.063   3.214   2.342
 9612SOL    HW229736   6.077   3.157   2.494
 9613SOL     OW29737   5.271   6.553   5.859
 9613SOL    HW129738   5.265   6.633   5.918
 9613SOL    HW229739   5.308   6.581   5.770
 9614SOL     OW29740   3.009   3.057   2.540
 9614SOL    HW129741   2.920   3.055   2.494
 9614SOL    HW229742   3.062   3.136   2.508
 9615SOL     OW29743   0.937   6.599   3.760
 9615SOL    HW129744   0.841   6.622   3.747
 9615SOL    HW229745   0.946   6.501   3.778
 9616SOL     OW29746   3.033   3.279   1.717
 9616SOL    HW129747   3.042   3.349   1.788
 9616SOL    HW229748   2.980   3.316   1.641
 9617SOL     OW29749   0.825   3.406   3.774
 9617SOL    HW129750   0.797   3.489   3.726
 9617SOL    HW229751   0.757   3.334   3.757
 9618SOL     OW29752   4.099   6.064   6.947
 9618SOL    HW129753   4.168   6.129   6.916
 9618SOL    HW229754   4.052   6.024   6.868
 9619SOL     OW29755   1.809   7.008   1.050
 9619SOL    HW129756   1.830   0.059   0.987
 9619SOL    HW229757   1.834   6.921   1.008
 9620SOL     OW29758   3.860   1.584   0.053
 9620SOL    HW129759   3.949   1.571   0.096
 9620SOL    HW229760   3.809   1.497   0.055
 9621SOL     OW29761   1.093   1.961   1.881
 9621SOL    HW129762   1.091   1.892   1.953
 9621SOL    HW229763   1.034   2.038   1.907
 9622SOL     OW29764   6.772   6.992   6.118
 9622SOL    HW129765   6.855   0.006   6.159
 9622SOL    HW229766   6.740   6.915   6.172
 9623SOL     OW29767   4.270   6.411   6.538
 9623SOL    HW129768   4.213   6.335   6.568
 9623SOL    HW229769   4.255   6.490   6.598
 9624SOL     OW29770   4.427   4.907   4.596
 9624SOL    HW129771   4.518   4.865   4.602
 9624SOL    HW229772   4.415   4.946   4.505
 9625SOL     OW29773   4.917   3.544   5.654
 9625SOL    HW129774   4.939   3.633   5.694
 9625SOL    HW229775   4.849   3.498   5.711
 9626SOL     OW29776   2.251   3.289   6.146
 9626SOL    HW129777   2.243   3.371   6.202
 9626SOL    HW229778   2.345   3.255   6.149
 9627SOL     OW29779   0.988   5.355   6.537
 9627SOL    HW129780   1.021   5.355   6.443
 9627SOL    HW229781   0.888   5.345   6.538
 9628SOL     OW29782   6.140   1.801   6.317
 9628SOL    HW129783   6.127   1.870   6.245
 9628SOL    HW229784   6.132   1.710   6.277
 9629SOL     OW29785   6.529   5.967   4.352
 9629SOL    HW129786   6.574   5.914   4.423
 9629SOL    HW229787   6.503   6.057   4.388
 9630SOL     OW29788   5.933   6.673   6.283
 9630SOL    HW129789   5.855   6.735   6.283
 9630SOL    HW229790   5.963   6.657   6.189
 9631SOL     OW29791   3.572   0.868   0.571
 9631SOL    HW129792   3.567   0.857   0.472
 9631SOL    HW229793   3.519   0.795   0.615
 9632SOL     OW29794   3.661   5.937   2.402
 9632SOL    HW129795   3.708   5.899   2.322
 9632SOL    HW229796   3.584   5.993   2.373
 9633SOL     OW29797   3.193   2.945   2.951
 9633SOL    HW129798   3.201   2.855   2.995
 9633SOL    HW229799   3.228   3.015   3.013
 9634SOL     OW29800   5.460   5.029   3.003
 9634SOL    HW129801   5.415   4.942   3.021
 9634SOL    HW229802   5.559   5.015   2.994
 9635SOL     OW29803   0.333   5.204   3.935
 9635SOL    HW129804   0.334   5.206   4.035
 9635SOL    HW229805   0.255   5.256   3.902
 9636SOL     OW29806   4.863   3.192   4.138
 9636SOL    HW129807   4.841   3.098   4.111
 9636SOL    HW229808   4.892   3.193   4.234
 9637SOL     OW29809   2.468   2.979   0.096
 9637SOL    HW129810   2.471   2.942   0.003
 9637SOL    HW229811   2.378   2.960   0.137
 9638SOL     OW29812   6.386   4.837   5.468
 9638SOL    HW129813   6.309   4.876   5.417
 9638SOL    HW229814   6.454   4.908   5.485
 9639SOL     OW29815   3.885   1.800   2.210
 9639SOL    HW129816   3.918   1.754   2.128
 9639SOL    HW229817   3.825   1.738   2.262
 9640SOL     OW29818   4.557   0.177   3.049
 9640SOL    HW129819   4.565   0.078   3.032
 9640SOL    HW229820   4.581   0.227   2.967
 9641SOL     OW29821   6.104   3.521   3.166
 9641SOL    HW129822   6.093   3.434   3.119
 9641SOL    HW229823   6.121   3.505   3.263
 9642SOL     OW29824   1.574   0.632   3.902
 9642SOL    HW129825   1.503   0.700   3.924
 9642SOL    HW229826   1.548   0.583   3.819
 9643SOL     OW29827   4.905   5.090   4.126
 9643SOL    HW129828   4.845   5.049   4.195
 9643SOL    HW229829   4.874   5.066   4.035
 9644SOL     OW29830   1.304   5.554   4.323
 9644SOL    HW129831   1.360   5.624   4.368
 9644SOL    HW229832   1.271   5.489   4.391
 9645SOL     OW29833   0.109   4.946   6.330
 9645SOL    HW129834   0.052   4.867   6.352
 9645SOL    HW229835   0.119   4.953   6.230
 9646SOL     OW29836   2.848   5.708   5.995
 9646SOL    HW129837   2.943   5.675   6.003
 9646SOL    HW229838   2.848   5.808   5.988
 9647SOL     OW29839   6.393   0.051   3.539
 9647SOL    HW129840   6.451   7.001   3.504
 9647SOL    HW229841   6.304   0.047   3.495
 9648SOL     OW29842   3.587   2.008   0.851
 9648SOL    HW129843   3.611   2.097   0.890
 9648SOL    HW229844   3.504   2.016   0.796
 9649SOL     OW29845   1.635   6.082   6.947
 9649SOL    HW129846   1.576   6.161   6.931
 9649SOL    HW229847   1.635   6.024   6.865
 9650SOL     OW29848   6.748   5.011   4.498
 9650SOL    HW129849   6.698   5.075   4.440
 9650SOL    HW229850   6.703   4.922   4.495
 9651SOL     OW29851   4.357   1.542   0.606
 9651SOL    HW129852   4.296   1.553   0.527
 9651SOL    HW229853   4.343   1.452   0.647
 9652SOL     OW29854   6.819   3.856   0.360
 9652SOL    HW129855   6.769   3.805   0.429
 9652SOL    HW229856   6.809   3.954   0.377
 9653SOL     OW29857   4.212   4.518   6.442
 9653SOL    HW129858   4.208   4.471   6.530
 9653SOL    HW229859   4.128   4.569   6.427
 9654SOL     OW29860   3.810   3.272   3.165
 9654SOL    HW129861   3.726   3.245   3.212
 9654SOL    HW229862   3.860   3.191   3.136
 9655SOL     OW29863   3.939   1.250   1.397
 9655SOL    HW129864   4.037   1.250   1.416
 9655SOL    HW229865   3.911   1.340   1.365
 9656SOL     OW29866   5.717   3.933   0.740
 9656SOL    HW129867   5.665   3.969   0.817
 9656SOL    HW229868   5.814   3.932   0.763
 9657SOL     OW29869   5.640   4.269   3.276
 9657SOL    HW129870   5.682   4.202   3.216
 9657SOL    HW229871   5.594   4.223   3.352
 9658SOL     OW29872   4.721   2.252   2.668
 9658SOL    HW129873   4.697   2.239   2.572
 9658SOL    HW229874   4.681   2.338   2.701
 9659SOL     OW29875   2.294   3.433   0.770
 9659SOL    HW129876   2.256   3.470   0.685
 9659SOL    HW229877   2.393   3.424   0.762
 9660SOL     OW29878   0.977   5.691   1.664
 9660SOL    HW129879   1.071   5.699   1.629
 9660SOL    HW229880   0.963   5.601   1.703
 9661SOL     OW29881   5.377   4.761   0.762
 9661SOL    HW129882   5.293   4.738   0.713
 9661SOL    HW229883   5.398   4.858   0.750
 9662SOL     OW29884   5.831   5.274   5.760
 9662SOL    HW129885   5.843   5.283   5.858
 9662SOL    HW229886   5.791   5.358   5.723
 9663SOL     OW29887   0.654   5.267   3.112
 9663SOL    HW129888   0.596   5.204   3.163
 9663SOL    HW229889   0.704   5.217   3.041
 9664SOL     OW29890   4.771   3.993   3.136
 9664SOL    HW129891   4.748   4.066   3.072
 9664SOL    HW229892   4.703   3.989   3.209
 9665SOL     OW29893   5.871   5.750   6.777
 9665SOL    HW129894   5.964   5.743   6.815
 9665SOL    HW229895   5.860   5.837   6.731
 9666SOL     OW29896   5.586   3.432   0.913
 9666SOL    HW129897   5.559   3.529   0.911
 9666SOL    HW229898   5.634   3.412   0.998
 9667SOL     OW29899   6.221   6.286   6.462
 9667SOL    HW129900   6.310   6.246   6.483
 9667SOL    HW229901   6.160   6.214   6.429
 9668SOL     OW29902   0.600   0.675   5.724
 9668SOL    HW129903   0.697   0.686   5.744
 9668SOL    HW229904   0.556   0.765   5.720
 9669SOL     OW29905   3.738   0.511   0.443
 9669SOL    HW129906   3.756   0.548   0.534
 9669SOL    HW229907   3.726   0.412   0.448
 9670SOL     OW29908   0.081   6.902   6.971
 9670SOL    HW129909   0.166   6.942   6.937
 9670SOL    HW229910   0.082   6.803   6.957
 9671SOL     OW29911   0.958   5.481   6.834
 9671SOL    HW129912   0.918   5.510   6.748
 9671SOL    HW229913   0.987   5.386   6.827
 9672SOL     OW29914   0.694   3.130   4.323
 9672SOL    HW129915   0.684   3.059   4.254
 9672SOL    HW229916   0.766   3.103   4.388
 9673SOL     OW29917   2.338   3.913   0.738
 9673SOL    HW129918   2.412   3.973   0.767
 9673SOL    HW229919   2.361   3.872   0.650
 9674SOL     OW29920   2.698   6.006   4.446
 9674SOL    HW129921   2.769   5.962   4.390
 9674SOL    HW229922   2.608   5.986   4.408
 9675SOL     OW29923   4.817   3.354   0.772
 9675SOL    HW129924   4.893   3.364   0.708
 9675SOL    HW229925   4.782   3.444   0.799
 9676SOL     OW29926   0.427   3.064   6.629
 9676SOL    HW129927   0.492   3.118   6.576
 9676SOL    HW229928   0.472   3.029   6.711
 9677SOL     OW29929   6.693   5.321   0.888
 9677SOL    HW129930   6.683   5.258   0.965
 9677SOL    HW229931   6.633   5.292   0.813
 9678SOL     OW29932   3.771   3.460   5.061
 9678SOL    HW129933   3.823   3.540   5.089
 9678SOL    HW229934   3.752   3.465   4.963
 9679SOL     OW29935   1.888   1.952   4.511
 9679SOL    HW129936   1.954   1.986   4.444
 9679SOL    HW229937   1.909   1.857   4.534
 9680SOL     OW29938   4.732   5.625   2.401
 9680SOL    HW129939   4.683   5.689   2.459
 9680SOL    HW229940   4.669   5.590   2.331
 9681SOL     OW29941   1.682   1.658   2.634
 9681SOL    HW129942   1.723   1.748   2.651
 9681SOL    HW229943   1.590   1.670   2.596
 9682SOL     OW29944   5.045   5.322   5.412
 9682SOL    HW129945   4.951   5.348   5.390
 9682SOL    HW229946   5.048   5.224   5.429
 9683SOL     OW29947   3.168   6.428   1.767
 9683SOL    HW129948   3.088   6.456   1.820
 9683SOL    HW229949   3.152   6.337   1.727
 9684SOL     OW29950   0.507   3.498   5.686
 9684SOL    HW129951   0.522   3.563   5.761
 9684SOL    HW229952   0.594   3.456   5.661
 9685SOL     OW29953   3.974   4.361   1.669
 9685SOL    HW129954   4.063   4.316   1.674
 9685SOL    HW229955   3.914   4.311   1.607
 9686SOL     OW29956   6.788   1.770   5.644
 9686SOL    HW129957   6.719   1.699   5.654
 9686SOL    HW229958   6.869   1.746   5.698
 9687SOL     OW29959   5.880   1.186   2.282
 9687SOL    HW129960   5.850   1.114   2.344
 9687SOL    HW229961   5.895   1.271   2.332
 9688SOL     OW29962   6.790   4.520   1.206
 9688SOL    HW129963   6.836   4.608   1.193
 9688SOL    HW229964   6.857   4.450   1.227
 9689SOL     OW29965   1.737   6.208   0.906
 9689SOL    HW129966   1.637   6.214   0.901
 9689SOL    HW229967   1.776   6.300   0.901
 9690SOL     OW29968   6.294   5.092   5.082
 9690SOL    HW129969   6.228   5.165   5.092
 9690SOL    HW229970   6.384   5.131   5.059
 9691SOL     OW29971   3.237   4.016   1.962
 9691SOL    HW129972   3.165   4.029   1.893
 9691SOL    HW229973   3.318   4.067   1.935
 9692SOL     OW29974   5.173   5.115   1.409
 9692SOL    HW129975   5.155   5.108   1.508
 9692SOL    HW229976   5.086   5.126   1.360
 9693SOL     OW29977   5.490   3.871   4.653
 9693SOL    HW129978   5.507   3.827   4.741
 9693SOL    HW229979   5.525   3.812   4.579
 9694SOL     OW29980   3.625   6.659   2.318
 9694SOL    HW129981   3.533   6.630   2.340
 9694SOL    HW229982   3.691   6.593   2.355
 9695SOL     OW29983   0.916   2.026   3.472
 9695SOL    HW129984   0.841   1.971   3.434
 9695SOL    HW229985   1.002   1.994   3.434
 9696SOL     OW29986   5.906   2.357   2.302
 9696SOL    HW129987   5.834   2.424   2.320
 9696SOL    HW229988   5.951   2.380   2.216
 9697SOL     OW29989   1.456   6.488   0.672
 9697SOL    HW129990   1.521   6.516   0.602
 9697SOL    HW229991   1.488   6.521   0.761
 9698SOL     OW29992   5.706   3.347   1.155
 9698SOL    HW129993   5.673   3.421   1.213
 9698SOL    HW229994   5.660   3.262   1.178
 9699SOL     OW29995   1.546   5.725   1.087
 9699SOL    HW129996   1.476   5.736   1.017
 9699SOL    HW229997   1.630   5.691   1.045
 9700SOL     OW29998   5.289   0.293   5.311
 9700SOL    HW129999   5.194   0.322   5.299
 9700SOL    HW230000   5.295   0.194   5.299
 9701SOL     OW30001   4.492   3.420   6.290
 9701SOL    HW130002   4.429   3.344   6.271
 9701SOL    HW230003   4.518   3.464   6.203
 9702SOL     OW30004   3.781   3.443   1.357
 9702SOL    HW130005   3.858   3.497   1.392
 9702SOL    HW230006   3.816   3.369   1.300
 9703SOL     OW30007   0.062   4.370   4.363
 9703SOL    HW130008   0.043   4.382   4.460
 9703SOL    HW230009   0.011   4.291   4.328
 9704SOL     OW30010   2.144   4.268   2.502
 9704SOL    HW130011   2.233   4.302   2.471
 9704SOL    HW230012   2.135   4.171   2.476
 9705SOL     OW30013   6.305   3.237   5.743
 9705SOL    HW130014   6.266   3.158   5.696
 9705SOL    HW230015   6.339   3.208   5.833
 9706SOL     OW30016   1.166   1.413   2.309
 9706SOL    HW130017   1.127   1.485   2.366
 9706SOL    HW230018   1.204   1.453   2.226
 9707SOL     OW30019   0.719   5.356   2.493
 9707SOL    HW130020   0.761   5.265   2.490
 9707SOL    HW230021   0.763   5.416   2.427
 9708SOL     OW30022   2.558   0.349   2.676
 9708SOL    HW130023   2.472   0.329   2.629
 9708SOL    HW230024   2.559   0.444   2.705
 9709SOL     OW30025   5.202   2.090   1.563
 9709SOL    HW130026   5.185   2.023   1.490
 9709SOL    HW230027   5.301   2.095   1.580
 9710SOL     OW30028   6.486   5.500   3.769
 9710SOL    HW130029   6.515   5.433   3.700
 9710SOL    HW230030   6.561   5.517   3.833
 9711SOL     OW30031   4.169   0.371   0.219
 9711SOL    HW130032   4.088   0.407   0.264
 9711SOL    HW230033   4.177   0.411   0.128
 9712SOL     OW30034   5.618   1.659   0.089
 9712SOL    HW130035   5.704   1.666   0.140
 9712SOL    HW230036   5.614   1.731   0.019
 9713SOL     OW30037   1.072   6.521   3.488
 9713SOL    HW130038   1.064   6.588   3.414
 9713SOL    HW230039   1.018   6.551   3.566
 9714SOL     OW30040   2.215   4.698   4.667
 9714SOL    HW130041   2.271   4.632   4.617
 9714SOL    HW230042   2.125   4.659   4.685
 9715SOL     OW30043   6.230   3.610   0.071
 9715SOL    HW130044   6.317   3.562   0.069
 9715SOL    HW230045   6.201   3.630   7.001
 9716SOL     OW30046   2.478   5.000   6.595
 9716SOL    HW130047   2.527   4.924   6.638
 9716SOL    HW230048   2.380   4.990   6.613
 9717SOL     OW30049   4.056   1.538   5.551
 9717SOL    HW130050   4.119   1.539   5.628
 9717SOL    HW230051   4.104   1.569   5.468
 9718SOL     OW30052   3.434   3.030   0.183
 9718SOL    HW130053   3.343   2.998   0.208
 9718SOL    HW230054   3.426   3.111   0.125
 9719SOL     OW30055   4.549   6.498   5.241
 9719SOL    HW130056   4.462   6.520   5.198
 9719SOL    HW230057   4.608   6.579   5.240
 9720SOL     OW30058   2.191   3.838   3.484
 9720SOL    HW130059   2.214   3.825   3.388
 9720SOL    HW230060   2.214   3.931   3.512
 9721SOL     OW30061   1.063   1.439   0.602
 9721SOL    HW130062   1.156   1.473   0.589
 9721SOL    HW230063   1.057   1.386   0.686
 9722SOL     OW30064   3.928   2.952   5.197
 9722SOL    HW130065   4.009   2.922   5.248
 9722SOL    HW230066   3.929   3.052   5.190
 9723SOL     OW30067   6.391   6.128   4.757
 9723SOL    HW130068   6.309   6.185   4.749
 9723SOL    HW230069   6.368   6.033   4.735
 9724SOL     OW30070   1.549   5.285   6.881
 9724SOL    HW130071   1.549   5.359   6.949
 9724SOL    HW230072   1.611   5.213   6.912
 9725SOL     OW30073   3.541   5.264   5.399
 9725SOL    HW130074   3.482   5.316   5.460
 9725SOL    HW230075   3.507   5.170   5.391
 9726SOL     OW30076   6.264   1.901   4.318
 9726SOL    HW130077   6.294   1.907   4.223
 9726SOL    HW230078   6.339   1.929   4.378
 9727SOL     OW30079   0.752   1.211   0.216
 9727SOL    HW130080   0.708   1.249   0.135
 9727SOL    HW230081   0.746   1.276   0.291
 9728SOL     OW30082   4.626   0.799   5.580
 9728SOL    HW130083   4.595   0.704   5.581
 9728SOL    HW230084   4.652   0.827   5.672
 9729SOL     OW30085   0.349   4.927   3.351
 9729SOL    HW130086   0.339   5.022   3.382
 9729SOL    HW230087   0.288   4.868   3.404
 9730SOL     OW30088   6.973   4.031   3.201
 9730SOL    HW130089   6.988   3.981   3.116
 9730SOL    HW230090   6.909   4.107   3.183
 9731SOL     OW30091   4.920   3.361   2.155
 9731SOL    HW130092   4.906   3.455   2.122
 9731SOL    HW230093   4.980   3.364   2.235
 9732SOL     OW30094   1.512   2.768   2.753
 9732SOL    HW130095   1.450   2.692   2.734
 9732SOL    HW230096   1.598   2.754   2.705
 9733SOL     OW30097   6.962   4.710   2.340
 9733SOL    HW130098   6.877   4.756   2.366
 9733SOL    HW230099   6.996   4.748   2.254
 9734SOL     OW30100   6.235   5.975   6.231
 9734SOL    HW130101   6.147   5.948   6.269
 9734SOL    HW230102   6.220   6.039   6.155
 9735SOL     OW30103   1.204   2.756   1.904
 9735SOL    HW130104   1.147   2.728   1.827
 9735SOL    HW230105   1.205   2.856   1.909
 9736SOL     OW30106   4.991   2.063   5.092
 9736SOL    HW130107   4.919   2.086   5.026
 9736SOL    HW230108   5.061   2.134   5.091
 9737SOL     OW30109   5.889   2.716   2.338
 9737SOL    HW130110   5.840   2.746   2.420
 9737SOL    HW230111   5.833   2.649   2.289
 9738SOL     OW30112   1.958   5.782   2.022
 9738SOL    HW130113   1.949   5.810   1.926
 9738SOL    HW230114   1.923   5.689   2.031
 9739SOL     OW30115   5.803   6.993   0.113
 9739SOL    HW130116   5.852   6.989   0.027
 9739SOL    HW230117   5.778   6.900   0.142
 9740SOL     OW30118   6.566   0.826   2.227
 9740SOL    HW130119   6.655   0.792   2.258
 9740SOL    HW230120   6.530   0.767   2.155
 9741SOL     OW30121   2.530   1.434   4.414
 9741SOL    HW130122   2.570   1.435   4.506
 9741SOL    HW230123   2.583   1.493   4.354
 9742SOL     OW30124   4.010   2.062   6.240
 9742SOL    HW130125   3.994   2.110   6.154
 9742SOL    HW230126   3.927   2.013   6.267
 9743SOL     OW30127   6.034   3.355   3.989
 9743SOL    HW130128   5.993   3.269   4.020
 9743SOL    HW230129   5.967   3.429   3.998
 9744SOL     OW30130   1.752   0.423   3.940
 9744SOL    HW130131   1.760   0.427   4.040
 9744SOL    HW230132   1.708   0.506   3.907
 9745SOL     OW30133   6.623   1.007   5.463
 9745SOL    HW130134   6.722   0.993   5.461
 9745SOL    HW230135   6.603   1.094   5.508
 9746SOL     OW30136   4.145   5.517   6.347
 9746SOL    HW130137   4.141   5.427   6.390
 9746SOL    HW230138   4.190   5.509   6.258
 9747SOL     OW30139   2.482   2.204   2.812
 9747SOL    HW130140   2.412   2.262   2.769
 9747SOL    HW230141   2.556   2.262   2.847
 9748SOL     OW30142   1.188   0.770   3.354
 9748SOL    HW130143   1.157   0.850   3.303
 9748SOL    HW230144   1.157   0.687   3.307
 9749SOL     OW30145   6.886   1.239   2.086
 9749SOL    HW130146   6.946   1.277   2.157
 9749SOL    HW230147   6.791   1.257   2.111
 9750SOL     OW30148   6.991   4.570   3.871
 9750SOL    HW130149   7.001   4.471   3.872
 9750SOL    HW230150   6.941   4.599   3.952
 9751SOL     OW30151   2.863   0.789   1.415
 9751SOL    HW130152   2.925   0.758   1.344
 9751SOL    HW230153   2.794   0.719   1.433
 9752SOL     OW30154   3.087   3.148   0.277
 9752SOL    HW130155   3.112   3.052   0.265
 9752SOL    HW230156   3.108   3.177   0.370
 9753SOL     OW30157   6.627   5.795   4.546
 9753SOL    HW130158   6.661   5.855   4.618
 9753SOL    HW230159   6.695   5.724   4.526
 9754SOL     OW30160   3.201   1.148   1.179
 9754SOL    HW130161   3.101   1.147   1.178
 9754SOL    HW230162   3.235   1.183   1.092
 9755SOL     OW30163   2.967   4.294   6.309
 9755SOL    HW130164   2.919   4.246   6.236
 9755SOL    HW230165   3.063   4.267   6.309
 9756SOL     OW30166   6.022   0.136   6.225
 9756SOL    HW130167   5.985   0.196   6.297
 9756SOL    HW230168   6.083   0.190   6.166
 9757SOL     OW30169   5.326   4.017   3.735
 9757SOL    HW130170   5.297   4.109   3.711
 9757SOL    HW230171   5.290   3.952   3.669
 9758SOL     OW30172   1.678   0.613   1.424
 9758SOL    HW130173   1.650   0.703   1.457
 9758SOL    HW230174   1.777   0.612   1.411
 9759SOL     OW30175   0.087   1.176   0.869
 9759SOL    HW130176   0.075   1.078   0.881
 9759SOL    HW230177   0.079   1.199   0.772
 9760SOL     OW30178   4.684   1.918   6.947
 9760SOL    HW130179   4.614   1.847   6.943
 9760SOL    HW230180   4.702   1.942   0.019
 9761SOL     OW30181   1.337   2.251   1.363
 9761SOL    HW130182   1.249   2.220   1.327
 9761SOL    HW230183   1.359   2.341   1.326
 9762SOL     OW30184   2.512   1.465   5.436
 9762SOL    HW130185   2.455   1.516   5.501
 9762SOL    HW230186   2.453   1.421   5.368
 9763SOL     OW30187   5.999   1.155   0.877
 9763SOL    HW130188   5.972   1.218   0.949
 9763SOL    HW230189   5.920   1.136   0.818
 9764SOL     OW30190   6.027   2.302   1.902
 9764SOL    HW130191   6.066   2.217   1.866
 9764SOL    HW230192   6.101   2.367   1.920
 9765SOL     OW30193   6.463   0.557   1.504
 9765SOL    HW130194   6.535   0.611   1.548
 9765SOL    HW230195   6.388   0.617   1.478
 9766SOL     OW30196   2.125   1.329   4.318
 9766SOL    HW130197   2.109   1.234   4.342
 9766SOL    HW230198   2.189   1.370   4.383
 9767SOL     OW30199   2.197   3.221   5.866
 9767SOL    HW130200   2.268   3.224   5.936
 9767SOL    HW230201   2.154   3.310   5.858
 9768SOL     OW30202   6.197   2.687   1.259
 9768SOL    HW130203   6.161   2.645   1.176
 9768SOL    HW230204   6.130   2.677   1.333
 9769SOL     OW30205   2.892   1.913   4.845
 9769SOL    HW130206   2.814   1.959   4.803
 9769SOL    HW230207   2.923   1.966   4.924
 9770SOL     OW30208   3.158   2.169   6.016
 9770SOL    HW130209   3.092   2.171   6.091
 9770SOL    HW230210   3.229   2.237   6.032
 9771SOL     OW30211   3.282   5.996   3.240
 9771SOL    HW130212   3.358   6.037   3.190
 9771SOL    HW230213   3.226   5.942   3.176
 9772SOL     OW30214   1.174   6.750   1.482
 9772SOL    HW130215   1.114   6.671   1.470
 9772SOL    HW230216   1.131   6.816   1.544
 9773SOL     OW30217   4.856   4.699   1.914
 9773SOL    HW130218   4.786   4.713   1.845
 9773SOL    HW230219   4.919   4.627   1.884
 9774SOL     OW30220   0.762   5.424   4.732
 9774SOL    HW130221   0.725   5.388   4.817
 9774SOL    HW230222   0.754   5.355   4.660
 9775SOL     OW30223   2.024   1.382   3.753
 9775SOL    HW130224   2.052   1.290   3.724
 9775SOL    HW230225   2.016   1.384   3.853
 9776SOL     OW30226   1.513   6.088   6.650
 9776SOL    HW130227   1.603   6.130   6.644
 9776SOL    HW230228   1.513   6.000   6.602
 9777SOL     OW30229   4.590   0.635   5.856
 9777SOL    HW130230   4.535   0.633   5.772
 9777SOL    HW230231   4.538   0.595   5.931
 9778SOL     OW30232   0.155   3.016   4.092
 9778SOL    HW130233   0.147   3.057   4.183
 9778SOL    HW230234   0.077   3.043   4.036
 9779SOL     OW30235   1.726   1.079   3.877
 9779SOL    HW130236   1.784   1.160   3.879
 9779SOL    HW230237   1.655   1.088   3.947
 9780SOL     OW30238   1.629   2.702   1.794
 9780SOL    HW130239   1.576   2.691   1.710
 9780SOL    HW230240   1.609   2.791   1.834
 9781SOL     OW30241   1.954   2.482   3.356
 9781SOL    HW130242   1.904   2.563   3.325
 9781SOL    HW230243   1.907   2.443   3.435
 9782SOL     OW30244   6.953   2.455   1.268
 9782SOL    HW130245   6.909   2.416   1.187
 9782SOL    HW230246   0.025   2.475   1.247
 9783SOL     OW30247   3.491   1.725   2.929
 9783SOL    HW130248   3.449   1.758   3.014
 9783SOL    HW230249   3.435   1.651   2.892
 9784SOL     OW30250   2.071   1.432   6.692
 9784SOL    HW130251   2.148   1.479   6.734
 9784SOL    HW230252   1.986   1.477   6.720
 9785SOL     OW30253   0.429   2.682   4.224
 9785SOL    HW130254   0.417   2.711   4.319
 9785SOL    HW230255   0.343   2.694   4.175
 9786SOL     OW30256   2.437   4.513   1.372
 9786SOL    HW130257   2.494   4.441   1.413
 9786SOL    HW230258   2.349   4.516   1.419
 9787SOL     OW30259   3.648   3.218   2.828
 9787SOL    HW130260   3.604   3.136   2.791
 9787SOL    HW230261   3.638   3.219   2.927
 9788SOL     OW30262   6.059   6.935   1.328
 9788SOL    HW130263   6.031   6.999   1.398
 9788SOL    HW230264   5.987   6.926   1.259
 9789SOL     OW30265   3.774   0.582   6.779
 9789SOL    HW130266   3.789   0.514   6.851
 9789SOL    HW230267   3.843   0.571   6.708
 9790SOL     OW30268   0.298   4.488   4.271
 9790SOL    HW130269   0.382   4.433   4.273
 9790SOL    HW230270   0.220   4.430   4.295
 9791SOL     OW30271   1.440   6.550   0.952
 9791SOL    HW130272   1.404   6.640   0.974
 9791SOL    HW230273   1.374   6.480   0.978
 9792SOL     OW30274   4.140   6.067   1.069
 9792SOL    HW130275   4.198   6.051   1.149
 9792SOL    HW230276   4.047   6.085   1.099
 9793SOL     OW30277   4.818   1.712   3.492
 9793SOL    HW130278   4.885   1.694   3.564
 9793SOL    HW230279   4.826   1.808   3.463
 9794SOL     OW30280   4.836   4.507   4.725
 9794SOL    HW130281   4.799   4.415   4.733
 9794SOL    HW230282   4.927   4.511   4.766
 9795SOL     OW30283   1.345   3.339   3.546
 9795SOL    HW130284   1.410   3.389   3.489
 9795SOL    HW230285   1.359   3.363   3.642
 9796SOL     OW30286   3.209   3.562   3.535
 9796SOL    HW130287   3.168   3.571   3.444
 9796SOL    HW230288   3.288   3.622   3.542
 9797SOL     OW30289   3.245   6.194   6.690
 9797SOL    HW130290   3.273   6.210   6.785
 9797SOL    HW230291   3.203   6.104   6.682
 9798SOL     OW30292   0.907   3.546   0.290
 9798SOL    HW130293   0.867   3.528   0.379
 9798SOL    HW230294   0.850   3.505   0.219
 9799SOL     OW30295   2.798   6.668   6.731
 9799SOL    HW130296   2.718   6.630   6.685
 9799SOL    HW230297   2.881   6.634   6.687
 9800SOL     OW30298   6.180   3.573   4.926
 9800SOL    HW130299   6.108   3.555   4.994
 9800SOL    HW230300   6.255   3.509   4.939
 9801SOL     OW30301   6.174   5.765   6.861
 9801SOL    HW130302   6.184   5.733   6.955
 9801SOL    HW230303   6.252   5.732   6.807
 9802SOL     OW30304   4.340   4.682   0.721
 9802SOL    HW130305   4.319   4.585   0.718
 9802SOL    HW230306   4.436   4.696   0.746
 9803SOL     OW30307   0.390   3.918   6.777
 9803SOL    HW130308   0.313   3.888   6.833
 9803SOL    HW230309   0.358   3.941   6.685
 9804SOL     OW30310   0.248   5.242   2.365
 9804SOL    HW130311   0.333   5.292   2.383
 9804SOL    HW230312   0.212   5.205   2.451
 9805SOL     OW30313   0.930   6.336   3.810
 9805SOL    HW130314   1.024   6.315   3.837
 9805SOL    HW230315   0.892   6.260   3.757
 9806SOL     OW30316   3.355   2.569   5.985
 9806SOL    HW130317   3.440   2.621   5.997
 9806SOL    HW230318   3.373   2.472   6.001
 9807SOL     OW30319   3.151   3.807   2.397
 9807SOL    HW130320   3.173   3.904   2.406
 9807SOL    HW230321   3.111   3.791   2.307
 9808SOL     OW30322   4.708   6.300   3.524
 9808SOL    HW130323   4.680   6.393   3.547
 9808SOL    HW230324   4.805   6.299   3.498
 9809SOL     OW30325   0.092   3.084   0.722
 9809SOL    HW130326   0.109   3.054   0.816
 9809SOL    HW230327   0.063   3.180   0.723
 9810SOL     OW30328   2.529   1.523   6.372
 9810SOL    HW130329   2.622   1.531   6.407
 9810SOL    HW230330   2.525   1.450   6.304
 9811SOL     OW30331   6.308   3.951   3.875
 9811SOL    HW130332   6.215   3.988   3.880
 9811SOL    HW230333   6.373   4.025   3.861
 9812SOL     OW30334   2.902   5.869   4.977
 9812SOL    HW130335   2.841   5.819   4.916
 9812SOL    HW230336   2.958   5.804   5.028
 9813SOL     OW30337   4.749   2.471   1.166
 9813SOL    HW130338   4.789   2.380   1.158
 9813SOL    HW230339   4.675   2.481   1.099
 9814SOL     OW30340   5.846   1.160   0.214
 9814SOL    HW130341   5.856   1.230   0.144
 9814SOL    HW230342   5.806   1.078   0.174
 9815SOL     OW30343   4.196   2.255   4.736
 9815SOL    HW130344   4.187   2.351   4.710
 9815SOL    HW230345   4.271   2.213   4.685
 9816SOL     OW30346   1.518   0.179   0.462
 9816SOL    HW130347   1.459   0.106   0.428
 9816SOL    HW230348   1.612   0.164   0.429
 9817SOL     OW30349   0.120   6.894   3.415
 9817SOL    HW130350   0.026   6.865   3.432
 9817SOL    HW230351   0.138   6.980   3.462
 9818SOL     OW30352   6.289   2.814   4.789
 9818SOL    HW130353   6.369   2.866   4.817
 9818SOL    HW230354   6.317   2.726   4.751
 9819SOL     OW30355   4.138   1.829   3.411
 9819SOL    HW130356   4.178   1.760   3.352
 9819SOL    HW230357   4.074   1.786   3.475
 9820SOL     OW30358   4.010   4.407   5.944
 9820SOL    HW130359   3.922   4.360   5.942
 9820SOL    HW230360   4.084   4.340   5.951
 9821SOL     OW30361   5.291   6.071   6.740
 9821SOL    HW130362   5.284   6.164   6.778
 9821SOL    HW230363   5.256   6.005   6.806
 9822SOL     OW30364   0.970   0.138   3.195
 9822SOL    HW130365   0.997   0.189   3.277
 9822SOL    HW230366   0.882   0.094   3.211
 9823SOL     OW30367   3.522   0.801   1.746
 9823SOL    HW130368   3.568   0.886   1.720
 9823SOL    HW230369   3.509   0.744   1.664
 9824SOL     OW30370   1.545   4.319   5.016
 9824SOL    HW130371   1.568   4.417   5.009
 9824SOL    HW230372   1.607   4.267   4.957
 9825SOL     OW30373   3.692   4.927   5.559
 9825SOL    HW130374   3.611   4.900   5.612
 9825SOL    HW230375   3.764   4.959   5.621
 9826SOL     OW30376   4.762   6.705   6.121
 9826SOL    HW130377   4.771   6.665   6.212
 9826SOL    HW230378   4.833   6.668   6.061
 9827SOL     OW30379   1.157   3.948   4.898
 9827SOL    HW130380   1.218   4.008   4.847
 9827SOL    HW230381   1.203   3.915   4.981
 9828SOL     OW30382   4.395   2.406   0.474
 9828SOL    HW130383   4.473   2.468   0.477
 9828SOL    HW230384   4.345   2.420   0.388
 9829SOL     OW30385   2.464   5.928   6.805
 9829SOL    HW130386   2.450   5.830   6.818
 9829SOL    HW230387   2.397   5.979   6.858
 9830SOL     OW30388   5.864   1.074   1.420
 9830SOL    HW130389   5.798   1.018   1.470
 9830SOL    HW230390   5.844   1.069   1.322
 9831SOL     OW30391   0.766   6.578   1.665
 9831SOL    HW130392   0.749   6.668   1.624
 9831SOL    HW230393   0.864   6.558   1.662
 9832SOL     OW30394   4.615   5.123   1.694
 9832SOL    HW130395   4.600   5.125   1.793
 9832SOL    HW230396   4.587   5.035   1.657
 9833SOL     OW30397   3.563   4.334   5.243
 9833SOL    HW130398   3.516   4.385   5.315
 9833SOL    HW230399   3.497   4.294   5.181
 9834SOL     OW30400   1.454   4.148   5.427
 9834SOL    HW130401   1.530   4.150   5.492
 9834SOL    HW230402   1.402   4.233   5.434
 9835SOL     OW30403   5.459   1.390   4.239
 9835SOL    HW130404   5.457   1.481   4.281
 9835SOL    HW230405   5.368   1.365   4.209
 9836SOL     OW30406   5.573   4.256   2.972
 9836SOL    HW130407   5.535   4.318   2.903
 9836SOL    HW230408   5.499   4.207   3.018
 9837SOL     OW30409   2.237   6.562   4.007
 9837SOL    HW130410   2.227   6.488   4.073
 9837SOL    HW230411   2.193   6.536   3.921
 9838SOL     OW30412   0.380   6.518   6.380
 9838SOL    HW130413   0.411   6.432   6.419
 9838SOL    HW230414   0.449   6.589   6.397
 9839SOL     OW30415   6.232   1.601   1.537
 9839SOL    HW130416   6.246   1.666   1.462
 9839SOL    HW230417   6.136   1.574   1.540
 9840SOL     OW30418   0.600   0.465   0.933
 9840SOL    HW130419   0.508   0.499   0.912
 9840SOL    HW230420   0.668   0.526   0.894
 9841SOL     OW30421   1.244   4.053   4.606
 9841SOL    HW130422   1.276   4.119   4.674
 9841SOL    HW230423   1.267   4.085   4.515
 9842SOL     OW30424   3.164   3.083   3.371
 9842SOL    HW130425   3.224   3.003   3.365
 9842SOL    HW230426   3.208   3.154   3.425
 9843SOL     OW30427   7.006   1.884   1.434
 9843SOL    HW130428   0.049   1.891   1.508
 9843SOL    HW230429   7.010   1.792   1.395
 9844SOL     OW30430   5.034   6.892   2.516
 9844SOL    HW130431   5.009   6.956   2.589
 9844SOL    HW230432   5.099   6.935   2.454
 9845SOL     OW30433   2.211   1.788   4.355
 9845SOL    HW130434   2.246   1.875   4.322
 9845SOL    HW230435   2.180   1.797   4.449
 9846SOL     OW30436   2.929   3.754   3.524
 9846SOL    HW130437   2.855   3.795   3.471
 9846SOL    HW230438   2.936   3.657   3.502
 9847SOL     OW30439   2.272   3.065   6.776
 9847SOL    HW130440   2.259   3.140   6.841
 9847SOL    HW230441   2.247   2.978   6.820
 9848SOL     OW30442   4.670   2.712   6.583
 9848SOL    HW130443   4.753   2.664   6.555
 9848SOL    HW230444   4.695   2.799   6.626
 9849SOL     OW30445   6.698   6.994   6.923
 9849SOL    HW130446   6.662   7.018   6.833
 9849SOL    HW230447   6.624   6.958   6.980
 9850SOL     OW30448   4.621   6.796   2.652
 9850SOL    HW130449   4.599   6.757   2.741
 9850SOL    HW230450   4.713   6.768   2.625
 9851SOL     OW30451   4.879   2.119   5.465
 9851SOL    HW130452   4.940   2.044   5.439
 9851SOL    HW230453   4.788   2.082   5.485
 9852SOL     OW30454   4.597   2.286   3.560
 9852SOL    HW130455   4.568   2.241   3.645
 9852SOL    HW230456   4.583   2.224   3.483
 9853SOL     OW30457   5.546   4.299   1.964
 9853SOL    HW130458   5.531   4.394   1.990
 9853SOL    HW230459   5.461   4.260   1.929
 9854SOL     OW30460   5.776   5.731   4.559
 9854SOL    HW130461   5.812   5.745   4.467
 9854SOL    HW230462   5.680   5.759   4.562
 9855SOL     OW30463   1.063   4.392   0.810
 9855SOL    HW130464   1.039   4.426   0.901
 9855SOL    HW230465   1.067   4.292   0.811
 9856SOL     OW30466   3.848   3.754   0.944
 9856SOL    HW130467   3.811   3.668   0.907
 9856SOL    HW230468   3.935   3.736   0.989
 9857SOL     OW30469   5.546   2.324   2.999
 9857SOL    HW130470   5.577   2.374   2.919
 9857SOL    HW230471   5.502   2.239   2.970
 9858SOL     OW30472   4.969   0.969   2.087
 9858SOL    HW130473   4.873   0.960   2.061
 9858SOL    HW230474   5.004   0.879   2.114
 9859SOL     OW30475   6.058   0.606   1.213
 9859SOL    HW130476   6.138   0.643   1.167
 9859SOL    HW230477   6.007   0.547   1.151
 9860SOL     OW30478   0.466   0.925   1.332
 9860SOL    HW130479   0.445   0.884   1.420
 9860SOL    HW230480   0.433   0.867   1.258
 9861SOL     OW30481   3.759   6.044   4.701
 9861SOL    HW130482   3.729   6.123   4.755
 9861SOL    HW230483   3.851   6.061   4.666
 9862SOL     OW30484   2.605   3.467   0.752
 9862SOL    HW130485   2.582   3.418   0.668
 9862SOL    HW230486   2.701   3.494   0.750
 9863SOL     OW30487   3.796   0.100   2.804
 9863SOL    HW130488   3.858   0.085   2.882
 9863SOL    HW230489   3.705   0.125   2.838
 9864SOL     OW30490   4.611   5.339   3.754
 9864SOL    HW130491   4.534   5.279   3.734
 9864SOL    HW230492   4.634   5.333   3.851
 9865SOL     OW30493   0.528   0.070   3.551
 9865SOL    HW130494   0.467   0.083   3.472
 9865SOL    HW230495   0.591   0.147   3.558
 9866SOL     OW30496   4.839   3.966   4.580
 9866SOL    HW130497   4.842   3.869   4.605
 9866SOL    HW230498   4.888   4.019   4.649
 9867SOL     OW30499   4.119   1.567   0.907
 9867SOL    HW130500   4.068   1.601   0.828
 9867SOL    HW230501   4.095   1.471   0.923
 9868SOL     OW30502   0.414   4.592   6.754
 9868SOL    HW130503   0.479   4.668   6.749
 9868SOL    HW230504   0.329   4.618   6.708
 9869SOL     OW30505   1.565   3.888   3.425
 9869SOL    HW130506   1.656   3.851   3.403
 9869SOL    HW230507   1.496   3.822   3.395
 9870SOL     OW30508   4.806   5.636   3.003
 9870SOL    HW130509   4.746   5.580   3.060
 9870SOL    HW230510   4.897   5.596   3.001
 9871SOL     OW30511   1.717   0.582   5.969
 9871SOL    HW130512   1.659   0.569   6.049
 9871SOL    HW230513   1.659   0.584   5.887
 9872SOL     OW30514   2.735   5.043   2.881
 9872SOL    HW130515   2.750   5.119   2.944
 9872SOL    HW230516   2.638   5.038   2.856
 9873SOL     OW30517   2.210   3.030   0.487
 9873SOL    HW130518   2.257   2.989   0.408
 9873SOL    HW230519   2.265   3.016   0.569
 9874SOL     OW30520   0.554   2.129   3.616
 9874SOL    HW130521   0.506   2.150   3.701
 9874SOL    HW230522   0.512   2.050   3.572
 9875SOL     OW30523   0.365   0.849   2.217
 9875SOL    HW130524   0.433   0.921   2.203
 9875SOL    HW230525   0.403   0.780   2.279
 9876SOL     OW30526   6.077   0.517   1.953
 9876SOL    HW130527   6.079   0.614   1.973
 9876SOL    HW230528   6.060   0.465   2.037
 9877SOL     OW30529   3.178   6.511   2.486
 9877SOL    HW130530   3.275   6.500   2.464
 9877SOL    HW230531   3.124   6.501   2.402
 9878SOL     OW30532   1.993   5.510   6.347
 9878SOL    HW130533   1.989   5.598   6.299
 9878SOL    HW230534   2.041   5.443   6.290
 9879SOL     OW30535   5.140   5.434   4.720
 9879SOL    HW130536   5.220   5.406   4.667
 9879SOL    HW230537   5.147   5.399   4.814
 9880SOL     OW30538   1.656   2.778   5.222
 9880SOL    HW130539   1.575   2.820   5.263
 9880SOL    HW230540   1.738   2.827   5.252
 9881SOL     OW30541   1.412   2.417   4.696
 9881SOL    HW130542   1.454   2.451   4.612
 9881SOL    HW230543   1.473   2.434   4.774
 9882SOL     OW30544   0.785   2.204   3.966
 9882SOL    HW130545   0.693   2.167   3.968
 9882SOL    HW230546   0.798   2.265   4.045
 9883SOL     OW30547   1.529   0.327   1.519
 9883SOL    HW130548   1.600   0.268   1.557
 9883SOL    HW230549   1.506   0.296   1.427
 9884SOL     OW30550   4.309   1.376   3.467
 9884SOL    HW130551   4.393   1.322   3.462
 9884SOL    HW230552   4.250   1.354   3.389
 9885SOL     OW30553   6.492   4.465   4.823
 9885SOL    HW130554   6.536   4.424   4.903
 9885SOL    HW230555   6.433   4.397   4.779
 9886SOL     OW30556   0.793   5.050   2.317
 9886SOL    HW130557   0.707   5.025   2.271
 9886SOL    HW230558   0.858   5.083   2.249
 9887SOL     OW30559   3.995   0.970   0.439
 9887SOL    HW130560   3.971   1.053   0.389
 9887SOL    HW230561   3.997   0.893   0.376
 9888SOL     OW30562   6.946   3.939   0.688
 9888SOL    HW130563   6.900   3.995   0.757
 9888SOL    HW230564   6.975   3.998   0.612
 9889SOL     OW30565   6.510   5.044   0.819
 9889SOL    HW130566   6.546   5.080   0.732
 9889SOL    HW230567   6.465   5.118   0.869
 9890SOL     OW30568   1.512   2.277   0.827
 9890SOL    HW130569   1.541   2.274   0.923
 9890SOL    HW230570   1.466   2.192   0.802
 9891SOL     OW30571   5.933   2.619   0.763
 9891SOL    HW130572   6.012   2.598   0.705
 9891SOL    HW230573   5.888   2.534   0.789
 9892SOL     OW30574   6.746   5.496   0.316
 9892SOL    HW130575   6.682   5.547   0.373
 9892SOL    HW230576   6.821   5.462   0.372
 9893SOL     OW30577   1.643   0.920   0.649
 9893SOL    HW130578   1.591   0.953   0.571
 9893SOL    HW230579   1.583   0.869   0.710
 9894SOL     OW30580   2.059   2.058   1.189
 9894SOL    HW130581   2.077   2.133   1.126
 9894SOL    HW230582   2.061   2.092   1.283
 9895SOL     OW30583   5.480   3.803   5.265
 9895SOL    HW130584   5.449   3.896   5.283
 9895SOL    HW230585   5.575   3.792   5.295
 9896SOL     OW30586   6.044   6.700   6.949
 9896SOL    HW130587   5.995   6.783   6.921
 9896SOL    HW230588   6.129   6.693   6.896
 9897SOL     OW30589   5.531   6.012   3.095
 9897SOL    HW130590   5.484   6.055   3.018
 9897SOL    HW230591   5.479   6.029   3.179
 9898SOL     OW30592   2.476   6.503   5.994
 9898SOL    HW130593   2.420   6.581   6.021
 9898SOL    HW230594   2.571   6.533   5.978
 9899SOL     OW30595   0.048   5.728   0.507
 9899SOL    HW130596   6.999   5.782   0.465
 9899SOL    HW230597   0.132   5.738   0.454
 9900SOL     OW30598   1.420   3.673   3.328
 9900SOL    HW130599   1.331   3.649   3.367
 9900SOL    HW230600   1.406   3.729   3.246
 9901SOL     OW30601   2.911   2.189   5.639
 9901SOL    HW130602   2.847   2.237   5.579
 9901SOL    HW230603   2.912   2.234   5.729
 9902SOL     OW30604   2.596   4.832   6.766
 9902SOL    HW130605   2.543   4.878   6.837
 9902SOL    HW230606   2.625   4.742   6.799
 9903SOL     OW30607   4.902   1.582   2.712
 9903SOL    HW130608   4.849   1.664   2.692
 9903SOL    HW230609   4.969   1.603   2.784
 9904SOL     OW30610   1.217   2.980   6.597
 9904SOL    HW130611   1.142   3.044   6.613
 9904SOL    HW230612   1.225   2.961   6.499
 9905SOL     OW30613   3.239   0.993   0.003
 9905SOL    HW130614   3.268   1.080   0.043
 9905SOL    HW230615   3.298   0.971   6.949
 9906SOL     OW30616   3.282   2.937   2.604
 9906SOL    HW130617   3.230   2.893   2.677
 9906SOL    HW230618   3.221   2.957   2.527
 9907SOL     OW30619   6.601   0.828   0.998
 9907SOL    HW130620   6.671   0.879   0.948
 9907SOL    HW230621   6.639   0.742   1.031
 9908SOL     OW30622   5.081   2.135   3.238
 9908SOL    HW130623   5.094   2.233   3.257
 9908SOL    HW230624   4.995   2.105   3.280
 9909SOL     OW30625   3.779   6.820   3.894
 9909SOL    HW130626   3.843   6.743   3.898
 9909SOL    HW230627   3.830   6.906   3.904
 9910SOL     OW30628   1.029   3.857   2.336
 9910SOL    HW130629   1.086   3.882   2.414
 9910SOL    HW230630   0.958   3.926   2.323
 9911SOL     OW30631   3.980   6.829   2.129
 9911SOL    HW130632   4.055   6.893   2.148
 9911SOL    HW230633   3.897   6.880   2.107
 9912SOL     OW30634   4.008   2.137   1.068
 9912SOL    HW130635   4.103   2.164   1.083
 9912SOL    HW230636   3.947   2.202   1.114
 9913SOL     OW30637   5.968   3.891   0.355
 9913SOL    HW130638   5.881   3.936   0.336
 9913SOL    HW230639   5.959   3.834   0.437
 9914SOL     OW30640   6.755   3.609   4.550
 9914SOL    HW130641   6.816   3.653   4.483
 9914SOL    HW230642   6.707   3.533   4.506
 9915SOL     OW30643   4.392   1.029   3.057
 9915SOL    HW130644   4.360   1.080   2.977
 9915SOL    HW230645   4.455   0.957   3.028
 9916SOL     OW30646   2.286   2.801   3.411
 9916SOL    HW130647   2.291   2.889   3.363
 9916SOL    HW230648   2.190   2.771   3.416
 9917SOL     OW30649   5.971   3.597   6.914
 9917SOL    HW130650   5.874   3.597   6.892
 9917SOL    HW230651   5.984   3.585   7.012
 9918SOL     OW30652   3.660   1.867   2.716
 9918SOL    HW130653   3.641   1.874   2.618
 9918SOL    HW230654   3.599   1.800   2.758
 9919SOL     OW30655   6.189   5.413   1.694
 9919SOL    HW130656   6.257   5.487   1.693
 9919SOL    HW230657   6.106   5.445   1.649
 9920SOL     OW30658   4.677   1.589   1.828
 9920SOL    HW130659   4.616   1.560   1.902
 9920SOL    HW230660   4.769   1.552   1.845
 9921SOL     OW30661   4.106   5.804   5.935
 9921SOL    HW130662   4.192   5.853   5.950
 9921SOL    HW230663   4.035   5.845   5.992
 9922SOL     OW30664   1.366   5.022   0.254
 9922SOL    HW130665   1.378   5.113   0.216
 9922SOL    HW230666   1.422   5.012   0.336
 9923SOL     OW30667   4.889   4.689   6.309
 9923SOL    HW130668   4.851   4.724   6.223
 9923SOL    HW230669   4.933   4.602   6.293
 9924SOL     OW30670   0.493   2.304   4.595
 9924SOL    HW130671   0.470   2.393   4.634
 9924SOL    HW230672   0.518   2.316   4.498
 9925SOL     OW30673   6.840   4.290   4.149
 9925SOL    HW130674   6.915   4.226   4.135
 9925SOL    HW230675   6.873   4.383   4.137
 9926SOL     OW30676   2.710   3.694   0.429
 9926SOL    HW130677   2.807   3.669   0.438
 9926SOL    HW230678   2.696   3.742   0.342
 9927SOL     OW30679   5.881   0.034   2.387
 9927SOL    HW130680   5.789   0.057   2.358
 9927SOL    HW230681   5.917   6.983   2.331
 9928SOL     OW30682   4.863   5.233   1.859
 9928SOL    HW130683   4.818   5.205   1.775
 9928SOL    HW230684   4.950   5.184   1.869
 9929SOL     OW30685   1.855   5.584   5.269
 9929SOL    HW130686   1.904   5.618   5.349
 9929SOL    HW230687   1.767   5.631   5.261
 9930SOL     OW30688   6.195   0.707   4.815
 9930SOL    HW130689   6.176   0.651   4.734
 9930SOL    HW230690   6.288   0.745   4.807
 9931SOL     OW30691   0.885   4.789   5.232
 9931SOL    HW130692   0.920   4.698   5.255
 9931SOL    HW230693   0.799   4.780   5.183
 9932SOL     OW30694   1.926   6.102   6.538
 9932SOL    HW130695   2.015   6.072   6.502
 9932SOL    HW230696   1.855   6.038   6.508
 9933SOL     OW30697   1.816   4.461   2.705
 9933SOL    HW130698   1.762   4.380   2.684
 9933SOL    HW230699   1.768   4.516   2.774
 9934SOL     OW30700   6.109   1.915   5.733
 9934SOL    HW130701   6.151   1.857   5.802
 9934SOL    HW230702   6.015   1.885   5.716
 9935SOL     OW30703   2.780   0.769   0.124
 9935SOL    HW130704   2.712   0.840   0.105
 9935SOL    HW230705   2.867   0.811   0.148
 9936SOL     OW30706   6.572   4.920   4.798
 9936SOL    HW130707   6.521   4.836   4.779
 9936SOL    HW230708   6.649   4.926   4.734
 9937SOL     OW30709   6.508   2.474   5.621
 9937SOL    HW130710   6.545   2.477   5.714
 9937SOL    HW230711   6.496   2.568   5.587
 9938SOL     OW30712   6.518   5.640   3.306
 9938SOL    HW130713   6.599   5.580   3.308
 9938SOL    HW230714   6.483   5.651   3.399
 9939SOL     OW30715   3.354   2.625   0.739
 9939SOL    HW130716   3.343   2.566   0.819
 9939SOL    HW230717   3.382   2.717   0.769
 9940SOL     OW30718   0.581   0.850   1.020
 9940SOL    HW130719   0.533   0.783   1.077
 9940SOL    HW230720   0.665   0.810   0.985
 9941SOL     OW30721   3.134   4.039   5.327
 9941SOL    HW130722   3.062   4.044   5.396
 9941SOL    HW230723   3.094   4.013   5.239
 9942SOL     OW30724   2.206   6.042   2.569
 9942SOL    HW130725   2.112   6.072   2.557
 9942SOL    HW230726   2.216   5.948   2.536
 9943SOL     OW30727   0.033   5.762   5.904
 9943SOL    HW130728   0.089   5.844   5.921
 9943SOL    HW230729   0.018   5.752   5.805
 9944SOL     OW30730   2.023   4.112   6.564
 9944SOL    HW130731   1.956   4.157   6.624
 9944SOL    HW230732   2.058   4.179   6.498
 9945SOL     OW30733   6.465   5.177   6.884
 9945SOL    HW130734   6.416   5.125   6.954
 9945SOL    HW230735   6.560   5.192   6.913
 9946SOL     OW30736   5.089   1.512   5.230
 9946SOL    HW130737   5.017   1.502   5.299
 9946SOL    HW230738   5.091   1.607   5.198
 9947SOL     OW30739   0.207   4.168   6.169
 9947SOL    HW130740   0.229   4.209   6.080
 9947SOL    HW230741   0.286   4.176   6.230
 9948SOL     OW30742   4.782   5.011   4.392
 9948SOL    HW130743   4.748   4.917   4.395
 9948SOL    HW230744   4.855   5.022   4.460
 9949SOL     OW30745   5.533   4.790   4.020
 9949SOL    HW130746   5.443   4.823   3.993
 9949SOL    HW230747   5.580   4.753   3.940
 9950SOL     OW30748   5.746   6.166   5.442
 9950SOL    HW130749   5.692   6.094   5.397
 9950SOL    HW230750   5.805   6.124   5.511
 9951SOL     OW30751   6.581   1.948   3.630
 9951SOL    HW130752   6.640   2.022   3.598
 9951SOL    HW230753   6.591   1.868   3.570
 9952SOL     OW30754   6.287   3.859   1.034
 9952SOL    HW130755   6.322   3.916   0.960
 9952SOL    HW230756   6.361   3.835   1.097
 9953SOL     OW30757   6.400   2.638   4.036
 9953SOL    HW130758   6.427   2.734   4.028
 9953SOL    HW230759   6.346   2.625   4.119
 9954SOL     OW30760   5.834   6.133   6.169
 9954SOL    HW130761   5.854   6.049   6.219
 9954SOL    HW230762   5.742   6.126   6.128
 9955SOL     OW30763   6.554   4.429   4.529
 9955SOL    HW130764   6.568   4.429   4.430
 9955SOL    HW230765   6.565   4.336   4.564
 9956SOL     OW30766   2.371   0.110   1.730
 9956SOL    HW130767   2.338   0.016   1.722
 9956SOL    HW230768   2.419   0.136   1.646
 9957SOL     OW30769   5.913   5.552   2.615
 9957SOL    HW130770   5.866   5.528   2.530
 9957SOL    HW230771   5.853   5.534   2.693
 9958SOL     OW30772   3.765   5.620   0.201
 9958SOL    HW130773   3.847   5.677   0.212
 9958SOL    HW230774   3.789   5.524   0.220
 9959SOL     OW30775   4.034   3.743   5.943
 9959SOL    HW130776   4.072   3.715   5.855
 9959SOL    HW230777   4.066   3.835   5.965
 9960SOL     OW30778   6.673   0.234   2.278
 9960SOL    HW130779   6.581   0.227   2.241
 9960SOL    HW230780   6.695   0.149   2.328
 9961SOL     OW30781   1.817   5.958   4.297
 9961SOL    HW130782   1.789   5.943   4.202
 9961SOL    HW230783   1.799   5.875   4.350
 9962SOL     OW30784   6.106   0.011   3.501
 9962SOL    HW130785   6.133   0.019   3.597
 9962SOL    HW230786   6.055   6.950   3.488
 9963SOL     OW30787   3.345   2.663   0.424
 9963SOL    HW130788   3.346   2.613   0.338
 9963SOL    HW230789   3.412   2.622   0.487
 9964SOL     OW30790   5.109   5.656   4.556
 9964SOL    HW130791   5.107   5.573   4.613
 9964SOL    HW230792   5.171   5.723   4.597
 9965SOL     OW30793   4.362   6.742   6.920
 9965SOL    HW130794   4.448   6.724   6.871
 9965SOL    HW230795   4.383   6.785   7.008
 9966SOL     OW30796   1.467   5.247   1.675
 9966SOL    HW130797   1.434   5.222   1.584
 9966SOL    HW230798   1.496   5.165   1.724
 9967SOL     OW30799   0.548   5.650   2.301
 9967SOL    HW130800   0.579   5.742   2.323
 9967SOL    HW230801   0.457   5.655   2.260
 9968SOL     OW30802   3.431   3.945   2.324
 9968SOL    HW130803   3.361   4.002   2.366
 9968SOL    HW230804   3.492   4.003   2.268
 9969SOL     OW30805   1.384   3.941   2.708
 9969SOL    HW130806   1.338   3.920   2.622
 9969SOL    HW230807   1.480   3.912   2.703
 9970SOL     OW30808   5.031   4.051   1.478
 9970SOL    HW130809   5.041   4.151   1.478
 9970SOL    HW230810   5.119   4.008   1.497
 9971SOL     OW30811   1.400   4.870   1.173
 9971SOL    HW130812   1.318   4.927   1.177
 9971SOL    HW230813   1.374   4.774   1.178
 9972SOL     OW30814   6.083   3.851   1.992
 9972SOL    HW130815   6.004   3.901   2.027
 9972SOL    HW230816   6.051   3.776   1.934
 9973SOL     OW30817   5.328   1.793   3.451
 9973SOL    HW130818   5.381   1.722   3.498
 9973SOL    HW230819   5.345   1.788   3.353
 9974SOL     OW30820   1.031   1.545   2.948
 9974SOL    HW130821   1.038   1.481   3.025
 9974SOL    HW230822   0.987   1.629   2.979
 9975SOL     OW30823   6.632   2.783   0.601
 9975SOL    HW130824   6.692   2.751   0.528
 9975SOL    HW230825   6.647   2.881   0.616
 9976SOL     OW30826   0.647   6.525   5.536
 9976SOL    HW130827   0.612   6.595   5.598
 9976SOL    HW230828   0.746   6.519   5.546
 9977SOL     OW30829   5.867   5.154   5.278
 9977SOL    HW130830   5.867   5.094   5.357
 9977SOL    HW230831   5.820   5.109   5.202
 9978SOL     OW30832   0.486   2.281   5.100
 9978SOL    HW130833   0.431   2.348   5.149
 9978SOL    HW230834   0.557   2.245   5.161
 9979SOL     OW30835   6.017   4.695   4.963
 9979SOL    HW130836   6.103   4.648   4.940
 9979SOL    HW230837   5.976   4.733   4.880
 9980SOL     OW30838   2.753   0.146   6.740
 9980SOL    HW130839   2.838   0.142   6.793
 9980SOL    HW230840   2.728   0.054   6.710
 9981SOL     OW30841   3.224   1.659   3.089
 9981SOL    HW130842   3.183   1.579   3.133
 9981SOL    HW230843   3.241   1.640   2.993
 9982SOL     OW30844   6.660   5.879   3.546
 9982SOL    HW130845   6.634   5.963   3.497
 9982SOL    HW230846   6.578   5.825   3.565
 9983SOL     OW30847   7.010   1.434   2.563
 9983SOL    HW130848   0.051   1.504   2.532
 9983SOL    HW230849   6.951   1.473   2.635
 9984SOL     OW30850   2.170   2.162   6.576
 9984SOL    HW130851   2.202   2.083   6.629
 9984SOL    HW230852   2.117   2.223   6.636
 9985SOL     OW30853   2.235   0.856   1.880
 9985SOL    HW130854   2.160   0.921   1.874
 9985SOL    HW230855   2.217   0.792   1.955
 9986SOL     OW30856   5.523   4.405   5.181
 9986SOL    HW130857   5.447   4.402   5.246
 9986SOL    HW230858   5.609   4.399   5.231
 9987SOL     OW30859   5.603   3.300   5.929
 9987SOL    HW130860   5.614   3.366   6.003
 9987SOL    HW230861   5.691   3.283   5.886
 9988SOL     OW30862   6.529   6.922   4.871
 9988SOL    HW130863   6.597   6.886   4.935
 9988SOL    HW230864   6.439   6.922   4.914
 9989SOL     OW30865   6.797   3.061   4.450
 9989SOL    HW130866   6.716   3.047   4.393
 9989SOL    HW230867   6.875   3.085   4.392
 9990SOL     OW30868   1.739   5.144   3.447
 9990SOL    HW130869   1.782   5.183   3.528
 9990SOL    HW230870   1.726   5.217   3.379
 9991SOL     OW30871   3.102   1.936   4.356
 9991SOL    HW130872   3.046   1.984   4.425
 9991SOL    HW230873   3.135   2.002   4.288
 9992SOL     OW30874   5.852   4.851   6.373
 9992SOL    HW130875   5.792   4.826   6.449
 9992SOL    HW230876   5.805   4.834   6.286
 9993SOL     OW30877   2.351   1.640   1.232
 9993SOL    HW130878   2.279   1.595   1.286
 9993SOL    HW230879   2.439   1.631   1.280
 9994SOL     OW30880   5.943   4.637   3.161
 9994SOL    HW130881   5.888   4.658   3.080
 9994SOL    HW230882   5.952   4.538   3.171
 9995SOL     OW30883   5.298   1.643   4.025
 9995SOL    HW130884   5.344   1.633   3.937
 9995SOL    HW230885   5.290   1.554   4.070
 9996SOL     OW30886   2.800   4.266   6.837
 9996SOL    HW130887   2.836   4.267   6.743
 9996SOL    HW230888   2.723   4.202   6.842
 9997SOL     OW30889   3.146   1.802   5.687
 9997SOL    HW130890   3.182   1.871   5.749
 9997SOL    HW230891   3.132   1.716   5.737
 9998SOL     OW30892   6.090   5.267   5.174
 9998SOL    HW130893   6.131   5.299   5.259
 9998SOL    HW230894   6.010   5.210   5.196
 9999SOL     OW30895   5.869   2.562   5.541
 9999SOL    HW130896   5.770   2.553   5.531
 9999SOL    HW230897   5.908   2.592   5.454
10000SOL     OW30898   0.115   2.564   0.359
10000SOL    HW130899   0.143   2.501   0.432
10000SOL    HW230900   0.111   2.658   0.395
10001SOL     OW30901   4.609   1.098   1.786
10001SOL    HW130902   4.695   1.148   1.777
10001SOL    HW230903   4.532   1.162   1.779
10002SOL     OW30904   1.249   6.500   1.928
10002SOL    HW130905   1.299   6.525   1.845
10002SOL    HW230906   1.299   6.531   2.008
10003SOL     OW30907   3.703   1.988   3.370
10003SOL    HW130908   3.673   1.893   3.382
10003SOL    HW230909   3.801   1.989   3.349
10004SOL     OW30910   0.172   2.144   3.442
10004SOL    HW130911   0.166   2.244   3.434
10004SOL    HW230912   0.157   2.117   3.536
10005SOL     OW30913   5.212   0.589   2.959
10005SOL    HW130914   5.248   0.534   3.035
10005SOL    HW230915   5.246   0.552   2.872
10006SOL     OW30916   4.009   6.940   4.612
10006SOL    HW130917   4.003   0.013   4.589
10006SOL    HW230918   3.917   6.899   4.609
10007SOL     OW30919   0.539   3.351   4.678
10007SOL    HW130920   0.545   3.313   4.771
10007SOL    HW230921   0.444   3.350   4.648
10008SOL     OW30922   3.499   0.410   4.717
10008SOL    HW130923   3.542   0.345   4.654
10008SOL    HW230924   3.505   0.502   4.679
10009SOL     OW30925   2.231   4.041   1.963
10009SOL    HW130926   2.241   4.136   1.931
10009SOL    HW230927   2.252   3.979   1.888
10010SOL     OW30928   2.248   0.911   6.979
10010SOL    HW130929   2.259   0.932   6.882
10010SOL    HW230930   2.335   0.924   0.002
10011SOL     OW30931   6.479   6.732   5.189
10011SOL    HW130932   6.529   6.817   5.175
10011SOL    HW230933   6.513   6.662   5.125
10012SOL     OW30934   5.866   1.439   3.920
10012SOL    HW130935   5.774   1.458   3.956
10012SOL    HW230936   5.902   1.522   3.877
10013SOL     OW30937   0.080   0.320   2.607
10013SOL    HW130938   0.111   0.355   2.696
10013SOL    HW230939   0.160   0.290   2.555
10014SOL     OW30940   0.836   3.908   6.440
10014SOL    HW130941   0.770   3.947   6.505
10014SOL    HW230942   0.804   3.922   6.347
10015SOL     OW30943   2.585   4.643   0.068
10015SOL    HW130944   2.532   4.726   0.052
10015SOL    HW230945   2.650   4.658   0.143
10016SOL     OW30946   2.363   1.366   6.537
10016SOL    HW130947   2.263   1.367   6.535
10016SOL    HW230948   2.399   1.423   6.463
10017SOL     OW30949   2.649   2.110   4.313
10017SOL    HW130950   2.670   2.152   4.401
10017SOL    HW230951   2.695   2.161   4.240
10018SOL     OW30952   5.266   0.521   5.701
10018SOL    HW130953   5.315   0.441   5.736
10018SOL    HW230954   5.279   0.598   5.763
10019SOL     OW30955   1.256   0.570   2.989
10019SOL    HW130956   1.231   0.493   3.049
10019SOL    HW230957   1.316   0.632   3.039
10020SOL     OW30958   1.235   2.934   1.405
10020SOL    HW130959   1.165   2.890   1.462
10020SOL    HW230960   1.288   2.997   1.461
10021SOL     OW30961   0.094   3.460   1.160
10021SOL    HW130962   0.071   3.517   1.081
10021SOL    HW230963   0.096   3.364   1.131
10022SOL     OW30964   1.554   2.077   6.670
10022SOL    HW130965   1.521   2.010   6.604
10022SOL    HW230966   1.499   2.160   6.663
10023SOL     OW30967   6.144   3.705   0.820
10023SOL    HW130968   6.099   3.625   0.859
10023SOL    HW230969   6.131   3.784   0.881
10024SOL     OW30970   1.586   4.242   3.955
10024SOL    HW130971   1.581   4.237   3.856
10024SOL    HW230972   1.505   4.290   3.990
10025SOL     OW30973   2.076   0.888   1.621
10025SOL    HW130974   2.044   0.867   1.529
10025SOL    HW230975   2.129   0.973   1.620
10026SOL     OW30976   5.898   0.778   2.978
10026SOL    HW130977   5.911   0.688   2.937
10026SOL    HW230978   5.969   0.794   3.046
10027SOL     OW30979   5.974   3.576   5.093
10027SOL    HW130980   6.030   3.531   5.163
10027SOL    HW230981   5.880   3.542   5.099
10028SOL     OW30982   2.012   1.183   0.572
10028SOL    HW130983   1.925   1.226   0.593
10028SOL    HW230984   2.086   1.238   0.611
10029SOL     OW30985   5.614   1.813   3.290
10029SOL    HW130986   5.580   1.906   3.274
10029SOL    HW230987   5.587   1.754   3.214
10030SOL     OW30988   1.404   0.199   4.089
10030SOL    HW130989   1.464   0.233   4.161
10030SOL    HW230990   1.317   0.247   4.092
10031SOL     OW30991   5.983   4.501   3.527
10031SOL    HW130992   5.923   4.468   3.454
10031SOL    HW230993   6.022   4.423   3.576
10032SOL     OW30994   2.688   1.601   5.084
10032SOL    HW130995   2.726   1.689   5.113
10032SOL    HW230996   2.756   1.529   5.099
10033SOL     OW30997   5.658   3.257   4.260
10033SOL    HW130998   5.676   3.185   4.326
10033SOL    HW230999   5.607   3.331   4.304
10034SOL     OW31000   4.581   0.150   5.406
10034SOL    HW131001   4.645   0.164   5.482
10034SOL    HW231002   4.598   0.218   5.335
10035SOL     OW31003   6.896   4.774   1.179
10035SOL    HW131004   6.862   4.801   1.269
10035SOL    HW231005   6.841   4.820   1.109
10036SOL     OW31006   6.828   1.738   6.938
10036SOL    HW131007   6.792   1.807   7.000
10036SOL    HW231008   6.892   1.679   6.987
10037SOL     OW31009   0.316   0.435   6.808
10037SOL    HW131010   0.320   0.428   6.708
10037SOL    HW231011   0.221   0.435   6.838
10038SOL     OW31012   6.560   0.060   1.139
10038SOL    HW131013   6.463   0.037   1.134
10038SOL    HW231014   6.598   0.026   1.225
10039SOL     OW31015   3.782   0.389   4.071
10039SOL    HW131016   3.778   0.407   3.972
10039SOL    HW231017   3.764   0.474   4.121
10040SOL     OW31018   0.014   3.191   1.173
10040SOL    HW131019   7.009   3.217   1.266
10040SOL    HW231020   6.962   3.143   1.127
10041SOL     OW31021   2.500   6.528   0.181
10041SOL    HW131022   2.428   6.528   0.250
10041SOL    HW231023   2.485   6.604   0.117
10042SOL     OW31024   6.600   2.014   2.581
10042SOL    HW131025   6.527   2.044   2.519
10042SOL    HW231026   6.569   2.024   2.675
10043SOL     OW31027   6.984   1.670   5.801
10043SOL    HW131028   7.003   1.576   5.830
10043SOL    HW231029   0.041   1.726   5.814
10044SOL     OW31030   3.194   2.367   5.582
10044SOL    HW131031   3.146   2.336   5.499
10044SOL    HW231032   3.138   2.347   5.662
10045SOL     OW31033   3.521   1.030   0.843
10045SOL    HW131034   3.547   0.946   0.796
10045SOL    HW231035   3.579   1.105   0.810
10046SOL     OW31036   1.771   5.522   1.635
10046SOL    HW131037   1.782   5.506   1.733
10046SOL    HW231038   1.738   5.439   1.591
10047SOL     OW31039   0.165   3.127   6.882
10047SOL    HW131040   0.199   3.149   6.973
10047SOL    HW231041   0.205   3.188   6.814
10048SOL     OW31042   6.038   6.357   2.946
10048SOL    HW131043   5.983   6.274   2.954
10048SOL    HW231044   6.097   6.350   2.866
10049SOL     OW31045   0.073   1.149   5.357
10049SOL    HW131046   0.136   1.112   5.425
10049SOL    HW231047   7.005   1.153   5.395
10050SOL     OW31048   6.184   3.137   6.137
10050SOL    HW131049   6.186   3.146   6.236
10050SOL    HW231050   6.094   3.167   6.103
10051SOL     OW31051   1.222   3.512   4.192
10051SOL    HW131052   1.175   3.566   4.262
10051SOL    HW231053   1.158   3.445   4.153
10052SOL     OW31054   1.429   0.103   2.929
10052SOL    HW131055   1.365   0.136   2.860
10052SOL    HW231056   1.403   0.011   2.957
10053SOL     OW31057   5.439   5.647   4.723
10053SOL    HW131058   5.466   5.556   4.753
10053SOL    HW231059   5.474   5.663   4.630
10054SOL     OW31060   6.026   4.109   4.662
10054SOL    HW131061   6.021   4.124   4.761
10054SOL    HW231062   6.036   4.198   4.615
10055SOL     OW31063   0.598   1.736   6.325
10055SOL    HW131064   0.514   1.791   6.329
10055SOL    HW231065   0.671   1.789   6.284
10056SOL     OW31066   6.349   2.494   3.802
10056SOL    HW131067   6.255   2.510   3.771
10056SOL    HW231068   6.373   2.562   3.871
10057SOL     OW31069   5.661   4.766   5.617
10057SOL    HW131070   5.736   4.823   5.649
10057SOL    HW231071   5.660   4.680   5.669
10058SOL     OW31072   6.600   3.814   5.402
10058SOL    HW131073   6.520   3.771   5.443
10058SOL    HW231074   6.677   3.750   5.400
10059SOL     OW31075   6.838   0.599   6.834
10059SOL    HW131076   6.742   0.580   6.813
10059SOL    HW231077   6.881   0.517   6.872
10060SOL     OW31078   2.353   2.326   2.390
10060SOL    HW131079   2.371   2.297   2.484
10060SOL    HW231080   2.439   2.344   2.344
10061SOL     OW31081   3.955   0.195   2.606
10061SOL    HW131082   3.886   0.158   2.669
10061SOL    HW231083   3.995   0.277   2.645
10062SOL     OW31084   5.979   0.652   4.382
10062SOL    HW131085   5.923   0.715   4.436
10062SOL    HW231086   6.026   0.588   4.444
10063SOL     OW31087   1.471   2.985   5.373
10063SOL    HW131088   1.507   2.959   5.463
10063SOL    HW231089   1.419   3.070   5.380
10064SOL     OW31090   2.629   6.597   0.559
10064SOL    HW131091   2.626   6.577   0.657
10064SOL    HW231092   2.675   6.522   0.512
10065SOL     OW31093   1.139   1.739   2.081
10065SOL    HW131094   1.132   1.781   2.172
10065SOL    HW231095   1.172   1.645   2.091
10066SOL     OW31096   6.134   3.423   3.433
10066SOL    HW131097   6.043   3.389   3.453
10066SOL    HW231098   6.200   3.348   3.436
10067SOL     OW31099   6.627   2.578   5.313
10067SOL    HW131100   6.668   2.545   5.399
10067SOL    HW231101   6.698   2.621   5.257
10068SOL     OW31102   1.979   2.876   2.709
10068SOL    HW131103   2.028   2.794   2.740
10068SOL    HW231104   2.043   2.953   2.703
10069SOL     OW31105   2.990   5.468   0.902
10069SOL    HW131106   2.942   5.478   0.989
10069SOL    HW231107   3.080   5.512   0.908
10070SOL     OW31108   3.854   6.534   6.047
10070SOL    HW131109   3.929   6.475   6.075
10070SOL    HW231110   3.768   6.500   6.085
10071SOL     OW31111   6.399   0.213   3.950
10071SOL    HW131112   6.443   0.275   4.014
10071SOL    HW231113   6.425   0.237   3.857
10072SOL     OW31114   6.594   3.047   1.745
10072SOL    HW131115   6.624   3.116   1.679
10072SOL    HW231116   6.587   3.087   1.836
10073SOL     OW31117   6.900   4.563   4.140
10073SOL    HW131118   6.825   4.627   4.128
10073SOL    HW231119   6.981   4.612   4.171
10074SOL     OW31120   1.540   4.959   0.037
10074SOL    HW131121   1.623   4.996   0.078
10074SOL    HW231122   1.464   4.967   0.102
10075SOL     OW31123   1.790   3.572   1.724
10075SOL    HW131124   1.860   3.541   1.788
10075SOL    HW231125   1.700   3.569   1.768
10076SOL     OW31126   4.868   5.684   4.405
10076SOL    HW131127   4.954   5.714   4.445
10076SOL    HW231128   4.866   5.585   4.398
10077SOL     OW31129   5.260   3.240   6.197
10077SOL    HW131130   5.247   3.335   6.171
10077SOL    HW231131   5.246   3.181   6.117
10078SOL     OW31132   6.422   6.354   5.106
10078SOL    HW131133   6.370   6.281   5.150
10078SOL    HW231134   6.375   6.385   5.024
10079SOL     OW31135   4.638   2.680   3.481
10079SOL    HW131136   4.655   2.763   3.429
10079SOL    HW231137   4.692   2.605   3.443
10080SOL     OW31138   4.652   0.938   5.843
10080SOL    HW131139   4.746   0.960   5.867
10080SOL    HW231140   4.629   0.847   5.877
10081SOL     OW31141   2.016   3.815   1.002
10081SOL    HW131142   2.018   3.859   0.912
10081SOL    HW231143   1.977   3.723   0.993
10082SOL     OW31144   1.603   4.432   0.775
10082SOL    HW131145   1.503   4.422   0.772
10082SOL    HW231146   1.644   4.375   0.704
10083SOL     OW31147   3.469   4.964   3.279
10083SOL    HW131148   3.450   5.058   3.250
10083SOL    HW231149   3.498   4.964   3.375
10084SOL     OW31150   1.378   1.207   4.699
10084SOL    HW131151   1.319   1.284   4.675
10084SOL    HW231152   1.373   1.137   4.629
10085SOL     OW31153   5.099   6.970   0.515
10085SOL    HW131154   5.060   0.039   0.517
10085SOL    HW231155   5.184   6.968   0.567
10086SOL     OW31156   6.806   6.404   3.579
10086SOL    HW131157   6.855   6.419   3.665
10086SOL    HW231158   6.819   6.309   3.550
10087SOL     OW31159   1.276   6.789   5.982
10087SOL    HW131160   1.302   6.819   5.890
10087SOL    HW231161   1.274   6.689   5.986
10088SOL     OW31162   0.309   2.693   0.148
10088SOL    HW131163   0.368   2.742   0.084
10088SOL    HW231164   0.224   2.746   0.161
10089SOL     OW31165   3.600   1.933   1.660
10089SOL    HW131166   3.567   1.998   1.728
10089SOL    HW231167   3.525   1.908   1.599
10090SOL     OW31168   2.732   5.763   3.202
10090SOL    HW131169   2.672   5.832   3.159
10090SOL    HW231170   2.691   5.673   3.193
10091SOL     OW31171   6.952   4.271   5.337
10091SOL    HW131172   6.922   4.365   5.318
10091SOL    HW231173   6.883   4.207   5.303
10092SOL     OW31174   0.620   1.819   3.877
10092SOL    HW131175   0.682   1.809   3.799
10092SOL    HW231176   0.669   1.863   3.953
10093SOL     OW31177   4.680   4.779   5.789
10093SOL    HW131178   4.594   4.828   5.804
10093SOL    HW231179   4.719   4.808   5.702
10094SOL     OW31180   3.400   1.689   0.820
10094SOL    HW131181   3.349   1.609   0.787
10094SOL    HW231182   3.492   1.660   0.849
10095SOL     OW31183   4.928   3.007   5.047
10095SOL    HW131184   4.918   3.076   4.975
10095SOL    HW231185   4.976   3.047   5.125
10096SOL     OW31186   5.717   2.577   2.182
10096SOL    HW131187   5.620   2.595   2.164
10096SOL    HW231188   5.755   2.526   2.105
10097SOL     OW31189   0.936   1.340   6.686
10097SOL    HW131190   0.896   1.328   6.595
10097SOL    HW231191   0.914   1.260   6.743
10098SOL     OW31192   3.084   5.298   3.884
10098SOL    HW131193   3.082   5.343   3.973
10098SOL    HW231194   3.179   5.283   3.857
10099SOL     OW31195   0.547   4.964   1.145
10099SOL    HW131196   0.602   4.886   1.112
10099SOL    HW231197   0.450   4.942   1.136
10100SOL     OW31198   4.908   5.337   4.413
10100SOL    HW131199   4.882   5.310   4.505
10100SOL    HW231200   4.996   5.294   4.389
10101SOL     OW31201   0.394   2.647   1.448
10101SOL    HW131202   0.489   2.625   1.471
10101SOL    HW231203   0.334   2.609   1.519
10102SOL     OW31204   6.677   5.508   2.990
10102SOL    HW131205   6.597   5.491   2.932
10102SOL    HW231206   6.702   5.605   2.983
10103SOL     OW31207   6.739   6.272   6.313
10103SOL    HW131208   6.732   6.244   6.217
10103SOL    HW231209   6.823   6.235   6.352
10104SOL     OW31210   2.161   0.256   4.175
10104SOL    HW131211   2.222   0.196   4.123
10104SOL    HW231212   2.204   0.279   4.263
10105SOL     OW31213   3.438   0.848   6.051
10105SOL    HW131214   3.518   0.899   6.082
10105SOL    HW231215   3.442   0.834   5.952
10106SOL     OW31216   5.481   5.188   1.516
10106SOL    HW131217   5.384   5.193   1.494
10106SOL    HW231218   5.524   5.277   1.499
10107SOL     OW31219   5.076   4.619   0.014
10107SOL    HW131220   5.106   4.594   6.946
10107SOL    HW231221   4.991   4.671   0.008
10108SOL     OW31222   1.843   2.330   0.742
10108SOL    HW131223   1.871   2.344   0.647
10108SOL    HW231224   1.775   2.257   0.746
10109SOL     OW31225   1.361   2.210   1.642
10109SOL    HW131226   1.352   2.222   1.543
10109SOL    HW231227   1.344   2.114   1.665
10110SOL     OW31228   5.187   5.959   2.696
10110SOL    HW131229   5.248   6.003   2.631
10110SOL    HW231230   5.203   5.860   2.697
10111SOL     OW31231   1.093   2.657   2.118
10111SOL    HW131232   0.993   2.656   2.108
10111SOL    HW231233   1.133   2.704   2.039
10112SOL     OW31234   6.888   2.190   2.723
10112SOL    HW131235   6.959   2.123   2.703
10112SOL    HW231236   6.863   2.185   2.819
10113SOL     OW31237   0.268   0.868   5.786
10113SOL    HW131238   0.177   0.880   5.825
10113SOL    HW231239   0.284   0.771   5.768
10114SOL     OW31240   5.332   1.360   1.464
10114SOL    HW131241   5.272   1.438   1.447
10114SOL    HW231242   5.403   1.357   1.394
10115SOL     OW31243   3.613   2.646   5.967
10115SOL    HW131244   3.679   2.715   5.938
10115SOL    HW231245   3.638   2.558   5.927
10116SOL     OW31246   6.850   0.520   5.045
10116SOL    HW131247   6.750   0.517   5.037
10116SOL    HW231248   6.891   0.479   4.964
10117SOL     OW31249   6.446   4.676   3.266
10117SOL    HW131250   6.396   4.621   3.332
10117SOL    HW231251   6.409   4.769   3.263
10118SOL     OW31252   4.687   6.175   3.795
10118SOL    HW131253   4.605   6.127   3.768
10118SOL    HW231254   4.745   6.192   3.715
10119SOL     OW31255   0.538   5.343   5.390
10119SOL    HW131256   0.486   5.304   5.466
10119SOL    HW231257   0.510   5.299   5.305
10120SOL     OW31258   2.107   3.334   2.697
10120SOL    HW131259   2.098   3.318   2.598
10120SOL    HW231260   2.160   3.259   2.738
10121SOL     OW31261   6.124   4.661   1.259
10121SOL    HW131262   6.101   4.722   1.335
10121SOL    HW231263   6.089   4.699   1.173
10122SOL     OW31264   1.219   0.409   4.043
10122SOL    HW131265   1.218   0.446   3.950
10122SOL    HW231266   1.128   0.377   4.067
10123SOL     OW31267   6.396   5.265   6.522
10123SOL    HW131268   6.309   5.225   6.554
10123SOL    HW231269   6.433   5.325   6.593
10124SOL     OW31270   1.638   5.106   2.617
10124SOL    HW131271   1.733   5.085   2.595
10124SOL    HW231272   1.618   5.076   2.710
10125SOL     OW31273   2.246   1.003   4.947
10125SOL    HW131274   2.341   1.033   4.954
10125SOL    HW231275   2.197   1.030   5.030
10126SOL     OW31276   6.391   7.017   6.516
10126SOL    HW131277   6.440   6.966   6.445
10126SOL    HW231278   6.294   7.019   6.495
10127SOL     OW31279   2.708   7.012   5.971
10127SOL    HW131280   2.658   7.019   6.058
10127SOL    HW231281   2.656   6.955   5.908
10128SOL     OW31282   2.934   2.631   6.690
10128SOL    HW131283   2.896   2.544   6.722
10128SOL    HW231284   2.893   2.655   6.603
10129SOL     OW31285   6.240   2.220   4.776
10129SOL    HW131286   6.229   2.121   4.778
10129SOL    HW231287   6.177   2.262   4.842
10130SOL     OW31288   1.152   0.943   2.946
10130SOL    HW131289   1.242   0.966   2.908
10130SOL    HW231290   1.094   0.903   2.875
10131SOL     OW31291   1.796   6.164   3.677
10131SOL    HW131292   1.699   6.141   3.671
10131SOL    HW231293   1.814   6.213   3.763
10132SOL     OW31294   6.697   0.337   1.543
10132SOL    HW131295   6.746   0.320   1.457
10132SOL    HW231296   6.601   0.312   1.532
10133SOL     OW31297   5.568   6.305   0.384
10133SOL    HW131298   5.660   6.268   0.371
10133SOL    HW231299   5.543   6.299   0.481
10134SOL     OW31300   6.796   6.425   2.465
10134SOL    HW131301   6.756   6.495   2.406
10134SOL    HW231302   6.723   6.369   2.504
10135SOL     OW31303   6.312   0.027   2.422
10135SOL    HW131304   6.321   0.031   2.522
10135SOL    HW231305   6.387   6.997   2.384
10136SOL     OW31306   4.752   2.075   2.855
10136SOL    HW131307   4.849   2.071   2.880
10136SOL    HW231308   4.742   2.121   2.767
10137SOL     OW31309   6.233   5.210   5.739
10137SOL    HW131310   6.227   5.128   5.796
10137SOL    HW231311   6.151   5.218   5.683
10138SOL     OW31312   0.571   2.440   0.794
10138SOL    HW131313   0.492   2.387   0.825
10138SOL    HW231314   0.641   2.442   0.865
10139SOL     OW31315   2.914   3.110   6.846
10139SOL    HW131316   2.904   3.011   6.854
10139SOL    HW231317   3.010   3.132   6.829
10140SOL     OW31318   0.664   6.194   5.704
10140SOL    HW131319   0.615   6.273   5.668
10140SOL    HW231320   0.668   6.199   5.804
10141SOL     OW31321   2.063   2.739   4.420
10141SOL    HW131322   2.042   2.644   4.441
10141SOL    HW231323   1.978   2.792   4.416
10142SOL     OW31324   3.989   6.725   3.593
10142SOL    HW131325   3.947   6.690   3.510
10142SOL    HW231326   4.063   6.788   3.568
10143SOL     OW31327   4.918   2.600   6.534
10143SOL    HW131328   4.942   2.503   6.531
10143SOL    HW231329   4.988   2.650   6.584
10144SOL     OW31330   3.943   6.651   6.768
10144SOL    HW131331   3.859   6.705   6.773
10144SOL    HW231332   3.957   6.603   6.854
10145SOL     OW31333   5.495   6.785   6.043
10145SOL    HW131334   5.407   6.785   6.089
10145SOL    HW231335   5.492   6.721   5.965
10146SOL     OW31336   6.986   2.966   4.949
10146SOL    HW131337   7.003   2.872   4.922
10146SOL    HW231338   6.936   2.968   5.035
10147SOL     OW31339   4.125   5.603   5.707
10147SOL    HW131340   4.151   5.575   5.615
10147SOL    HW231341   4.096   5.699   5.706
10148SOL     OW31342   0.412   4.310   0.935
10148SOL    HW131343   0.377   4.304   0.841
10148SOL    HW231344   0.485   4.242   0.948
10149SOL     OW31345   3.480   3.853   1.064
10149SOL    HW131346   3.545   3.854   1.141
10149SOL    HW231347   3.485   3.766   1.017
10150SOL     OW31348   4.261   4.430   0.729
10150SOL    HW131349   4.329   4.403   0.797
10150SOL    HW231350   4.215   4.348   0.694
10151SOL     OW31351   5.965   6.936   6.087
10151SOL    HW131352   6.046   6.880   6.069
10151SOL    HW231353   5.993   7.024   6.127
10152SOL     OW31354   4.073   6.943   2.447
10152SOL    HW131355   4.101   6.993   2.365
10152SOL    HW231356   3.976   6.957   2.463
10153SOL     OW31357   4.527   4.479   2.566
10153SOL    HW131358   4.446   4.538   2.565
10153SOL    HW231359   4.548   4.450   2.473
10154SOL     OW31360   4.832   5.768   5.502
10154SOL    HW131361   4.818   5.677   5.540
10154SOL    HW231362   4.748   5.821   5.511
10155SOL     OW31363   4.528   1.727   4.576
10155SOL    HW131364   4.524   1.661   4.651
10155SOL    HW231365   4.608   1.709   4.519
10156SOL     OW31366   4.894   2.007   0.844
10156SOL    HW131367   4.970   1.943   0.830
10156SOL    HW231368   4.808   1.958   0.837
10157SOL     OW31369   0.577   3.809   1.311
10157SOL    HW131370   0.573   3.735   1.378
10157SOL    HW231371   0.639   3.880   1.344
10158SOL     OW31372   6.280   4.759   0.113
10158SOL    HW131373   6.216   4.682   0.109
10158SOL    HW231374   6.297   4.792   0.020
10159SOL     OW31375   3.236   3.097   2.317
10159SOL    HW131376   3.264   3.155   2.394
10159SOL    HW231377   3.204   3.154   2.242
10160SOL     OW31378   0.596   4.858   2.679
10160SOL    HW131379   0.654   4.827   2.754
10160SOL    HW231380   0.512   4.804   2.678
10161SOL     OW31381   5.328   3.716   5.052
10161SOL    HW131382   5.399   3.737   5.120
10161SOL    HW231383   5.250   3.778   5.065
10162SOL     OW31384   1.399   3.196   2.262
10162SOL    HW131385   1.378   3.210   2.358
10162SOL    HW231386   1.313   3.195   2.209
10163SOL     OW31387   2.340   6.184   5.056
10163SOL    HW131388   2.355   6.090   5.027
10163SOL    HW231389   2.243   6.197   5.078
10164SOL     OW31390   0.859   1.490   3.575
10164SOL    HW131391   0.778   1.464   3.628
10164SOL    HW231392   0.934   1.428   3.596
10165SOL     OW31393   0.116   3.618   4.321
10165SOL    HW131394   0.049   3.678   4.364
10165SOL    HW231395   0.118   3.531   4.368
10166SOL     OW31396   2.359   0.495   1.643
10166SOL    HW131397   2.306   0.577   1.620
10166SOL    HW231398   2.441   0.521   1.694
10167SOL     OW31399   2.544   1.221   6.675
10167SOL    HW131400   2.469   1.284   6.660
10167SOL    HW231401   2.629   1.260   6.638
10168SOL     OW31402   6.536   0.302   6.540
10168SOL    HW131403   6.524   0.238   6.464
10168SOL    HW231404   6.573   0.388   6.505
10169SOL     OW31405   4.825   3.942   3.843
10169SOL    HW131406   4.862   3.872   3.783
10169SOL    HW231407   4.809   4.026   3.791
10170SOL     OW31408   5.588   5.466   7.021
10170SOL    HW131409   5.665   5.404   0.009
10170SOL    HW231410   5.519   5.424   6.962
10171SOL     OW31411   1.729   4.228   5.600
10171SOL    HW131412   1.775   4.175   5.671
10171SOL    HW231413   1.783   4.226   5.516
10172SOL     OW31414   6.043   0.743   2.560
10172SOL    HW131415   6.120   0.804   2.540
10172SOL    HW231416   6.078   0.651   2.576
10173SOL     OW31417   3.620   4.201   4.932
10173SOL    HW131418   3.585   4.283   4.886
10173SOL    HW231419   3.561   4.177   5.008
10174SOL     OW31420   4.943   5.554   2.222
10174SOL    HW131421   5.016   5.496   2.261
10174SOL    HW231422   4.916   5.623   2.289
10175SOL     OW31423   0.223   0.194   3.934
10175SOL    HW131424   0.288   0.126   3.970
10175SOL    HW231425   0.267   0.249   3.864
10176SOL     OW31426   6.870   1.221   5.500
10176SOL    HW131427   6.774   1.234   5.526
10176SOL    HW231428   6.929   1.273   5.561
10177SOL     OW31429   2.826   0.833   3.752
10177SOL    HW131430   2.781   0.791   3.673
10177SOL    HW231431   2.771   0.819   3.834
10178SOL     OW31432   0.918   1.433   1.082
10178SOL    HW131433   0.846   1.490   1.123
10178SOL    HW231434   0.999   1.489   1.064
10179SOL     OW31435   0.737   4.074   0.786
10179SOL    HW131436   0.683   4.088   0.869
10179SOL    HW231437   0.749   3.976   0.769
10180SOL     OW31438   4.354   6.433   5.721
10180SOL    HW131439   4.307   6.347   5.740
10180SOL    HW231440   4.288   6.508   5.727
10181SOL     OW31441   6.061   3.581   2.568
10181SOL    HW131442   6.072   3.664   2.622
10181SOL    HW231443   6.070   3.501   2.627
10182SOL     OW31444   4.845   1.600   1.512
10182SOL    HW131445   4.748   1.578   1.520
10182SOL    HW231446   4.860   1.656   1.430
10183SOL     OW31447   6.286   0.938   6.414
10183SOL    HW131448   6.220   0.983   6.355
10183SOL    HW231449   6.266   0.960   6.510
10184SOL     OW31450   5.865   1.801   5.734
10184SOL    HW131451   5.873   1.716   5.682
10184SOL    HW231452   5.788   1.853   5.699
10185SOL     OW31453   4.136   5.636   2.175
10185SOL    HW131454   4.184   5.674   2.254
10185SOL    HW231455   4.200   5.624   2.100
10186SOL     OW31456   3.845   3.317   5.964
10186SOL    HW131457   3.797   3.234   5.995
10186SOL    HW231458   3.927   3.330   6.020
10187SOL     OW31459   2.152   4.306   6.031
10187SOL    HW131460   2.252   4.304   6.021
10187SOL    HW231461   2.119   4.214   6.054
10188SOL     OW31462   3.376   0.569   6.052
10188SOL    HW131463   3.422   0.657   6.062
10188SOL    HW231464   3.287   0.572   6.097
10189SOL     OW31465   1.473   1.669   5.918
10189SOL    HW131466   1.504   1.763   5.910
10189SOL    HW231467   1.378   1.668   5.949
10190SOL     OW31468   4.481   5.325   0.988
10190SOL    HW131469   4.406   5.299   0.928
10190SOL    HW231470   4.568   5.305   0.942
10191SOL     OW31471   5.436   6.655   6.320
10191SOL    HW131472   5.424   6.567   6.275
10191SOL    HW231473   5.381   6.658   6.404
10192SOL     OW31474   1.802   1.498   3.642
10192SOL    HW131475   1.886   1.466   3.686
10192SOL    HW231476   1.777   1.587   3.680
10193SOL     OW31477   3.670   3.222   3.924
10193SOL    HW131478   3.698   3.291   3.991
10193SOL    HW231479   3.730   3.142   3.933
10194SOL     OW31480   2.903   0.250   3.390
10194SOL    HW131481   2.865   0.342   3.380
10194SOL    HW231482   2.888   0.199   3.306
10195SOL     OW31483   4.266   6.109   2.640
10195SOL    HW131484   4.200   6.180   2.665
10195SOL    HW231485   4.273   6.103   2.541
10196SOL     OW31486   6.170   2.636   4.240
10196SOL    HW131487   6.184   2.697   4.317
10196SOL    HW231488   6.109   2.561   4.266
10197SOL     OW31489   5.206   0.348   2.002
10197SOL    HW131490   5.139   0.356   2.075
10197SOL    HW231491   5.219   0.251   1.979
10198SOL     OW31492   2.354   6.853   0.877
10198SOL    HW131493   2.280   6.807   0.828
10198SOL    HW231494   2.331   6.949   0.890
10199SOL     OW31495   1.109   1.329   0.871
10199SOL    HW131496   1.031   1.371   0.917
10199SOL    HW231497   1.192   1.348   0.923
10200SOL     OW31498   5.946   4.150   5.340
10200SOL    HW131499   5.987   4.192   5.259
10200SOL    HW231500   5.949   4.051   5.332
10201SOL     OW31501   1.792   5.367   2.667
10201SOL    HW131502   1.834   5.297   2.609
10201SOL    HW231503   1.742   5.432   2.610
10202SOL     OW31504   0.364   2.823   2.395
10202SOL    HW131505   0.307   2.905   2.395
10202SOL    HW231506   0.325   2.756   2.458
10203SOL     OW31507   0.928   3.601   2.431
10203SOL    HW131508   0.939   3.690   2.386
10203SOL    HW231509   0.998   3.538   2.396
10204SOL     OW31510   3.021   4.891   4.555
10204SOL    HW131511   3.102   4.895   4.496
10204SOL    HW231512   2.944   4.856   4.502
10205SOL     OW31513   4.659   1.110   3.038
10205SOL    HW131514   4.574   1.064   3.065
10205SOL    HW231515   4.719   1.118   3.117
10206SOL     OW31516   5.139   6.854   6.435
10206SOL    HW131517   5.224   6.900   6.410
10206SOL    HW231518   5.133   6.767   6.387
10207SOL     OW31519   4.815   0.810   2.906
10207SOL    HW131520   4.725   0.797   2.948
10207SOL    HW231521   4.822   0.904   2.871
10208SOL     OW31522   5.699   4.279   5.380
10208SOL    HW131523   5.683   4.325   5.467
10208SOL    HW231524   5.789   4.237   5.380
10209SOL     OW31525   5.675   6.789   6.325
10209SOL    HW131526   5.701   6.882   6.299
10209SOL    HW231527   5.584   6.768   6.290
10210SOL     OW31528   5.104   5.489   1.703
10210SOL    HW131529   5.203   5.487   1.713
10210SOL    HW231530   5.061   5.452   1.785
10211SOL     OW31531   4.094   5.609   5.079
10211SOL    HW131532   4.070   5.563   5.165
10211SOL    HW231533   4.191   5.596   5.060
10212SOL     OW31534   6.170   0.285   5.299
10212SOL    HW131535   6.196   0.226   5.222
10212SOL    HW231536   6.152   0.229   5.380
10213SOL     OW31537   6.126   0.835   3.439
10213SOL    HW131538   6.090   0.742   3.438
10213SOL    HW231539   6.109   0.876   3.528
10214SOL     OW31540   6.876   0.370   2.081
10214SOL    HW131541   6.830   0.325   2.005
10214SOL    HW231542   6.809   0.398   2.150
10215SOL     OW31543   3.807   3.404   0.523
10215SOL    HW131544   3.879   3.335   0.518
10215SOL    HW231545   3.813   3.464   0.443
10216SOL     OW31546   4.595   0.204   1.574
10216SOL    HW131547   4.624   0.294   1.607
10216SOL    HW231548   4.523   0.215   1.506
10217SOL     OW31549   3.016   1.630   5.274
10217SOL    HW131550   2.961   1.709   5.247
10217SOL    HW231551   3.055   1.587   5.193
10218SOL     OW31552   2.124   2.215   0.711
10218SOL    HW131553   2.210   2.242   0.753
10218SOL    HW231554   2.048   2.240   0.771
10219SOL     OW31555   0.816   3.721   0.015
10219SOL    HW131556   0.827   3.772   0.100
10219SOL    HW231557   0.748   3.649   0.028
10220SOL     OW31558   4.139   2.304   0.770
10220SOL    HW131559   4.209   2.243   0.809
10220SOL    HW231560   4.158   2.398   0.797
10221SOL     OW31561   2.845   0.501   5.368
10221SOL    HW131562   2.933   0.540   5.342
10221SOL    HW231563   2.781   0.574   5.390
10222SOL     OW31564   1.475   5.208   5.572
10222SOL    HW131565   1.487   5.123   5.624
10222SOL    HW231566   1.464   5.285   5.635
10223SOL     OW31567   0.059   4.379   0.380
10223SOL    HW131568   0.059   4.469   0.336
10223SOL    HW231569   0.150   4.338   0.369
10224SOL     OW31570   1.707   0.063   4.507
10224SOL    HW131571   1.654   7.016   4.554
10224SOL    HW231572   1.684   0.153   4.544
10225SOL     OW31573   6.089   6.139   4.044
10225SOL    HW131574   6.021   6.212   4.043
10225SOL    HW231575   6.059   6.064   3.985
10226SOL     OW31576   1.109   2.083   0.811
10226SOL    HW131577   1.017   2.045   0.817
10226SOL    HW231578   1.116   2.164   0.869
10227SOL     OW31579   5.512   5.079   6.286
10227SOL    HW131580   5.486   5.075   6.382
10227SOL    HW231581   5.438   5.122   6.233
10228SOL     OW31582   0.877   4.926   3.127
10228SOL    HW131583   0.842   4.999   3.068
10228SOL    HW231584   0.815   4.914   3.205
10229SOL     OW31585   1.993   0.283   2.295
10229SOL    HW131586   1.909   0.253   2.251
10229SOL    HW231587   1.970   0.340   2.375
10230SOL     OW31588   6.547   6.946   3.956
10230SOL    HW131589   6.524   0.014   3.987
10230SOL    HW231590   6.485   6.880   3.998
10231SOL     OW31591   5.113   0.228   4.145
10231SOL    HW131592   5.031   0.264   4.189
10231SOL    HW231593   5.157   0.161   4.205
10232SOL     OW31594   3.492   2.141   4.882
10232SOL    HW131595   3.561   2.130   4.810
10232SOL    HW231596   3.514   2.223   4.936
10233SOL     OW31597   4.552   1.306   5.898
10233SOL    HW131598   4.499   1.225   5.873
10233SOL    HW231599   4.496   1.366   5.954
10234SOL     OW31600   5.826   6.235   1.683
10234SOL    HW131601   5.790   6.325   1.711
10234SOL    HW231602   5.839   6.234   1.584
10235SOL     OW31603   5.310   1.071   6.595
10235SOL    HW131604   5.381   1.077   6.525
10235SOL    HW231605   5.349   1.032   6.678
10236SOL     OW31606   2.715   5.659   2.321
10236SOL    HW131607   2.629   5.639   2.367
10236SOL    HW231608   2.783   5.590   2.347
10237SOL     OW31609   6.776   2.727   2.483
10237SOL    HW131610   6.846   2.657   2.467
10237SOL    HW231611   6.688   2.695   2.447
10238SOL     OW31612   5.121   4.935   4.242
10238SOL    HW131613   5.070   4.856   4.276
10238SOL    HW231614   5.057   5.005   4.210
10239SOL     OW31615   0.125   4.227   3.546
10239SOL    HW131616   0.092   4.257   3.635
10239SOL    HW231617   0.142   4.128   3.548
10240SOL     OW31618   6.583   4.392   3.554
10240SOL    HW131619   6.646   4.467   3.535
10240SOL    HW231620   6.630   4.304   3.540
10241SOL     OW31621   2.333   1.200   2.750
10241SOL    HW131622   2.284   1.174   2.832
10241SOL    HW231623   2.382   1.286   2.766
10242SOL     OW31624   6.957   6.709   6.187
10242SOL    HW131625   0.009   6.648   6.165
10242SOL    HW231626   6.988   6.778   6.253
10243SOL     OW31627   1.565   5.689   2.132
10243SOL    HW131628   1.564   5.602   2.182
10243SOL    HW231629   1.613   5.758   2.186
10244SOL     OW31630   2.139   6.355   6.886
10244SOL    HW131631   2.138   6.292   6.963
10244SOL    HW231632   2.119   6.448   6.919
10245SOL     OW31633   2.405   2.202   6.962
10245SOL    HW131634   2.319   2.152   6.952
10245SOL    HW231635   2.416   2.233   0.032
10246SOL     OW31636   3.828   3.770   4.470
10246SOL    HW131637   3.892   3.769   4.393
10246SOL    HW231638   3.871   3.816   4.548
10247SOL     OW31639   0.888   5.042   5.347
10247SOL    HW131640   0.976   5.042   5.394
10247SOL    HW231641   0.872   4.951   5.308
10248SOL     OW31642   4.449   0.325   1.833
10248SOL    HW131643   4.437   0.227   1.815
10248SOL    HW231644   4.412   0.377   1.756
10249SOL     OW31645   4.252   1.088   0.108
10249SOL    HW131646   4.219   1.020   0.043
10249SOL    HW231647   4.244   1.179   0.068
10250SOL     OW31648   6.465   0.805   6.898
10250SOL    HW131649   6.401   0.749   6.952
10250SOL    HW231650   6.535   0.843   6.958
10251SOL     OW31651   3.002   4.272   0.022
10251SOL    HW131652   2.921   4.270   6.986
10251SOL    HW231653   3.042   4.180   0.025
10252SOL     OW31654   6.774   5.318   1.942
10252SOL    HW131655   6.848   5.383   1.923
10252SOL    HW231656   6.687   5.356   1.910
10253SOL     OW31657   3.555   5.406   6.577
10253SOL    HW131658   3.634   5.345   6.572
10253SOL    HW231659   3.559   5.474   6.504
10254SOL     OW31660   2.687   2.033   4.711
10254SOL    HW131661   2.650   2.123   4.734
10254SOL    HW231662   2.618   1.980   4.663
10255SOL     OW31663   3.194   5.919   2.491
10255SOL    HW131664   3.205   5.986   2.564
10255SOL    HW231665   3.113   5.941   2.437
10256SOL     OW31666   5.988   6.619   6.675
10256SOL    HW131667   6.055   6.655   6.610
10256SOL    HW231668   6.031   6.605   6.764
10257SOL     OW31669   1.308   5.944   5.968
10257SOL    HW131670   1.280   5.989   5.883
10257SOL    HW231671   1.354   6.010   6.027
10258SOL     OW31672   4.075   1.075   2.935
10258SOL    HW131673   4.148   1.142   2.938
10258SOL    HW231674   4.112   0.984   2.955
10259SOL     OW31675   0.096   4.195   2.772
10259SOL    HW131676   0.095   4.240   2.862
10259SOL    HW231677   0.185   4.208   2.729
10260SOL     OW31678   0.703   6.937   1.691
10260SOL    HW131679   0.604   6.949   1.696
10260SOL    HW231680   0.742   6.940   1.783
10261SOL     OW31681   1.412   6.187   2.006
10261SOL    HW131682   1.321   6.209   1.970
10261SOL    HW231683   1.454   6.117   1.949
10262SOL     OW31684   1.415   5.318   4.896
10262SOL    HW131685   1.453   5.235   4.937
10262SOL    HW231686   1.357   5.292   4.818
10263SOL     OW31687   6.266   2.361   6.592
10263SOL    HW131688   6.213   2.398   6.516
10263SOL    HW231689   6.225   2.275   6.622
10264SOL     OW31690   0.256   0.180   6.306
10264SOL    HW131691   0.266   0.199   6.403
10264SOL    HW231692   0.337   0.132   6.272
10265SOL     OW31693   4.523   1.830   2.095
10265SOL    HW131694   4.471   1.746   2.077
10265SOL    HW231695   4.539   1.878   2.009
10266SOL     OW31696   3.144   4.252   6.672
10266SOL    HW131697   3.221   4.311   6.645
10266SOL    HW231698   3.059   4.304   6.666
10267SOL     OW31699   6.820   1.936   6.195
10267SOL    HW131700   6.805   2.024   6.151
10267SOL    HW231701   6.747   1.919   6.261
10268SOL     OW31702   6.411   5.149   1.662
10268SOL    HW131703   6.422   5.245   1.688
10268SOL    HW231704   6.499   5.113   1.631
10269SOL     OW31705   2.821   2.923   5.903
10269SOL    HW131706   2.919   2.925   5.881
10269SOL    HW231707   2.804   2.855   5.974
10270SOL     OW31708   2.278   5.912   0.670
10270SOL    HW131709   2.192   5.960   0.653
10270SOL    HW231710   2.333   5.962   0.736
10271SOL     OW31711   4.116   4.832   0.673
10271SOL    HW131712   4.203   4.784   0.681
10271SOL    HW231713   4.080   4.820   0.580
10272SOL     OW31714   0.865   0.724   5.804
10272SOL    HW131715   0.912   0.644   5.842
10272SOL    HW231716   0.825   0.777   5.878
10273SOL     OW31717   4.702   6.289   4.234
10273SOL    HW131718   4.785   6.233   4.234
10273SOL    HW231719   4.726   6.385   4.249
10274SOL     OW31720   1.360   5.833   5.657
10274SOL    HW131721   1.351   5.907   5.591
10274SOL    HW231722   1.277   5.827   5.712
10275SOL     OW31723   1.238   6.212   2.400
10275SOL    HW131724   1.177   6.290   2.388
10275SOL    HW231725   1.217   6.142   2.331
10276SOL     OW31726   6.048   5.075   6.295
10276SOL    HW131727   6.075   5.110   6.385
10276SOL    HW231728   6.106   5.115   6.225
10277SOL     OW31729   2.373   5.888   4.064
10277SOL    HW131730   2.432   5.962   4.030
10277SOL    HW231731   2.409   5.855   4.152
10278SOL     OW31732   5.803   0.331   5.370
10278SOL    HW131733   5.706   0.355   5.365
10278SOL    HW231734   5.858   0.408   5.336
10279SOL     OW31735   3.530   6.903   3.982
10279SOL    HW131736   3.629   6.891   3.971
10279SOL    HW231737   3.491   6.934   3.895
10280SOL     OW31738   2.227   3.503   6.321
10280SOL    HW131739   2.240   3.597   6.353
10280SOL    HW231740   2.227   3.441   6.399
10281SOL     OW31741   4.396   0.520   4.000
10281SOL    HW131742   4.469   0.451   3.998
10281SOL    HW231743   4.352   0.525   3.911
10282SOL     OW31744   0.924   1.709   4.603
10282SOL    HW131745   0.938   1.642   4.530
10282SOL    HW231746   0.971   1.794   4.580
10283SOL     OW31747   1.009   3.808   6.714
10283SOL    HW131748   1.029   3.725   6.767
10283SOL    HW231749   1.087   3.830   6.656
10284SOL     OW31750   5.193   2.887   5.523
10284SOL    HW131751   5.274   2.926   5.567
10284SOL    HW231752   5.222   2.816   5.458
10285SOL     OW31753   6.302   6.950   1.165
10285SOL    HW131754   6.339   6.858   1.180
10285SOL    HW231755   6.224   6.965   1.226
10286SOL     OW31756   4.063   0.951   3.667
10286SOL    HW131757   4.145   1.008   3.666
10286SOL    HW231758   3.988   1.000   3.622
10287SOL     OW31759   3.047   5.813   1.403
10287SOL    HW131760   3.050   5.903   1.446
10287SOL    HW231761   3.140   5.784   1.380
10288SOL     OW31762   5.352   6.653   4.011
10288SOL    HW131763   5.348   6.555   4.032
10288SOL    HW231764   5.314   6.706   4.087
10289SOL     OW31765   3.318   0.659   1.901
10289SOL    HW131766   3.399   0.705   1.865
10289SOL    HW231767   3.284   0.593   1.834
10290SOL     OW31768   3.418   3.851   1.820
10290SOL    HW131769   3.367   3.881   1.901
10290SOL    HW231770   3.360   3.790   1.765
10291SOL     OW31771   3.573   0.026   5.594
10291SOL    HW131772   3.516   0.072   5.526
10291SOL    HW231773   3.642   0.090   5.628
10292SOL     OW31774   0.525   1.164   4.996
10292SOL    HW131775   0.483   1.229   5.059
10292SOL    HW231776   0.455   1.105   4.958
10293SOL     OW31777   2.386   6.374   3.446
10293SOL    HW131778   2.354   6.459   3.486
10293SOL    HW231779   2.354   6.297   3.501
10294SOL     OW31780   5.952   1.705   3.017
10294SOL    HW131781   5.989   1.757   3.094
10294SOL    HW231782   5.975   1.751   2.932
10295SOL     OW31783   0.759   5.370   6.077
10295SOL    HW131784   0.793   5.370   5.983
10295SOL    HW231785   0.763   5.277   6.113
10296SOL     OW31786   6.346   2.441   0.358
10296SOL    HW131787   6.292   2.431   0.275
10296SOL    HW231788   6.443   2.426   0.337
10297SOL     OW31789   2.223   5.294   5.055
10297SOL    HW131790   2.260   5.384   5.030
10297SOL    HW231791   2.224   5.234   4.976
10298SOL     OW31792   4.892   3.369   3.934
10298SOL    HW131793   4.894   3.312   4.016
10298SOL    HW231794   4.877   3.464   3.961
10299SOL     OW31795   5.345   4.773   3.037
10299SOL    HW131796   5.414   4.716   2.993
10299SOL    HW231797   5.254   4.737   3.017
10300SOL     OW31798   1.288   4.615   2.584
10300SOL    HW131799   1.342   4.610   2.500
10300SOL    HW231800   1.349   4.617   2.663
10301SOL     OW31801   5.515   1.311   1.253
10301SOL    HW131802   5.542   1.334   1.159
10301SOL    HW231803   5.524   1.213   1.268
10302SOL     OW31804   1.867   5.390   3.300
10302SOL    HW131805   1.788   5.386   3.240
10302SOL    HW231806   1.936   5.325   3.269
10303SOL     OW31807   3.188   2.901   1.157
10303SOL    HW131808   3.160   2.953   1.238
10303SOL    HW231809   3.288   2.903   1.150
10304SOL     OW31810   6.328   6.515   3.197
10304SOL    HW131811   6.233   6.484   3.203
10304SOL    HW231812   6.330   6.606   3.155
10305SOL     OW31813   1.921   5.954   1.038
10305SOL    HW131814   1.828   5.925   1.017
10305SOL    HW231815   1.949   6.026   0.973
10306SOL     OW31816   4.413   5.725   0.030
10306SOL    HW131817   4.359   5.734   0.113
10306SOL    HW231818   4.500   5.681   0.052
10307SOL     OW31819   2.104   1.279   5.730
10307SOL    HW131820   2.145   1.286   5.639
10307SOL    HW231821   2.005   1.295   5.723
10308SOL     OW31822   3.372   5.920   3.823
10308SOL    HW131823   3.420   5.848   3.772
10308SOL    HW231824   3.276   5.922   3.795
10309SOL     OW31825   0.084   6.439   3.480
10309SOL    HW131826   0.006   6.496   3.453
10309SOL    HW231827   0.105   6.454   3.576
10310SOL     OW31828   3.849   3.908   3.533
10310SOL    HW131829   3.899   3.834   3.577
10310SOL    HW231830   3.820   3.974   3.602
10311SOL     OW31831   0.511   5.591   0.663
10311SOL    HW131832   0.418   5.620   0.684
10311SOL    HW231833   0.561   5.667   0.621
10312SOL     OW31834   2.105   4.615   1.205
10312SOL    HW131835   2.036   4.577   1.143
10312SOL    HW231836   2.195   4.580   1.178
10313SOL     OW31837   5.311   6.448   2.994
10313SOL    HW131838   5.237   6.384   2.970
10313SOL    HW231839   5.274   6.541   2.999
10314SOL     OW31840   6.627   5.885   0.247
10314SOL    HW131841   6.576   5.970   0.254
10314SOL    HW231842   6.563   5.808   0.249
10315SOL     OW31843   6.109   5.844   4.497
10315SOL    HW131844   6.129   5.746   4.495
10315SOL    HW231845   6.036   5.863   4.563
10316SOL     OW31846   6.974   4.834   2.763
10316SOL    HW131847   6.925   4.921   2.759
10316SOL    HW231848   0.025   4.840   2.829
10317SOL     OW31849   3.546   4.636   0.554
10317SOL    HW131850   3.565   4.543   0.523
10317SOL    HW231851   3.623   4.670   0.608
10318SOL     OW31852   6.462   5.695   2.012
10318SOL    HW131853   6.409   5.615   1.985
10318SOL    HW231854   6.401   5.763   2.053
10319SOL     OW31855   6.082   6.733   3.340
10319SOL    HW131856   6.034   6.646   3.346
10319SOL    HW231857   6.018   6.807   3.362
10320SOL     OW31858   5.772   6.646   1.435
10320SOL    HW131859   5.777   6.554   1.397
10320SOL    HW231860   5.759   6.712   1.361
10321SOL     OW31861   4.387   5.846   4.354
10321SOL    HW131862   4.291   5.856   4.381
10321SOL    HW231863   4.394   5.775   4.284
10322SOL     OW31864   6.123   2.786   0.268
10322SOL    HW131865   6.202   2.735   0.301
10322SOL    HW231866   6.155   2.868   0.220
10323SOL     OW31867   5.736   2.950   5.006
10323SOL    HW131868   5.832   2.936   5.032
10323SOL    HW231869   5.709   2.878   4.941
10324SOL     OW31870   2.903   3.442   3.953
10324SOL    HW131871   2.969   3.493   3.898
10324SOL    HW231872   2.907   3.473   4.048
10325SOL     OW31873   0.408   4.078   2.844
10325SOL    HW131874   0.396   4.013   2.919
10325SOL    HW231875   0.483   4.047   2.786
10326SOL     OW31876   5.412   2.003   0.882
10326SOL    HW131877   5.332   2.063   0.876
10326SOL    HW231878   5.425   1.956   0.795
10327SOL     OW31879   0.024   0.891   3.846
10327SOL    HW131880   0.018   0.966   3.912
10327SOL    HW231881   0.065   0.925   3.761
10328SOL     OW31882   6.245   2.801   1.557
10328SOL    HW131883   6.254   2.845   1.646
10328SOL    HW231884   6.184   2.723   1.564
10329SOL     OW31885   3.948   6.691   2.536
10329SOL    HW131886   3.971   6.646   2.450
10329SOL    HW231887   4.011   6.767   2.552
10330SOL     OW31888   4.158   5.161   1.453
10330SOL    HW131889   4.146   5.062   1.446
10330SOL    HW231890   4.254   5.184   1.435
10331SOL     OW31891   5.986   0.809   3.750
10331SOL    HW131892   5.952   0.722   3.785
10331SOL    HW231893   6.078   0.825   3.785
10332SOL     OW31894   0.168   2.743   6.460
10332SOL    HW131895   0.243   2.717   6.521
10332SOL    HW231896   0.180   2.838   6.432
10333SOL     OW31897   4.695   4.264   4.668
10333SOL    HW131898   4.610   4.283   4.716
10333SOL    HW231899   4.678   4.263   4.569
10334SOL     OW31900   1.284   4.367   5.536
10334SOL    HW131901   1.208   4.385   5.599
10334SOL    HW231902   1.272   4.421   5.453
10335SOL     OW31903   2.253   4.892   2.081
10335SOL    HW131904   2.352   4.906   2.072
10335SOL    HW231905   2.235   4.825   2.154
10336SOL     OW31906   4.141   0.007   2.782
10336SOL    HW131907   4.118   0.076   2.714
10336SOL    HW231908   4.229   6.990   2.760
10337SOL     OW31909   0.441   5.245   5.161
10337SOL    HW131910   0.497   5.280   5.086
10337SOL    HW231911   0.409   5.153   5.138
10338SOL     OW31912   3.382   5.471   3.603
10338SOL    HW131913   3.365   5.527   3.522
10338SOL    HW231914   3.347   5.518   3.684
10339SOL     OW31915   3.316   5.410   0.738
10339SOL    HW131916   3.346   5.368   0.824
10339SOL    HW231917   3.361   5.499   0.727
10340SOL     OW31918   2.274   0.053   0.228
10340SOL    HW131919   2.278   0.153   0.222
10340SOL    HW231920   2.218   0.017   0.152
10341SOL     OW31921   1.997   1.351   2.520
10341SOL    HW131922   1.899   1.346   2.539
10341SOL    HW231923   2.022   1.445   2.495
10342SOL     OW31924   2.220   6.295   4.644
10342SOL    HW131925   2.233   6.267   4.549
10342SOL    HW231926   2.296   6.355   4.672
10343SOL     OW31927   2.175   3.129   4.944
10343SOL    HW131928   2.171   3.173   5.033
10343SOL    HW231929   2.258   3.075   4.937
10344SOL     OW31930   3.935   4.696   5.837
10344SOL    HW131931   3.971   4.606   5.863
10344SOL    HW231932   3.857   4.718   5.895
10345SOL     OW31933   1.916   1.810   6.767
10345SOL    HW131934   1.986   1.774   6.828
10345SOL    HW231935   1.845   1.741   6.751
10346SOL     OW31936   4.945   5.535   0.075
10346SOL    HW131937   4.933   5.510   0.171
10346SOL    HW231938   5.041   5.530   0.051
10347SOL     OW31939   5.219   2.139   2.190
10347SOL    HW131940   5.201   2.060   2.132
10347SOL    HW231941   5.196   2.223   2.139
10348SOL     OW31942   0.175   5.493   5.817
10348SOL    HW131943   0.118   5.574   5.826
10348SOL    HW231944   0.261   5.507   5.867
10349SOL     OW31945   0.233   1.803   0.535
10349SOL    HW131946   0.296   1.734   0.570
10349SOL    HW231947   0.222   1.876   0.603
10350SOL     OW31948   2.250   4.378   4.357
10350SOL    HW131949   2.249   4.278   4.364
10350SOL    HW231950   2.280   4.404   4.265
10351SOL     OW31951   4.622   4.549   5.132
10351SOL    HW131952   4.543   4.501   5.095
10351SOL    HW231953   4.620   4.645   5.102
10352SOL     OW31954   5.487   1.395   7.012
10352SOL    HW131955   5.529   1.484   0.007
10352SOL    HW231956   5.454   1.356   0.074
10353SOL     OW31957   6.361   2.243   3.746
10353SOL    HW131958   6.354   2.338   3.777
10353SOL    HW231959   6.420   2.239   3.665
10354SOL     OW31960   0.344   3.156   1.303
10354SOL    HW131961   0.312   3.070   1.262
10354SOL    HW231962   0.428   3.185   1.259
10355SOL     OW31963   0.369   1.936   1.238
10355SOL    HW131964   0.377   2.034   1.253
10355SOL    HW231965   0.409   1.887   1.315
10356SOL     OW31966   6.344   3.584   6.008
10356SOL    HW131967   6.267   3.523   5.991
10356SOL    HW231968   6.429   3.532   6.006
10357SOL     OW31969   0.975   2.788   5.517
10357SOL    HW131970   0.990   2.786   5.616
10357SOL    HW231971   1.062   2.768   5.471
10358SOL     OW31972   0.916   2.229   3.187
10358SOL    HW131973   0.889   2.326   3.187
10358SOL    HW231974   0.970   2.209   3.268
10359SOL     OW31975   6.232   2.110   2.239
10359SOL    HW131976   6.288   2.188   2.212
10359SOL    HW231977   6.289   2.044   2.289
10360SOL     OW31978   6.020   4.154   1.810
10360SOL    HW131979   6.052   4.082   1.872
10360SOL    HW231980   5.950   4.209   1.856
10361SOL     OW31981   0.421   1.855   1.948
10361SOL    HW131982   0.519   1.845   1.930
10361SOL    HW231983   0.407   1.917   2.025
10362SOL     OW31984   0.952   5.224   1.549
10362SOL    HW131985   0.863   5.181   1.560
10362SOL    HW231986   0.968   5.245   1.453
10363SOL     OW31987   5.376   3.976   6.836
10363SOL    HW131988   5.404   3.886   6.872
10363SOL    HW231989   5.410   3.986   6.742
10364SOL     OW31990   5.943   4.437   2.114
10364SOL    HW131991   5.906   4.388   2.036
10364SOL    HW231992   5.873   4.497   2.153
10365SOL     OW31993   5.511   5.849   0.282
10365SOL    HW131994   5.575   5.889   0.215
10365SOL    HW231995   5.493   5.754   0.257
10366SOL     OW31996   2.733   5.998   3.629
10366SOL    HW131997   2.752   6.000   3.530
10366SOL    HW231998   2.789   5.927   3.672
10367SOL     OW31999   6.220   0.668   1.427
10367SOL    HW132000   6.156   0.622   1.366
10367SOL    HW232001   6.192   0.654   1.522
10368SOL     OW32002   2.463   6.144   2.541
10368SOL    HW132003   2.478   6.180   2.449
10368SOL    HW232004   2.366   6.128   2.556
10369SOL     OW32005   2.746   0.236   6.423
10369SOL    HW132006   2.726   0.252   6.519
10369SOL    HW232007   2.716   0.315   6.369
10370SOL     OW32008   1.065   0.646   6.214
10370SOL    HW132009   1.115   0.702   6.147
10370SOL    HW232010   0.993   0.701   6.256
10371SOL     OW32011   3.956   5.774   3.245
10371SOL    HW132012   3.978   5.864   3.284
10371SOL    HW232013   4.038   5.717   3.246
10372SOL     OW32014   2.969   6.647   1.825
10372SOL    HW132015   3.050   6.691   1.864
10372SOL    HW232016   2.956   6.678   1.732
10373SOL     OW32017   0.900   1.211   5.391
10373SOL    HW132018   0.867   1.267   5.315
10373SOL    HW232019   0.836   1.137   5.409
10374SOL     OW32020   4.137   5.697   3.943
10374SOL    HW132021   4.208   5.628   3.928
10374SOL    HW232022   4.136   5.723   4.039
10375SOL     OW32023   2.165   3.769   6.991
10375SOL    HW132024   2.138   3.765   6.895
10375SOL    HW232025   2.085   3.754   0.025
10376SOL     OW32026   1.828   4.504   3.223
10376SOL    HW132027   1.892   4.460   3.286
10376SOL    HW232028   1.757   4.552   3.276
10377SOL     OW32029   1.663   0.424   2.464
10377SOL    HW132030   1.683   0.349   2.401
10377SOL    HW232031   1.748   0.468   2.492
10378SOL     OW32032   0.206   4.711   3.871
10378SOL    HW132033   0.253   4.623   3.864
10378SOL    HW232034   0.107   4.696   3.868
10379SOL     OW32035   1.727   6.755   4.571
10379SOL    HW132036   1.788   6.746   4.492
10379SOL    HW232037   1.770   6.714   4.651
10380SOL     OW32038   2.335   2.517   4.794
10380SOL    HW132039   2.274   2.593   4.812
10380SOL    HW232040   2.404   2.512   4.866
10381SOL     OW32041   4.646   4.796   2.339
10381SOL    HW132042   4.712   4.724   2.358
10381SOL    HW232043   4.554   4.758   2.342
10382SOL     OW32044   3.990   5.478   2.344
10382SOL    HW132045   4.032   5.515   2.262
10382SOL    HW232046   3.913   5.419   2.319
10383SOL     OW32047   1.883   4.034   0.137
10383SOL    HW132048   1.801   3.982   0.162
10383SOL    HW232049   1.961   4.002   0.191
10384SOL     OW32050   6.395   6.696   1.743
10384SOL    HW132051   6.343   6.700   1.828
10384SOL    HW232052   6.352   6.633   1.679
10385SOL     OW32053   4.262   4.651   0.092
10385SOL    HW132054   4.353   4.653   0.134
10385SOL    HW232055   4.250   4.733   0.036
10386SOL     OW32056   0.095   1.007   0.214
10386SOL    HW132057   0.191   1.009   0.242
10386SOL    HW232058   0.065   1.100   0.192
10387SOL     OW32059   5.109   2.775   2.008
10387SOL    HW132060   5.010   2.779   1.997
10387SOL    HW232061   5.139   2.846   2.071
10388SOL     OW32062   2.750   0.839   5.670
10388SOL    HW132063   2.795   0.755   5.642
10388SOL    HW232064   2.651   0.827   5.667
10389SOL     OW32065   0.718   3.503   0.507
10389SOL    HW132066   0.668   3.422   0.537
10389SOL    HW232067   0.656   3.581   0.503
10390SOL     OW32068   2.028   2.553   1.685
10390SOL    HW132069   2.067   2.574   1.775
10390SOL    HW232070   2.078   2.604   1.615
10391SOL     OW32071   5.272   6.794   4.228
10391SOL    HW132072   5.240   6.879   4.270
10391SOL    HW232073   5.301   6.731   4.300
10392SOL     OW32074   6.835   4.885   3.931
10392SOL    HW132075   6.913   4.947   3.923
10392SOL    HW232076   6.754   4.928   3.894
10393SOL     OW32077   1.351   4.020   3.542
10393SOL    HW132078   1.446   3.988   3.540
10393SOL    HW232079   1.343   4.096   3.607
10394SOL     OW32080   2.714   5.882   4.187
10394SOL    HW132081   2.749   5.800   4.140
10394SOL    HW232082   2.739   5.963   4.135
10395SOL     OW32083   0.566   0.305   0.628
10395SOL    HW132084   0.598   0.391   0.587
10395SOL    HW232085   0.639   0.267   0.686
10396SOL     OW32086   3.038   1.772   4.615
10396SOL    HW132087   3.097   1.850   4.593
10396SOL    HW232088   2.976   1.797   4.689
10397SOL     OW32089   3.253   2.093   2.454
10397SOL    HW132090   3.334   2.122   2.403
10397SOL    HW232091   3.176   2.080   2.390
10398SOL     OW32092   6.850   2.654   1.688
10398SOL    HW132093   6.881   2.626   1.779
10398SOL    HW232094   6.893   2.740   1.663
10399SOL     OW32095   6.710   3.484   1.852
10399SOL    HW132096   6.708   3.447   1.945
10399SOL    HW232097   6.623   3.531   1.833
10400SOL     OW32098   3.742   6.848   0.837
10400SOL    HW132099   3.771   6.928   0.889
10400SOL    HW232100   3.651   6.820   0.867
10401SOL     OW32101   6.933   0.435   4.810
10401SOL    HW132102   6.878   0.490   4.747
10401SOL    HW232103   0.006   0.452   4.793
10402SOL     OW32104   6.332   3.006   4.531
10402SOL    HW132105   6.255   3.070   4.532
10402SOL    HW232106   6.390   3.022   4.611
10403SOL     OW32107   2.873   0.532   3.263
10403SOL    HW132108   2.912   0.584   3.338
10403SOL    HW232109   2.790   0.578   3.230
10404SOL     OW32110   0.208   6.425   6.043
10404SOL    HW132111   0.199   6.389   6.136
10404SOL    HW232112   0.137   6.385   5.985
10405SOL     OW32113   0.121   1.497   5.928
10405SOL    HW132114   0.060   1.461   5.998
10405SOL    HW232115   0.185   1.562   5.968
10406SOL     OW32116   3.374   4.719   1.380
10406SOL    HW132117   3.368   4.738   1.479
10406SOL    HW232118   3.299   4.658   1.354
10407SOL     OW32119   3.454   6.776   0.222
10407SOL    HW132120   3.380   6.808   0.280
10407SOL    HW232121   3.420   6.705   0.160
10408SOL     OW32122   4.347   0.507   0.391
10408SOL    HW132123   4.326   0.471   0.300
10408SOL    HW232124   4.316   0.443   0.461
10409SOL     OW32125   6.514   4.711   0.379
10409SOL    HW132126   6.553   4.619   0.388
10409SOL    HW232127   6.438   4.708   0.314
10410SOL     OW32128   5.989   1.394   0.356
10410SOL    HW132129   5.955   1.300   0.356
10410SOL    HW232130   6.084   1.395   0.324
10411SOL     OW32131   2.456   5.176   3.294
10411SOL    HW132132   2.394   5.117   3.345
10411SOL    HW232133   2.507   5.235   3.357
10412SOL     OW32134   5.622   1.242   0.998
10412SOL    HW132135   5.672   1.323   1.030
10412SOL    HW232136   5.647   1.163   1.054
10413SOL     OW32137   6.326   2.029   1.425
10413SOL    HW132138   6.381   2.043   1.343
10413SOL    HW232139   6.274   2.113   1.446
10414SOL     OW32140   5.244   3.196   5.147
10414SOL    HW132141   5.245   3.286   5.103
10414SOL    HW232142   5.274   3.126   5.083
10415SOL     OW32143   0.566   5.786   6.237
10415SOL    HW132144   0.490   5.807   6.298
10415SOL    HW232145   0.542   5.708   6.179
10416SOL     OW32146   6.126   2.839   4.422
10416SOL    HW132147   6.048   2.897   4.396
10416SOL    HW232148   6.189   2.891   4.479
10417SOL     OW32149   2.838   4.761   3.933
10417SOL    HW132150   2.830   4.662   3.924
10417SOL    HW232151   2.766   4.796   3.993
10418SOL     OW32152   0.665   4.367   5.335
10418SOL    HW132153   0.657   4.446   5.396
10418SOL    HW232154   0.746   4.313   5.359
10419SOL     OW32155   0.959   0.639   0.578
10419SOL    HW132156   1.015   0.586   0.642
10419SOL    HW232157   1.015   0.671   0.502
10420SOL     OW32158   0.163   3.328   2.858
10420SOL    HW132159   0.162   3.248   2.918
10420SOL    HW232160   0.246   3.381   2.874
10421SOL     OW32161   1.254   0.856   3.620
10421SOL    HW132162   1.327   0.924   3.610
10421SOL    HW232163   1.200   0.853   3.536
10422SOL     OW32164   6.811   2.578   5.561
10422SOL    HW132165   6.779   2.630   5.641
10422SOL    HW232166   6.849   2.491   5.591
10423SOL     OW32167   5.026   4.711   4.351
10423SOL    HW132168   5.051   4.617   4.325
10423SOL    HW232169   4.941   4.709   4.404
10424SOL     OW32170   5.343   1.590   6.894
10424SOL    HW132171   5.355   1.632   6.804
10424SOL    HW232172   5.382   1.498   6.893
10425SOL     OW32173   1.494   5.888   2.513
10425SOL    HW132174   1.579   5.912   2.560
10425SOL    HW232175   1.494   5.931   2.422
10426SOL     OW32176   6.097   4.067   0.660
10426SOL    HW132177   6.038   3.988   0.641
10426SOL    HW232178   6.075   4.104   0.750
10427SOL     OW32179   5.037   2.424   0.838
10427SOL    HW132180   4.983   2.376   0.907
10427SOL    HW232181   5.020   2.522   0.845
10428SOL     OW32182   4.051   0.732   4.869
10428SOL    HW132183   3.983   0.776   4.811
10428SOL    HW232184   4.130   0.792   4.881
10429SOL     OW32185   6.637   5.571   1.320
10429SOL    HW132186   6.640   5.631   1.399
10429SOL    HW232187   6.639   5.625   1.236
10430SOL     OW32188   4.267   6.488   3.292
10430SOL    HW132189   4.275   6.455   3.198
10430SOL    HW232190   4.286   6.586   3.296
10431SOL     OW32191   2.918   0.240   5.480
10431SOL    HW132192   2.878   0.325   5.447
10431SOL    HW232193   2.851   0.166   5.470
10432SOL     OW32194   6.210   0.773   3.889
10432SOL    HW132195   6.188   0.701   3.954
10432SOL    HW232196   6.309   0.773   3.872
10433SOL     OW32197   2.382   6.397   1.521
10433SOL    HW132198   2.415   6.321   1.576
10433SOL    HW232199   2.284   6.408   1.535
10434SOL     OW32200   3.348   0.068   3.390
10434SOL    HW132201   3.366   0.013   3.471
10434SOL    HW232202   3.332   0.163   3.416
10435SOL     OW32203   5.978   6.543   6.019
10435SOL    HW132204   6.053   6.546   5.954
10435SOL    HW232205   5.958   6.448   6.043
10436SOL     OW32206   0.583   5.365   4.264
10436SOL    HW132207   0.569   5.270   4.238
10436SOL    HW232208   0.499   5.402   4.303
10437SOL     OW32209   6.394   4.922   5.786
10437SOL    HW132210   6.390   4.835   5.738
10437SOL    HW232211   6.305   4.967   5.783
10438SOL     OW32212   5.464   6.586   0.361
10438SOL    HW132213   5.424   6.608   0.272
10438SOL    HW232214   5.505   6.495   0.357
10439SOL     OW32215   3.963   0.087   5.511
10439SOL    HW132216   4.037   0.024   5.531
10439SOL    HW232217   3.963   0.161   5.578
10440SOL     OW32218   0.815   6.638   1.217
10440SOL    HW132219   0.791   6.689   1.300
10440SOL    HW232220   0.868   6.557   1.242
10441SOL     OW32221   5.401   1.368   6.509
10441SOL    HW132222   5.322   1.350   6.568
10441SOL    HW232223   5.378   1.439   6.443
10442SOL     OW32224   3.354   5.373   5.548
10442SOL    HW132225   3.303   5.302   5.596
10442SOL    HW232226   3.290   5.438   5.506
10443SOL     OW32227   6.035   3.763   4.763
10443SOL    HW132228   6.088   3.806   4.690
10443SOL    HW232229   6.090   3.691   4.806
10444SOL     OW32230   3.771   5.383   4.865
10444SOL    HW132231   3.716   5.366   4.947
10444SOL    HW232232   3.867   5.390   4.891
10445SOL     OW32233   6.532   5.361   4.498
10445SOL    HW132234   6.470   5.286   4.517
10445SOL    HW232235   6.568   5.351   4.405
10446SOL     OW32236   0.624   4.498   6.472
10446SOL    HW132237   0.573   4.451   6.544
10446SOL    HW232238   0.696   4.437   6.437
10447SOL     OW32239   6.867   2.091   1.298
10447SOL    HW132240   6.816   2.126   1.376
10447SOL    HW232241   6.925   2.016   1.327
10448SOL     OW32242   3.740   4.056   1.697
10448SOL    HW132243   3.792   4.086   1.616
10448SOL    HW232244   3.803   4.045   1.774
10449SOL     OW32245   2.618   5.382   4.547
10449SOL    HW132246   2.560   5.406   4.470
10449SOL    HW232247   2.638   5.284   4.544
10450SOL     OW32248   6.968   2.118   0.277
10450SOL    HW132249   0.028   2.065   0.288
10450SOL    HW232250   6.991   2.211   0.248
10451SOL     OW32251   2.444   4.387   2.853
10451SOL    HW132252   2.417   4.294   2.880
10451SOL    HW232253   2.484   4.434   2.931
10452SOL     OW32254   0.524   3.202   3.848
10452SOL    HW132255   0.494   3.108   3.864
10452SOL    HW232256   0.596   3.203   3.778
10453SOL     OW32257   5.679   5.631   1.446
10453SOL    HW132258   5.752   5.635   1.513
10453SOL    HW232259   5.664   5.536   1.418
10454SOL     OW32260   5.239   2.950   2.237
10454SOL    HW132261   5.165   3.015   2.227
10454SOL    HW232262   5.327   2.999   2.237
10455SOL     OW32263   0.546   5.040   3.931
10455SOL    HW132264   0.576   4.984   3.854
10455SOL    HW232265   0.473   5.101   3.901
10456SOL     OW32266   3.850   6.086   1.141
10456SOL    HW132267   3.807   6.108   1.053
10456SOL    HW232268   3.824   5.994   1.169
10457SOL     OW32269   4.118   3.669   3.375
10457SOL    HW132270   4.076   3.579   3.362
10457SOL    HW232271   4.066   3.738   3.324
10458SOL     OW32272   1.143   6.410   1.012
10458SOL    HW132273   1.093   6.430   1.097
10458SOL    HW232274   1.149   6.311   0.999
10459SOL     OW32275   6.096   5.223   2.187
10459SOL    HW132276   6.041   5.141   2.168
10459SOL    HW232277   6.155   5.243   2.109
10460SOL     OW32278   2.962   5.028   2.065
10460SOL    HW132279   3.041   5.016   2.005
10460SOL    HW232280   2.940   4.941   2.109
10461SOL     OW32281   2.717   6.911   6.639
10461SOL    HW132282   2.689   6.891   6.545
10461SOL    HW232283   2.740   6.826   6.686
10462SOL     OW32284   6.346   0.746   1.062
10462SOL    HW132285   6.422   0.800   1.027
10462SOL    HW232286   6.379   0.684   1.134
10463SOL     OW32287   2.913   4.359   0.347
10463SOL    HW132288   2.833   4.332   0.293
10463SOL    HW232289   2.958   4.278   0.383
10464SOL     OW32290   4.707   0.356   0.481
10464SOL    HW132291   4.705   0.262   0.446
10464SOL    HW232292   4.719   0.355   0.580
10465SOL     OW32293   6.954   5.420   6.316
10465SOL    HW132294   6.976   5.481   6.240
10465SOL    HW232295   0.013   5.404   6.370
10466SOL     OW32296   4.520   5.827   5.028
10466SOL    HW132297   4.460   5.778   4.964
10466SOL    HW232298   4.584   5.762   5.070
10467SOL     OW32299   2.426   1.694   5.133
10467SOL    HW132300   2.513   1.661   5.095
10467SOL    HW232301   2.444   1.745   5.217
10468SOL     OW32302   3.162   6.848   4.472
10468SOL    HW132303   3.163   6.861   4.572
10468SOL    HW232304   3.070   6.824   4.442
10469SOL     OW32305   1.622   4.050   0.667
10469SOL    HW132306   1.664   4.059   0.757
10469SOL    HW232307   1.654   4.125   0.608
10470SOL     OW32308   2.747   1.606   3.893
10470SOL    HW132309   2.697   1.533   3.940
10470SOL    HW232310   2.704   1.625   3.805
10471SOL     OW32311   2.911   3.598   1.426
10471SOL    HW132312   2.902   3.506   1.465
10471SOL    HW232313   2.834   3.616   1.365
10472SOL     OW32314   3.691   0.561   1.880
10472SOL    HW132315   3.697   0.661   1.888
10472SOL    HW232316   3.601   0.531   1.909
10473SOL     OW32317   5.372   6.291   0.216
10473SOL    HW132318   5.446   6.294   0.283
10473SOL    HW232319   5.328   6.202   0.218
10474SOL     OW32320   3.987   0.622   4.492
10474SOL    HW132321   4.033   0.578   4.569
10474SOL    HW232322   4.002   0.721   4.496
10475SOL     OW32323   3.852   6.960   1.592
10475SOL    HW132324   3.802   6.938   1.675
10475SOL    HW232325   3.913   0.014   1.609
10476SOL     OW32326   6.779   5.519   6.515
10476SOL    HW132327   6.736   5.574   6.443
10476SOL    HW232328   6.834   5.447   6.474
10477SOL     OW32329   5.971   4.157   4.919
10477SOL    HW132330   5.881   4.181   4.956
10477SOL    HW232331   6.009   4.079   4.970
10478SOL     OW32332   7.023   5.988   0.992
10478SOL    HW132333   6.954   5.965   0.924
10478SOL    HW232334   0.069   6.045   0.950
10479SOL     OW32335   1.964   3.864   2.750
10479SOL    HW132336   2.037   3.796   2.753
10479SOL    HW232337   1.888   3.834   2.808
10480SOL     OW32338   5.559   6.674   2.195
10480SOL    HW132339   5.652   6.709   2.204
10480SOL    HW232340   5.552   6.617   2.113
10481SOL     OW32341   1.740   0.541   4.828
10481SOL    HW132342   1.653   0.562   4.873
10481SOL    HW232343   1.813   0.593   4.871
10482SOL     OW32344   1.249   6.042   4.822
10482SOL    HW132345   1.240   6.133   4.863
10482SOL    HW232346   1.246   5.973   4.893
10483SOL     OW32347   0.154   5.665   6.844
10483SOL    HW132348   0.067   5.693   6.804
10483SOL    HW232349   0.165   5.708   6.934
10484SOL     OW32350   0.492   1.287   2.065
10484SOL    HW132351   0.410   1.344   2.063
10484SOL    HW232352   0.529   1.278   1.972
10485SOL     OW32353   3.390   3.769   3.526
10485SOL    HW132354   3.348   3.854   3.561
10485SOL    HW232355   3.407   3.778   3.428
10486SOL     OW32356   6.086   6.486   5.170
10486SOL    HW132357   6.128   6.491   5.079
10486SOL    HW232358   5.991   6.457   5.162
10487SOL     OW32359   4.242   1.935   1.779
10487SOL    HW132360   4.161   1.930   1.837
10487SOL    HW232361   4.243   2.022   1.730
10488SOL     OW32362   6.781   2.126   5.231
10488SOL    HW132363   6.776   2.125   5.331
10488SOL    HW232364   6.717   2.194   5.195
10489SOL     OW32365   5.511   4.178   4.044
10489SOL    HW132366   5.460   4.249   3.997
10489SOL    HW232367   5.490   4.179   4.141
10490SOL     OW32368   5.969   6.387   6.515
10490SOL    HW132369   6.052   6.375   6.460
10490SOL    HW232370   5.975   6.473   6.566
10491SOL     OW32371   1.165   3.288   6.169
10491SOL    HW132372   1.243   3.227   6.186
10491SOL    HW232373   1.198   3.382   6.163
10492SOL     OW32374   4.263   0.318   0.569
10492SOL    HW132375   4.188   0.274   0.520
10492SOL    HW232376   4.261   0.288   0.665
10493SOL     OW32377   4.132   5.614   0.771
10493SOL    HW132378   4.155   5.707   0.800
10493SOL    HW232379   4.163   5.600   0.677
10494SOL     OW32380   0.548   4.448   5.778
10494SOL    HW132381   0.538   4.439   5.877
10494SOL    HW232382   0.461   4.480   5.739
10495SOL     OW32383   0.477   6.368   6.589
10495SOL    HW132384   0.440   6.275   6.578
10495SOL    HW232385   0.558   6.365   6.648
10496SOL     OW32386   7.015   3.951   5.362
10496SOL    HW132387   0.057   4.025   5.350
10496SOL    HW232388   6.929   3.988   5.398
10497SOL     OW32389   2.393   6.434   1.223
10497SOL    HW132390   2.387   6.383   1.309
10497SOL    HW232391   2.409   6.370   1.148
10498SOL     OW32392   4.603   5.518   0.368
10498SOL    HW132393   4.547   5.447   0.412
10498SOL    HW232394   4.694   5.519   0.410
10499SOL     OW32395   5.915   5.002   1.945
10499SOL    HW132396   5.895   4.940   1.870
10499SOL    HW232397   5.972   5.078   1.911
10500SOL     OW32398   6.740   3.929   5.777
10500SOL    HW132399   6.748   3.839   5.820
10500SOL    HW232400   6.742   3.999   5.848
10501SOL     OW32401   3.009   5.316   2.716
10501SOL    HW132402   2.958   5.247   2.664
10501SOL    HW232403   2.945   5.371   2.770
10502SOL     OW32404   3.228   4.066   2.457
10502SOL    HW132405   3.225   4.053   2.556
10502SOL    HW232406   3.163   4.137   2.430
10503SOL     OW32407   5.831   2.763   6.844
10503SOL    HW132408   5.884   2.847   6.829
10503SOL    HW232409   5.785   2.737   6.759
10504SOL     OW32410   1.424   2.701   6.233
10504SOL    HW132411   1.376   2.617   6.210
10504SOL    HW232412   1.500   2.681   6.295
10505SOL     OW32413   5.712   6.823   1.242
10505SOL    HW132414   5.775   6.877   1.187
10505SOL    HW232415   5.618   6.853   1.225
10506SOL     OW32416   1.018   2.446   0.667
10506SOL    HW132417   0.944   2.493   0.716
10506SOL    HW232418   1.066   2.511   0.608
10507SOL     OW32419   1.656   4.935   6.007
10507SOL    HW132420   1.568   4.913   6.048
10507SOL    HW232421   1.690   4.857   5.954
10508SOL     OW32422   1.035   5.518   5.194
10508SOL    HW132423   0.999   5.426   5.208
10508SOL    HW232424   1.129   5.513   5.160
10509SOL     OW32425   4.810   2.431   3.423
10509SOL    HW132426   4.881   2.484   3.470
10509SOL    HW232427   4.798   2.343   3.470
10510SOL     OW32428   5.424   5.403   3.927
10510SOL    HW132429   5.404   5.391   4.024
10510SOL    HW232430   5.360   5.469   3.888
10511SOL     OW32431   3.789   2.114   2.299
10511SOL    HW132432   3.886   2.093   2.289
10511SOL    HW232433   3.756   2.160   2.217
10512SOL     OW32434   4.371   1.149   5.014
10512SOL    HW132435   4.470   1.163   5.008
10512SOL    HW232436   4.331   1.159   4.923
10513SOL     OW32437   5.547   3.129   1.776
10513SOL    HW132438   5.468   3.183   1.805
10513SOL    HW232439   5.543   3.038   1.819
10514SOL     OW32440   0.758   3.121   1.674
10514SOL    HW132441   0.722   3.064   1.600
10514SOL    HW232442   0.702   3.205   1.681
10515SOL     OW32443   1.897   2.901   5.290
10515SOL    HW132444   1.924   2.983   5.341
10515SOL    HW232445   1.942   2.902   5.200
10516SOL     OW32446   3.878   2.310   1.237
10516SOL    HW132447   3.823   2.304   1.320
10516SOL    HW232448   3.945   2.384   1.246
10517SOL     OW32449   0.985   2.610   3.662
10517SOL    HW132450   0.946   2.693   3.623
10517SOL    HW232451   0.912   2.554   3.701
10518SOL     OW32452   0.972   5.416   2.786
10518SOL    HW132453   1.049   5.479   2.798
10518SOL    HW232454   0.887   5.463   2.808
10519SOL     OW32455   3.369   6.222   0.959
10519SOL    HW132456   3.271   6.222   0.938
10519SOL    HW232457   3.403   6.316   0.962
10520SOL     OW32458   0.087   2.159   5.065
10520SOL    HW132459   7.022   2.179   5.024
10520SOL    HW232460   0.074   2.096   5.142
10521SOL     OW32461   6.612   3.092   1.277
10521SOL    HW132462   6.536   3.033   1.303
10521SOL    HW232463   6.580   3.187   1.269
10522SOL     OW32464   5.255   2.456   4.013
10522SOL    HW132465   5.275   2.358   4.018
10522SOL    HW232466   5.167   2.474   4.057
10523SOL     OW32467   6.711   4.661   3.088
10523SOL    HW132468   6.612   4.652   3.100
10523SOL    HW232469   6.748   4.717   3.162
10524SOL     OW32470   6.291   6.904   4.998
10524SOL    HW132471   6.242   6.843   4.935
10524SOL    HW232472   6.276   6.874   5.092
10525SOL     OW32473   4.939   1.658   4.889
10525SOL    HW132474   4.915   1.743   4.841
10525SOL    HW232475   4.878   1.585   4.859
10526SOL     OW32476   1.851   4.964   0.525
10526SOL    HW132477   1.848   5.009   0.615
10526SOL    HW232478   1.794   4.882   0.527
10527SOL     OW32479   1.015   0.192   4.681
10527SOL    HW132480   0.993   0.108   4.731
10527SOL    HW232481   0.970   0.190   4.592
10528SOL     OW32482   0.760   3.894   5.835
10528SOL    HW132483   0.778   3.900   5.736
10528SOL    HW232484   0.800   3.973   5.880
10529SOL     OW32485   1.191   5.950   0.119
10529SOL    HW132486   1.092   5.965   0.113
10529SOL    HW232487   1.208   5.856   0.149
10530SOL     OW32488   0.139   6.495   0.686
10530SOL    HW132489   0.129   6.514   0.589
10530SOL    HW232490   0.199   6.563   0.728
10531SOL     OW32491   2.697   3.044   5.332
10531SOL    HW132492   2.684   3.087   5.422
10531SOL    HW232493   2.612   3.049   5.280
10532SOL     OW32494   5.764   6.220   6.492
10532SOL    HW132495   5.770   6.223   6.392
10532SOL    HW232496   5.831   6.283   6.531
10533SOL     OW32497   2.639   5.339   3.461
10533SOL    HW132498   2.678   5.284   3.536
10533SOL    HW232499   2.562   5.393   3.496
10534SOL     OW32500   1.465   6.183   3.126
10534SOL    HW132501   1.404   6.226   3.060
10534SOL    HW232502   1.438   6.209   3.219
10535SOL     OW32503   3.273   2.102   2.799
10535SOL    HW132504   3.227   2.042   2.733
10535SOL    HW232505   3.355   2.141   2.757
10536SOL     OW32506   5.639   1.545   4.034
10536SOL    HW132507   5.565   1.519   4.096
10536SOL    HW232508   5.599   1.582   3.950
10537SOL     OW32509   4.069   0.430   3.774
10537SOL    HW132510   3.971   0.429   3.794
10537SOL    HW232511   4.105   0.336   3.778
10538SOL     OW32512   6.448   3.220   2.752
10538SOL    HW132513   6.526   3.162   2.731
10538SOL    HW232514   6.371   3.196   2.692
10539SOL     OW32515   6.769   0.389   3.088
10539SOL    HW132516   6.684   0.422   3.048
10539SOL    HW232517   6.831   0.466   3.105
10540SOL     OW32518   2.645   3.440   6.196
10540SOL    HW132519   2.643   3.498   6.115
10540SOL    HW232520   2.625   3.346   6.170
10541SOL     OW32521   3.158   3.243   5.168
10541SOL    HW132522   3.220   3.232   5.246
10541SOL    HW232523   3.131   3.153   5.134
10542SOL     OW32524   4.760   6.947   4.124
10542SOL    HW132525   4.827   7.012   4.088
10542SOL    HW232526   4.802   6.857   4.134
10543SOL     OW32527   0.604   3.522   5.074
10543SOL    HW132528   0.596   3.433   5.028
10543SOL    HW232529   0.549   3.590   5.026
10544SOL     OW32530   1.677   1.294   3.099
10544SOL    HW132531   1.759   1.309   3.154
10544SOL    HW232532   1.694   1.322   3.005
10545SOL     OW32533   2.139   1.988   3.009
10545SOL    HW132534   2.149   2.064   2.945
10545SOL    HW232535   2.109   2.023   3.098
10546SOL     OW32536   3.222   6.844   0.379
10546SOL    HW132537   3.153   6.915   0.362
10546SOL    HW232538   3.179   6.754   0.374
10547SOL     OW32539   4.197   0.268   5.032
10547SOL    HW132540   4.104   0.268   4.997
10547SOL    HW232541   4.254   0.207   4.978
10548SOL     OW32542   0.333   4.957   4.439
10548SOL    HW132543   0.253   4.912   4.399
10548SOL    HW232544   0.410   4.893   4.439
10549SOL     OW32545   0.056   1.231   0.598
10549SOL    HW132546   6.992   1.214   0.553
10549SOL    HW232547   0.090   1.322   0.574
10550SOL     OW32548   4.254   6.491   3.887
10550SOL    HW132549   4.198   6.417   3.850
10550SOL    HW232550   4.348   6.458   3.901
10551SOL     OW32551   3.449   2.119   5.825
10551SOL    HW132552   3.386   2.051   5.862
10551SOL    HW232553   3.427   2.136   5.729
10552SOL     OW32554   3.246   0.902   4.566
10552SOL    HW132555   3.234   1.000   4.554
10552SOL    HW232556   3.233   0.878   4.662
10553SOL     OW32557   0.269   4.896   0.497
10553SOL    HW132558   0.186   4.952   0.493
10553SOL    HW232559   0.261   4.821   0.432
10554SOL     OW32560   6.370   5.453   2.297
10554SOL    HW132561   6.381   5.539   2.346
10554SOL    HW232562   6.392   5.376   2.358
10555SOL     OW32563   3.689   2.970   0.412
10555SOL    HW132564   3.683   2.997   0.508
10555SOL    HW232565   3.781   2.987   0.377
10556SOL     OW32566   2.192   1.775   3.262
10556SOL    HW132567   2.254   1.756   3.338
10556SOL    HW232568   2.243   1.817   3.187
10557SOL     OW32569   1.963   4.158   3.854
10557SOL    HW132570   1.891   4.127   3.915
10557SOL    HW232571   1.992   4.250   3.880
10558SOL     OW32572   2.489   5.406   5.401
10558SOL    HW132573   2.459   5.423   5.495
10558SOL    HW232574   2.583   5.372   5.402
10559SOL     OW32575   4.140   6.728   6.318
10559SOL    HW132576   4.104   6.682   6.399
10559SOL    HW232577   4.070   6.788   6.280
10560SOL     OW32578   5.507   6.563   1.940
10560SOL    HW132579   5.435   6.526   1.880
10560SOL    HW232580   5.596   6.530   1.909
10561SOL     OW32581   5.778   4.354   0.255
10561SOL    HW132582   5.820   4.297   0.184
10561SOL    HW232583   5.700   4.402   0.216
10562SOL     OW32584   3.956   6.014   2.508
10562SOL    HW132585   3.891   5.977   2.575
10562SOL    HW232586   3.964   5.951   2.431
10563SOL     OW32587   0.617   0.159   1.278
10563SOL    HW132588   0.580   0.066   1.269
10563SOL    HW232589   0.677   0.164   1.358
10564SOL     OW32590   5.707   5.585   4.043
10564SOL    HW132591   5.629   5.533   4.079
10564SOL    HW232592   5.743   5.539   3.962
10565SOL     OW32593   0.470   6.704   5.255
10565SOL    HW132594   0.452   6.743   5.165
10565SOL    HW232595   0.413   6.749   5.324
10566SOL     OW32596   2.330   3.420   0.266
10566SOL    HW132597   2.430   3.425   0.265
10566SOL    HW232598   2.296   3.397   0.174
10567SOL     OW32599   1.117   2.268   6.396
10567SOL    HW132600   1.129   2.187   6.340
10567SOL    HW232601   1.066   2.245   6.479
10568SOL     OW32602   5.227   2.417   5.819
10568SOL    HW132603   5.188   2.450   5.905
10568SOL    HW232604   5.311   2.367   5.837
10569SOL     OW32605   5.696   6.666   0.962
10569SOL    HW132606   5.683   6.713   1.049
10569SOL    HW232607   5.609   6.627   0.931
10570SOL     OW32608   1.066   4.685   3.793
10570SOL    HW132609   1.064   4.587   3.810
10570SOL    HW232610   0.985   4.712   3.741
10571SOL     OW32611   0.049   4.281   5.875
10571SOL    HW132612   7.004   4.268   5.804
10571SOL    HW232613   0.089   4.193   5.900
10572SOL     OW32614   6.169   4.494   0.653
10572SOL    HW132615   6.143   4.424   0.587
10572SOL    HW232616   6.201   4.450   0.737
10573SOL     OW32617   5.347   1.315   3.506
10573SOL    HW132618   5.410   1.249   3.466
10573SOL    HW232619   5.311   1.278   3.592
10574SOL     OW32620   6.760   2.133   3.521
10574SOL    HW132621   6.798   2.217   3.559
10574SOL    HW232622   6.709   2.154   3.437
10575SOL     OW32623   6.381   0.504   1.213
10575SOL    HW132624   6.297   0.453   1.194
10575SOL    HW232625   6.404   0.496   1.309
10576SOL     OW32626   1.932   4.734   3.897
10576SOL    HW132627   1.973   4.744   3.988
10576SOL    HW232628   1.857   4.667   3.902
10577SOL     OW32629   3.990   5.984   0.613
10577SOL    HW132630   3.967   6.078   0.640
10577SOL    HW232631   3.968   5.971   0.517
10578SOL     OW32632   6.679   3.789   4.307
10578SOL    HW132633   6.618   3.721   4.347
10578SOL    HW232634   6.628   3.845   4.241
10579SOL     OW32635   1.617   3.480   0.260
10579SOL    HW132636   1.572   3.422   0.193
10579SOL    HW232637   1.632   3.571   0.221
10580SOL     OW32638   6.772   6.757   6.818
10580SOL    HW132639   6.803   6.793   6.729
10580SOL    HW232640   6.743   6.833   6.876
10581SOL     OW32641   5.424   6.868   2.855
10581SOL    HW132642   5.345   6.838   2.802
10581SOL    HW232643   5.504   6.814   2.830
10582SOL     OW32644   5.596   4.470   6.188
10582SOL    HW132645   5.510   4.511   6.220
10582SOL    HW232646   5.577   4.382   6.146
10583SOL     OW32647   2.796   1.221   5.575
10583SOL    HW132648   2.852   1.298   5.545
10583SOL    HW232649   2.749   1.181   5.496
10584SOL     OW32650   0.740   0.179   5.222
10584SOL    HW132651   0.798   0.260   5.213
10584SOL    HW232652   0.677   0.191   5.299
10585SOL     OW32653   0.414   6.809   4.976
10585SOL    HW132654   0.482   6.773   4.912
10585SOL    HW232655   0.374   6.892   4.938
10586SOL     OW32656   4.021   4.419   5.339
10586SOL    HW132657   3.958   4.359   5.289
10586SOL    HW232658   4.103   4.432   5.284
10587SOL     OW32659   2.209   6.018   5.375
10587SOL    HW132660   2.275   5.949   5.346
10587SOL    HW232661   2.174   6.066   5.294
10588SOL     OW32662   1.007   4.178   4.733
10588SOL    HW132663   0.932   4.123   4.769
10588SOL    HW232664   1.050   4.129   4.657
10589SOL     OW32665   5.326   5.699   3.898
10589SOL    HW132666   5.264   5.771   3.869
10589SOL    HW232667   5.413   5.708   3.851
10590SOL     OW32668   0.774   5.496   2.988
10590SOL    HW132669   0.725   5.418   3.026
10590SOL    HW232670   0.709   5.571   2.972
10591SOL     OW32671   0.216   2.497   1.620
10591SOL    HW132672   0.221   2.472   1.717
10591SOL    HW232673   0.159   2.431   1.571
10592SOL     OW32674   6.154   2.528   5.031
10592SOL    HW132675   6.180   2.510   4.936
10592SOL    HW232676   6.232   2.567   5.080
10593SOL     OW32677   3.559   5.701   2.808
10593SOL    HW132678   3.647   5.658   2.829
10593SOL    HW232679   3.498   5.633   2.767
10594SOL     OW32680   2.881   0.128   3.761
10594SOL    HW132681   2.808   0.116   3.694
10594SOL    HW232682   2.928   0.042   3.776
10595SOL     OW32683   6.223   6.516   0.522
10595SOL    HW132684   6.235   6.417   0.529
10595SOL    HW232685   6.238   6.558   0.612
10596SOL     OW32686   5.162   2.620   6.953
10596SOL    HW132687   5.148   2.565   0.012
10596SOL    HW232688   5.088   2.602   6.888
10597SOL     OW32689   2.368   0.763   6.342
10597SOL    HW132690   2.360   0.838   6.408
10597SOL    HW232691   2.302   0.777   6.268
10598SOL     OW32692   2.450   2.329   6.176
10598SOL    HW132693   2.395   2.295   6.252
10598SOL    HW232694   2.436   2.428   6.166
10599SOL     OW32695   6.505   2.848   6.417
10599SOL    HW132696   6.448   2.886   6.489
10599SOL    HW232697   6.583   2.801   6.458
10600SOL     OW32698   2.677   1.632   0.825
10600SOL    HW132699   2.705   1.723   0.793
10600SOL    HW232700   2.719   1.614   0.913
10601SOL     OW32701   0.644   6.496   5.959
10601SOL    HW132702   0.604   6.585   5.982
10601SOL    HW232703   0.740   6.507   5.934
10602SOL     OW32704   0.333   0.572   0.910
10602SOL    HW132705   0.282   0.598   0.828
10602SOL    HW232706   0.274   0.519   0.971
10603SOL     OW32707   4.844   6.800   2.034
10603SOL    HW132708   4.864   6.703   2.022
10603SOL    HW232709   4.760   6.811   2.087
10604SOL     OW32710   5.742   6.941   4.438
10604SOL    HW132711   5.838   6.914   4.433
10604SOL    HW232712   5.701   6.933   4.347
10605SOL     OW32713   2.123   2.202   1.442
10605SOL    HW132714   2.211   2.248   1.439
10605SOL    HW232715   2.069   2.240   1.518
10606SOL     OW32716   6.078   0.514   0.929
10606SOL    HW132717   6.161   0.458   0.922
10606SOL    HW232718   6.088   0.596   0.872
10607SOL     OW32719   3.698   4.100   6.625
10607SOL    HW132720   3.638   4.040   6.677
10607SOL    HW232721   3.743   4.047   6.553
10608SOL     OW32722   5.567   3.419   3.058
10608SOL    HW132723   5.656   3.381   3.034
10608SOL    HW232724   5.573   3.519   3.057
10609SOL     OW32725   4.181   1.787   6.955
10609SOL    HW132726   4.176   1.707   7.016
10609SOL    HW232727   4.089   1.822   6.937
10610SOL     OW32728   0.618   0.448   3.894
10610SOL    HW132729   0.656   0.524   3.841
10610SOL    HW232730   0.525   0.472   3.923
10611SOL     OW32731   3.369   5.549   4.790
10611SOL    HW132732   3.422   5.584   4.867
10611SOL    HW232733   3.271   5.557   4.809
10612SOL     OW32734   5.462   1.558   3.546
10612SOL    HW132735   5.538   1.551   3.482
10612SOL    HW232736   5.406   1.475   3.543
10613SOL     OW32737   5.424   0.398   4.487
10613SOL    HW132738   5.524   0.407   4.484
10613SOL    HW232739   5.387   0.417   4.396
10614SOL     OW32740   4.469   0.762   6.233
10614SOL    HW132741   4.480   0.675   6.186
10614SOL    HW232742   4.545   0.823   6.210
10615SOL     OW32743   1.412   1.793   6.281
10615SOL    HW132744   1.465   1.710   6.261
10615SOL    HW232745   1.443   1.867   6.223
10616SOL     OW32746   2.800   6.662   7.001
10616SOL    HW132747   2.702   6.644   7.006
10616SOL    HW232748   2.825   6.688   6.908
10617SOL     OW32749   2.590   3.432   1.759
10617SOL    HW132750   2.507   3.463   1.806
10617SOL    HW232751   2.626   3.351   1.805
10618SOL     OW32752   0.570   5.121   4.601
10618SOL    HW132753   0.654   5.170   4.576
10618SOL    HW232754   0.549   5.052   4.533
10619SOL     OW32755   1.383   2.449   3.024
10619SOL    HW132756   1.306   2.409   3.075
10619SOL    HW232757   1.408   2.537   3.065
10620SOL     OW32758   2.864   1.112   6.672
10620SOL    HW132759   2.787   1.069   6.720
10620SOL    HW232760   2.931   1.043   6.647
10621SOL     OW32761   0.649   3.435   3.447
10621SOL    HW132762   0.636   3.355   3.506
10621SOL    HW232763   0.731   3.422   3.392
10622SOL     OW32764   4.677   2.829   0.186
10622SOL    HW132765   4.578   2.837   0.182
10622SOL    HW232766   4.705   2.747   0.136
10623SOL     OW32767   5.469   6.074   6.342
10623SOL    HW132768   5.504   6.079   6.248
10623SOL    HW232769   5.468   5.978   6.371
10624SOL     OW32770   0.520   2.788   5.372
10624SOL    HW132771   0.562   2.868   5.415
10624SOL    HW232772   0.580   2.753   5.299
10625SOL     OW32773   6.348   4.557   6.484
10625SOL    HW132774   6.357   4.656   6.481
10625SOL    HW232775   6.260   4.530   6.444
10626SOL     OW32776   5.151   3.488   1.215
10626SOL    HW132777   5.182   3.407   1.264
10626SOL    HW232778   5.206   3.500   1.132
10627SOL     OW32779   5.776   5.894   5.812
10627SOL    HW132780   5.677   5.884   5.812
10627SOL    HW232781   5.815   5.843   5.889
10628SOL     OW32782   4.144   6.799   1.401
10628SOL    HW132783   4.158   6.703   1.426
10628SOL    HW232784   4.186   6.858   1.470
10629SOL     OW32785   2.817   5.622   4.094
10629SOL    HW132786   2.765   5.548   4.050
10629SOL    HW232787   2.825   5.603   4.192
10630SOL     OW32788   4.033   0.629   2.314
10630SOL    HW132789   3.965   0.601   2.382
10630SOL    HW232790   3.985   0.659   2.231
10631SOL     OW32791   4.433   6.115   6.661
10631SOL    HW132792   4.468   6.023   6.680
10631SOL    HW232793   4.429   6.129   6.562
10632SOL     OW32794   4.045   6.030   3.643
10632SOL    HW132795   4.040   6.049   3.545
10632SOL    HW232796   3.956   5.995   3.675
10633SOL     OW32797   1.730   2.950   1.575
10633SOL    HW132798   1.745   3.027   1.512
10633SOL    HW232799   1.642   2.960   1.619
10634SOL     OW32800   6.894   3.983   6.806
10634SOL    HW132801   6.798   3.999   6.831
10634SOL    HW232802   6.901   3.898   6.752
10635SOL     OW32803   2.458   3.879   6.358
10635SOL    HW132804   2.540   3.880   6.415
10635SOL    HW232805   2.482   3.908   6.265
10636SOL     OW32806   6.399   2.261   6.259
10636SOL    HW132807   6.376   2.181   6.315
10636SOL    HW232808   6.451   2.326   6.315
10637SOL     OW32809   2.866   0.602   6.939
10637SOL    HW132810   2.827   0.663   6.870
10637SOL    HW232811   2.836   0.630   0.006
10638SOL     OW32812   6.906   5.305   1.629
10638SOL    HW132813   6.860   5.386   1.593
10638SOL    HW232814   6.960   5.329   1.709
10639SOL     OW32815   1.865   4.584   1.025
10639SOL    HW132816   1.883   4.672   0.981
10639SOL    HW232817   1.767   4.575   1.042
10640SOL     OW32818   3.932   0.046   3.542
10640SOL    HW132819   4.027   0.017   3.542
10640SOL    HW232820   3.895   0.039   3.449
10641SOL     OW32821   1.605   0.548   3.281
10641SOL    HW132822   1.565   0.541   3.189
10641SOL    HW232823   1.534   0.572   3.346
10642SOL     OW32824   5.412   2.273   6.668
10642SOL    HW132825   5.475   2.279   6.590
10642SOL    HW232826   5.407   2.362   6.713
10643SOL     OW32827   1.519   4.919   5.629
10643SOL    HW132828   1.616   4.916   5.651
10643SOL    HW232829   1.505   4.884   5.536
10644SOL     OW32830   0.280   2.440   3.117
10644SOL    HW132831   0.370   2.473   3.088
10644SOL    HW232832   0.210   2.473   3.053
10645SOL     OW32833   2.532   2.461   3.637
10645SOL    HW132834   2.599   2.417   3.578
10645SOL    HW232835   2.559   2.449   3.733
10646SOL     OW32836   5.304   0.960   4.301
10646SOL    HW132837   5.390   1.006   4.323
10646SOL    HW232838   5.259   0.933   4.386
10647SOL     OW32839   3.894   4.927   4.556
10647SOL    HW132840   3.982   4.894   4.591
10647SOL    HW232841   3.903   4.947   4.458
10648SOL     OW32842   5.465   5.573   5.419
10648SOL    HW132843   5.442   5.541   5.511
10648SOL    HW232844   5.410   5.523   5.352
10649SOL     OW32845   0.041   3.557   2.779
10649SOL    HW132846   6.968   3.556   2.803
10649SOL    HW232847   0.078   3.464   2.786
10650SOL     OW32848   0.092   0.656   4.197
10650SOL    HW132849   0.165   0.619   4.141
10650SOL    HW232850   0.121   0.658   4.293
10651SOL     OW32851   3.524   6.195   6.045
10651SOL    HW132852   3.526   6.097   6.023
10651SOL    HW232853   3.434   6.220   6.080
10652SOL     OW32854   1.976   6.858   0.109
10652SOL    HW132855   2.029   6.929   0.061
10652SOL    HW232856   1.879   6.868   0.086
10653SOL     OW32857   4.161   6.349   4.718
10653SOL    HW132858   4.192   6.419   4.654
10653SOL    HW232859   4.183   6.378   4.811
10654SOL     OW32860   5.932   2.249   4.604
10654SOL    HW132861   5.853   2.282   4.553
10654SOL    HW232862   5.902   2.177   4.667
10655SOL     OW32863   0.931   4.640   1.259
10655SOL    HW132864   0.896   4.569   1.319
10655SOL    HW232865   0.965   4.716   1.315
10656SOL     OW32866   6.407   1.050   1.924
10656SOL    HW132867   6.378   1.100   1.842
10656SOL    HW232868   6.498   1.013   1.910
10657SOL     OW32869   5.997   0.594   3.407
10657SOL    HW132870   6.054   0.535   3.463
10657SOL    HW232871   5.986   0.554   3.316
10658SOL     OW32872   6.764   3.311   5.049
10658SOL    HW132873   6.742   3.363   5.131
10658SOL    HW232874   6.863   3.305   5.039
10659SOL     OW32875   1.010   5.134   0.794
10659SOL    HW132876   1.032   5.043   0.760
10659SOL    HW232877   0.934   5.129   0.858
10660SOL     OW32878   6.939   3.635   5.664
10660SOL    HW132879   6.944   3.714   5.724
10660SOL    HW232880   7.001   3.564   5.697
10661SOL     OW32881   2.018   3.876   6.324
10661SOL    HW132882   1.935   3.903   6.373
10661SOL    HW232883   2.088   3.848   6.389
10662SOL     OW32884   2.731   1.352   2.919
10662SOL    HW132885   2.641   1.345   2.876
10662SOL    HW232886   2.756   1.448   2.928
10663SOL     OW32887   1.848   1.811   4.223
10663SOL    HW132888   1.913   1.749   4.267
10663SOL    HW232889   1.883   1.904   4.227
10664SOL     OW32890   1.173   5.337   4.745
10664SOL    HW132891   1.107   5.263   4.732
10664SOL    HW232892   1.126   5.416   4.783
10665SOL     OW32893   2.397   2.737   6.302
10665SOL    HW132894   2.346   2.679   6.366
10665SOL    HW232895   2.402   2.692   6.213
10666SOL     OW32896   3.672   3.749   2.286
10666SOL    HW132897   3.575   3.774   2.288
10666SOL    HW232898   3.723   3.819   2.237
10667SOL     OW32899   5.817   2.269   3.044
10667SOL    HW132900   5.725   2.305   3.026
10667SOL    HW232901   5.827   2.248   3.141
10668SOL     OW32902   3.437   2.138   5.169
10668SOL    HW132903   3.403   2.045   5.157
10668SOL    HW232904   3.361   2.202   5.164
10669SOL     OW32905   5.209   1.443   0.873
10669SOL    HW132906   5.124   1.440   0.821
10669SOL    HW232907   5.200   1.509   0.948
10670SOL     OW32908   5.048   3.813   4.374
10670SOL    HW132909   4.968   3.753   4.379
10670SOL    HW232910   5.071   3.830   4.278
10671SOL     OW32911   1.378   1.776   4.384
10671SOL    HW132912   1.474   1.751   4.392
10671SOL    HW232913   1.339   1.733   4.303
10672SOL     OW32914   5.464   3.673   1.754
10672SOL    HW132915   5.377   3.689   1.801
10672SOL    HW232916   5.538   3.671   1.821
10673SOL     OW32917   1.997   1.026   1.165
10673SOL    HW132918   2.055   1.052   1.088
10673SOL    HW232919   1.903   1.053   1.148
10674SOL     OW32920   3.598   3.595   4.861
10674SOL    HW132921   3.548   3.655   4.923
10674SOL    HW232922   3.685   3.638   4.836
10675SOL     OW32923   3.643   6.809   5.702
10675SOL    HW132924   3.606   6.899   5.679
10675SOL    HW232925   3.734   6.800   5.663
10676SOL     OW32926   1.607   6.183   5.682
10676SOL    HW132927   1.696   6.218   5.653
10676SOL    HW232928   1.593   6.092   5.645
10677SOL     OW32929   0.812   2.014   0.800
10677SOL    HW132930   0.745   2.080   0.766
10677SOL    HW232931   0.804   2.007   0.900
10678SOL     OW32932   4.412   5.526   3.896
10678SOL    HW132933   4.419   5.595   3.968
10678SOL    HW232934   4.495   5.528   3.840
10679SOL     OW32935   4.161   4.012   6.765
10679SOL    HW132936   4.223   4.065   6.822
10679SOL    HW232937   4.137   3.927   6.812
10680SOL     OW32938   3.784   1.873   4.216
10680SOL    HW132939   3.696   1.830   4.234
10680SOL    HW232940   3.770   1.962   4.172
10681SOL     OW32941   6.864   2.914   6.812
10681SOL    HW132942   6.840   2.817   6.818
10681SOL    HW232943   6.911   2.932   6.726
10682SOL     OW32944   6.092   3.336   5.628
10682SOL    HW132945   6.062   3.248   5.592
10682SOL    HW232946   6.180   3.326   5.674
10683SOL     OW32947   3.768   0.805   3.456
10683SOL    HW132948   3.815   0.748   3.524
10683SOL    HW232949   3.746   0.894   3.497
10684SOL     OW32950   4.680   4.518   1.119
10684SOL    HW132951   4.683   4.585   1.044
10684SOL    HW232952   4.741   4.548   1.192
10685SOL     OW32953   0.992   5.439   1.740
10685SOL    HW132954   0.950   5.395   1.819
10685SOL    HW232955   0.989   5.377   1.662
10686SOL     OW32956   2.081   3.918   0.306
10686SOL    HW132957   2.040   3.876   0.387
10686SOL    HW232958   2.176   3.887   0.297
10687SOL     OW32959   6.713   4.751   2.678
10687SOL    HW132960   6.662   4.678   2.724
10687SOL    HW232961   6.811   4.734   2.689
10688SOL     OW32962   5.728   1.624   2.368
10688SOL    HW132963   5.654   1.610   2.303
10688SOL    HW232964   5.796   1.685   2.328
10689SOL     OW32965   6.965   0.083   2.409
10689SOL    HW132966   6.997   0.067   2.502
10689SOL    HW232967   7.007   0.166   2.373
10690SOL     OW32968   6.623   6.109   3.402
10690SOL    HW132969   6.527   6.137   3.391
10690SOL    HW232970   6.673   6.132   3.319
10691SOL     OW32971   3.224   1.817   2.232
10691SOL    HW132972   3.135   1.772   2.246
10691SOL    HW232973   3.212   1.916   2.237
10692SOL     OW32974   2.719   1.175   5.264
10692SOL    HW132975   2.811   1.137   5.253
10692SOL    HW232976   2.655   1.102   5.286
10693SOL     OW32977   1.256   6.214   1.259
10693SOL    HW132978   1.229   6.187   1.166
10693SOL    HW232979   1.188   6.182   1.325
10694SOL     OW32980   4.973   5.976   5.920
10694SOL    HW132981   4.892   5.918   5.913
10694SOL    HW232982   4.979   6.034   5.839
10695SOL     OW32983   0.778   3.383   1.433
10695SOL    HW132984   0.687   3.362   1.469
10695SOL    HW232985   0.804   3.314   1.365
10696SOL     OW32986   6.173   4.665   4.534
10696SOL    HW132987   6.101   4.710   4.481
10696SOL    HW232988   6.262   4.685   4.492
10697SOL     OW32989   0.961   5.837   4.985
10697SOL    HW132990   1.054   5.819   5.017
10697SOL    HW232991   0.954   5.811   4.888
10698SOL     OW32992   5.048   4.166   6.711
10698SOL    HW132993   4.967   4.109   6.695
10698SOL    HW232994   5.027   4.233   6.783
10699SOL     OW32995   3.512   4.341   0.950
10699SOL    HW132996   3.439   4.355   1.016
10699SOL    HW232997   3.509   4.247   0.915
10700SOL     OW32998   5.511   6.734   0.616
10700SOL    HW132999   5.491   6.684   0.532
10700SOL    HW233000   5.600   6.779   0.607
10701SOL     OW33001   2.626   0.022   6.227
10701SOL    HW133002   2.675   0.090   6.282
10701SOL    HW233003   2.548   0.065   6.182
10702SOL     OW33004   4.918   3.441   2.646
10702SOL    HW133005   5.011   3.477   2.652
10702SOL    HW233006   4.917   3.346   2.677
10703SOL     OW33007   2.419   2.318   5.680
10703SOL    HW133008   2.389   2.379   5.754
10703SOL    HW233009   2.491   2.258   5.714
10704SOL     OW33010   0.419   5.632   2.604
10704SOL    HW133011   0.320   5.622   2.608
10704SOL    HW233012   0.463   5.552   2.644
10705SOL     OW33013   5.655   5.155   0.978
10705SOL    HW133014   5.586   5.094   1.017
10705SOL    HW233015   5.612   5.240   0.949
10706SOL     OW33016   4.711   0.234   2.173
10706SOL    HW133017   4.625   0.283   2.181
10706SOL    HW233018   4.740   0.234   2.077
10707SOL     OW33019   6.145   0.237   4.613
10707SOL    HW133020   6.106   0.173   4.678
10707SOL    HW233021   6.228   0.277   4.651
10708SOL     OW33022   4.722   1.766   2.562
10708SOL    HW133023   4.673   1.810   2.637
10708SOL    HW233024   4.658   1.713   2.507
10709SOL     OW33025   5.526   5.752   3.738
10709SOL    HW133026   5.594   5.693   3.694
10709SOL    HW233027   5.471   5.798   3.667
10710SOL     OW33028   5.218   0.781   3.283
10710SOL    HW133029   5.295   0.844   3.290
10710SOL    HW233030   5.173   0.793   3.194
10711SOL     OW33031   3.062   6.451   3.560
10711SOL    HW133032   3.005   6.391   3.505
10711SOL    HW233033   3.061   6.543   3.521
10712SOL     OW33034   4.299   0.602   2.432
10712SOL    HW133035   4.207   0.582   2.400
10712SOL    HW233036   4.295   0.673   2.502
10713SOL     OW33037   1.394   2.943   0.545
10713SOL    HW133038   1.322   2.932   0.477
10713SOL    HW233039   1.470   2.994   0.505
10714SOL     OW33040   4.231   3.288   5.308
10714SOL    HW133041   4.142   3.297   5.353
10714SOL    HW233042   4.272   3.200   5.333
10715SOL     OW33043   5.017   0.427   2.195
10715SOL    HW133044   5.089   0.392   2.254
10715SOL    HW233045   4.928   0.414   2.239
10716SOL     OW33046   6.403   2.335   3.490
10716SOL    HW133047   6.489   2.294   3.462
10716SOL    HW233048   6.404   2.433   3.471
10717SOL     OW33049   1.951   2.657   0.384
10717SOL    HW133050   1.917   2.728   0.447
10717SOL    HW233051   1.939   2.688   0.290
10718SOL     OW33052   1.063   4.383   6.522
10718SOL    HW133053   1.123   4.401   6.444
10718SOL    HW233054   1.112   4.329   6.590
10719SOL     OW33055   6.333   5.992   3.355
10719SOL    HW133056   6.363   6.001   3.260
10719SOL    HW233057   6.237   5.962   3.357
10720SOL     OW33058   5.722   5.348   4.353
10720SOL    HW133059   5.680   5.424   4.303
10720SOL    HW233060   5.769   5.383   4.434
10721SOL     OW33061   5.033   3.895   5.496
10721SOL    HW133062   4.983   3.845   5.425
10721SOL    HW233063   5.048   3.990   5.466
10722SOL     OW33064   6.108   3.811   6.815
10722SOL    HW133065   6.060   3.723   6.816
10722SOL    HW233066   6.050   3.880   6.772
10723SOL     OW33067   0.309   1.881   6.775
10723SOL    HW133068   0.312   1.941   6.696
10723SOL    HW233069   0.271   1.932   6.853
10724SOL     OW33070   0.545   6.956   6.375
10724SOL    HW133071   0.612   6.981   6.445
10724SOL    HW233072   0.473   6.899   6.417
10725SOL     OW33073   2.082   5.630   5.428
10725SOL    HW133074   2.166   5.623   5.375
10725SOL    HW233075   2.055   5.539   5.460
10726SOL     OW33076   4.814   0.778   4.205
10726SOL    HW133077   4.856   0.713   4.142
10726SOL    HW233078   4.742   0.732   4.257
10727SOL     OW33079   0.765   4.688   6.104
10727SOL    HW133080   0.780   4.761   6.037
10727SOL    HW233081   0.852   4.660   6.144
10728SOL     OW33082   0.351   5.241   0.028
10728SOL    HW133083   0.360   5.336   7.021
10728SOL    HW233084   0.368   5.236   0.127
10729SOL     OW33085   6.253   1.789   1.967
10729SOL    HW133086   6.342   1.824   1.938
10729SOL    HW233087   6.266   1.724   2.042
10730SOL     OW33088   3.285   6.848   0.802
10730SOL    HW133089   3.307   6.941   0.770
10730SOL    HW233090   3.355   6.818   0.867
10731SOL     OW33091   3.708   0.779   1.177
10731SOL    HW133092   3.664   0.735   1.255
10731SOL    HW233093   3.774   0.847   1.209
10732SOL     OW33094   0.382   4.282   5.402
10732SOL    HW133095   0.421   4.271   5.493
10732SOL    HW233096   0.445   4.334   5.345
10733SOL     OW33097   5.912   0.983   6.550
10733SOL    HW133098   5.937   1.016   6.641
10733SOL    HW233099   5.817   0.950   6.552
10734SOL     OW33100   1.213   1.840   1.509
10734SOL    HW133101   1.255   1.901   1.441
10734SOL    HW233102   1.126   1.805   1.473
10735SOL     OW33103   0.522   2.575   2.316
10735SOL    HW133104   0.542   2.505   2.247
10735SOL    HW233105   0.487   2.531   2.399
10736SOL     OW33106   1.655   0.236   3.601
10736SOL    HW133107   1.676   0.159   3.540
10736SOL    HW233108   1.692   0.218   3.692
10737SOL     OW33109   0.739   2.003   1.059
10737SOL    HW133110   0.775   2.031   1.148
10737SOL    HW233111   0.697   1.912   1.067
10738SOL     OW33112   3.486   5.714   3.115
10738SOL    HW133113   3.540   5.711   3.030
10738SOL    HW233114   3.542   5.750   3.189
10739SOL     OW33115   1.743   2.134   1.466
10739SOL    HW133116   1.782   2.226   1.466
10739SOL    HW233117   1.723   2.107   1.560
10740SOL     OW33118   6.500   4.417   5.645
10740SOL    HW133119   6.454   4.504   5.629
10740SOL    HW233120   6.432   4.349   5.674
10741SOL     OW33121   4.025   1.521   1.523
10741SOL    HW133122   4.093   1.588   1.490
10741SOL    HW233123   3.957   1.506   1.451
10742SOL     OW33124   6.795   6.404   1.272
10742SOL    HW133125   6.833   6.392   1.180
10742SOL    HW233126   6.697   6.423   1.266
10743SOL     OW33127   1.865   1.522   4.913
10743SOL    HW133128   1.849   1.477   4.825
10743SOL    HW233129   1.801   1.599   4.922
10744SOL     OW33130   3.667   1.641   0.606
10744SOL    HW133131   3.685   1.624   0.509
10744SOL    HW233132   3.701   1.732   0.630
10745SOL     OW33133   0.141   5.341   5.377
10745SOL    HW133134   0.176   5.272   5.440
10745SOL    HW233135   0.067   5.301   5.322
10746SOL     OW33136   1.045   3.638   6.932
10746SOL    HW133137   0.954   3.661   6.967
10746SOL    HW233138   1.067   3.544   6.957
10747SOL     OW33139   3.077   0.897   5.095
10747SOL    HW133140   3.019   0.817   5.077
10747SOL    HW233141   3.170   0.866   5.116
10748SOL     OW33142   5.396   0.870   2.354
10748SOL    HW133143   5.341   0.866   2.271
10748SOL    HW233144   5.365   0.946   2.411
10749SOL     OW33145   0.772   6.124   5.300
10749SOL    HW133146   0.821   6.055   5.353
10749SOL    HW233147   0.804   6.121   5.205
10750SOL     OW33148   4.290   6.939   5.011
10750SOL    HW133149   4.226   6.866   4.989
10750SOL    HW233150   4.312   6.936   5.108
10751SOL     OW33151   2.013   4.475   4.203
10751SOL    HW133152   2.111   4.459   4.218
10751SOL    HW233153   1.962   4.449   4.285
10752SOL     OW33154   6.174   4.368   5.476
10752SOL    HW133155   6.149   4.388   5.381
10752SOL    HW233156   6.146   4.276   5.500
10753SOL     OW33157   0.087   4.287   3.827
10753SOL    HW133158   0.090   4.248   3.919
10753SOL    HW233159   0.172   4.334   3.807
10754SOL     OW33160   1.560   0.314   3.024
10754SOL    HW133161   1.602   0.379   2.960
10754SOL    HW233162   1.521   0.238   2.972
10755SOL     OW33163   6.964   0.276   1.569
10755SOL    HW133164   6.940   0.294   1.474
10755SOL    HW233165   6.884   0.294   1.628
10756SOL     OW33166   6.493   5.330   5.504
10756SOL    HW133167   6.468   5.408   5.563
10756SOL    HW233168   6.552   5.268   5.556
10757SOL     OW33169   2.776   2.705   6.480
10757SOL    HW133170   2.781   2.630   6.414
10757SOL    HW233171   2.732   2.784   6.437
10758SOL     OW33172   0.840   6.132   3.669
10758SOL    HW133173   0.849   6.052   3.728
10758SOL    HW233174   0.847   6.103   3.573
10759SOL     OW33175   1.570   3.067   0.379
10759SOL    HW133176   1.570   3.147   0.438
10759SOL    HW233177   1.649   3.071   0.317
10760SOL     OW33178   5.609   0.817   3.132
10760SOL    HW133179   5.687   0.813   3.069
10760SOL    HW233180   5.643   0.832   3.225
10761SOL     OW33181   1.355   5.586   5.344
10761SOL    HW133182   1.283   5.558   5.408
10761SOL    HW233183   1.337   5.547   5.254
10762SOL     OW33184   2.922   0.664   4.699
10762SOL    HW133185   3.009   0.622   4.673
10762SOL    HW233186   2.939   0.749   4.749
10763SOL     OW33187   4.208   0.518   2.928
10763SOL    HW133188   4.152   0.516   2.846
10763SOL    HW233189   4.180   0.446   2.990
10764SOL     OW33190   4.971   1.770   5.148
10764SOL    HW133191   4.957   1.711   5.068
10764SOL    HW233192   5.002   1.860   5.119
10765SOL     OW33193   5.230   2.696   1.103
10765SOL    HW133194   5.286   2.744   1.036
10765SOL    HW233195   5.215   2.756   1.183
10766SOL     OW33196   3.839   4.643   0.533
10766SOL    HW133197   3.909   4.698   0.487
10766SOL    HW233198   3.877   4.605   0.618
10767SOL     OW33199   2.543   0.583   0.822
10767SOL    HW133200   2.513   0.677   0.804
10767SOL    HW233201   2.514   0.556   0.914
10768SOL     OW33202   5.887   5.022   1.604
10768SOL    HW133203   5.917   4.932   1.573
10768SOL    HW233204   5.966   5.081   1.617
10769SOL     OW33205   1.773   3.692   5.731
10769SOL    HW133206   1.687   3.653   5.700
10769SOL    HW233207   1.755   3.763   5.800
10770SOL     OW33208   5.190   6.126   3.591
10770SOL    HW133209   5.210   6.173   3.506
10770SOL    HW233210   5.181   6.193   3.665
10771SOL     OW33211   4.159   0.172   3.770
10771SOL    HW133212   4.201   0.100   3.826
10771SOL    HW233213   4.143   0.136   3.678
10772SOL     OW33214   5.858   6.287   4.053
10772SOL    HW133215   5.782   6.302   3.990
10772SOL    HW233216   5.865   6.364   4.116
10773SOL     OW33217   5.821   4.570   5.853
10773SOL    HW133218   5.875   4.603   5.930
10773SOL    HW233219   5.869   4.495   5.808
10774SOL     OW33220   1.836   1.328   4.724
10774SOL    HW133221   1.790   1.258   4.779
10774SOL    HW233222   1.837   1.299   4.628
10775SOL     OW33223   0.156   4.408   2.030
10775SOL    HW133224   0.224   4.453   2.088
10775SOL    HW233225   0.179   4.425   1.934
10776SOL     OW33226   0.827   0.727   6.413
10776SOL    HW133227   0.864   0.759   6.500
10776SOL    HW233228   0.847   0.630   6.402
10777SOL     OW33229   3.963   5.316   1.041
10777SOL    HW133230   3.923   5.400   1.004
10777SOL    HW233231   3.918   5.236   0.999
10778SOL     OW33232   4.973   0.283   3.605
10778SOL    HW133233   4.913   0.272   3.685
10778SOL    HW233234   5.068   0.271   3.633
10779SOL     OW33235   5.864   2.926   2.822
10779SOL    HW133236   5.831   2.919   2.916
10779SOL    HW233237   5.902   3.018   2.807
10780SOL     OW33238   0.982   1.034   4.013
10780SOL    HW133239   0.895   1.056   3.968
10780SOL    HW233240   1.030   0.963   3.961
10781SOL     OW33241   3.924   1.215   3.568
10781SOL    HW133242   3.918   1.290   3.633
10781SOL    HW233243   3.958   1.249   3.481
10782SOL     OW33244   6.755   0.195   4.002
10782SOL    HW133245   6.840   0.164   4.045
10782SOL    HW233246   6.760   0.179   3.904
10783SOL     OW33247   0.141   3.057   2.663
10783SOL    HW133248   0.149   3.078   2.565
10783SOL    HW233249   0.088   3.128   2.708
10784SOL     OW33250   3.536   0.972   4.084
10784SOL    HW133251   3.499   1.026   4.159
10784SOL    HW233252   3.468   0.904   4.055
10785SOL     OW33253   1.121   3.690   0.591
10785SOL    HW133254   1.207   3.639   0.596
10785SOL    HW233255   1.102   3.713   0.496
10786SOL     OW33256   5.961   5.838   2.688
10786SOL    HW133257   5.907   5.921   2.678
10786SOL    HW233258   5.919   5.764   2.636
10787SOL     OW33259   0.595   0.306   4.951
10787SOL    HW133260   0.642   0.279   5.036
10787SOL    HW233261   0.597   0.405   4.942
10788SOL     OW33262   0.752   3.457   0.823
10788SOL    HW133263   0.745   3.494   0.730
10788SOL    HW233264   0.780   3.529   0.886
10789SOL     OW33265   6.227   3.257   0.060
10789SOL    HW133266   6.187   3.296   0.143
10789SOL    HW233267   6.327   3.262   0.066
10790SOL     OW33268   0.573   6.420   1.729
10790SOL    HW133269   0.640   6.491   1.707
10790SOL    HW233270   0.490   6.462   1.764
10791SOL     OW33271   6.885   6.361   2.162
10791SOL    HW133272   6.919   6.372   2.068
10791SOL    HW233273   6.827   6.439   2.186
10792SOL     OW33274   3.401   3.098   5.320
10792SOL    HW133275   3.435   3.010   5.354
10792SOL    HW233276   3.475   3.147   5.275
10793SOL     OW33277   6.037   3.556   5.491
10793SOL    HW133278   6.067   3.481   5.549
10793SOL    HW233279   5.938   3.570   5.501
10794SOL     OW33280   3.762   3.518   4.512
10794SOL    HW133281   3.783   3.616   4.506
10794SOL    HW233282   3.843   3.468   4.540
10795SOL     OW33283   0.272   5.165   3.006
10795SOL    HW133284   0.308   5.159   2.913
10795SOL    HW233285   0.340   5.130   3.070
10796SOL     OW33286   6.341   6.413   5.513
10796SOL    HW133287   6.384   6.326   5.539
10796SOL    HW233288   6.408   6.486   5.523
10797SOL     OW33289   3.889   3.036   0.901
10797SOL    HW133290   3.791   3.056   0.914
10797SOL    HW233291   3.920   2.975   0.974
10798SOL     OW33292   2.110   1.679   0.383
10798SOL    HW133293   2.179   1.646   0.447
10798SOL    HW233294   2.073   1.766   0.417
10799SOL     OW33295   4.448   0.442   2.618
10799SOL    HW133296   4.469   0.345   2.602
10799SOL    HW233297   4.392   0.476   2.543
10800SOL     OW33298   0.807   6.163   6.738
10800SOL    HW133299   0.887   6.216   6.766
10800SOL    HW233300   0.837   6.091   6.674
10801SOL     OW33301   1.404   6.814   0.752
10801SOL    HW133302   1.345   6.768   0.819
10801SOL    HW233303   1.398   6.913   0.765
10802SOL     OW33304   0.284   6.398   2.892
10802SOL    HW133305   0.264   6.487   2.932
10802SOL    HW233306   0.334   6.410   2.806
10803SOL     OW33307   1.739   5.909   6.142
10803SOL    HW133308   1.658   5.852   6.150
10803SOL    HW233309   1.753   5.934   6.046
10804SOL     OW33310   6.910   2.911   3.263
10804SOL    HW133311   6.830   2.969   3.272
10804SOL    HW233312   6.906   2.837   3.331
10805SOL     OW33313   5.849   1.333   4.911
10805SOL    HW133314   5.807   1.249   4.946
10805SOL    HW233315   5.872   1.393   4.987
10806SOL     OW33316   3.292   5.266   6.598
10806SOL    HW133317   3.228   5.339   6.574
10806SOL    HW233318   3.383   5.305   6.615
10807SOL     OW33319   1.474   5.460   4.130
10807SOL    HW133320   1.431   5.414   4.052
10807SOL    HW233321   1.403   5.492   4.193
10808SOL     OW33322   0.344   3.082   6.179
10808SOL    HW133323   0.293   3.087   6.092
10808SOL    HW233324   0.378   2.988   6.191
10809SOL     OW33325   1.644   3.909   4.312
10809SOL    HW133326   1.679   4.000   4.288
10809SOL    HW233327   1.715   3.857   4.359
10810SOL     OW33328   6.469   0.269   3.681
10810SOL    HW133329   6.450   0.185   3.630
10810SOL    HW233330   6.551   0.312   3.645
10811SOL     OW33331   4.657   5.265   4.739
10811SOL    HW133332   4.558   5.249   4.745
10811SOL    HW233333   4.673   5.351   4.690
10812SOL     OW33334   6.518   3.196   6.708
10812SOL    HW133335   6.474   3.280   6.676
10812SOL    HW233336   6.599   3.176   6.652
10813SOL     OW33337   0.232   3.756   6.402
10813SOL    HW133338   0.278   3.713   6.324
10813SOL    HW233339   0.262   3.712   6.487
10814SOL     OW33340   2.624   6.868   1.042
10814SOL    HW133341   2.612   6.908   0.951
10814SOL    HW233342   2.541   6.882   1.096
10815SOL     OW33343   5.469   1.621   3.123
10815SOL    HW133344   5.506   1.535   3.087
10815SOL    HW233345   5.375   1.606   3.154
10816SOL     OW33346   3.473   2.836   3.105
10816SOL    HW133347   3.552   2.868   3.158
10816SOL    HW233348   3.474   2.736   3.101
10817SOL     OW33349   3.265   0.630   3.516
10817SOL    HW133350   3.167   0.638   3.494
10817SOL    HW233351   3.306   0.721   3.517
10818SOL     OW33352   4.413   5.332   5.591
10818SOL    HW133353   4.400   5.430   5.577
10818SOL    HW233354   4.362   5.282   5.521
10819SOL     OW33355   6.262   5.155   6.137
10819SOL    HW133356   6.348   5.130   6.181
10819SOL    HW233357   6.253   5.255   6.135
10820SOL     OW33358   0.577   5.707   5.414
10820SOL    HW133359   0.576   5.659   5.502
10820SOL    HW233360   0.665   5.690   5.368
10821SOL     OW33361   4.658   5.322   2.933
10821SOL    HW133362   4.648   5.359   2.841
10821SOL    HW233363   4.651   5.396   3.000
10822SOL     OW33364   5.351   2.711   1.380
10822SOL    HW133365   5.352   2.808   1.357
10822SOL    HW233366   5.443   2.683   1.408
10823SOL     OW33367   0.398   0.102   3.341
10823SOL    HW133368   0.420   0.010   3.310
10823SOL    HW233369   0.350   0.151   3.267
10824SOL     OW33370   0.927   1.169   3.411
10824SOL    HW133371   0.979   1.216   3.483
10824SOL    HW233372   0.989   1.111   3.358
10825SOL     OW33373   1.334   2.489   0.910
10825SOL    HW133374   1.323   2.572   0.855
10825SOL    HW233375   1.415   2.439   0.880
10826SOL     OW33376   0.824   1.881   2.689
10826SOL    HW133377   0.785   1.791   2.669
10826SOL    HW233378   0.907   1.870   2.743
10827SOL     OW33379   6.467   3.744   5.096
10827SOL    HW133380   6.446   3.652   5.062
10827SOL    HW233381   6.430   3.755   5.188
10828SOL     OW33382   6.481   3.532   0.014
10828SOL    HW133383   6.547   3.531   0.090
10828SOL    HW233384   6.503   3.458   6.974
10829SOL     OW33385   4.498   3.455   6.652
10829SOL    HW133386   4.424   3.504   6.607
10829SOL    HW233387   4.581   3.463   6.597
10830SOL     OW33388   4.660   1.508   4.011
10830SOL    HW133389   4.573   1.459   4.020
10830SOL    HW233390   4.682   1.553   4.098
10831SOL     OW33391   3.823   0.693   2.114
10831SOL    HW133392   3.743   0.648   2.153
10831SOL    HW233393   3.802   0.723   2.020
10832SOL     OW33394   6.893   3.352   7.008
10832SOL    HW133395   6.918   3.328   6.914
10832SOL    HW233396   6.859   3.446   7.010
10833SOL     OW33397   0.105   2.321   0.943
10833SOL    HW133398   0.074   2.264   0.868
10833SOL    HW233399   0.045   2.307   1.022
10834SOL     OW33400   6.723   0.532   0.774
10834SOL    HW133401   6.628   0.564   0.769
10834SOL    HW233402   6.729   0.438   0.742
10835SOL     OW33403   5.240   3.085   0.324
10835SOL    HW133404   5.321   3.067   0.380
10835SOL    HW233405   5.160   3.092   0.384
10836SOL     OW33406   1.283   0.818   2.679
10836SOL    HW133407   1.361   0.794   2.736
10836SOL    HW233408   1.271   0.749   2.607
10837SOL     OW33409   6.195   4.517   2.042
10837SOL    HW133410   6.194   4.543   1.945
10837SOL    HW233411   6.101   4.503   2.073
10838SOL     OW33412   5.236   6.235   3.356
10838SOL    HW133413   5.171   6.245   3.281
10838SOL    HW233414   5.279   6.323   3.375
10839SOL     OW33415   4.527   3.173   7.022
10839SOL    HW133416   4.562   3.228   0.075
10839SOL    HW233417   4.581   3.193   6.940
10840SOL     OW33418   3.135   0.515   2.152
10840SOL    HW133419   3.168   0.607   2.131
10840SOL    HW233420   3.042   0.505   2.118
10841SOL     OW33421   6.956   5.342   4.692
10841SOL    HW133422   0.013   5.396   4.713
10841SOL    HW233423   6.968   5.296   4.604
10842SOL     OW33424   4.136   3.222   1.984
10842SOL    HW133425   4.084   3.280   2.047
10842SOL    HW233426   4.116   3.126   2.004
10843SOL     OW33427   2.228   1.852   1.070
10843SOL    HW133428   2.299   1.801   1.118
10843SOL    HW233429   2.178   1.910   1.135
10844SOL     OW33430   0.676   5.674   4.675
10844SOL    HW133431   0.681   5.702   4.771
10844SOL    HW233432   0.692   5.575   4.668
10845SOL     OW33433   4.544   6.072   4.992
10845SOL    HW133434   4.449   6.097   4.973
10845SOL    HW233435   4.551   5.972   4.998
10846SOL     OW33436   5.758   6.371   6.867
10846SOL    HW133437   5.844   6.323   6.854
10846SOL    HW233438   5.682   6.312   6.841
10847SOL     OW33439   2.042   1.679   6.964
10847SOL    HW133440   1.967   1.613   6.974
10847SOL    HW233441   2.122   1.632   6.926
10848SOL     OW33442   1.054   3.823   1.056
10848SOL    HW133443   1.074   3.838   0.959
10848SOL    HW233444   1.128   3.861   1.112
10849SOL     OW33445   2.598   4.666   4.125
10849SOL    HW133446   2.518   4.681   4.068
10849SOL    HW233447   2.575   4.599   4.197
10850SOL     OW33448   4.553   6.614   0.316
10850SOL    HW133449   4.610   6.592   0.396
10850SOL    HW233450   4.505   6.532   0.286
10851SOL     OW33451   3.058   4.271   1.731
10851SOL    HW133452   3.030   4.355   1.777
10851SOL    HW233453   2.978   4.216   1.709
10852SOL     OW33454   1.945   1.220   0.172
10852SOL    HW133455   1.941   1.235   0.073
10852SOL    HW233456   2.003   1.290   0.214
10853SOL     OW33457   2.317   2.997   6.285
10853SOL    HW133458   2.341   2.906   6.318
10853SOL    HW233459   2.356   3.010   6.193
10854SOL     OW33460   4.120   5.680   4.704
10854SOL    HW133461   4.099   5.735   4.624
10854SOL    HW233462   4.092   5.729   4.787
10855SOL     OW33463   3.682   1.216   0.754
10855SOL    HW133464   3.742   1.148   0.711
10855SOL    HW233465   3.730   1.303   0.760
10856SOL     OW33466   6.865   0.358   6.205
10856SOL    HW133467   6.964   0.357   6.217
10856SOL    HW233468   6.826   0.272   6.237
10857SOL     OW33469   0.144   1.636   2.504
10857SOL    HW133470   0.134   1.735   2.516
10857SOL    HW233471   0.235   1.608   2.532
10858SOL     OW33472   2.597   6.265   1.632
10858SOL    HW133473   2.618   6.198   1.703
10858SOL    HW233474   2.670   6.333   1.628
10859SOL     OW33475   0.103   4.811   4.437
10859SOL    HW133476   0.057   4.816   4.349
10859SOL    HW233477   0.062   4.877   4.500
10860SOL     OW33478   6.942   3.557   3.123
10860SOL    HW133479   6.920   3.654   3.132
10860SOL    HW233480   0.013   3.541   3.149
10861SOL     OW33481   2.954   3.177   3.559
10861SOL    HW133482   2.870   3.124   3.567
10861SOL    HW233483   3.021   3.127   3.505
10862SOL     OW33484   2.270   0.955   5.585
10862SOL    HW133485   2.250   1.033   5.525
10862SOL    HW233486   2.220   0.874   5.553
10863SOL     OW33487   2.380   6.723   4.534
10863SOL    HW133488   2.335   6.664   4.467
10863SOL    HW233489   2.315   6.791   4.567
10864SOL     OW33490   3.541   6.731   1.918
10864SOL    HW133491   3.494   6.817   1.899
10864SOL    HW233492   3.483   6.674   1.976
10865SOL     OW33493   6.296   0.986   6.707
10865SOL    HW133494   6.385   0.968   6.749
10865SOL    HW233495   6.237   0.905   6.718
10866SOL     OW33496   4.926   4.468   6.688
10866SOL    HW133497   4.926   4.416   6.602
10866SOL    HW233498   4.845   4.527   6.692
10867SOL     OW33499   3.108   4.761   0.885
10867SOL    HW133500   3.136   4.857   0.890
10867SOL    HW233501   3.012   4.753   0.912
10868SOL     OW33502   4.540   1.871   3.547
10868SOL    HW133503   4.481   1.895   3.470
10868SOL    HW233504   4.608   1.804   3.518
10869NA      NA33505   6.050   2.150   5.679
10870NA      NA33506   4.321   4.706   5.140
10871NA      NA33507   1.878   3.601   1.513
10872NA      NA33508   4.944   3.487   5.427
10873NA      NA33509   4.200   2.207   4.987
10874NA      NA33510   3.768   4.717   1.740
10875NA      NA33511   6.553   5.366   5.257
10876NA      NA33512   3.410   3.438   4.811
10877NA      NA33513   5.041   6.421   6.669
10878NA      NA33514   3.430   6.560   5.459
10879NA      NA33515   6.763   5.213   2.163
10880NA      NA33516   2.347   0.535   3.900
10881NA      NA33517   4.050   5.244   1.260
10882NA      NA33518   3.635   3.546   2.446
   7.02369   7.02369   7.02369
